                         Program Version 6.0.0  -   RELEASE  -
|  1> ! pbe def2-sv(p) def2/J RI DEFGRID1 loosescf d4 GCP(DFT/SV(P)) printgap
|  2> %output
|  3>     printlevel normal
|  4> end
|  5> * xyz 0 1
|  6> C 2.1524238125 -2.0134045609 -2.6282974842
|  7> C 2.5615138821 -0.5565867335 -2.5234141405
|  8> O 3.2152118252 -0.2752120581 -1.2738556072
|  9> P 2.450492657 0.1903957983 0.0312483791
| 10> S 1.1350341229 1.6296442505 -0.218617176
| 11> O 3.7576284405 0.5766886818 0.8330946606
| 12> C 3.7320589021 1.4377894677 1.9845388123
| 13> C 2.9655849471 0.8344886828 3.1451642768
| 14> S 1.7550082333 -1.5947466518 0.9646914534
| 15> C -0.0135005805 -1.2548282761 1.083065009
| 16> S -0.8658197835 -1.3481674635 -0.5361494574
| 17> P -2.4223463857 0.0617639286 -0.2072519304
| 18> S -2.2232789829 1.2347623659 1.3578240056
| 19> O -3.7724183191 -0.7676924472 -0.2231132846
| 20> C -4.440209639 -1.1942046457 0.9737223524
| 21> C -3.6792991749 -2.296243627 1.6846705187
| 22> O -2.6559830812 0.6923754975 -1.6388018733
| 23> C -1.7049740616 1.4576268175 -2.3937058219
| 24> C -1.7236842925 2.919014402 -1.9913351949
| 25> H 1.8090827506 -2.2128753819 -3.6382619363
| 26> H 3.0026073105 -2.6515996357 -2.4043748603
| 27> H 1.346560112 -2.2423036156 -1.9334924365
| 28> H 1.6980535942 0.1092553898 -2.6325124364
| 29> H 3.3085731362 -0.302584956 -3.2779024061
| 30> H 4.7866911479 1.5741331195 2.2282294353
| 31> H 3.293574291 2.3975461917 1.6922433801
| 32> H 3.1025691065 1.4546365018 4.0254653559
| 33> H 1.9018373204 0.7933340668 2.9114376245
| 34> H 3.322295925 -0.1713667434 3.3522406545
| 35> H -0.1899890273 -0.2567964178 1.4932044247
| 36> H -0.406547257 -2.0295478247 1.7366127878
| 37> H -4.5693495206 -0.3291807199 1.6323877433
| 38> H -5.4128079478 -1.5391859097 0.6202220811
| 39> H -4.2910424178 -2.6977489272 2.4861698988
| 40> H -3.4305990233 -3.0920916441 0.9869664391
| 41> H -2.7626320834 -1.89130921 2.111480309
| 42> H -0.7052983605 1.0349563914 -2.2587253616
| 43> H -2.0215305478 1.3258810413 -3.4301672879
| 44> H -2.7352588898 3.3111397779 -2.0498414892
| 45> H -1.3586001721 3.0321429458 -0.9717452042
| 46> H -1.0752884835 3.4823928027 -2.6545131423
| 47> *
| 48>
| 49>                          ****END OF INPUT****

CARTESIAN COORDINATES (ANGSTROEM)
---------------------------------
  C      2.152424   -2.013405   -2.628297
  C      2.561514   -0.556587   -2.523414
  O      3.215212   -0.275212   -1.273856
  P      2.450493    0.190396    0.031248
  S      1.135034    1.629644   -0.218617
  O      3.757628    0.576689    0.833095
  C      3.732059    1.437789    1.984539
  C      2.965585    0.834489    3.145164
  S      1.755008   -1.594747    0.964691
  C     -0.013501   -1.254828    1.083065
  S     -0.865820   -1.348167   -0.536149
  P     -2.422346    0.061764   -0.207252
  S     -2.223279    1.234762    1.357824
  O     -3.772418   -0.767692   -0.223113
  C     -4.440210   -1.194205    0.973722
  C     -3.679299   -2.296244    1.684671
  O     -2.655983    0.692375   -1.638802
  C     -1.704974    1.457627   -2.393706
  C     -1.723684    2.919014   -1.991335
  H      1.809083   -2.212875   -3.638262
  H      3.002607   -2.651600   -2.404375
  H      1.346560   -2.242304   -1.933492
  H      1.698054    0.109255   -2.632512
  H      3.308573   -0.302585   -3.277902
  H      4.786691    1.574133    2.228229
  H      3.293574    2.397546    1.692243
  H      3.102569    1.454637    4.025465
  H      1.901837    0.793334    2.911438
  H      3.322296   -0.171367    3.352241
  H     -0.189989   -0.256796    1.493204
  H     -0.406547   -2.029548    1.736613
  H     -4.569350   -0.329181    1.632388
  H     -5.412808   -1.539186    0.620222
  H     -4.291042   -2.697749    2.486170
  H     -3.430599   -3.092092    0.986966
  H     -2.762632   -1.891309    2.111480
  H     -0.705298    1.034956   -2.258725
  H     -2.021531    1.325881   -3.430167
  H     -2.735259    3.311140   -2.049841
  H     -1.358600    3.032143   -0.971745
  H     -1.075288    3.482393   -2.654513

 Total Charge           Charge          ....    0
 Multiplicity           Mult            ....    1
 Number of Electrons    NEL             ....  202
 Basis Dimension        Dim             ....  334

ORBITAL ENERGIES
----------------

  NO   OCC          E(Eh)            E(eV)
   0   2.0000     -88.049939     -2395.9606
   1   2.0000     -88.043527     -2395.7862
   2   2.0000     -87.991481     -2394.3699
   3   2.0000     -87.988424     -2394.2867
   4   2.0000     -76.429272     -2079.7462
   5   2.0000     -76.425983     -2079.6567
   6   2.0000     -18.791588      -511.3451
   7   2.0000     -18.790176      -511.3067
   8   2.0000     -18.788975      -511.2740
   9   2.0000     -18.784192      -511.1439
  10   2.0000      -9.957777      -270.9649
  11   2.0000      -9.954351      -270.8717
  12   2.0000      -9.954086      -270.8645
  13   2.0000      -9.949974      -270.7525
  14   2.0000      -9.948012      -270.6992
  15   2.0000      -9.886278      -269.0193
  16   2.0000      -9.885715      -269.0040
  17   2.0000      -9.882877      -268.9268
  18   2.0000      -9.874756      -268.7058
  19   2.0000      -7.694713      -209.3838
  20   2.0000      -7.687941      -209.1995
  21   2.0000      -7.636094      -207.7887
  22   2.0000      -7.633166      -207.7090
  23   2.0000      -6.426694      -174.8792
  24   2.0000      -6.423070      -174.7806
  25   2.0000      -5.722672      -155.7218
  26   2.0000      -5.719052      -155.6233
  27   2.0000      -5.715788      -155.5345
  28   2.0000      -5.712543      -155.4462
  29   2.0000      -5.711802      -155.4260
  30   2.0000      -5.704989      -155.2407
  31   2.0000      -5.664904      -154.1499
  32   2.0000      -5.661991      -154.0706
  33   2.0000      -5.656787      -153.9290
  34   2.0000      -5.656337      -153.9168
  35   2.0000      -5.653808      -153.8480
  36   2.0000      -5.653422      -153.8374
  37   2.0000      -4.648841      -126.5014
  38   2.0000      -4.648746      -126.4988
  39   2.0000      -4.647211      -126.4571
  40   2.0000      -4.645365      -126.4068
  41   2.0000      -4.645026      -126.3976
  42   2.0000      -4.643642      -126.3599
  43   2.0000      -0.990371       -26.9494
  44   2.0000      -0.986190       -26.8356
  45   2.0000      -0.945812       -25.7369
  46   2.0000      -0.940937       -25.6042
  47   2.0000      -0.763000       -20.7623
  48   2.0000      -0.721553       -19.6344
  49   2.0000      -0.712287       -19.3823
  50   2.0000      -0.684500       -18.6262
  51   2.0000      -0.681948       -18.5568
  52   2.0000      -0.677604       -18.4385
  53   2.0000      -0.654340       -17.8055
  54   2.0000      -0.637405       -17.3447
  55   2.0000      -0.605009       -16.4631
  56   2.0000      -0.596411       -16.2292
  57   2.0000      -0.569454       -15.4956
  58   2.0000      -0.566139       -15.4054
  59   2.0000      -0.564290       -15.3551
  60   2.0000      -0.499054       -13.5800
  61   2.0000      -0.495176       -13.4744
  62   2.0000      -0.470156       -12.7936
  63   2.0000      -0.467186       -12.7128
  64   2.0000      -0.454358       -12.3637
  65   2.0000      -0.447985       -12.1903
  66   2.0000      -0.440260       -11.9801
  67   2.0000      -0.433040       -11.7836
  68   2.0000      -0.422328       -11.4921
  69   2.0000      -0.419419       -11.4130
  70   2.0000      -0.414781       -11.2868
  71   2.0000      -0.402366       -10.9489
  72   2.0000      -0.396682       -10.7943
  73   2.0000      -0.390650       -10.6301
  74   2.0000      -0.388393       -10.5687
  75   2.0000      -0.374676       -10.1955
  76   2.0000      -0.367441        -9.9986
  77   2.0000      -0.355179        -9.6649
  78   2.0000      -0.352577        -9.5941
  79   2.0000      -0.350001        -9.5240
  80   2.0000      -0.346733        -9.4351
  81   2.0000      -0.343556        -9.3486
  82   2.0000      -0.338734        -9.2174
  83   2.0000      -0.337239        -9.1767
  84   2.0000      -0.329546        -8.9674
  85   2.0000      -0.317220        -8.6320
  86   2.0000      -0.312073        -8.4919
  87   2.0000      -0.300296        -8.1715
  88   2.0000      -0.295450        -8.0396
  89   2.0000      -0.290120        -7.8946
  90   2.0000      -0.286215        -7.7883
  91   2.0000      -0.271099        -7.3770
  92   2.0000      -0.267973        -7.2919
  93   2.0000      -0.263247        -7.1633
  94   2.0000      -0.259328        -7.0567
  95   2.0000      -0.238671        -6.4946
  96   2.0000      -0.222258        -6.0479
  97   2.0000      -0.216867        -5.9012
  98   2.0000      -0.205567        -5.5938
  99   2.0000      -0.201602        -5.4859
 100   2.0000      -0.194842        -5.3019
 101   0.0000      -0.048722        -1.3258
 102   0.0000      -0.038404        -1.0450
 103   0.0000      -0.018576        -0.5055
 104   0.0000       0.002029         0.0552
 105   0.0000       0.011746         0.3196

MULLIKEN ATOMIC CHARGES
-----------------------
   0 C :   -0.308905
   1 C :   -0.018607
   2 O :   -0.354001
   3 P :    0.605683
   4 S :   -0.326628
   5 O :   -0.357832
   6 C :    0.002615
   7 C :   -0.329221
   8 S :   -0.106725
   9 C :   -0.370848
  10 S :   -0.122491
  11 P :    0.620045
  12 S :   -0.321166
  13 O :   -0.358053
  14 C :    0.001649
  15 C :   -0.324971
  16 O :   -0.355272
  17 C :   -0.041372
  18 C :   -0.302170
  19 H :    0.108349
  20 H :    0.115126
  21 H :    0.135995
  22 H :    0.118828
  23 H :    0.107580
  24 H :    0.108403
  25 H :    0.113957
  26 H :    0.115009
  27 H :    0.134706
  28 H :    0.121264
  29 H :    0.223312
  30 H :    0.190236
  31 H :    0.112308
  32 H :    0.106257
  33 H :    0.112682
  34 H :    0.120989
  35 H :    0.119559
  36 H :    0.140307
  37 H :    0.102119
  38 H :    0.114273
  39 H :    0.140210
  40 H :    0.106798
Sum of atomic charges:   -0.0000000

LOEWDIN ATOMIC CHARGES
----------------------
   0 C :   -0.366044
   1 C :   -0.116036
   2 O :   -0.234937
   3 P :    0.568709
   4 S :   -0.295586
   5 O :   -0.235171
   6 C :   -0.114903
   7 C :   -0.370767
   8 S :    0.087471
   9 C :   -0.481561
  10 S :    0.065694
  11 P :    0.568891
  12 S :   -0.299553
  13 O :   -0.237575
  14 C :   -0.118733
  15 C :   -0.368119
  16 O :   -0.228424
  17 C :   -0.121936
  18 C :   -0.362953
  19 H :    0.129573
  20 H :    0.126751
  21 H :    0.110716
  22 H :    0.106371
  23 H :    0.120329
  24 H :    0.120750
  25 H :    0.112991
  26 H :    0.132008
  27 H :    0.122760
  28 H :    0.124710
  29 H :    0.121380
  30 H :    0.132302
  31 H :    0.109682
  32 H :    0.119670
  33 H :    0.130836
  34 H :    0.126330
  35 H :    0.117927
  36 H :    0.100986
  37 H :    0.116886
  38 H :    0.125949
  39 H :    0.123592
  40 H :    0.129035

  Mayer bond orders larger than 0.100000
B(  0-C ,  1-C ) :   1.1686 B(  0-C , 19-H ) :   0.9391 B(  0-C , 20-H ) :   0.9449
B(  0-C , 21-H ) :   0.9288 B(  1-C ,  2-O ) :   0.9141 B(  1-C , 22-H ) :   0.9042
B(  1-C , 23-H ) :   0.9338 B(  2-O ,  3-P ) :   1.1305 B(  3-P ,  4-S ) :   1.6154
B(  3-P ,  5-O ) :   1.1312 B(  3-P ,  8-S ) :   0.9302 B(  4-S ,  8-S ) :   0.1201
B(  5-O ,  6-C ) :   0.9127 B(  6-C ,  7-C ) :   1.1634 B(  6-C , 24-H ) :   0.9344
B(  6-C , 25-H ) :   0.9198 B(  7-C , 26-H ) :   0.9366 B(  7-C , 27-H ) :   0.9348
B(  7-C , 28-H ) :   0.9421 B(  8-S ,  9-C ) :   1.0165 B(  9-C , 10-S ) :   0.9886
B(  9-C , 29-H ) :   0.8434 B(  9-C , 30-H ) :   0.8934 B( 10-S , 11-P ) :   0.9439
B( 10-S , 12-S ) :   0.1232 B( 11-P , 12-S ) :   1.6041 B( 11-P , 13-O ) :   1.1144
B( 11-P , 16-O ) :   1.1429 B( 13-O , 14-C ) :   0.9237 B( 14-C , 15-C ) :   1.1592
B( 14-C , 31-H ) :   0.9144 B( 14-C , 32-H ) :   0.9339 B( 15-C , 33-H ) :   0.9381
B( 15-C , 34-H ) :   0.9452 B( 15-C , 35-H ) :   0.9319 B( 16-O , 17-C ) :   0.9090
B( 17-C , 18-C ) :   1.1704 B( 17-C , 36-H ) :   0.8978 B( 17-C , 37-H ) :   0.9342
B( 18-C , 38-H ) :   0.9463 B( 18-C , 39-H ) :   0.9327 B( 18-C , 40-H ) :   0.9392

Dispersion correction           -0.066806924
FINAL SINGLE POINT ENERGY     -2929.521431355216

DIPOLE MOMENT
-------------

Method             : SCF
Type of density    : Electron Density
Multiplicity       :   1
Irrep              :   0
Energy             : -2929.6383927233164286 Eh
Relativity type    :
Basis              : AO
                                X                 Y                 Z
Electronic contribution:      1.553567579       0.430219608      -0.145752459
Nuclear contribution   :     -1.312660620      -1.065138848       0.101345210
                        -----------------------------------------
Total Dipole Moment    :      0.240906959      -0.634919240      -0.044407249
                        -----------------------------------------
Magnitude (a.u.)       :      0.680537000
Magnitude (Debye)      :      1.729787586

Rotational constants in cm-1:             0.011142             0.005298             0.005068
Rotational constants in MHz :           334.016950           158.833921           151.944680

                             ****ORCA TERMINATED NORMALLY****
TOTAL RUN TIME: 0 days 0 hours 0 minutes 21 seconds 760 msec
