                         Program Version 6.0.1  -  RELEASE   -
|  1> ! pbe def2-sv(p) def2/J RI DEFGRID1 loosescf d4 GCP(DFT/SV(P)) printgap
|  2> %output
|  3>     printlevel normal
|  4> end
|  5> * xyz 0 1
|  6> C 3.9877494341 -2.7945809103 0.3867211514
|  7> C 2.4768670969 -2.7876855625 0.2220275776
|  8> O 2.0812488804 -1.945472214 -0.8778097564
|  9> C 1.9693467538 -0.652696205 -0.6803045881
| 10> O 2.149658251 -0.0840188857 0.3786540547
| 11> C 1.577895952 0.0899341503 -1.9442062316
| 12> C 0.3581582501 0.9748060057 -1.6713944208
| 13> H 0.2523449454 1.7190951917 -2.4637440112
| 14> C 0.4813244646 1.676890975 -0.333554008
| 15> O -0.3012685299 1.4618108656 0.5804412701
| 16> O 1.4356981687 2.5521980864 -0.307798412
| 17> C 1.7066423577 3.2300383436 0.9397537611
| 18> C 2.6881405619 4.3485865548 0.6558532401
| 19> S -1.1999459535 0.0240606674 -1.6817425161
| 20> P -1.6660488928 -0.4452938862 0.332118278
| 21> S -0.5576167597 -1.2548783496 1.729088165
| 22> O -2.7147754911 0.5949648073 0.9527650877
| 23> C -3.7197731011 1.2304112453 0.146496271
| 24> O -2.6549115805 -1.5913595016 -0.2890462779
| 25> C -3.3893353769 -2.4715271283 0.5575987756
| 26> H 4.2552557957 -3.4933501887 1.1721513898
| 27> H 4.4636597692 -3.0961328541 -0.5423460856
| 28> H 4.3378952173 -1.8029906972 0.6641627349
| 29> H 1.9799981677 -2.4318991064 1.1302061412
| 30> H 2.0977928621 -3.7735279036 -0.0468053428
| 31> H 1.3615199403 -0.6185317129 -2.7418007324
| 32> H 2.4187831032 0.7269653417 -2.2260591057
| 33> H 0.7604840845 3.6002132841 1.3457556225
| 34> H 2.1142560449 2.4854367111 1.6305551751
| 35> H 2.915501593 4.8643473542 1.5826490321
| 36> H 3.6040583832 3.941418678 0.2395186913
| 37> H 2.2597541195 5.0528354149 -0.0507820954
| 38> H -4.0634558083 0.5582196365 -0.6413745953
| 39> H -3.3077949569 2.1381398652 -0.2934607222
| 40> H -4.5314644081 1.4729679192 0.8285067769
| 41> H -3.830839422 -3.2135383126 -0.102941578
| 42> H -4.1644689908 -1.9261080847 1.0980741702
| 43> H -2.7167545444 -2.9476347303 1.2742146233
| 44> *
| 45>
| 46>                          ****END OF INPUT****

CARTESIAN COORDINATES (ANGSTROEM)
---------------------------------
  C      3.987749   -2.794581    0.386721
  C      2.476867   -2.787686    0.222028
  O      2.081249   -1.945472   -0.877810
  C      1.969347   -0.652696   -0.680305
  O      2.149658   -0.084019    0.378654
  C      1.577896    0.089934   -1.944206
  C      0.358158    0.974806   -1.671394
  H      0.252345    1.719095   -2.463744
  C      0.481324    1.676891   -0.333554
  O     -0.301269    1.461811    0.580441
  O      1.435698    2.552198   -0.307798
  C      1.706642    3.230038    0.939754
  C      2.688141    4.348587    0.655853
  S     -1.199946    0.024061   -1.681743
  P     -1.666049   -0.445294    0.332118
  S     -0.557617   -1.254878    1.729088
  O     -2.714775    0.594965    0.952765
  C     -3.719773    1.230411    0.146496
  O     -2.654912   -1.591360   -0.289046
  C     -3.389335   -2.471527    0.557599
  H      4.255256   -3.493350    1.172151
  H      4.463660   -3.096133   -0.542346
  H      4.337895   -1.802991    0.664163
  H      1.979998   -2.431899    1.130206
  H      2.097793   -3.773528   -0.046805
  H      1.361520   -0.618532   -2.741801
  H      2.418783    0.726965   -2.226059
  H      0.760484    3.600213    1.345756
  H      2.114256    2.485437    1.630555
  H      2.915502    4.864347    1.582649
  H      3.604058    3.941419    0.239519
  H      2.259754    5.052835   -0.050782
  H     -4.063456    0.558220   -0.641375
  H     -3.307795    2.138140   -0.293461
  H     -4.531464    1.472968    0.828507
  H     -3.830839   -3.213538   -0.102942
  H     -4.164469   -1.926108    1.098074
  H     -2.716755   -2.947635    1.274215

 Total Charge           Charge          ....    0
 Multiplicity           Mult            ....    1
 Number of Electrons    NEL             ....  174
 Basis Dimension        Dim             ....  316

ORBITAL ENERGIES
----------------

  NO   OCC          E(Eh)            E(eV)
   0   2.0000     -88.032773     -2395.4935
   1   2.0000     -87.956958     -2393.4305
   2   2.0000     -76.410843     -2079.2447
   3   2.0000     -18.818072      -512.0658
   4   2.0000     -18.804268      -511.6902
   5   2.0000     -18.770375      -510.7679
   6   2.0000     -18.761841      -510.5357
   7   2.0000     -18.758405      -510.4422
   8   2.0000     -18.739164      -509.9186
   9   2.0000     -10.028254      -272.8827
  10   2.0000     -10.012435      -272.4522
  11   2.0000      -9.953780      -270.8561
  12   2.0000      -9.952594      -270.8238
  13   2.0000      -9.938801      -270.4485
  14   2.0000      -9.936024      -270.3730
  15   2.0000      -9.923103      -270.0214
  16   2.0000      -9.916456      -269.8405
  17   2.0000      -9.893646      -269.2198
  18   2.0000      -9.882773      -268.9239
  19   2.0000      -7.677718      -208.9213
  20   2.0000      -7.602379      -206.8713
  21   2.0000      -6.405860      -174.3123
  22   2.0000      -5.706054      -155.2696
  23   2.0000      -5.701950      -155.1580
  24   2.0000      -5.694487      -154.9549
  25   2.0000      -5.631772      -153.2483
  26   2.0000      -5.623152      -153.0137
  27   2.0000      -5.621758      -152.9758
  28   2.0000      -4.629122      -125.9648
  29   2.0000      -4.627933      -125.9325
  30   2.0000      -4.626040      -125.8810
  31   2.0000      -1.030620       -28.0446
  32   2.0000      -1.010360       -27.4933
  33   2.0000      -0.959390       -26.1063
  34   2.0000      -0.934433       -25.4272
  35   2.0000      -0.917444       -24.9649
  36   2.0000      -0.913721       -24.8636
  37   2.0000      -0.766889       -20.8681
  38   2.0000      -0.715755       -19.4767
  39   2.0000      -0.705599       -19.2003
  40   2.0000      -0.683744       -18.6056
  41   2.0000      -0.652755       -17.7624
  42   2.0000      -0.627530       -17.0760
  43   2.0000      -0.612144       -16.6573
  44   2.0000      -0.598994       -16.2995
  45   2.0000      -0.593401       -16.1473
  46   2.0000      -0.559699       -15.2302
  47   2.0000      -0.518216       -14.1014
  48   2.0000      -0.500738       -13.6258
  49   2.0000      -0.497023       -13.5247
  50   2.0000      -0.485213       -13.2033
  51   2.0000      -0.459463       -12.5026
  52   2.0000      -0.457629       -12.4527
  53   2.0000      -0.452335       -12.3087
  54   2.0000      -0.436286       -11.8719
  55   2.0000      -0.433424       -11.7941
  56   2.0000      -0.421630       -11.4731
  57   2.0000      -0.413027       -11.2390
  58   2.0000      -0.407807       -11.0970
  59   2.0000      -0.399716       -10.8768
  60   2.0000      -0.398035       -10.8311
  61   2.0000      -0.390706       -10.6316
  62   2.0000      -0.384325       -10.4580
  63   2.0000      -0.382909       -10.4195
  64   2.0000      -0.372270       -10.1300
  65   2.0000      -0.365578        -9.9479
  66   2.0000      -0.358688        -9.7604
  67   2.0000      -0.354216        -9.6387
  68   2.0000      -0.350376        -9.5342
  69   2.0000      -0.336019        -9.1435
  70   2.0000      -0.329402        -8.9635
  71   2.0000      -0.325921        -8.8688
  72   2.0000      -0.319425        -8.6920
  73   2.0000      -0.313632        -8.5344
  74   2.0000      -0.306985        -8.3535
  75   2.0000      -0.291854        -7.9417
  76   2.0000      -0.289884        -7.8881
  77   2.0000      -0.276301        -7.5185
  78   2.0000      -0.265429        -7.2227
  79   2.0000      -0.258041        -7.0216
  80   2.0000      -0.252017        -6.8577
  81   2.0000      -0.248813        -6.7706
  82   2.0000      -0.234791        -6.3890
  83   2.0000      -0.226381        -6.1601
  84   2.0000      -0.213348        -5.8055
  85   2.0000      -0.178451        -4.8559
  86   2.0000      -0.169115        -4.6018
  87   0.0000      -0.040032        -1.0893
  88   0.0000      -0.033447        -0.9101
  89   0.0000      -0.026088        -0.7099
  90   0.0000       0.007580         0.2063
  91   0.0000       0.036523         0.9938

MULLIKEN ATOMIC CHARGES
-----------------------
   0 C :   -0.307581
   1 C :   -0.022474
   2 O :   -0.214298
   3 C :    0.102486
   4 O :   -0.200419
   5 C :   -0.026957
   6 C :   -0.298117
   7 H :    0.144418
   8 C :    0.226029
   9 O :   -0.203628
  10 O :   -0.216985
  11 C :   -0.030040
  12 C :   -0.277502
  13 S :   -0.082727
  14 P :    0.646137
  15 S :   -0.330212
  16 O :   -0.381681
  17 C :   -0.101075
  18 O :   -0.420924
  19 C :   -0.096481
  20 H :    0.114634
  21 H :    0.109123
  22 H :    0.123438
  23 H :    0.136812
  24 H :    0.103858
  25 H :    0.118024
  26 H :    0.122665
  27 H :    0.115330
  28 H :    0.129596
  29 H :    0.116491
  30 H :    0.118577
  31 H :    0.113574
  32 H :    0.115098
  33 H :    0.108539
  34 H :    0.122440
  35 H :    0.113076
  36 H :    0.098208
  37 H :    0.112550
Sum of atomic charges:    0.0000000

LOEWDIN ATOMIC CHARGES
----------------------
   0 C :   -0.357457
   1 C :   -0.112282
   2 O :   -0.040391
   3 C :    0.030401
   4 O :   -0.155432
   5 C :   -0.246690
   6 C :   -0.262298
   7 H :    0.146390
   8 C :    0.025044
   9 O :   -0.144262
  10 O :   -0.034661
  11 C :   -0.101265
  12 C :   -0.350603
  13 S :    0.113549
  14 P :    0.585329
  15 S :   -0.315601
  16 O :   -0.256169
  17 C :   -0.214492
  18 O :   -0.295686
  19 C :   -0.220626
  20 H :    0.131793
  21 H :    0.122068
  22 H :    0.128258
  23 H :    0.122497
  24 H :    0.119912
  25 H :    0.137214
  26 H :    0.146648
  27 H :    0.120877
  28 H :    0.129746
  29 H :    0.133808
  30 H :    0.128407
  31 H :    0.125774
  32 H :    0.106832
  33 H :    0.108874
  34 H :    0.120456
  35 H :    0.115540
  36 H :    0.103096
  37 H :    0.105401

  Mayer bond orders larger than 0.100000
B(  0-C ,  1-C ) :   1.1645 B(  0-C , 20-H ) :   0.9448 B(  0-C , 21-H ) :   0.9477
B(  0-C , 22-H ) :   0.9464 B(  1-C ,  2-O ) :   0.9044 B(  1-C , 23-H ) :   0.9054
B(  1-C , 24-H ) :   0.9389 B(  2-O ,  3-C ) :   1.2734 B(  3-C ,  4-O ) :   1.9495
B(  3-C ,  5-C ) :   0.9983 B(  4-O ,  8-C ) :   0.1142 B(  5-C ,  6-C ) :   1.0202
B(  5-C , 25-H ) :   0.9041 B(  5-C , 26-H ) :   0.8771 B(  6-C ,  7-H ) :   0.8766
B(  6-C ,  8-C ) :   0.9146 B(  6-C , 13-S ) :   1.0414 B(  8-C ,  9-O ) :   1.8713
B(  8-C , 10-O ) :   1.2796 B(  9-O , 14-P ) :   0.1833 B( 10-O , 11-C ) :   0.8876
B( 11-C , 12-C ) :   1.1547 B( 11-C , 27-H ) :   0.9287 B( 11-C , 28-H ) :   0.9267
B( 12-C , 29-H ) :   0.9429 B( 12-C , 30-H ) :   0.9487 B( 12-C , 31-H ) :   0.9512
B( 13-S , 14-P ) :   0.9259 B( 13-S , 15-S ) :   0.1065 B( 14-P , 15-S ) :   1.6125
B( 14-P , 16-O ) :   1.0667 B( 14-P , 18-O ) :   0.9903 B( 16-O , 17-C ) :   0.9380
B( 17-C , 32-H ) :   0.9379 B( 17-C , 33-H ) :   0.9520 B( 17-C , 34-H ) :   0.9577
B( 18-O , 19-C ) :   0.9517 B( 19-C , 35-H ) :   0.9592 B( 19-C , 36-H ) :   0.9497
B( 19-C , 37-H ) :   0.9320

Dispersion correction           -0.053245375
FINAL SINGLE POINT ENERGY     -1979.003124469473

DIPOLE MOMENT
-------------

Method             : SCF
Type of density    : Electron Density
Multiplicity       :   1
Irrep              :   0
Energy             : -1979.1329400166951018 Eh
Relativity type    :
Basis              : AO
                                X                 Y                 Z
Electronic contribution:    -10.621099734      -2.594752496      -2.433378294
Nuclear contribution   :     11.114910182       3.502754134       1.450050897
                        -----------------------------------------
Total Dipole Moment    :      0.493810448       0.908001638      -0.983327396
                        -----------------------------------------
Magnitude (a.u.)       :      1.426621359
Magnitude (Debye)      :      3.626183317

Rotational constants in cm-1:             0.011408             0.008786             0.006322
Rotational constants in MHz :           342.015927           263.406820           189.523825

                             ****ORCA TERMINATED NORMALLY****
TOTAL RUN TIME: 0 days 0 hours 0 minutes 43 seconds 728 msec
