                         Program Version 6.0.0  -   RELEASE  -
|  1> ! r2scan-3c def2/J RI DEFGRID2 scfconv6 printgap
|  2> %output
|  3>     printlevel normal
|  4> end
|  5> * xyz 0 1
|  6> C 3.4668346129 -2.2067425045 1.6906994073
|  7> C 2.0753533796 -2.1290011276 1.0966601297
|  8> O 1.6796104681 -0.7613894486 0.8735396968
|  9> P 2.3167869678 0.1085821368 -0.310013176
| 10> S 2.9533570097 -0.9006447837 -1.8549523464
| 11> O 3.4619190623 0.9913548671 0.3335462565
| 12> C 3.2555454719 1.7764446709 1.5359326866
| 13> C 4.6181893397 2.1260311816 2.0967543246
| 14> S 0.7363950161 1.4829576331 -0.638211492
| 15> C -0.1897142088 0.4188635772 -1.7753694661
| 16> S -0.9759511892 -0.984927285 -0.9550607667
| 17> P -2.6026256185 0.1351986002 -0.1377607956
| 18> S -3.4506382207 1.4031789394 -1.3590402418
| 19> O -2.0252019179 0.8584582881 1.1355530716
| 20> C -1.3897173268 0.1662318406 2.2402432221
| 21> C -0.644717488 1.203144071 3.0542850107
| 22> O -3.5397048778 -0.9767421763 0.504348189
| 23> C -4.5793246173 -1.6449288058 -0.2349598823
| 24> C -4.0321411273 -2.4811680187 -1.3729707257
| 25> H 4.1867264265 -1.7826582727 0.9906030011
| 26> H 3.5134989018 -1.6551121493 2.6260689632
| 27> H 3.723890965 -3.2453627484 1.8729572603
| 28> H 1.3182727217 -2.5216134979 1.776787452
| 29> H 2.0294614557 -2.6646668151 0.1435609139
| 30> H 2.6937363332 2.6717532223 1.2575439954
| 31> H 2.6694236694 1.1852617541 2.2438442544
| 32> H 4.4910673293 2.7352428728 2.9857895691
| 33> H 5.1630202069 1.2219888563 2.3535509753
| 34> H 5.1918356253 2.6803270512 1.3596693224
| 35> H 0.4946892844 0.0125932691 -2.5206195598
| 36> H -0.9586432666 1.0403437949 -2.2366201682
| 37> H -2.1703157876 -0.3269024602 2.8222069807
| 38> H -0.7093768643 -0.587310881 1.8329364487
| 39> H 0.1025040439 1.691837809 2.433850314
| 40> H -1.3365187606 1.9560565344 3.4202591917
| 41> H -0.1598564961 0.7178937607 3.8951120435
| 42> H -5.0744714679 -2.2610503421 0.516946658
| 43> H -5.2725678581 -0.8878349453 -0.6131922639
| 44> H -3.2587334462 -3.1548334229 -1.0123558029
| 45> H -4.8385398364 -3.0593517672 -1.8125099721
| 46> H -3.6056249579 -1.8346220061 -2.1386251285
| 47> *
| 48>
| 49>                          ****END OF INPUT****

CARTESIAN COORDINATES (ANGSTROEM)
---------------------------------
  C      3.466835   -2.206743    1.690699
  C      2.075353   -2.129001    1.096660
  O      1.679610   -0.761389    0.873540
  P      2.316787    0.108582   -0.310013
  S      2.953357   -0.900645   -1.854952
  O      3.461919    0.991355    0.333546
  C      3.255545    1.776445    1.535933
  C      4.618189    2.126031    2.096754
  S      0.736395    1.482958   -0.638211
  C     -0.189714    0.418864   -1.775369
  S     -0.975951   -0.984927   -0.955061
  P     -2.602626    0.135199   -0.137761
  S     -3.450638    1.403179   -1.359040
  O     -2.025202    0.858458    1.135553
  C     -1.389717    0.166232    2.240243
  C     -0.644717    1.203144    3.054285
  O     -3.539705   -0.976742    0.504348
  C     -4.579325   -1.644929   -0.234960
  C     -4.032141   -2.481168   -1.372971
  H      4.186726   -1.782658    0.990603
  H      3.513499   -1.655112    2.626069
  H      3.723891   -3.245363    1.872957
  H      1.318273   -2.521613    1.776787
  H      2.029461   -2.664667    0.143561
  H      2.693736    2.671753    1.257544
  H      2.669424    1.185262    2.243844
  H      4.491067    2.735243    2.985790
  H      5.163020    1.221989    2.353551
  H      5.191836    2.680327    1.359669
  H      0.494689    0.012593   -2.520620
  H     -0.958643    1.040344   -2.236620
  H     -2.170316   -0.326902    2.822207
  H     -0.709377   -0.587311    1.832936
  H      0.102504    1.691838    2.433850
  H     -1.336519    1.956057    3.420259
  H     -0.159856    0.717894    3.895112
  H     -5.074471   -2.261050    0.516947
  H     -5.272568   -0.887835   -0.613192
  H     -3.258733   -3.154833   -1.012356
  H     -4.838540   -3.059352   -1.812510
  H     -3.605625   -1.834622   -2.138625

 Total Charge           Charge          ....    0
 Multiplicity           Mult            ....    1
 Number of Electrons    NEL             ....  202
 Basis Dimension        Dim             ....  539

ORBITAL ENERGIES
----------------

  NO   OCC          E(Eh)            E(eV)
   0   2.0000     -88.575262     -2410.2554
   1   2.0000     -88.573264     -2410.2011
   2   2.0000     -88.524322     -2408.8693
   3   2.0000     -88.519555     -2408.7396
   4   2.0000     -76.917125     -2093.0214
   5   2.0000     -76.913678     -2092.9276
   6   2.0000     -18.998803      -516.9837
   7   2.0000     -18.996330      -516.9164
   8   2.0000     -18.995208      -516.8859
   9   2.0000     -18.990335      -516.7533
  10   2.0000     -10.111593      -275.1504
  11   2.0000     -10.102864      -274.9129
  12   2.0000     -10.102502      -274.9031
  13   2.0000     -10.102162      -274.8938
  14   2.0000     -10.100282      -274.8427
  15   2.0000     -10.042220      -273.2627
  16   2.0000     -10.036387      -273.1040
  17   2.0000     -10.034397      -273.0498
  18   2.0000     -10.030431      -272.9419
  19   2.0000      -7.869645      -214.1439
  20   2.0000      -7.867620      -214.0888
  21   2.0000      -7.819107      -212.7687
  22   2.0000      -7.814319      -212.6384
  23   2.0000      -6.595687      -179.4778
  24   2.0000      -6.592204      -179.3830
  25   2.0000      -5.816465      -158.2740
  26   2.0000      -5.814396      -158.2178
  27   2.0000      -5.813606      -158.1963
  28   2.0000      -5.811493      -158.1388
  29   2.0000      -5.806701      -158.0084
  30   2.0000      -5.804810      -157.9569
  31   2.0000      -5.766865      -156.9244
  32   2.0000      -5.762003      -156.7921
  33   2.0000      -5.759443      -156.7224
  34   2.0000      -5.758927      -156.7084
  35   2.0000      -5.754600      -156.5906
  36   2.0000      -5.754285      -156.5821
  37   2.0000      -4.741610      -129.0258
  38   2.0000      -4.740300      -128.9901
  39   2.0000      -4.739321      -128.9635
  40   2.0000      -4.738115      -128.9307
  41   2.0000      -4.737052      -128.9017
  42   2.0000      -4.735642      -128.8634
  43   2.0000      -1.053766       -28.6744
  44   2.0000      -1.052459       -28.6389
  45   2.0000      -1.015569       -27.6350
  46   2.0000      -1.011478       -27.5237
  47   2.0000      -0.802235       -21.8299
  48   2.0000      -0.764742       -20.8097
  49   2.0000      -0.755810       -20.5666
  50   2.0000      -0.741617       -20.1804
  51   2.0000      -0.735627       -20.0174
  52   2.0000      -0.713016       -19.4021
  53   2.0000      -0.687998       -18.7214
  54   2.0000      -0.670556       -18.2467
  55   2.0000      -0.630315       -17.1518
  56   2.0000      -0.623228       -16.9589
  57   2.0000      -0.614026       -16.7085
  58   2.0000      -0.606445       -16.5022
  59   2.0000      -0.592459       -16.1216
  60   2.0000      -0.537496       -14.6260
  61   2.0000      -0.528664       -14.3857
  62   2.0000      -0.506008       -13.7692
  63   2.0000      -0.495766       -13.4905
  64   2.0000      -0.480966       -13.0878
  65   2.0000      -0.467598       -12.7240
  66   2.0000      -0.466694       -12.6994
  67   2.0000      -0.457510       -12.4495
  68   2.0000      -0.449225       -12.2240
  69   2.0000      -0.437079       -11.8935
  70   2.0000      -0.427108       -11.6222
  71   2.0000      -0.418041       -11.3755
  72   2.0000      -0.411025       -11.1846
  73   2.0000      -0.408535       -11.1168
  74   2.0000      -0.393488       -10.7074
  75   2.0000      -0.389387       -10.5958
  76   2.0000      -0.381499       -10.3811
  77   2.0000      -0.379047       -10.3144
  78   2.0000      -0.378764       -10.3067
  79   2.0000      -0.373065       -10.1516
  80   2.0000      -0.368548       -10.0287
  81   2.0000      -0.362034        -9.8514
  82   2.0000      -0.361162        -9.8277
  83   2.0000      -0.356392        -9.6979
  84   2.0000      -0.352646        -9.5960
  85   2.0000      -0.337439        -9.1822
  86   2.0000      -0.333486        -9.0746
  87   2.0000      -0.329140        -8.9563
  88   2.0000      -0.318381        -8.6636
  89   2.0000      -0.311671        -8.4810
  90   2.0000      -0.301631        -8.2078
  91   2.0000      -0.291137        -7.9222
  92   2.0000      -0.289876        -7.8879
  93   2.0000      -0.282069        -7.6755
  94   2.0000      -0.274758        -7.4765
  95   2.0000      -0.246201        -6.6995
  96   2.0000      -0.232880        -6.3370
  97   2.0000      -0.227502        -6.1906
  98   2.0000      -0.219780        -5.9805
  99   2.0000      -0.216978        -5.9043
 100   2.0000      -0.211806        -5.7635
 101   0.0000      -0.045969        -1.2509
 102   0.0000      -0.025806        -0.7022
 103   0.0000      -0.004931        -0.1342
 104   0.0000       0.002992         0.0814
 105   0.0000       0.014218         0.3869

MULLIKEN ATOMIC CHARGES
-----------------------
   0 C :   -0.450403
   1 C :   -0.152949
   2 O :   -0.278811
   3 P :    0.645252
   4 S :   -0.446370
   5 O :   -0.277888
   6 C :   -0.136503
   7 C :   -0.457205
   8 S :   -0.131061
   9 C :   -0.235610
  10 S :   -0.163102
  11 P :    0.646520
  12 S :   -0.443628
  13 O :   -0.255669
  14 C :   -0.100780
  15 C :   -0.467841
  16 O :   -0.301532
  17 C :   -0.158248
  18 C :   -0.453952
  19 H :    0.180507
  20 H :    0.146715
  21 H :    0.150361
  22 H :    0.149632
  23 H :    0.178854
  24 H :    0.158622
  25 H :    0.164964
  26 H :    0.148291
  27 H :    0.155982
  28 H :    0.161955
  29 H :    0.216866
  30 H :    0.215275
  31 H :    0.154159
  32 H :    0.168223
  33 H :    0.161101
  34 H :    0.156256
  35 H :    0.143826
  36 H :    0.147702
  37 H :    0.173449
  38 H :    0.153859
  39 H :    0.148673
  40 H :    0.184508
Sum of atomic charges:   -0.0000000

LOEWDIN ATOMIC CHARGES
----------------------
   0 C :   -0.399219
   1 C :    0.011258
   2 O :   -0.711648
   3 P :    0.375163
   4 S :   -0.098587
   5 O :   -0.659983
   6 C :    0.017843
   7 C :   -0.382303
   8 S :    0.166816
   9 C :   -0.421799
  10 S :    0.146916
  11 P :    0.377718
  12 S :   -0.107093
  13 O :   -0.656573
  14 C :    0.021987
  15 C :   -0.391060
  16 O :   -0.664343
  17 C :    0.023632
  18 C :   -0.408735
  19 H :    0.168683
  20 H :    0.154862
  21 H :    0.161330
  22 H :    0.177240
  23 H :    0.183124
  24 H :    0.175104
  25 H :    0.176071
  26 H :    0.160610
  27 H :    0.160956
  28 H :    0.164577
  29 H :    0.193410
  30 H :    0.195180
  31 H :    0.172843
  32 H :    0.184941
  33 H :    0.162943
  34 H :    0.161977
  35 H :    0.158400
  36 H :    0.179465
  37 H :    0.180381
  38 H :    0.159607
  39 H :    0.160090
  40 H :    0.168213

  Mayer bond orders larger than 0.100000
B(  0-C ,  1-C ) :   0.9178 B(  0-C , 19-H ) :   0.9594 B(  0-C , 20-H ) :   0.9743
B(  0-C , 21-H ) :   0.9612 B(  1-C ,  2-O ) :   0.7834 B(  1-C , 22-H ) :   0.9639
B(  1-C , 23-H ) :   0.9576 B(  2-O ,  3-P ) :   1.0173 B(  3-P ,  4-S ) :   1.8387
B(  3-P ,  5-O ) :   1.1275 B(  3-P ,  8-S ) :   1.0757 B(  5-O ,  6-C ) :   0.7318
B(  6-C ,  7-C ) :   0.9631 B(  6-C , 24-H ) :   0.9332 B(  6-C , 25-H ) :   0.9545
B(  7-C , 26-H ) :   0.9632 B(  7-C , 27-H ) :   0.9743 B(  7-C , 28-H ) :   0.9705
B(  8-S ,  9-C ) :   0.9159 B(  9-C , 10-S ) :   0.9111 B(  9-C , 29-H ) :   0.9078
B(  9-C , 30-H ) :   0.8992 B( 10-S , 11-P ) :   0.9996 B( 11-P , 12-S ) :   1.8529
B( 11-P , 13-O ) :   1.1655 B( 11-P , 16-O ) :   1.0425 B( 13-O , 14-C ) :   0.7363
B( 14-C , 15-C ) :   0.9359 B( 14-C , 31-H ) :   0.9433 B( 14-C , 32-H ) :   0.9439
B( 15-C , 33-H ) :   0.9705 B( 15-C , 34-H ) :   0.9703 B( 15-C , 35-H ) :   0.9685
B( 16-O , 17-C ) :   0.8186 B( 17-C , 18-C ) :   0.9166 B( 17-C , 36-H ) :   0.9616
B( 17-C , 37-H ) :   0.9680 B( 18-C , 38-H ) :   0.9682 B( 18-C , 39-H ) :   0.9554
B( 18-C , 40-H ) :   0.9615

Dispersion correction           -0.021620745
FINAL SINGLE POINT ENERGY     -2932.463451764495

DIPOLE MOMENT
-------------

Method             : SCF
Type of density    : Electron Density
Multiplicity       :   1
Irrep              :   0
Energy             : -2932.4882767522290123 Eh
Relativity type    :
Basis              : AO
                                X                 Y                 Z
Electronic contribution:     -7.702565938       6.857964267     -19.255799040
Nuclear contribution   :      7.957347577      -7.814318187      21.406726519
                        -----------------------------------------
Total Dipole Moment    :      0.254781640      -0.956353920       2.150927479
                        -----------------------------------------
Magnitude (a.u.)       :      2.367702583
Magnitude (Debye)      :      6.018221691

Rotational constants in cm-1:             0.012730             0.004777             0.004546
Rotational constants in MHz :           381.640250           143.219829           136.275090

                             ****ORCA TERMINATED NORMALLY****
TOTAL RUN TIME: 0 days 0 hours 1 minutes 22 seconds 224 msec
