                         Program Version 6.0.0  -   RELEASE  -
|  1> ! r2scan-3c def2/J RI DEFGRID2 scfconv6 printgap
|  2> %output
|  3>     printlevel normal
|  4> end
|  5> %cpcm
|  6>     smd true
|  7>     smdsolvent "water"
|  8> end
|  9> * xyz 0 1
| 10> C 3.4668346129 -2.2067425045 1.6906994073
| 11> C 2.0753533796 -2.1290011276 1.0966601297
| 12> O 1.6796104681 -0.7613894486 0.8735396968
| 13> P 2.3167869678 0.1085821368 -0.310013176
| 14> S 2.9533570097 -0.9006447837 -1.8549523464
| 15> O 3.4619190623 0.9913548671 0.3335462565
| 16> C 3.2555454719 1.7764446709 1.5359326866
| 17> C 4.6181893397 2.1260311816 2.0967543246
| 18> S 0.7363950161 1.4829576331 -0.638211492
| 19> C -0.1897142088 0.4188635772 -1.7753694661
| 20> S -0.9759511892 -0.984927285 -0.9550607667
| 21> P -2.6026256185 0.1351986002 -0.1377607956
| 22> S -3.4506382207 1.4031789394 -1.3590402418
| 23> O -2.0252019179 0.8584582881 1.1355530716
| 24> C -1.3897173268 0.1662318406 2.2402432221
| 25> C -0.644717488 1.203144071 3.0542850107
| 26> O -3.5397048778 -0.9767421763 0.504348189
| 27> C -4.5793246173 -1.6449288058 -0.2349598823
| 28> C -4.0321411273 -2.4811680187 -1.3729707257
| 29> H 4.1867264265 -1.7826582727 0.9906030011
| 30> H 3.5134989018 -1.6551121493 2.6260689632
| 31> H 3.723890965 -3.2453627484 1.8729572603
| 32> H 1.3182727217 -2.5216134979 1.776787452
| 33> H 2.0294614557 -2.6646668151 0.1435609139
| 34> H 2.6937363332 2.6717532223 1.2575439954
| 35> H 2.6694236694 1.1852617541 2.2438442544
| 36> H 4.4910673293 2.7352428728 2.9857895691
| 37> H 5.1630202069 1.2219888563 2.3535509753
| 38> H 5.1918356253 2.6803270512 1.3596693224
| 39> H 0.4946892844 0.0125932691 -2.5206195598
| 40> H -0.9586432666 1.0403437949 -2.2366201682
| 41> H -2.1703157876 -0.3269024602 2.8222069807
| 42> H -0.7093768643 -0.587310881 1.8329364487
| 43> H 0.1025040439 1.691837809 2.433850314
| 44> H -1.3365187606 1.9560565344 3.4202591917
| 45> H -0.1598564961 0.7178937607 3.8951120435
| 46> H -5.0744714679 -2.2610503421 0.516946658
| 47> H -5.2725678581 -0.8878349453 -0.6131922639
| 48> H -3.2587334462 -3.1548334229 -1.0123558029
| 49> H -4.8385398364 -3.0593517672 -1.8125099721
| 50> H -3.6056249579 -1.8346220061 -2.1386251285
| 51> *
| 52>
| 53>                          ****END OF INPUT****

CARTESIAN COORDINATES (ANGSTROEM)
---------------------------------
  C      3.466835   -2.206743    1.690699
  C      2.075353   -2.129001    1.096660
  O      1.679610   -0.761389    0.873540
  P      2.316787    0.108582   -0.310013
  S      2.953357   -0.900645   -1.854952
  O      3.461919    0.991355    0.333546
  C      3.255545    1.776445    1.535933
  C      4.618189    2.126031    2.096754
  S      0.736395    1.482958   -0.638211
  C     -0.189714    0.418864   -1.775369
  S     -0.975951   -0.984927   -0.955061
  P     -2.602626    0.135199   -0.137761
  S     -3.450638    1.403179   -1.359040
  O     -2.025202    0.858458    1.135553
  C     -1.389717    0.166232    2.240243
  C     -0.644717    1.203144    3.054285
  O     -3.539705   -0.976742    0.504348
  C     -4.579325   -1.644929   -0.234960
  C     -4.032141   -2.481168   -1.372971
  H      4.186726   -1.782658    0.990603
  H      3.513499   -1.655112    2.626069
  H      3.723891   -3.245363    1.872957
  H      1.318273   -2.521613    1.776787
  H      2.029461   -2.664667    0.143561
  H      2.693736    2.671753    1.257544
  H      2.669424    1.185262    2.243844
  H      4.491067    2.735243    2.985790
  H      5.163020    1.221989    2.353551
  H      5.191836    2.680327    1.359669
  H      0.494689    0.012593   -2.520620
  H     -0.958643    1.040344   -2.236620
  H     -2.170316   -0.326902    2.822207
  H     -0.709377   -0.587311    1.832936
  H      0.102504    1.691838    2.433850
  H     -1.336519    1.956057    3.420259
  H     -0.159856    0.717894    3.895112
  H     -5.074471   -2.261050    0.516947
  H     -5.272568   -0.887835   -0.613192
  H     -3.258733   -3.154833   -1.012356
  H     -4.838540   -3.059352   -1.812510
  H     -3.605625   -1.834622   -2.138625

 Total Charge           Charge          ....    0
 Multiplicity           Mult            ....    1
 Number of Electrons    NEL             ....  202
 Basis Dimension        Dim             ....  539

ORBITAL ENERGIES
----------------

  NO   OCC          E(Eh)            E(eV)
   0   2.0000     -88.578775     -2410.3510
   1   2.0000     -88.576849     -2410.2986
   2   2.0000     -88.531966     -2409.0773
   3   2.0000     -88.530536     -2409.0384
   4   2.0000     -76.920278     -2093.1072
   5   2.0000     -76.920245     -2093.1063
   6   2.0000     -18.997681      -516.9532
   7   2.0000     -18.997194      -516.9399
   8   2.0000     -18.994510      -516.8669
   9   2.0000     -18.991351      -516.7809
  10   2.0000     -10.103988      -274.9435
  11   2.0000     -10.093900      -274.6690
  12   2.0000     -10.091525      -274.6043
  13   2.0000     -10.090296      -274.5709
  14   2.0000     -10.087844      -274.5042
  15   2.0000     -10.021269      -272.6926
  16   2.0000     -10.019382      -272.6413
  17   2.0000     -10.019249      -272.6376
  18   2.0000     -10.018689      -272.6224
  19   2.0000      -7.873205      -214.2408
  20   2.0000      -7.871177      -214.1856
  21   2.0000      -7.827124      -212.9869
  22   2.0000      -7.825675      -212.9474
  23   2.0000      -6.598817      -179.5630
  24   2.0000      -6.598816      -179.5629
  25   2.0000      -5.819978      -158.3696
  26   2.0000      -5.817976      -158.3152
  27   2.0000      -5.817143      -158.2925
  28   2.0000      -5.815070      -158.2361
  29   2.0000      -5.810329      -158.1071
  30   2.0000      -5.808327      -158.0526
  31   2.0000      -5.774767      -157.1394
  32   2.0000      -5.773237      -157.0978
  33   2.0000      -5.767420      -156.9395
  34   2.0000      -5.767026      -156.9287
  35   2.0000      -5.765915      -156.8985
  36   2.0000      -5.765733      -156.8936
  37   2.0000      -4.744667      -129.1089
  38   2.0000      -4.744647      -129.1084
  39   2.0000      -4.743622      -129.0805
  40   2.0000      -4.743411      -129.0748
  41   2.0000      -4.742620      -129.0532
  42   2.0000      -4.742395      -129.0471
  43   2.0000      -1.054834       -28.7035
  44   2.0000      -1.050629       -28.5891
  45   2.0000      -1.013308       -27.5735
  46   2.0000      -1.011435       -27.5225
  47   2.0000      -0.804590       -21.8940
  48   2.0000      -0.758450       -20.6385
  49   2.0000      -0.747303       -20.3351
  50   2.0000      -0.726888       -19.7796
  51   2.0000      -0.725759       -19.7489
  52   2.0000      -0.710242       -19.3267
  53   2.0000      -0.690254       -18.7828
  54   2.0000      -0.676301       -18.4031
  55   2.0000      -0.627112       -17.0646
  56   2.0000      -0.615468       -16.7477
  57   2.0000      -0.600359       -16.3366
  58   2.0000      -0.598761       -16.2931
  59   2.0000      -0.589978       -16.0541
  60   2.0000      -0.531084       -14.4515
  61   2.0000      -0.522896       -14.2287
  62   2.0000      -0.497377       -13.5343
  63   2.0000      -0.491438       -13.3727
  64   2.0000      -0.479304       -13.0425
  65   2.0000      -0.459652       -12.5078
  66   2.0000      -0.453778       -12.3479
  67   2.0000      -0.450908       -12.2698
  68   2.0000      -0.442480       -12.0405
  69   2.0000      -0.434159       -11.8141
  70   2.0000      -0.419093       -11.4041
  71   2.0000      -0.409101       -11.1322
  72   2.0000      -0.406928       -11.0731
  73   2.0000      -0.404627       -11.0105
  74   2.0000      -0.390597       -10.6287
  75   2.0000      -0.385980       -10.5030
  76   2.0000      -0.378048       -10.2872
  77   2.0000      -0.372076       -10.1247
  78   2.0000      -0.361430        -9.8350
  79   2.0000      -0.359936        -9.7944
  80   2.0000      -0.354996        -9.6599
  81   2.0000      -0.352312        -9.5869
  82   2.0000      -0.351092        -9.5537
  83   2.0000      -0.347098        -9.4450
  84   2.0000      -0.345809        -9.4100
  85   2.0000      -0.331544        -9.0218
  86   2.0000      -0.325433        -8.8555
  87   2.0000      -0.319363        -8.6903
  88   2.0000      -0.315032        -8.5725
  89   2.0000      -0.307095        -8.3565
  90   2.0000      -0.296466        -8.0673
  91   2.0000      -0.286064        -7.7842
  92   2.0000      -0.283896        -7.7252
  93   2.0000      -0.279908        -7.6167
  94   2.0000      -0.275618        -7.4999
  95   2.0000      -0.249877        -6.7995
  96   2.0000      -0.240449        -6.5429
  97   2.0000      -0.237040        -6.4502
  98   2.0000      -0.230629        -6.2757
  99   2.0000      -0.225697        -6.1415
 100   2.0000      -0.220002        -5.9866
 101   0.0000      -0.050962        -1.3868
 102   0.0000      -0.031896        -0.8679
 103   0.0000      -0.008099        -0.2204
 104   0.0000      -0.000790        -0.0215
 105   0.0000       0.015707         0.4274

MULLIKEN ATOMIC CHARGES
-----------------------
   0 C :   -0.482726
   1 C :   -0.144652
   2 O :   -0.286661
   3 P :    0.658881
   4 S :   -0.503469
   5 O :   -0.310007
   6 C :   -0.115253
   7 C :   -0.505689
   8 S :   -0.148855
   9 C :   -0.245495
  10 S :   -0.159497
  11 P :    0.662028
  12 S :   -0.501463
  13 O :   -0.285810
  14 C :   -0.098692
  15 C :   -0.507280
  16 O :   -0.319813
  17 C :   -0.151369
  18 C :   -0.490241
  19 H :    0.170275
  20 H :    0.169900
  21 H :    0.171647
  22 H :    0.179430
  23 H :    0.176235
  24 H :    0.173037
  25 H :    0.186289
  26 H :    0.171853
  27 H :    0.169481
  28 H :    0.168133
  29 H :    0.234809
  30 H :    0.227792
  31 H :    0.175021
  32 H :    0.178224
  33 H :    0.168935
  34 H :    0.166211
  35 H :    0.173360
  36 H :    0.176219
  37 H :    0.179326
  38 H :    0.170209
  39 H :    0.173777
  40 H :    0.175900
Sum of atomic charges:   -0.0000000

LOEWDIN ATOMIC CHARGES
----------------------
   0 C :   -0.401176
   1 C :    0.017943
   2 O :   -0.708577
   3 P :    0.377718
   4 S :   -0.141114
   5 O :   -0.678539
   6 C :    0.027392
   7 C :   -0.386497
   8 S :    0.157714
   9 C :   -0.420277
  10 S :    0.151833
  11 P :    0.380511
  12 S :   -0.150960
  13 O :   -0.677610
  14 C :    0.028539
  15 C :   -0.393991
  16 O :   -0.669422
  17 C :    0.029624
  18 C :   -0.411193
  19 H :    0.163227
  20 H :    0.163406
  21 H :    0.168596
  22 H :    0.189730
  23 H :    0.181622
  24 H :    0.181844
  25 H :    0.186077
  26 H :    0.170379
  27 H :    0.163986
  28 H :    0.164562
  29 H :    0.197751
  30 H :    0.198213
  31 H :    0.182397
  32 H :    0.188635
  33 H :    0.164036
  34 H :    0.163828
  35 H :    0.170551
  36 H :    0.191833
  37 H :    0.181871
  38 H :    0.163893
  39 H :    0.169273
  40 H :    0.162373

  Mayer bond orders larger than 0.100000
B(  0-C ,  1-C ) :   0.9145 B(  0-C , 19-H ) :   0.9611 B(  0-C , 20-H ) :   0.9690
B(  0-C , 21-H ) :   0.9569 B(  1-C ,  2-O ) :   0.7671 B(  1-C , 22-H ) :   0.9529
B(  1-C , 23-H ) :   0.9559 B(  2-O ,  3-P ) :   1.0365 B(  3-P ,  4-S ) :   1.8116
B(  3-P ,  5-O ) :   1.1392 B(  3-P ,  8-S ) :   1.0848 B(  5-O ,  6-C ) :   0.7281
B(  6-C ,  7-C ) :   0.9496 B(  6-C , 24-H ) :   0.9261 B(  6-C , 25-H ) :   0.9434
B(  7-C , 26-H ) :   0.9567 B(  7-C , 27-H ) :   0.9725 B(  7-C , 28-H ) :   0.9696
B(  8-S ,  9-C ) :   0.9001 B(  9-C , 10-S ) :   0.9011 B(  9-C , 29-H ) :   0.9041
B(  9-C , 30-H ) :   0.8971 B( 10-S , 11-P ) :   1.0130 B( 11-P , 12-S ) :   1.8253
B( 11-P , 13-O ) :   1.1741 B( 11-P , 16-O ) :   1.0550 B( 13-O , 14-C ) :   0.7255
B( 14-C , 15-C ) :   0.9297 B( 14-C , 31-H ) :   0.9331 B( 14-C , 32-H ) :   0.9378
B( 15-C , 33-H ) :   0.9677 B( 15-C , 34-H ) :   0.9692 B( 15-C , 35-H ) :   0.9601
B( 16-O , 17-C ) :   0.8059 B( 17-C , 18-C ) :   0.9039 B( 17-C , 36-H ) :   0.9505
B( 17-C , 37-H ) :   0.9668 B( 18-C , 38-H ) :   0.9647 B( 18-C , 39-H ) :   0.9501
B( 18-C , 40-H ) :   0.9641

Dispersion correction           -0.021620745
FINAL SINGLE POINT ENERGY     -2932.475259031867

DIPOLE MOMENT
-------------

Method             : SCF
Type of density    : Electron Density
Multiplicity       :   1
Irrep              :   0
Energy             : -2932.5000840196003082 Eh
Relativity type    :
Basis              : AO
                                X                 Y                 Z
Electronic contribution:     -7.764615525       6.344078632     -18.368957321
Nuclear contribution   :      7.957347577      -7.814318187      21.406726519
                        -----------------------------------------
Total Dipole Moment    :      0.192732052      -1.470239556       3.037769198
                        -----------------------------------------
Magnitude (a.u.)       :      3.380353782
Magnitude (Debye)      :      8.592176483

Rotational constants in cm-1:             0.012730             0.004777             0.004546
Rotational constants in MHz :           381.640250           143.219829           136.275090

                             ****ORCA TERMINATED NORMALLY****
TOTAL RUN TIME: 0 days 0 hours 1 minutes 49 seconds 698 msec
