                         Program Version 6.0.0  -   RELEASE  -
|  1> ! pbe def2-sv(p) def2/J RI DEFGRID1 loosescf d4 GCP(DFT/SV(P)) printgap
|  2> %output
|  3>     printlevel normal
|  4> end
|  5> * xyz 0 1
|  6> C 1.8045002496 3.0514802475 0.0837612597
|  7> C 3.1470647834 2.5489124378 0.5768632629
|  8> O 3.5022191123 1.3035279865 -0.0435987553
|  9> P 2.9796757553 -0.0987342876 0.4706630614
| 10> S 2.7873922745 -0.2168015445 2.425303992
| 11> O 4.1331542109 -0.9346341494 -0.2161619509
| 12> C 4.0568101178 -2.3300815242 -0.5560045093
| 13> C 3.7130496706 -3.2034789703 0.6339392147
| 14> S 1.2416356802 -0.6044210563 -0.6648558184
| 15> C 0.0281993159 -0.7624465213 0.672912222
| 16> S -1.0456498522 0.6859207808 0.8794934291
| 17> P -2.7332562282 0.056404944 -0.2360359991
| 18> S -2.6263498966 -1.7516808809 -1.00262702
| 19> O -3.0793685311 1.1976473815 -1.2909973956
| 20> C -2.5544218333 1.2038882356 -2.6278838833
| 21> C -1.1091051045 1.6568991505 -2.659454836
| 22> O -3.8176863481 0.3338144808 0.8835325524
| 23> C -5.211930613 0.6059774539 0.6236508734
| 24> C -5.9013564017 -0.5425210454 -0.0836562208
| 25> H 1.7915246324 3.0695935439 -1.002930686
| 26> H 1.0040199596 2.4039922987 0.4390978169
| 27> H 1.6354853332 4.0538098331 0.4636431858
| 28> H 3.1406725706 2.4165503705 1.6645085059
| 29> H 3.9551240689 3.2259350367 0.2948092834
| 30> H 3.3190793327 -2.4529470083 -1.3541308814
| 31> H 5.0539696034 -2.554730082 -0.9385849804
| 32> H 3.7702046043 -4.2479832588 0.3447394102
| 33> H 4.4052774852 -3.0176877933 1.4519660756
| 34> H 2.7032795138 -2.9879466963 0.9819583299
| 35> H 0.5661694103 -0.8944545155 1.6143691122
| 36> H -0.5956010769 -1.6255270314 0.4360362238
| 37> H -2.6554921756 0.1976720694 -3.0482338052
| 38> H -3.2040889127 1.8974498014 -3.164041891
| 39> H -0.7939269521 1.7817179086 -3.6903025546
| 40> H -1.0008887633 2.6008318199 -2.131105764
| 41> H -0.4707725635 0.910859239 -2.1877871306
| 42> H -5.6268438479 0.7693080533 1.6196472508
| 43> H -5.279521385 1.5245999852 0.0370271098
| 44> H -6.9594398639 -0.3221690432 -0.1842415005
| 45> H -5.4722781412 -0.6865836833 -1.0744041861
| 46> H -5.7776075781 -1.4634766324 0.4814253219
| 47> *
| 48>
| 49>                          ****END OF INPUT****

CARTESIAN COORDINATES (ANGSTROEM)
---------------------------------
  C      1.804500    3.051480    0.083761
  C      3.147065    2.548912    0.576863
  O      3.502219    1.303528   -0.043599
  P      2.979676   -0.098734    0.470663
  S      2.787392   -0.216802    2.425304
  O      4.133154   -0.934634   -0.216162
  C      4.056810   -2.330082   -0.556005
  C      3.713050   -3.203479    0.633939
  S      1.241636   -0.604421   -0.664856
  C      0.028199   -0.762447    0.672912
  S     -1.045650    0.685921    0.879493
  P     -2.733256    0.056405   -0.236036
  S     -2.626350   -1.751681   -1.002627
  O     -3.079369    1.197647   -1.290997
  C     -2.554422    1.203888   -2.627884
  C     -1.109105    1.656899   -2.659455
  O     -3.817686    0.333814    0.883533
  C     -5.211931    0.605977    0.623651
  C     -5.901356   -0.542521   -0.083656
  H      1.791525    3.069594   -1.002931
  H      1.004020    2.403992    0.439098
  H      1.635485    4.053810    0.463643
  H      3.140673    2.416550    1.664509
  H      3.955124    3.225935    0.294809
  H      3.319079   -2.452947   -1.354131
  H      5.053970   -2.554730   -0.938585
  H      3.770205   -4.247983    0.344739
  H      4.405277   -3.017688    1.451966
  H      2.703280   -2.987947    0.981958
  H      0.566169   -0.894455    1.614369
  H     -0.595601   -1.625527    0.436036
  H     -2.655492    0.197672   -3.048234
  H     -3.204089    1.897450   -3.164042
  H     -0.793927    1.781718   -3.690303
  H     -1.000889    2.600832   -2.131106
  H     -0.470773    0.910859   -2.187787
  H     -5.626844    0.769308    1.619647
  H     -5.279521    1.524600    0.037027
  H     -6.959440   -0.322169   -0.184242
  H     -5.472278   -0.686584   -1.074404
  H     -5.777608   -1.463477    0.481425

 Total Charge           Charge          ....    0
 Multiplicity           Mult            ....    1
 Number of Electrons    NEL             ....  202
 Basis Dimension        Dim             ....  334

ORBITAL ENERGIES
----------------

  NO   OCC          E(Eh)            E(eV)
   0   2.0000     -88.046945     -2395.8792
   1   2.0000     -88.045122     -2395.8296
   2   2.0000     -87.993782     -2394.4325
   3   2.0000     -87.991035     -2394.3578
   4   2.0000     -76.430699     -2079.7850
   5   2.0000     -76.428316     -2079.7202
   6   2.0000     -18.798600      -511.5359
   7   2.0000     -18.793524      -511.3978
   8   2.0000     -18.791481      -511.3422
   9   2.0000     -18.787953      -511.2462
  10   2.0000      -9.957683      -270.9623
  11   2.0000      -9.955979      -270.9160
  12   2.0000      -9.955181      -270.8942
  13   2.0000      -9.949655      -270.7439
  14   2.0000      -9.948587      -270.7148
  15   2.0000      -9.886213      -269.0175
  16   2.0000      -9.884308      -268.9657
  17   2.0000      -9.883792      -268.9517
  18   2.0000      -9.880562      -268.8638
  19   2.0000      -7.691056      -209.2843
  20   2.0000      -7.689712      -209.2477
  21   2.0000      -7.638659      -207.8585
  22   2.0000      -7.635890      -207.7831
  23   2.0000      -6.428209      -174.9204
  24   2.0000      -6.425500      -174.8467
  25   2.0000      -5.718744      -155.6149
  26   2.0000      -5.717548      -155.5824
  27   2.0000      -5.715453      -155.5254
  28   2.0000      -5.714200      -155.4913
  29   2.0000      -5.708479      -155.3356
  30   2.0000      -5.706799      -155.2899
  31   2.0000      -5.667407      -154.2180
  32   2.0000      -5.664669      -154.1435
  33   2.0000      -5.659375      -153.9994
  34   2.0000      -5.658921      -153.9871
  35   2.0000      -5.656465      -153.9202
  36   2.0000      -5.656261      -153.9147
  37   2.0000      -4.650992      -126.5599
  38   2.0000      -4.649664      -126.5238
  39   2.0000      -4.648775      -126.4996
  40   2.0000      -4.647753      -126.4718
  41   2.0000      -4.647540      -126.4660
  42   2.0000      -4.645983      -126.4236
  43   2.0000      -0.992195       -26.9990
  44   2.0000      -0.989098       -26.9147
  45   2.0000      -0.948053       -25.7978
  46   2.0000      -0.944253       -25.6944
  47   2.0000      -0.761849       -20.7310
  48   2.0000      -0.724033       -19.7019
  49   2.0000      -0.711953       -19.3732
  50   2.0000      -0.691149       -18.8071
  51   2.0000      -0.683131       -18.5889
  52   2.0000      -0.678378       -18.4596
  53   2.0000      -0.654528       -17.8106
  54   2.0000      -0.641102       -17.4453
  55   2.0000      -0.603519       -16.4226
  56   2.0000      -0.596993       -16.2450
  57   2.0000      -0.580733       -15.8025
  58   2.0000      -0.570815       -15.5327
  59   2.0000      -0.558077       -15.1861
  60   2.0000      -0.500397       -13.6165
  61   2.0000      -0.495780       -13.4909
  62   2.0000      -0.475399       -12.9363
  63   2.0000      -0.467765       -12.7285
  64   2.0000      -0.461526       -12.5587
  65   2.0000      -0.451099       -12.2750
  66   2.0000      -0.435483       -11.8501
  67   2.0000      -0.432333       -11.7644
  68   2.0000      -0.426042       -11.5932
  69   2.0000      -0.419017       -11.4020
  70   2.0000      -0.415333       -11.3018
  71   2.0000      -0.411106       -11.1868
  72   2.0000      -0.405591       -11.0367
  73   2.0000      -0.386438       -10.5155
  74   2.0000      -0.377778       -10.2799
  75   2.0000      -0.375021       -10.2048
  76   2.0000      -0.371071       -10.0973
  77   2.0000      -0.355058        -9.6616
  78   2.0000      -0.351105        -9.5540
  79   2.0000      -0.347840        -9.4652
  80   2.0000      -0.347106        -9.4452
  81   2.0000      -0.344747        -9.3810
  82   2.0000      -0.341280        -9.2867
  83   2.0000      -0.338845        -9.2205
  84   2.0000      -0.338246        -9.2041
  85   2.0000      -0.323798        -8.8110
  86   2.0000      -0.312266        -8.4972
  87   2.0000      -0.300160        -8.1678
  88   2.0000      -0.298897        -8.1334
  89   2.0000      -0.293215        -7.9788
  90   2.0000      -0.287030        -7.8105
  91   2.0000      -0.278867        -7.5884
  92   2.0000      -0.271373        -7.3844
  93   2.0000      -0.266274        -7.2457
  94   2.0000      -0.258202        -7.0260
  95   2.0000      -0.231564        -6.3012
  96   2.0000      -0.224895        -6.1197
  97   2.0000      -0.216100        -5.8804
  98   2.0000      -0.208735        -5.6800
  99   2.0000      -0.206637        -5.6229
 100   2.0000      -0.203922        -5.5490
 101   0.0000      -0.043220        -1.1761
 102   0.0000      -0.038322        -1.0428
 103   0.0000      -0.014360        -0.3908
 104   0.0000       0.004214         0.1147
 105   0.0000       0.008332         0.2267

MULLIKEN ATOMIC CHARGES
-----------------------
   0 C :   -0.325416
   1 C :   -0.005310
   2 O :   -0.351245
   3 P :    0.595418
   4 S :   -0.322194
   5 O :   -0.356815
   6 C :   -0.005678
   7 C :   -0.311233
   8 S :   -0.106932
   9 C :   -0.361608
  10 S :   -0.078469
  11 P :    0.625187
  12 S :   -0.326832
  13 O :   -0.380354
  14 C :   -0.004372
  15 C :   -0.330867
  16 O :   -0.370521
  17 C :   -0.000875
  18 C :   -0.315306
  19 H :    0.117474
  20 H :    0.137475
  21 H :    0.108934
  22 H :    0.111847
  23 H :    0.104904
  24 H :    0.113440
  25 H :    0.110124
  26 H :    0.112925
  27 H :    0.127599
  28 H :    0.121859
  29 H :    0.197351
  30 H :    0.196512
  31 H :    0.110773
  32 H :    0.102701
  33 H :    0.111609
  34 H :    0.119720
  35 H :    0.143401
  36 H :    0.110105
  37 H :    0.109838
  38 H :    0.111432
  39 H :    0.127559
  40 H :    0.125841
Sum of atomic charges:   -0.0000000

LOEWDIN ATOMIC CHARGES
----------------------
   0 C :   -0.368075
   1 C :   -0.120338
   2 O :   -0.232811
   3 P :    0.567772
   4 S :   -0.302825
   5 O :   -0.232224
   6 C :   -0.116735
   7 C :   -0.367600
   8 S :    0.086004
   9 C :   -0.493331
  10 S :    0.106908
  11 P :    0.567765
  12 S :   -0.306297
  13 O :   -0.245488
  14 C :   -0.120432
  15 C :   -0.369355
  16 O :   -0.243526
  17 C :   -0.110310
  18 C :   -0.366553
  19 H :    0.125377
  20 H :    0.110946
  21 H :    0.129668
  22 H :    0.108002
  23 H :    0.118426
  24 H :    0.107934
  25 H :    0.122001
  26 H :    0.130711
  27 H :    0.130626
  28 H :    0.119842
  29 H :    0.124525
  30 H :    0.125301
  31 H :    0.108915
  32 H :    0.117067
  33 H :    0.131129
  34 H :    0.126176
  35 H :    0.112991
  36 H :    0.121975
  37 H :    0.113348
  38 H :    0.129913
  39 H :    0.121878
  40 H :    0.130705

  Mayer bond orders larger than 0.100000
B(  0-C ,  1-C ) :   1.1597 B(  0-C , 19-H ) :   0.9445 B(  0-C , 20-H ) :   0.9296
B(  0-C , 21-H ) :   0.9389 B(  1-C ,  2-O ) :   0.9164 B(  1-C , 22-H ) :   0.9087
B(  1-C , 23-H ) :   0.9333 B(  2-O ,  3-P ) :   1.1310 B(  3-P ,  4-S ) :   1.6001
B(  3-P ,  5-O ) :   1.1351 B(  3-P ,  8-S ) :   0.9355 B(  4-S ,  8-S ) :   0.1223
B(  4-S , 29-H ) :   0.1137 B(  5-O ,  6-C ) :   0.9161 B(  6-C ,  7-C ) :   1.1633
B(  6-C , 24-H ) :   0.9226 B(  6-C , 25-H ) :   0.9332 B(  7-C , 26-H ) :   0.9362
B(  7-C , 27-H ) :   0.9435 B(  7-C , 28-H ) :   0.9364 B(  8-S ,  9-C ) :   1.0073
B(  9-C , 10-S ) :   1.0180 B(  9-C , 29-H ) :   0.8493 B(  9-C , 30-H ) :   0.8563
B( 10-S , 11-P ) :   0.9645 B( 10-S , 12-S ) :   0.1210 B( 11-P , 12-S ) :   1.6093
B( 11-P , 13-O ) :   1.0826 B( 11-P , 16-O ) :   1.1349 B( 12-S , 30-H ) :   0.1011
B( 13-O , 14-C ) :   0.9111 B( 14-C , 15-C ) :   1.1629 B( 14-C , 31-H ) :   0.9114
B( 14-C , 32-H ) :   0.9327 B( 15-C , 33-H ) :   0.9379 B( 15-C , 34-H ) :   0.9437
B( 15-C , 35-H ) :   0.9266 B( 16-O , 17-C ) :   0.9069 B( 17-C , 18-C ) :   1.1660
B( 17-C , 36-H ) :   0.9347 B( 17-C , 37-H ) :   0.9292 B( 18-C , 38-H ) :   0.9363
B( 18-C , 39-H ) :   0.9366 B( 18-C , 40-H ) :   0.9452

Dispersion correction           -0.063297345
FINAL SINGLE POINT ENERGY     -2929.521765428670

DIPOLE MOMENT
-------------

Method             : SCF
Type of density    : Electron Density
Multiplicity       :   1
Irrep              :   0
Energy             : -2929.6429542853397834 Eh
Relativity type    :
Basis              : AO
                                X                 Y                 Z
Electronic contribution:      5.658672426      -3.803234504       7.721378925
Nuclear contribution   :     -6.309864926       4.435066912      -8.660305602
                        -----------------------------------------
Total Dipole Moment    :     -0.651192500       0.631832407      -0.938926677
                        -----------------------------------------
Magnitude (a.u.)       :      1.305697962
Magnitude (Debye)      :      3.318820468

Rotational constants in cm-1:             0.013575             0.004064             0.003832
Rotational constants in MHz :           406.954950           121.849526           114.877104

                             ****ORCA TERMINATED NORMALLY****
TOTAL RUN TIME: 0 days 0 hours 0 minutes 20 seconds 414 msec
