                         Program Version 6.0.1  -  RELEASE   -
|  1> ! pbe def2-sv(p) def2/J RI DEFGRID1 loosescf d4 GCP(DFT/SV(P)) printgap
|  2> %output
|  3>     printlevel normal
|  4> end
|  5> * xyz 0 1
|  6> C 3.2532398473 -3.8963694884 -0.8404932078
|  7> C 4.0110407357 -2.5822552282 -0.9400602358
|  8> O 3.2173811456 -1.5915383715 -1.6234468489
|  9> C 2.3934638408 -0.848787579 -0.9234724848
| 10> O 2.2666096896 -0.8985147755 0.2848408942
| 11> C 1.6173615395 0.11783459 -1.7932780559
| 12> C 0.3739262204 0.570690659 -1.0434036022
| 13> H -0.1169485459 1.4063828289 -1.5509639965
| 14> C 0.7023081531 1.0061210552 0.3726231223
| 15> O 0.0345359642 0.663765028 1.3310833294
| 16> O 1.6899887196 1.8577258601 0.4158802409
| 17> C 2.0615786269 2.3777322611 1.7097741434
| 18> C 3.1016574926 3.4590677373 1.4979171352
| 19> S -0.8321901113 -0.794538694 -0.9206034139
| 20> P -2.2751365763 0.1472393465 0.3168037228
| 21> S -2.4236868626 2.0959496261 0.2048987294
| 22> O -3.6007407923 -0.578429515 -0.2476650655
| 23> C -4.1061285937 -0.3027421094 -1.5562390466
| 24> O -2.3215284105 -0.45112108 1.7797752154
| 25> C -1.99580684 -1.821793438 2.0686026767
| 26> H 2.9653209631 -4.2378237915 -1.8306355041
| 27> H 3.8869328172 -4.642767196 -0.3731142445
| 28> H 2.3567178074 -3.7663692629 -0.2380699749
| 29> H 4.9074282061 -2.6841576473 -1.5516778665
| 30> H 4.2660722657 -2.2034807931 0.0536718307
| 31> H 1.3575924542 -0.3621657059 -2.7357656685
| 32> H 2.2533273498 0.9818092928 -1.9969323014
| 33> H 1.1587191493 2.7624142711 2.1950835096
| 34> H 2.4476990007 1.5441708472 2.3048151049
| 35> H 2.6921111322 4.2522680742 0.8797764951
| 36> H 3.3895902456 3.8681275279 2.4604733836
| 37> H 3.9769889379 3.043883833 1.0080917574
| 38> H -4.156059761 0.7757570118 -1.716644099
| 39> H -5.1020614764 -0.7371593867 -1.5831966301
| 40> H -3.4629545854 -0.7625872623 -2.3065727492
| 41> H -2.3185796201 -1.979633869 3.0943670725
| 42> H -0.9174301346 -1.9602152474 1.982545972
| 43> H -2.5227046898 -2.4890873813 1.387685436
| 44> *
| 45>
| 46>                          ****END OF INPUT****

CARTESIAN COORDINATES (ANGSTROEM)
---------------------------------
  C      3.253240   -3.896369   -0.840493
  C      4.011041   -2.582255   -0.940060
  O      3.217381   -1.591538   -1.623447
  C      2.393464   -0.848788   -0.923472
  O      2.266610   -0.898515    0.284841
  C      1.617362    0.117835   -1.793278
  C      0.373926    0.570691   -1.043404
  H     -0.116949    1.406383   -1.550964
  C      0.702308    1.006121    0.372623
  O      0.034536    0.663765    1.331083
  O      1.689989    1.857726    0.415880
  C      2.061579    2.377732    1.709774
  C      3.101657    3.459068    1.497917
  S     -0.832190   -0.794539   -0.920603
  P     -2.275137    0.147239    0.316804
  S     -2.423687    2.095950    0.204899
  O     -3.600741   -0.578430   -0.247665
  C     -4.106129   -0.302742   -1.556239
  O     -2.321528   -0.451121    1.779775
  C     -1.995807   -1.821793    2.068603
  H      2.965321   -4.237824   -1.830636
  H      3.886933   -4.642767   -0.373114
  H      2.356718   -3.766369   -0.238070
  H      4.907428   -2.684158   -1.551678
  H      4.266072   -2.203481    0.053672
  H      1.357592   -0.362166   -2.735766
  H      2.253327    0.981809   -1.996932
  H      1.158719    2.762414    2.195084
  H      2.447699    1.544171    2.304815
  H      2.692111    4.252268    0.879776
  H      3.389590    3.868128    2.460473
  H      3.976989    3.043884    1.008092
  H     -4.156060    0.775757   -1.716644
  H     -5.102061   -0.737159   -1.583197
  H     -3.462955   -0.762587   -2.306573
  H     -2.318580   -1.979634    3.094367
  H     -0.917430   -1.960215    1.982546
  H     -2.522705   -2.489087    1.387685

 Total Charge           Charge          ....    0
 Multiplicity           Mult            ....    1
 Number of Electrons    NEL             ....  174
 Basis Dimension        Dim             ....  316

ORBITAL ENERGIES
----------------

  NO   OCC          E(Eh)            E(eV)
   0   2.0000     -88.032437     -2395.4844
   1   2.0000     -87.964297     -2393.6302
   2   2.0000     -76.412986     -2079.3031
   3   2.0000     -18.817888      -512.0608
   4   2.0000     -18.806012      -511.7376
   5   2.0000     -18.773787      -510.8607
   6   2.0000     -18.770963      -510.7839
   7   2.0000     -18.754840      -510.3451
   8   2.0000     -18.733732      -509.7708
   9   2.0000     -10.025010      -272.7944
  10   2.0000     -10.012402      -272.4513
  11   2.0000      -9.959602      -271.0145
  12   2.0000      -9.946158      -270.6487
  13   2.0000      -9.944450      -270.6022
  14   2.0000      -9.935168      -270.3497
  15   2.0000      -9.928416      -270.1659
  16   2.0000      -9.923361      -270.0284
  17   2.0000      -9.896245      -269.2905
  18   2.0000      -9.888726      -269.0859
  19   2.0000      -7.677194      -208.9071
  20   2.0000      -7.609755      -207.0720
  21   2.0000      -6.408691      -174.3893
  22   2.0000      -5.704981      -155.2404
  23   2.0000      -5.701872      -155.1558
  24   2.0000      -5.694152      -154.9458
  25   2.0000      -5.638998      -153.4449
  26   2.0000      -5.630455      -153.2125
  27   2.0000      -5.629419      -153.1843
  28   2.0000      -4.631320      -126.0246
  29   2.0000      -4.630930      -126.0140
  30   2.0000      -4.629045      -125.9627
  31   2.0000      -1.027051       -27.9475
  32   2.0000      -1.014481       -27.6054
  33   2.0000      -0.967467       -26.3261
  34   2.0000      -0.931785       -25.3552
  35   2.0000      -0.922674       -25.1072
  36   2.0000      -0.914285       -24.8790
  37   2.0000      -0.765788       -20.8382
  38   2.0000      -0.720601       -19.6085
  39   2.0000      -0.707351       -19.2480
  40   2.0000      -0.687053       -18.6957
  41   2.0000      -0.657654       -17.8957
  42   2.0000      -0.622948       -16.9513
  43   2.0000      -0.616882       -16.7862
  44   2.0000      -0.604818       -16.4579
  45   2.0000      -0.598849       -16.2955
  46   2.0000      -0.559353       -15.2208
  47   2.0000      -0.512681       -13.9508
  48   2.0000      -0.509402       -13.8615
  49   2.0000      -0.497739       -13.5442
  50   2.0000      -0.486832       -13.2474
  51   2.0000      -0.463684       -12.6175
  52   2.0000      -0.457153       -12.4398
  53   2.0000      -0.450297       -12.2532
  54   2.0000      -0.445757       -12.1297
  55   2.0000      -0.430595       -11.7171
  56   2.0000      -0.424609       -11.5542
  57   2.0000      -0.416531       -11.3344
  58   2.0000      -0.409343       -11.1388
  59   2.0000      -0.403729       -10.9860
  60   2.0000      -0.398687       -10.8488
  61   2.0000      -0.390947       -10.6382
  62   2.0000      -0.390028       -10.6132
  63   2.0000      -0.386108       -10.5065
  64   2.0000      -0.374857       -10.2004
  65   2.0000      -0.368255       -10.0207
  66   2.0000      -0.361420        -9.8347
  67   2.0000      -0.356312        -9.6958
  68   2.0000      -0.351925        -9.5764
  69   2.0000      -0.346837        -9.4379
  70   2.0000      -0.335365        -9.1257
  71   2.0000      -0.328319        -8.9340
  72   2.0000      -0.317135        -8.6297
  73   2.0000      -0.310616        -8.4523
  74   2.0000      -0.305696        -8.3184
  75   2.0000      -0.302536        -8.2324
  76   2.0000      -0.283048        -7.7021
  77   2.0000      -0.280986        -7.6460
  78   2.0000      -0.275896        -7.5075
  79   2.0000      -0.262026        -7.1301
  80   2.0000      -0.254842        -6.9346
  81   2.0000      -0.243422        -6.6238
  82   2.0000      -0.239506        -6.5173
  83   2.0000      -0.225032        -6.1234
  84   2.0000      -0.213409        -5.8072
  85   2.0000      -0.187191        -5.0937
  86   2.0000      -0.178346        -4.8530
  87   0.0000      -0.041729        -1.1355
  88   0.0000      -0.027989        -0.7616
  89   0.0000      -0.017247        -0.4693
  90   0.0000       0.012114         0.3296
  91   0.0000       0.032488         0.8841

MULLIKEN ATOMIC CHARGES
-----------------------
   0 C :   -0.304931
   1 C :   -0.015730
   2 O :   -0.220421
   3 C :    0.116191
   4 O :   -0.196143
   5 C :   -0.095502
   6 C :   -0.286003
   7 H :    0.147076
   8 C :    0.233119
   9 O :   -0.198190
  10 O :   -0.235345
  11 C :   -0.025409
  12 C :   -0.275474
  13 S :   -0.107913
  14 P :    0.617149
  15 S :   -0.340306
  16 O :   -0.392115
  17 C :   -0.096510
  18 O :   -0.352577
  19 C :   -0.098102
  20 H :    0.117813
  21 H :    0.117123
  22 H :    0.130626
  23 H :    0.107804
  24 H :    0.112324
  25 H :    0.127847
  26 H :    0.140515
  27 H :    0.121026
  28 H :    0.110557
  29 H :    0.118043
  30 H :    0.113187
  31 H :    0.110872
  32 H :    0.111283
  33 H :    0.117937
  34 H :    0.104240
  35 H :    0.125840
  36 H :    0.129704
  37 H :    0.110396
Sum of atomic charges:   -0.0000000

LOEWDIN ATOMIC CHARGES
----------------------
   0 C :   -0.354523
   1 C :   -0.109293
   2 O :   -0.049984
   3 C :    0.036820
   4 O :   -0.149241
   5 C :   -0.251446
   6 C :   -0.263420
   7 H :    0.143301
   8 C :    0.012192
   9 O :   -0.160497
  10 O :   -0.050310
  11 C :   -0.102040
  12 C :   -0.350950
  13 S :    0.087774
  14 P :    0.591303
  15 S :   -0.334733
  16 O :   -0.271469
  17 C :   -0.221802
  18 O :   -0.231912
  19 C :   -0.207678
  20 H :    0.126801
  21 H :    0.132688
  22 H :    0.132377
  23 H :    0.120180
  24 H :    0.121429
  25 H :    0.142555
  26 H :    0.156423
  27 H :    0.124282
  28 H :    0.120403
  29 H :    0.127996
  30 H :    0.132052
  31 H :    0.124384
  32 H :    0.107185
  33 H :    0.118520
  34 H :    0.101941
  35 H :    0.124029
  36 H :    0.116678
  37 H :    0.107986

  Mayer bond orders larger than 0.100000
B(  0-C ,  1-C ) :   1.1754 B(  0-C , 20-H ) :   0.9486 B(  0-C , 21-H ) :   0.9436
B(  0-C , 22-H ) :   0.9459 B(  1-C ,  2-O ) :   0.9063 B(  1-C , 23-H ) :   0.9365
B(  1-C , 24-H ) :   0.9137 B(  2-O ,  3-C ) :   1.2595 B(  3-C ,  4-O ) :   1.9839
B(  3-C ,  5-C ) :   0.9904 B(  4-O ,  8-C ) :   0.1020 B(  5-C ,  6-C ) :   1.0584
B(  5-C , 25-H ) :   0.9024 B(  5-C , 26-H ) :   0.8738 B(  6-C ,  7-H ) :   0.8552
B(  6-C ,  8-C ) :   0.8825 B(  6-C , 13-S ) :   1.0358 B(  8-C ,  9-O ) :   1.9660
B(  8-C , 10-O ) :   1.2491 B(  9-O , 14-P ) :   0.1088 B( 10-O , 11-C ) :   0.8987
B( 11-C , 12-C ) :   1.1528 B( 11-C , 27-H ) :   0.9282 B( 11-C , 28-H ) :   0.9312
B( 12-C , 29-H ) :   0.9503 B( 12-C , 30-H ) :   0.9435 B( 12-C , 31-H ) :   0.9499
B( 13-S , 14-P ) :   0.9345 B( 13-S , 15-S ) :   0.1095 B( 14-P , 15-S ) :   1.6115
B( 14-P , 16-O ) :   1.0507 B( 14-P , 18-O ) :   1.1321 B( 16-O , 17-C ) :   0.9444
B( 17-C , 32-H ) :   0.9322 B( 17-C , 33-H ) :   0.9592 B( 17-C , 34-H ) :   0.9455
B( 18-O , 19-C ) :   0.9242 B( 19-C , 35-H ) :   0.9594 B( 19-C , 36-H ) :   0.9434
B( 19-C , 37-H ) :   0.9450

Dispersion correction           -0.051212189
FINAL SINGLE POINT ENERGY     -1979.013642757199

DIPOLE MOMENT
-------------

Method             : SCF
Type of density    : Electron Density
Multiplicity       :   1
Irrep              :   0
Energy             : -1979.1444766283179888 Eh
Relativity type    :
Basis              : AO
                                X                 Y                 Z
Electronic contribution:    -16.251456711       5.785708213      -0.091366198
Nuclear contribution   :     18.153007599      -6.930062224      -0.718702112
                        -----------------------------------------
Total Dipole Moment    :      1.901550888      -1.144354010      -0.810068310
                        -----------------------------------------
Magnitude (a.u.)       :      2.362552126
Magnitude (Debye)      :      6.005130268

Rotational constants in cm-1:             0.012483             0.007049             0.005496
Rotational constants in MHz :           374.242623           211.325004           164.753707

                             ****ORCA TERMINATED NORMALLY****
TOTAL RUN TIME: 0 days 0 hours 0 minutes 32 seconds 850 msec
