                         Program Version 6.0.0  -   RELEASE  -
|  1> ! pbe def2-sv(p) def2/J RI DEFGRID1 loosescf d4 GCP(DFT/SV(P)) printgap
|  2> %output
|  3>     printlevel normal
|  4> end
|  5> * xyz 0 1
|  6> C 4.8409453345 -1.2889016946 -1.5159808125
|  7> C 4.855783002 -0.0101183339 -0.7044547545
|  8> O 3.7049626326 0.1048737954 0.1508522215
|  9> P 2.2313418357 0.2536278291 -0.4215142508
| 10> S 2.0495861875 1.4073015974 -1.9909590886
| 11> O 1.4182977585 0.7654128989 0.8307104603
| 12> C 1.5873370816 0.1785266724 2.1510281465
| 13> C 2.4995978142 1.0378173008 3.0003421874
| 14> S 1.5937697026 -1.7670329245 -0.668853268
| 15> C -0.1248109792 -1.4099160686 -1.0914742321
| 16> S -1.1841076114 -1.3286157891 0.3856717043
| 17> P -2.4013470474 0.3346194277 -0.1495232933
| 18> S -1.4289235335 1.7463865335 -1.1055939865
| 19> O -3.1060617923 0.7626120084 1.204535756
| 20> C -2.3600059654 1.3191549966 2.3072009461
| 21> C -2.2278162815 0.2919033967 3.4155467217
| 22> O -3.6079221884 -0.1966747886 -1.0107866914
| 23> C -4.7967055996 -0.8519052445 -0.4957028845
| 24> C -4.4908731722 -2.1648410652 0.1929258845
| 25> H 4.691242321 -2.1487384432 -0.8678012435
| 26> H 4.0336968669 -1.2543233646 -2.2462389814
| 27> H 5.7849871427 -1.3910979786 -2.0413743748
| 28> H 4.8833414526 0.8629402219 -1.3635051515
| 29> H 5.6977756765 0.0179700235 -0.0113311666
| 30> H 0.57945206 0.1367150145 2.5669589991
| 31> H 1.9811098978 -0.835229033 2.0409973883
| 32> H 2.1153590327 2.0531664403 3.0501843532
| 33> H 2.5462966321 0.6202760061 4.001139347
| 34> H 3.498655679 1.0632042476 2.5738712203
| 35> H -0.4692028834 -2.2212124573 -1.7268479911
| 36> H -0.1770649309 -0.4464541379 -1.6090799972
| 37> H -1.3858420005 1.6607857043 1.9421640587
| 38> H -2.9375468572 2.1852075918 2.6364155588
| 39> H -1.7043362929 -0.5920105145 3.0564692994
| 40> H -1.6767714167 0.7282601345 4.24253673
| 41> H -3.2137600912 -0.0045570115 3.7617156716
| 42> H -5.2961914367 -0.1593809701 0.1833625158
| 43> H -5.402765306 -0.9976503055 -1.3912456307
| 44> H -5.4265848762 -2.6413047534 0.4685628059
| 45> H -3.9382166678 -2.8247014426 -0.4707627314
| 46> H -3.900788961 -1.9956653479 1.0908630243
| 47> *
| 48>
| 49>                          ****END OF INPUT****

CARTESIAN COORDINATES (ANGSTROEM)
---------------------------------
  C      4.840945   -1.288902   -1.515981
  C      4.855783   -0.010118   -0.704455
  O      3.704963    0.104874    0.150852
  P      2.231342    0.253628   -0.421514
  S      2.049586    1.407302   -1.990959
  O      1.418298    0.765413    0.830710
  C      1.587337    0.178527    2.151028
  C      2.499598    1.037817    3.000342
  S      1.593770   -1.767033   -0.668853
  C     -0.124811   -1.409916   -1.091474
  S     -1.184108   -1.328616    0.385672
  P     -2.401347    0.334619   -0.149523
  S     -1.428924    1.746387   -1.105594
  O     -3.106062    0.762612    1.204536
  C     -2.360006    1.319155    2.307201
  C     -2.227816    0.291903    3.415547
  O     -3.607922   -0.196675   -1.010787
  C     -4.796706   -0.851905   -0.495703
  C     -4.490873   -2.164841    0.192926
  H      4.691242   -2.148738   -0.867801
  H      4.033697   -1.254323   -2.246239
  H      5.784987   -1.391098   -2.041374
  H      4.883341    0.862940   -1.363505
  H      5.697776    0.017970   -0.011331
  H      0.579452    0.136715    2.566959
  H      1.981110   -0.835229    2.040997
  H      2.115359    2.053166    3.050184
  H      2.546297    0.620276    4.001139
  H      3.498656    1.063204    2.573871
  H     -0.469203   -2.221212   -1.726848
  H     -0.177065   -0.446454   -1.609080
  H     -1.385842    1.660786    1.942164
  H     -2.937547    2.185208    2.636416
  H     -1.704336   -0.592011    3.056469
  H     -1.676771    0.728260    4.242537
  H     -3.213760   -0.004557    3.761716
  H     -5.296191   -0.159381    0.183363
  H     -5.402765   -0.997650   -1.391246
  H     -5.426585   -2.641305    0.468563
  H     -3.938217   -2.824701   -0.470763
  H     -3.900789   -1.995665    1.090863

 Total Charge           Charge          ....    0
 Multiplicity           Mult            ....    1
 Number of Electrons    NEL             ....  202
 Basis Dimension        Dim             ....  334

ORBITAL ENERGIES
----------------

  NO   OCC          E(Eh)            E(eV)
   0   2.0000     -88.040966     -2395.7165
   1   2.0000     -88.040217     -2395.6961
   2   2.0000     -87.976922     -2393.9738
   3   2.0000     -87.973488     -2393.8803
   4   2.0000     -76.421803     -2079.5430
   5   2.0000     -76.421772     -2079.5421
   6   2.0000     -18.798198      -511.5250
   7   2.0000     -18.794175      -511.4155
   8   2.0000     -18.788361      -511.2573
   9   2.0000     -18.788325      -511.2563
  10   2.0000      -9.960161      -271.0298
  11   2.0000      -9.957111      -270.9468
  12   2.0000      -9.953712      -270.8543
  13   2.0000      -9.952973      -270.8342
  14   2.0000      -9.951493      -270.7939
  15   2.0000      -9.895405      -269.2677
  16   2.0000      -9.890416      -269.1319
  17   2.0000      -9.885594      -269.0007
  18   2.0000      -9.885111      -268.9875
  19   2.0000      -7.686001      -209.1467
  20   2.0000      -7.684880      -209.1162
  21   2.0000      -7.622062      -207.4069
  22   2.0000      -7.618584      -207.3122
  23   2.0000      -6.419419      -174.6813
  24   2.0000      -6.419377      -174.6801
  25   2.0000      -5.713789      -155.4801
  26   2.0000      -5.712633      -155.4487
  27   2.0000      -5.710482      -155.3901
  28   2.0000      -5.709374      -155.3600
  29   2.0000      -5.703106      -155.1894
  30   2.0000      -5.702078      -155.1614
  31   2.0000      -5.651229      -153.7777
  32   2.0000      -5.647726      -153.6824
  33   2.0000      -5.642484      -153.5398
  34   2.0000      -5.642189      -153.5318
  35   2.0000      -5.639403      -153.4560
  36   2.0000      -5.638328      -153.4267
  37   2.0000      -4.642622      -126.3322
  38   2.0000      -4.642428      -126.3269
  39   2.0000      -4.641088      -126.2904
  40   2.0000      -4.641039      -126.2891
  41   2.0000      -4.639409      -126.2447
  42   2.0000      -4.639342      -126.2429
  43   2.0000      -0.989911       -26.9369
  44   2.0000      -0.987423       -26.8692
  45   2.0000      -0.945286       -25.7225
  46   2.0000      -0.943716       -25.6798
  47   2.0000      -0.759527       -20.6678
  48   2.0000      -0.720797       -19.6139
  49   2.0000      -0.711329       -19.3562
  50   2.0000      -0.696521       -18.9533
  51   2.0000      -0.690703       -18.7950
  52   2.0000      -0.677789       -18.4436
  53   2.0000      -0.647032       -17.6066
  54   2.0000      -0.627587       -17.0775
  55   2.0000      -0.596753       -16.2385
  56   2.0000      -0.590411       -16.0659
  57   2.0000      -0.579632       -15.7726
  58   2.0000      -0.573650       -15.6098
  59   2.0000      -0.558126       -15.1874
  60   2.0000      -0.505316       -13.7503
  61   2.0000      -0.498347       -13.5607
  62   2.0000      -0.476602       -12.9690
  63   2.0000      -0.473823       -12.8934
  64   2.0000      -0.456688       -12.4271
  65   2.0000      -0.450334       -12.2542
  66   2.0000      -0.443571       -12.0702
  67   2.0000      -0.438333       -11.9277
  68   2.0000      -0.429086       -11.6760
  69   2.0000      -0.424572       -11.5532
  70   2.0000      -0.414157       -11.2698
  71   2.0000      -0.396310       -10.7842
  72   2.0000      -0.395000       -10.7485
  73   2.0000      -0.389347       -10.5947
  74   2.0000      -0.380748       -10.3607
  75   2.0000      -0.371899       -10.1199
  76   2.0000      -0.362795        -9.8722
  77   2.0000      -0.362180        -9.8554
  78   2.0000      -0.356549        -9.7022
  79   2.0000      -0.354849        -9.6559
  80   2.0000      -0.353511        -9.6195
  81   2.0000      -0.345648        -9.4055
  82   2.0000      -0.343556        -9.3486
  83   2.0000      -0.339601        -9.2410
  84   2.0000      -0.334640        -9.1060
  85   2.0000      -0.319043        -8.6816
  86   2.0000      -0.315271        -8.5790
  87   2.0000      -0.300570        -8.1789
  88   2.0000      -0.296239        -8.0611
  89   2.0000      -0.293461        -7.9855
  90   2.0000      -0.291803        -7.9404
  91   2.0000      -0.277961        -7.5637
  92   2.0000      -0.267572        -7.2810
  93   2.0000      -0.260288        -7.0828
  94   2.0000      -0.256651        -6.9838
  95   2.0000      -0.234267        -6.3747
  96   2.0000      -0.219734        -5.9793
  97   2.0000      -0.207839        -5.6556
  98   2.0000      -0.195151        -5.3103
  99   2.0000      -0.187749        -5.1089
 100   2.0000      -0.177703        -4.8356
 101   0.0000      -0.036133        -0.9832
 102   0.0000      -0.028336        -0.7711
 103   0.0000      -0.019365        -0.5269
 104   0.0000       0.013556         0.3689
 105   0.0000       0.019146         0.5210

MULLIKEN ATOMIC CHARGES
-----------------------
   0 C :   -0.328119
   1 C :    0.001897
   2 O :   -0.382528
   3 P :    0.589210
   4 S :   -0.285138
   5 O :   -0.351975
   6 C :   -0.030061
   7 C :   -0.281378
   8 S :   -0.100850
   9 C :   -0.337693
  10 S :   -0.135600
  11 P :    0.585995
  12 S :   -0.272028
  13 O :   -0.384711
  14 C :   -0.023062
  15 C :   -0.311109
  16 O :   -0.361890
  17 C :    0.004997
  18 C :   -0.315041
  19 H :    0.118446
  20 H :    0.134322
  21 H :    0.116582
  22 H :    0.114000
  23 H :    0.103566
  24 H :    0.113771
  25 H :    0.101733
  26 H :    0.118072
  27 H :    0.105887
  28 H :    0.120742
  29 H :    0.182669
  30 H :    0.200931
  31 H :    0.124881
  32 H :    0.113341
  33 H :    0.140540
  34 H :    0.113906
  35 H :    0.118072
  36 H :    0.110618
  37 H :    0.111027
  38 H :    0.113274
  39 H :    0.120770
  40 H :    0.121933
Sum of atomic charges:   -0.0000000

LOEWDIN ATOMIC CHARGES
----------------------
   0 C :   -0.373408
   1 C :   -0.117426
   2 O :   -0.246523
   3 P :    0.573836
   4 S :   -0.298223
   5 O :   -0.233129
   6 C :   -0.121162
   7 C :   -0.357481
   8 S :    0.070489
   9 C :   -0.480060
  10 S :    0.059141
  11 P :    0.557033
  12 S :   -0.286022
  13 O :   -0.246297
  14 C :   -0.115773
  15 C :   -0.365452
  16 O :   -0.241691
  17 C :   -0.107787
  18 C :   -0.368051
  19 H :    0.122895
  20 H :    0.124019
  21 H :    0.133118
  22 H :    0.113910
  23 H :    0.117673
  24 H :    0.112745
  25 H :    0.104621
  26 H :    0.127792
  27 H :    0.127898
  28 H :    0.126491
  29 H :    0.135270
  30 H :    0.125518
  31 H :    0.114175
  32 H :    0.123048
  33 H :    0.119103
  34 H :    0.130972
  35 H :    0.127034
  36 H :    0.115148
  37 H :    0.122747
  38 H :    0.130988
  39 H :    0.126476
  40 H :    0.116345

  Mayer bond orders larger than 0.100000
B(  0-C ,  1-C ) :   1.1661 B(  0-C , 19-H ) :   0.9428 B(  0-C , 20-H ) :   0.9318
B(  0-C , 21-H ) :   0.9371 B(  1-C ,  2-O ) :   0.9050 B(  1-C , 22-H ) :   0.9166
B(  1-C , 23-H ) :   0.9333 B(  2-O ,  3-P ) :   1.0728 B(  3-P ,  4-S ) :   1.6686
B(  3-P ,  5-O ) :   1.1339 B(  3-P ,  8-S ) :   0.9414 B(  4-S ,  8-S ) :   0.1065
B(  5-O ,  6-C ) :   0.8918 B(  6-C ,  7-C ) :   1.1631 B(  6-C , 24-H ) :   0.9170
B(  6-C , 25-H ) :   0.9114 B(  7-C , 26-H ) :   0.9471 B(  7-C , 27-H ) :   0.9398
B(  7-C , 28-H ) :   0.9427 B(  8-S ,  9-C ) :   1.0111 B(  9-C , 10-S ) :   0.9793
B(  9-C , 29-H ) :   0.9119 B(  9-C , 30-H ) :   0.8390 B( 10-S , 11-P ) :   0.9311
B( 10-S , 12-S ) :   0.1163 B( 11-P , 12-S ) :   1.6835 B( 11-P , 13-O ) :   1.0737
B( 11-P , 16-O ) :   1.1295 B( 13-O , 14-C ) :   0.9009 B( 14-C , 15-C ) :   1.1651
B( 14-C , 31-H ) :   0.9038 B( 14-C , 32-H ) :   0.9328 B( 15-C , 33-H ) :   0.9259
B( 15-C , 34-H ) :   0.9394 B( 15-C , 35-H ) :   0.9420 B( 16-O , 17-C ) :   0.9015
B( 17-C , 18-C ) :   1.1690 B( 17-C , 36-H ) :   0.9280 B( 17-C , 37-H ) :   0.9351
B( 18-C , 38-H ) :   0.9358 B( 18-C , 39-H ) :   0.9436 B( 18-C , 40-H ) :   0.9389

Dispersion correction           -0.065836675
FINAL SINGLE POINT ENERGY     -2929.510126359623

DIPOLE MOMENT
-------------

Method             : SCF
Type of density    : Electron Density
Multiplicity       :   1
Irrep              :   0
Energy             : -2929.6303055162943565 Eh
Relativity type    :
Basis              : AO
                                X                 Y                 Z
Electronic contribution:     -0.599214339       6.844510191     -17.454500696
Nuclear contribution   :      0.363873835      -8.183822078      19.282938636
                        -----------------------------------------
Total Dipole Moment    :     -0.235340505      -1.339311888       1.828437940
                        -----------------------------------------
Magnitude (a.u.)       :      2.278667765
Magnitude (Debye)      :      5.791913169

Rotational constants in cm-1:             0.013227             0.004890             0.004569
Rotational constants in MHz :           396.537260           146.596719           136.969639

                             ****ORCA TERMINATED NORMALLY****
TOTAL RUN TIME: 0 days 0 hours 0 minutes 21 seconds 379 msec
