                         Program Version 6.0.0  -   RELEASE  -
|  1> ! pbe def2-sv(p) def2/J RI DEFGRID1 loosescf d4 GCP(DFT/SV(P)) printgap
|  2> %output
|  3>     printlevel normal
|  4> end
|  5> * xyz 0 1
|  6> C -0.8414775402 -0.6150648546 -0.9564829894
|  7> C 0.5188864123 0.0247425726 -0.7968832179
|  8> Cl 1.5095257302 -0.8644473691 0.3956470369
|  9> Cl 0.3713436624 1.7248147743 -0.2655192816
| 10> Cl -1.7401764449 -0.6125482345 0.5968452029
| 11> H -1.438363846 -0.0530099704 -1.6733079256
| 12> H -0.7346073127 -1.6544597261 -1.2635797315
| 13> H 1.068321453 0.0251162787 -1.7400821519
| 14> *
| 15>
| 16>                          ****END OF INPUT****

CARTESIAN COORDINATES (ANGSTROEM)
---------------------------------
  C     -0.841478   -0.615065   -0.956483
  C      0.518886    0.024743   -0.796883
  Cl     1.509526   -0.864447    0.395647
  Cl     0.371344    1.724815   -0.265519
  Cl    -1.740176   -0.612548    0.596845
  H     -1.438364   -0.053010   -1.673308
  H     -0.734607   -1.654460   -1.263580
  H      1.068321    0.025116   -1.740082

 Total Charge           Charge          ....    0
 Multiplicity           Mult            ....    1
 Number of Electrons    NEL             ....   66
 Basis Dimension        Dim             ....   88

ORBITAL ENERGIES
----------------

  NO   OCC          E(Eh)            E(eV)
   0   2.0000    -100.643206     -2738.6409
   1   2.0000    -100.643132     -2738.6389
   2   2.0000    -100.633579     -2738.3789
   3   2.0000     -10.019031      -272.6317
   4   2.0000      -9.969822      -271.2927
   5   2.0000      -9.179310      -249.7817
   6   2.0000      -9.179242      -249.7799
   7   2.0000      -9.169069      -249.5031
   8   2.0000      -7.011260      -190.7861
   9   2.0000      -7.011195      -190.7843
  10   2.0000      -7.001240      -190.5134
  11   2.0000      -6.998964      -190.4515
  12   2.0000      -6.998902      -190.4498
  13   2.0000      -6.998464      -190.4379
  14   2.0000      -6.998408      -190.4364
  15   2.0000      -6.988570      -190.1687
  16   2.0000      -6.988305      -190.1614
  17   2.0000      -0.843961       -22.9653
  18   2.0000      -0.774241       -21.0682
  19   2.0000      -0.749086       -20.3837
  20   2.0000      -0.658742       -17.9253
  21   2.0000      -0.551507       -15.0073
  22   2.0000      -0.462645       -12.5892
  23   2.0000      -0.452955       -12.3255
  24   2.0000      -0.418394       -11.3851
  25   2.0000      -0.380809       -10.3623
  26   2.0000      -0.371877       -10.1193
  27   2.0000      -0.293241        -7.9795
  28   2.0000      -0.281096        -7.6490
  29   2.0000      -0.267222        -7.2715
  30   2.0000      -0.260584        -7.0909
  31   2.0000      -0.259791        -7.0693
  32   2.0000      -0.253967        -6.9108
  33   0.0000      -0.039091        -1.0637
  34   0.0000      -0.006072        -0.1652
  35   0.0000       0.011558         0.3145
  36   0.0000       0.030871         0.8401
  37   0.0000       0.078171         2.1271

MULLIKEN ATOMIC CHARGES
-----------------------
   0 C :   -0.111742
   1 C :   -0.125227
   2 Cl:   -0.068581
   3 Cl:   -0.068398
   4 Cl:   -0.114033
   5 H :    0.156510
   6 H :    0.156690
   7 H :    0.174780
Sum of atomic charges:   -0.0000000

LOEWDIN ATOMIC CHARGES
----------------------
   0 C :   -0.310872
   1 C :   -0.292068
   2 Cl:    0.070255
   3 Cl:    0.070366
   4 Cl:    0.050686
   5 H :    0.137607
   6 H :    0.137670
   7 H :    0.136356

  Mayer bond orders larger than 0.100000
B(  0-C ,  1-C ) :   1.0085 B(  0-C ,  4-Cl) :   1.0769 B(  0-C ,  5-H ) :   0.9088
B(  0-C ,  6-H ) :   0.9089 B(  1-C ,  2-Cl) :   1.0589 B(  1-C ,  3-Cl) :   1.0590
B(  1-C ,  7-H ) :   0.8978

Dispersion correction           -0.009049256
FINAL SINGLE POINT ENERGY     -1457.419535102877

DIPOLE MOMENT
-------------

Method             : SCF
Type of density    : Electron Density
Multiplicity       :   1
Irrep              :   0
Energy             : -1457.4405240412518197 Eh
Relativity type    :
Basis              : AO
                                X                 Y                 Z
Electronic contribution:      1.227000858       1.657622999       4.368140177
Nuclear contribution   :     -1.225196713      -1.910971219      -5.363577606
                        -----------------------------------------
Total Dipole Moment    :      0.001804145      -0.253348219      -0.995437429
                        -----------------------------------------
Magnitude (a.u.)       :      1.027172941
Magnitude (Debye)      :      2.610866127

Rotational constants in cm-1:             0.089382             0.065663             0.045501
Rotational constants in MHz :          2679.610581          1968.537512          1364.073640

                             ****ORCA TERMINATED NORMALLY****
TOTAL RUN TIME: 0 days 0 hours 0 minutes 5 seconds 198 msec
