                         Program Version 6.0.0  -   RELEASE  -
|  1> ! pbe def2-sv(p) def2/J RI DEFGRID1 loosescf d4 GCP(DFT/SV(P)) printgap
|  2> %output
|  3>     printlevel normal
|  4> end
|  5> * xyz 0 1
|  6> C 3.1673037735 -1.7507368226 -2.8290435078
|  7> C 3.9070715521 -0.5611828088 -2.2484339144
|  8> O 3.7258502232 -0.4610005518 -0.8282615719
|  9> P 2.4021711614 0.0895542242 -0.1520997257
| 10> S 1.4505763546 1.413625174 -1.2532113929
| 11> O 3.1280830309 0.5307837877 1.1776347805
| 12> C 2.5283363379 1.0505354624 2.3750015282
| 13> C 2.2996578303 2.5452431147 2.2693199965
| 14> S 1.27536622 -1.6165812477 0.4251091801
| 15> C -0.029832776 -1.5840080926 -0.8582498213
| 16> S -1.699797066 -1.7563562403 -0.196005264
| 17> P -2.0430273057 0.2810177658 0.3309702148
| 18> S -0.9277640925 0.9859684372 1.7776116716
| 19> O -3.6067712409 0.3507062939 0.5972275277
| 20> C -4.1819733765 0.0628362721 1.8839223743
| 21> C -3.9977538203 -1.3872758252 2.2804065179
| 22> O -1.8704904999 1.1131845124 -0.9962754019
| 23> C -2.8657564215 1.2905240646 -2.0337357319
| 24> C -3.2111424245 -0.0008388278 -2.744856271
| 25> H 3.4016964613 -2.6489823695 -2.2636185393
| 26> H 2.0939545245 -1.5741784695 -2.7903578316
| 27> H 3.4643526306 -1.8883957677 -3.863776902
| 28> H 3.5694877386 0.370953361 -2.7139877809
| 29> H 4.9866357245 -0.6635764133 -2.3671910572
| 30> H 1.5887444179 0.5301084383 2.5795013963
| 31> H 3.254333606 0.8145383614 3.1554063077
| 32> H 1.9298847618 2.9170848079 3.2192223468
| 33> H 3.2265306205 3.050843799 2.0121873883
| 34> H 1.5562088597 2.7576347647 1.5030577504
| 35> H 0.1166194452 -2.4407180872 -1.5105295485
| 36> H 0.0516969325 -0.6352249227 -1.3976705196
| 37> H -3.7226435901 0.7254611882 2.624173502
| 38> H -5.235341493 0.3176891752 1.7589874601
| 39> H -4.5483902376 -1.5817409105 3.1951250795
| 40> H -4.3573820746 -2.0456974471 1.4938132757
| 41> H -2.94246439 -1.59362423 2.4546549986
| 42> H -3.7526750377 1.7366251493 -1.5803495771
| 43> H -2.3896835601 2.0066348078 -2.7059899189
| 44> H -3.8922517642 0.2225148063 -3.5602796391
| 45> H -2.315032892 -0.464855631 -3.1490909133
| 46> H -3.6929374152 -0.694860625 -2.0600329173
| 47> *
| 48>
| 49>                          ****END OF INPUT****

CARTESIAN COORDINATES (ANGSTROEM)
---------------------------------
  C      3.167304   -1.750737   -2.829044
  C      3.907072   -0.561183   -2.248434
  O      3.725850   -0.461001   -0.828262
  P      2.402171    0.089554   -0.152100
  S      1.450576    1.413625   -1.253211
  O      3.128083    0.530784    1.177635
  C      2.528336    1.050535    2.375002
  C      2.299658    2.545243    2.269320
  S      1.275366   -1.616581    0.425109
  C     -0.029833   -1.584008   -0.858250
  S     -1.699797   -1.756356   -0.196005
  P     -2.043027    0.281018    0.330970
  S     -0.927764    0.985968    1.777612
  O     -3.606771    0.350706    0.597228
  C     -4.181973    0.062836    1.883922
  C     -3.997754   -1.387276    2.280407
  O     -1.870490    1.113185   -0.996275
  C     -2.865756    1.290524   -2.033736
  C     -3.211142   -0.000839   -2.744856
  H      3.401696   -2.648982   -2.263619
  H      2.093955   -1.574178   -2.790358
  H      3.464353   -1.888396   -3.863777
  H      3.569488    0.370953   -2.713988
  H      4.986636   -0.663576   -2.367191
  H      1.588744    0.530108    2.579501
  H      3.254334    0.814538    3.155406
  H      1.929885    2.917085    3.219222
  H      3.226531    3.050844    2.012187
  H      1.556209    2.757635    1.503058
  H      0.116619   -2.440718   -1.510530
  H      0.051697   -0.635225   -1.397671
  H     -3.722644    0.725461    2.624174
  H     -5.235341    0.317689    1.758987
  H     -4.548390   -1.581741    3.195125
  H     -4.357382   -2.045697    1.493813
  H     -2.942464   -1.593624    2.454655
  H     -3.752675    1.736625   -1.580350
  H     -2.389684    2.006635   -2.705990
  H     -3.892252    0.222515   -3.560280
  H     -2.315033   -0.464856   -3.149091
  H     -3.692937   -0.694861   -2.060033

 Total Charge           Charge          ....    0
 Multiplicity           Mult            ....    1
 Number of Electrons    NEL             ....  202
 Basis Dimension        Dim             ....  334

ORBITAL ENERGIES
----------------

  NO   OCC          E(Eh)            E(eV)
   0   2.0000     -88.042970     -2395.7710
   1   2.0000     -88.035208     -2395.5598
   2   2.0000     -87.981784     -2394.1061
   3   2.0000     -87.980229     -2394.0637
   4   2.0000     -76.427090     -2079.6868
   5   2.0000     -76.419718     -2079.4863
   6   2.0000     -18.798941      -511.5452
   7   2.0000     -18.791393      -511.3398
   8   2.0000     -18.782889      -511.1084
   9   2.0000     -18.776750      -510.9414
  10   2.0000      -9.957376      -270.9540
  11   2.0000      -9.957320      -270.9524
  12   2.0000      -9.954969      -270.8885
  13   2.0000      -9.945863      -270.6407
  14   2.0000      -9.941380      -270.5187
  15   2.0000      -9.889254      -269.1003
  16   2.0000      -9.888271      -269.0735
  17   2.0000      -9.884216      -268.9632
  18   2.0000      -9.867995      -268.5218
  19   2.0000      -7.687936      -209.1994
  20   2.0000      -7.680333      -208.9925
  21   2.0000      -7.626548      -207.5289
  22   2.0000      -7.625309      -207.4952
  23   2.0000      -6.424369      -174.8160
  24   2.0000      -6.416903      -174.6128
  25   2.0000      -5.715680      -155.5316
  26   2.0000      -5.712547      -155.4463
  27   2.0000      -5.708211      -155.3283
  28   2.0000      -5.704942      -155.2394
  29   2.0000      -5.704880      -155.2377
  30   2.0000      -5.697294      -155.0313
  31   2.0000      -5.655327      -153.8893
  32   2.0000      -5.654192      -153.8584
  33   2.0000      -5.647428      -153.6743
  34   2.0000      -5.646598      -153.6517
  35   2.0000      -5.646102      -153.6383
  36   2.0000      -5.645276      -153.6158
  37   2.0000      -4.647636      -126.4686
  38   2.0000      -4.645998      -126.4240
  39   2.0000      -4.644348      -126.3791
  40   2.0000      -4.639166      -126.2381
  41   2.0000      -4.638887      -126.2305
  42   2.0000      -4.637458      -126.1917
  43   2.0000      -0.991365       -26.9764
  44   2.0000      -0.980103       -26.6700
  45   2.0000      -0.947573       -25.7848
  46   2.0000      -0.934510       -25.4293
  47   2.0000      -0.758943       -20.6519
  48   2.0000      -0.719125       -19.5684
  49   2.0000      -0.709131       -19.2964
  50   2.0000      -0.694252       -18.8916
  51   2.0000      -0.678509       -18.4632
  52   2.0000      -0.673023       -18.3139
  53   2.0000      -0.650318       -17.6961
  54   2.0000      -0.630983       -17.1699
  55   2.0000      -0.597245       -16.2519
  56   2.0000      -0.591363       -16.0918
  57   2.0000      -0.582712       -15.8564
  58   2.0000      -0.560334       -15.2475
  59   2.0000      -0.560008       -15.2386
  60   2.0000      -0.498963       -13.5775
  61   2.0000      -0.490124       -13.3369
  62   2.0000      -0.473404       -12.8820
  63   2.0000      -0.462887       -12.5958
  64   2.0000      -0.457827       -12.4581
  65   2.0000      -0.447776       -12.1846
  66   2.0000      -0.438770       -11.9395
  67   2.0000      -0.428650       -11.6641
  68   2.0000      -0.427323       -11.6280
  69   2.0000      -0.414573       -11.2811
  70   2.0000      -0.413394       -11.2490
  71   2.0000      -0.400975       -10.9111
  72   2.0000      -0.395676       -10.7669
  73   2.0000      -0.384900       -10.4737
  74   2.0000      -0.380882       -10.3643
  75   2.0000      -0.370586       -10.0842
  76   2.0000      -0.363346        -9.8871
  77   2.0000      -0.359614        -9.7856
  78   2.0000      -0.354738        -9.6529
  79   2.0000      -0.349095        -9.4994
  80   2.0000      -0.344653        -9.3785
  81   2.0000      -0.341300        -9.2873
  82   2.0000      -0.337120        -9.1735
  83   2.0000      -0.333591        -9.0775
  84   2.0000      -0.322744        -8.7823
  85   2.0000      -0.322573        -8.7776
  86   2.0000      -0.306818        -8.3489
  87   2.0000      -0.298998        -8.1361
  88   2.0000      -0.296093        -8.0571
  89   2.0000      -0.288383        -7.8473
  90   2.0000      -0.280315        -7.6278
  91   2.0000      -0.273579        -7.4445
  92   2.0000      -0.262914        -7.1543
  93   2.0000      -0.259927        -7.0730
  94   2.0000      -0.254088        -6.9141
  95   2.0000      -0.237957        -6.4751
  96   2.0000      -0.220036        -5.9875
  97   2.0000      -0.202413        -5.5079
  98   2.0000      -0.199633        -5.4323
  99   2.0000      -0.190018        -5.1707
 100   2.0000      -0.186666        -5.0794
 101   0.0000      -0.038328        -1.0430
 102   0.0000      -0.029905        -0.8138
 103   0.0000      -0.017420        -0.4740
 104   0.0000       0.002240         0.0610
 105   0.0000       0.019872         0.5407

MULLIKEN ATOMIC CHARGES
-----------------------
   0 C :   -0.320279
   1 C :    0.001265
   2 O :   -0.359463
   3 P :    0.607551
   4 S :   -0.321724
   5 O :   -0.357487
   6 C :   -0.016830
   7 C :   -0.305869
   8 S :   -0.085151
   9 C :   -0.391041
  10 S :   -0.095322
  11 P :    0.618981
  12 S :   -0.315615
  13 O :   -0.384789
  14 C :    0.000477
  15 C :   -0.330119
  16 O :   -0.355822
  17 C :    0.008818
  18 C :   -0.320606
  19 H :    0.120010
  20 H :    0.117910
  21 H :    0.110174
  22 H :    0.109381
  23 H :    0.104265
  24 H :    0.128965
  25 H :    0.100805
  26 H :    0.104848
  27 H :    0.110488
  28 H :    0.142736
  29 H :    0.188998
  30 H :    0.206303
  31 H :    0.115401
  32 H :    0.105303
  33 H :    0.117887
  34 H :    0.119240
  35 H :    0.136802
  36 H :    0.109261
  37 H :    0.114073
  38 H :    0.113336
  39 H :    0.120967
  40 H :    0.125869
Sum of atomic charges:   -0.0000000

LOEWDIN ATOMIC CHARGES
----------------------
   0 C :   -0.366052
   1 C :   -0.119756
   2 O :   -0.240053
   3 P :    0.565875
   4 S :   -0.303235
   5 O :   -0.226883
   6 C :   -0.117377
   7 C :   -0.365201
   8 S :    0.067553
   9 C :   -0.489795
  10 S :    0.080523
  11 P :    0.576077
  12 S :   -0.303570
  13 O :   -0.246138
  14 C :   -0.117416
  15 C :   -0.373372
  16 O :   -0.230601
  17 C :   -0.106446
  18 C :   -0.368983
  19 H :    0.126861
  20 H :    0.118428
  21 H :    0.129590
  22 H :    0.107097
  23 H :    0.118664
  24 H :    0.105135
  25 H :    0.116517
  26 H :    0.128225
  27 H :    0.123936
  28 H :    0.126378
  29 H :    0.133898
  30 H :    0.119500
  31 H :    0.114009
  32 H :    0.118776
  33 H :    0.133986
  34 H :    0.123675
  35 H :    0.124679
  36 H :    0.114928
  37 H :    0.124365
  38 H :    0.131210
  39 H :    0.125858
  40 H :    0.119136

  Mayer bond orders larger than 0.100000
B(  0-C ,  1-C ) :   1.1597 B(  0-C , 19-H ) :   0.9457 B(  0-C , 20-H ) :   0.9351
B(  0-C , 21-H ) :   0.9391 B(  1-C ,  2-O ) :   0.9293 B(  1-C , 22-H ) :   0.9098
B(  1-C , 23-H ) :   0.9339 B(  2-O ,  3-P ) :   1.1028 B(  3-P ,  4-S ) :   1.5970
B(  3-P ,  5-O ) :   1.1506 B(  3-P ,  8-S ) :   0.9571 B(  4-S ,  8-S ) :   0.1231
B(  4-S , 30-H ) :   0.1131 B(  5-O ,  6-C ) :   0.9047 B(  6-C ,  7-C ) :   1.1708
B(  6-C , 24-H ) :   0.9085 B(  6-C , 25-H ) :   0.9345 B(  7-C , 26-H ) :   0.9396
B(  7-C , 27-H ) :   0.9464 B(  7-C , 28-H ) :   0.9317 B(  8-S ,  9-C ) :   0.9966
B(  9-C , 10-S ) :   1.0009 B(  9-C , 29-H ) :   0.9024 B(  9-C , 30-H ) :   0.8354
B( 10-S , 11-P ) :   0.9448 B( 10-S , 12-S ) :   0.1109 B( 11-P , 12-S ) :   1.6581
B( 11-P , 13-O ) :   1.0744 B( 11-P , 16-O ) :   1.1292 B( 13-O , 14-C ) :   0.9026
B( 14-C , 15-C ) :   1.1655 B( 14-C , 31-H ) :   0.9161 B( 14-C , 32-H ) :   0.9334
B( 15-C , 33-H ) :   0.9369 B( 15-C , 34-H ) :   0.9433 B( 15-C , 35-H ) :   0.9310
B( 16-O , 17-C ) :   0.8966 B( 17-C , 18-C ) :   1.1697 B( 17-C , 36-H ) :   0.9275
B( 17-C , 37-H ) :   0.9336 B( 18-C , 38-H ) :   0.9358 B( 18-C , 39-H ) :   0.9457
B( 18-C , 40-H ) :   0.9377

Dispersion correction           -0.067020537
FINAL SINGLE POINT ENERGY     -2929.513209781719

DIPOLE MOMENT
-------------

Method             : SCF
Type of density    : Electron Density
Multiplicity       :   1
Irrep              :   0
Energy             : -2929.6311757965995639 Eh
Relativity type    :
Basis              : AO
                                X                 Y                 Z
Electronic contribution:      6.329129804       0.395327556       5.155131989
Nuclear contribution   :     -7.441583292      -1.013649404      -5.780201668
                        -----------------------------------------
Total Dipole Moment    :     -1.112453488      -0.618321849      -0.625069679
                        -----------------------------------------
Magnitude (a.u.)       :      1.417951612
Magnitude (Debye)      :      3.604146572

Rotational constants in cm-1:             0.011655             0.005524             0.004862
Rotational constants in MHz :           349.409167           165.612124           145.771426

                             ****ORCA TERMINATED NORMALLY****
TOTAL RUN TIME: 0 days 0 hours 0 minutes 20 seconds 982 msec
