                         Program Version 6.0.0  -   RELEASE  -
|  1> ! pbe def2-sv(p) def2/J RI DEFGRID1 loosescf d4 GCP(DFT/SV(P)) printgap
|  2> %output
|  3>     printlevel normal
|  4> end
|  5> * xyz 0 1
|  6> C 3.7321311441 -0.7340408977 -2.7660953831
|  7> C 4.5276905156 -1.005371792 -1.5043293312
|  8> O 3.6937238184 -1.388421651 -0.3972928182
|  9> P 2.6772445238 -0.3838960918 0.2871939756
| 10> S 3.2939037155 1.4712747298 0.4727147911
| 11> O 2.5093715315 -1.2209831342 1.620326792
| 12> C 2.1071996402 -0.6409741093 2.8739654455
| 13> C 0.6731941964 -0.1519664508 2.8510372612
| 14> S 0.8578939976 -0.6852059424 -0.7939880136
| 15> C 0.3619580103 1.0334605659 -1.0877925414
| 16> S -0.8724889455 1.658558612 0.0847864951
| 17> P -2.419272622 0.3317239028 -0.4634097085
| 18> S -2.6220638988 -0.0504560594 -2.3675297475
| 19> O -3.741115609 0.954889935 0.1475342893
| 20> C -3.9186486545 1.2286647042 1.5605254865
| 21> C -3.6643043915 2.691450629 1.8636387799
| 22> O -2.0412116 -0.9199709487 0.4649130202
| 23> C -2.3530160889 -2.2693384235 0.0782741154
| 24> C -3.834239118 -2.5544660482 0.2224736376
| 25> H 3.1308791739 0.1663388898 -2.6452024478
| 26> H 4.4163390051 -0.5883515383 -3.5959977833
| 27> H 3.0727892706 -1.5702449606 -2.9855969151
| 28> H 5.1030801837 -0.1198628809 -1.2153833999
| 29> H 5.1984926484 -1.8564565667 -1.630074809
| 30> H 2.2444736909 -1.4541074272 3.5885299356
| 31> H 2.7880363957 0.1819243553 3.1131145599
| 32> H 0.3726197323 0.1291452485 3.855295255
| 33> H 0.5860674544 0.720184964 2.2040132256
| 34> H 0.010805257 -0.9318769114 2.4817452286
| 35> H -0.061527037 1.0747552054 -2.0902965208
| 36> H 1.2319616302 1.6853878727 -0.9878858001
| 37> H -4.9583042329 0.960841013 1.7571469681
| 38> H -3.2518867108 0.5817596712 2.1352969593
| 39> H -4.2942931832 3.3158149153 1.236224324
| 40> H -3.8960222124 2.8821525378 2.9067898079
| 41> H -2.623081745 2.946472235 1.6776565772
| 42> H -2.0270946065 -2.4198053757 -0.9557754948
| 43> H -1.7504721867 -2.8882167854 0.7447287149
| 44> H -4.0309789379 -3.5871470667 -0.047449764
| 45> H -4.1573455697 -2.3809757947 1.2456555855
| 46> H -4.3981214345 -1.9013340805 -0.4434376318
| 47> *
| 48>
| 49>                          ****END OF INPUT****

CARTESIAN COORDINATES (ANGSTROEM)
---------------------------------
  C      3.732131   -0.734041   -2.766095
  C      4.527691   -1.005372   -1.504329
  O      3.693724   -1.388422   -0.397293
  P      2.677245   -0.383896    0.287194
  S      3.293904    1.471275    0.472715
  O      2.509372   -1.220983    1.620327
  C      2.107200   -0.640974    2.873965
  C      0.673194   -0.151966    2.851037
  S      0.857894   -0.685206   -0.793988
  C      0.361958    1.033461   -1.087793
  S     -0.872489    1.658559    0.084786
  P     -2.419273    0.331724   -0.463410
  S     -2.622064   -0.050456   -2.367530
  O     -3.741116    0.954890    0.147534
  C     -3.918649    1.228665    1.560525
  C     -3.664304    2.691451    1.863639
  O     -2.041212   -0.919971    0.464913
  C     -2.353016   -2.269338    0.078274
  C     -3.834239   -2.554466    0.222474
  H      3.130879    0.166339   -2.645202
  H      4.416339   -0.588352   -3.595998
  H      3.072789   -1.570245   -2.985597
  H      5.103080   -0.119863   -1.215383
  H      5.198493   -1.856457   -1.630075
  H      2.244474   -1.454107    3.588530
  H      2.788036    0.181924    3.113115
  H      0.372620    0.129145    3.855295
  H      0.586067    0.720185    2.204013
  H      0.010805   -0.931877    2.481745
  H     -0.061527    1.074755   -2.090297
  H      1.231962    1.685388   -0.987886
  H     -4.958304    0.960841    1.757147
  H     -3.251887    0.581760    2.135297
  H     -4.294293    3.315815    1.236224
  H     -3.896022    2.882153    2.906790
  H     -2.623082    2.946472    1.677657
  H     -2.027095   -2.419805   -0.955775
  H     -1.750472   -2.888217    0.744729
  H     -4.030979   -3.587147   -0.047450
  H     -4.157346   -2.380976    1.245656
  H     -4.398121   -1.901334   -0.443438

 Total Charge           Charge          ....    0
 Multiplicity           Mult            ....    1
 Number of Electrons    NEL             ....  202
 Basis Dimension        Dim             ....  334

ORBITAL ENERGIES
----------------

  NO   OCC          E(Eh)            E(eV)
   0   2.0000     -88.043964     -2395.7981
   1   2.0000     -88.042614     -2395.7613
   2   2.0000     -87.996053     -2394.4943
   3   2.0000     -87.989331     -2394.3114
   4   2.0000     -76.428999     -2079.7388
   5   2.0000     -76.427960     -2079.7105
   6   2.0000     -18.798348      -511.5291
   7   2.0000     -18.792836      -511.3791
   8   2.0000     -18.789457      -511.2871
   9   2.0000     -18.788940      -511.2730
  10   2.0000      -9.962784      -271.1011
  11   2.0000      -9.953605      -270.8514
  12   2.0000      -9.953160      -270.8393
  13   2.0000      -9.952315      -270.8163
  14   2.0000      -9.950914      -270.7781
  15   2.0000      -9.892884      -269.1991
  16   2.0000      -9.886440      -269.0237
  17   2.0000      -9.884308      -268.9657
  18   2.0000      -9.878866      -268.8176
  19   2.0000      -7.688879      -209.2250
  20   2.0000      -7.687265      -209.1811
  21   2.0000      -7.640849      -207.9181
  22   2.0000      -7.634566      -207.7471
  23   2.0000      -6.426398      -174.8712
  24   2.0000      -6.425882      -174.8571
  25   2.0000      -5.716655      -155.5581
  26   2.0000      -5.715152      -155.5172
  27   2.0000      -5.713517      -155.4727
  28   2.0000      -5.711799      -155.4260
  29   2.0000      -5.705804      -155.2628
  30   2.0000      -5.704241      -155.2203
  31   2.0000      -5.669553      -154.2764
  32   2.0000      -5.663610      -154.1147
  33   2.0000      -5.661460      -154.0562
  34   2.0000      -5.661274      -154.0511
  35   2.0000      -5.655122      -153.8837
  36   2.0000      -5.654620      -153.8700
  37   2.0000      -4.648802      -126.5003
  38   2.0000      -4.648514      -126.4925
  39   2.0000      -4.648337      -126.4877
  40   2.0000      -4.647250      -126.4581
  41   2.0000      -4.647073      -126.4533
  42   2.0000      -4.646389      -126.4347
  43   2.0000      -0.988499       -26.8984
  44   2.0000      -0.988375       -26.8950
  45   2.0000      -0.947305       -25.7775
  46   2.0000      -0.944216       -25.6934
  47   2.0000      -0.763673       -20.7806
  48   2.0000      -0.723456       -19.6862
  49   2.0000      -0.712499       -19.3881
  50   2.0000      -0.694304       -18.8930
  51   2.0000      -0.682508       -18.5720
  52   2.0000      -0.678156       -18.4536
  53   2.0000      -0.655064       -17.8252
  54   2.0000      -0.641391       -17.4531
  55   2.0000      -0.605281       -16.4705
  56   2.0000      -0.592155       -16.1134
  57   2.0000      -0.582331       -15.8460
  58   2.0000      -0.569670       -15.5015
  59   2.0000      -0.559714       -15.2306
  60   2.0000      -0.503194       -13.6926
  61   2.0000      -0.494708       -13.4617
  62   2.0000      -0.481469       -13.1014
  63   2.0000      -0.465431       -12.6650
  64   2.0000      -0.460253       -12.5241
  65   2.0000      -0.450262       -12.2523
  66   2.0000      -0.442652       -12.0452
  67   2.0000      -0.436261       -11.8713
  68   2.0000      -0.426527       -11.6064
  69   2.0000      -0.420469       -11.4416
  70   2.0000      -0.409927       -11.1547
  71   2.0000      -0.401147       -10.9158
  72   2.0000      -0.398264       -10.8373
  73   2.0000      -0.387571       -10.5463
  74   2.0000      -0.381223       -10.3736
  75   2.0000      -0.376935       -10.2569
  76   2.0000      -0.371146       -10.0994
  77   2.0000      -0.361162        -9.8277
  78   2.0000      -0.358800        -9.7634
  79   2.0000      -0.352190        -9.5836
  80   2.0000      -0.349642        -9.5142
  81   2.0000      -0.346720        -9.4347
  82   2.0000      -0.343633        -9.3507
  83   2.0000      -0.339606        -9.2411
  84   2.0000      -0.337416        -9.1816
  85   2.0000      -0.321433        -8.7466
  86   2.0000      -0.312184        -8.4949
  87   2.0000      -0.305901        -8.3240
  88   2.0000      -0.300247        -8.1701
  89   2.0000      -0.289395        -7.8748
  90   2.0000      -0.283240        -7.7073
  91   2.0000      -0.274843        -7.4789
  92   2.0000      -0.272344        -7.4109
  93   2.0000      -0.267300        -7.2736
  94   2.0000      -0.258799        -7.0423
  95   2.0000      -0.228372        -6.2143
  96   2.0000      -0.220301        -5.9947
  97   2.0000      -0.217923        -5.9300
  98   2.0000      -0.209975        -5.7137
  99   2.0000      -0.207351        -5.6423
 100   2.0000      -0.203482        -5.5370
 101   0.0000      -0.045985        -1.2513
 102   0.0000      -0.030754        -0.8369
 103   0.0000      -0.011703        -0.3185
 104   0.0000       0.002461         0.0670
 105   0.0000       0.006746         0.1836

MULLIKEN ATOMIC CHARGES
-----------------------
   0 C :   -0.314302
   1 C :    0.000523
   2 O :   -0.359265
   3 P :    0.602573
   4 S :   -0.332546
   5 O :   -0.359757
   6 C :    0.005798
   7 C :   -0.338885
   8 S :   -0.082827
   9 C :   -0.353214
  10 S :   -0.100322
  11 P :    0.617001
  12 S :   -0.308399
  13 O :   -0.366249
  14 C :   -0.031669
  15 C :   -0.298740
  16 O :   -0.379156
  17 C :   -0.009335
  18 C :   -0.309794
  19 H :    0.121272
  20 H :    0.113079
  21 H :    0.122946
  22 H :    0.111052
  23 H :    0.108051
  24 H :    0.104473
  25 H :    0.109995
  26 H :    0.104863
  27 H :    0.136384
  28 H :    0.126317
  29 H :    0.194860
  30 H :    0.191881
  31 H :    0.112661
  32 H :    0.113451
  33 H :    0.125670
  34 H :    0.113247
  35 H :    0.135430
  36 H :    0.114889
  37 H :    0.105428
  38 H :    0.114190
  39 H :    0.109482
  40 H :    0.128942
Sum of atomic charges:   -0.0000000

LOEWDIN ATOMIC CHARGES
----------------------
   0 C :   -0.368468
   1 C :   -0.115859
   2 O :   -0.237982
   3 P :    0.574345
   4 S :   -0.312984
   5 O :   -0.237555
   6 C :   -0.113594
   7 C :   -0.376783
   8 S :    0.090257
   9 C :   -0.484914
  10 S :    0.098421
  11 P :    0.568179
  12 S :   -0.304181
  13 O :   -0.242180
  14 C :   -0.117486
  15 C :   -0.360495
  16 O :   -0.250517
  17 C :   -0.123628
  18 C :   -0.365137
  19 H :    0.119303
  20 H :    0.130680
  21 H :    0.126530
  22 H :    0.110835
  23 H :    0.120446
  24 H :    0.118676
  25 H :    0.110981
  26 H :    0.127775
  27 H :    0.111427
  28 H :    0.125075
  29 H :    0.131413
  30 H :    0.125589
  31 H :    0.122102
  32 H :    0.111199
  33 H :    0.131856
  34 H :    0.131968
  35 H :    0.120107
  36 H :    0.109058
  37 H :    0.116902
  38 H :    0.131748
  39 H :    0.121594
  40 H :    0.125294

  Mayer bond orders larger than 0.100000
B(  0-C ,  1-C ) :   1.1633 B(  0-C , 19-H ) :   0.9404 B(  0-C , 20-H ) :   0.9375
B(  0-C , 21-H ) :   0.9423 B(  1-C ,  2-O ) :   0.9161 B(  1-C , 22-H ) :   0.9190
B(  1-C , 23-H ) :   0.9345 B(  2-O ,  3-P ) :   1.1277 B(  3-P ,  4-S ) :   1.5789
B(  3-P ,  5-O ) :   1.1324 B(  3-P ,  8-S ) :   0.9466 B(  4-S ,  8-S ) :   0.1197
B(  4-S , 30-H ) :   0.1005 B(  5-O ,  6-C ) :   0.9123 B(  6-C ,  7-C ) :   1.1598
B(  6-C , 24-H ) :   0.9343 B(  6-C , 25-H ) :   0.9209 B(  7-C , 26-H ) :   0.9368
B(  7-C , 27-H ) :   0.9238 B(  7-C , 28-H ) :   0.9396 B(  8-S ,  9-C ) :   1.0155
B(  9-C , 10-S ) :   1.0024 B(  9-C , 29-H ) :   0.8802 B(  9-C , 30-H ) :   0.8590
B( 10-S , 11-P ) :   0.9657 B( 10-S , 12-S ) :   0.1016 B( 11-P , 12-S ) :   1.6365
B( 11-P , 13-O ) :   1.1266 B( 11-P , 16-O ) :   1.0641 B( 13-O , 14-C ) :   0.8980
B( 14-C , 15-C ) :   1.1679 B( 14-C , 31-H ) :   0.9336 B( 14-C , 32-H ) :   0.9154
B( 15-C , 33-H ) :   0.9457 B( 15-C , 34-H ) :   0.9382 B( 15-C , 35-H ) :   0.9343
B( 16-O , 17-C ) :   0.9051 B( 17-C , 18-C ) :   1.1615 B( 17-C , 36-H ) :   0.9123
B( 17-C , 37-H ) :   0.9322 B( 18-C , 38-H ) :   0.9404 B( 18-C , 39-H ) :   0.9476
B( 18-C , 40-H ) :   0.9354

Dispersion correction           -0.065256851
FINAL SINGLE POINT ENERGY     -2929.521463392854

DIPOLE MOMENT
-------------

Method             : SCF
Type of density    : Electron Density
Multiplicity       :   1
Irrep              :   0
Energy             : -2929.6410513089149390 Eh
Relativity type    :
Basis              : AO
                                X                 Y                 Z
Electronic contribution:      6.794451674       4.218226608      -8.833747326
Nuclear contribution   :     -7.085927289      -4.801964497       9.969243217
                        -----------------------------------------
Total Dipole Moment    :     -0.291475615      -0.583737888       1.135495891
                        -----------------------------------------
Magnitude (a.u.)       :      1.309602564
Magnitude (Debye)      :      3.328745178

Rotational constants in cm-1:             0.012224             0.004795             0.004455
Rotational constants in MHz :           366.460765           143.738196           133.547653

                             ****ORCA TERMINATED NORMALLY****
TOTAL RUN TIME: 0 days 0 hours 0 minutes 21 seconds 201 msec
