                         Program Version 6.0.0  -   RELEASE  -
|  1> ! pbe def2-sv(p) def2/J RI DEFGRID1 loosescf d4 GCP(DFT/SV(P)) printgap
|  2> %output
|  3>     printlevel normal
|  4> end
|  5> * xyz 0 1
|  6> C 4.0622060102 -2.0555483233 -1.3960697941
|  7> C 4.6382685859 -0.7250279546 -0.9530200558
|  8> O 3.8787512031 -0.1392621343 0.1168300085
|  9> P 2.4081951905 0.4065933925 -0.0961344281
| 10> S 2.0822447431 1.19267443 -1.868086599
| 11> O 2.4442791051 1.3438110237 1.179882423
| 12> C 1.3358820569 2.1003030762 1.6905179088
| 13> C 1.2224721032 3.4475305301 1.0046586824
| 14> S 1.1246145897 -1.1849056695 0.4794403498
| 15> C 0.1463380496 -1.4109627239 -1.051786929
| 16> S -1.5717224442 -1.8058796411 -0.6938356337
| 17> P -2.1159579045 0.039849208 0.2220065523
| 18> S -1.452716366 1.6366724432 -0.7002890138
| 19> O -1.6095931741 0.0047330949 1.7189153669
| 20> C -2.2153262572 -0.7312640882 2.8109669098
| 21> C -2.1151481283 -2.2311730356 2.6296055789
| 22> O -3.6902999671 -0.0652490104 0.4005969408
| 23> C -4.6199176056 0.3263625852 -0.6258065111
| 24> C -4.5254634541 -0.5497716428 -1.8576544452
| 25> H 3.9211979606 -2.7096417358 -0.5392401672
| 26> H 3.102140627 -1.8940744317 -1.8853581982
| 27> H 4.7405059888 -2.5247113381 -2.1014472022
| 28> H 4.6644480691 -0.0198666685 -1.7901142247
| 29> H 5.6378853545 -0.8377068425 -0.5313467694
| 30> H 0.4099017018 1.5272594499 1.5752821893
| 31> H 1.5596470791 2.2148474172 2.7530607497
| 32> H 0.9573711842 3.3177914785 -0.0434175627
| 33> H 0.4441106468 4.0305154955 1.4866281627
| 34> H 2.1681729262 3.9789332073 1.0657106643
| 35> H 0.5382465776 -2.2613840831 -1.6042088559
| 36> H 0.2104186227 -0.4899093167 -1.639388068
| 37> H -1.6450484713 -0.39497995 3.6783226566
| 38> H -3.2553094181 -0.4131311372 2.9009805634
| 39> H -1.0861386504 -2.5172554004 2.4222190153
| 40> H -2.4437115104 -2.7175304954 3.5428246658
| 41> H -2.7454059979 -2.5599650595 1.8065283328
| 42> H -5.5925091753 0.2347445534 -0.1399396536
| 43> H -4.4288953215 1.3728546097 -0.88256532
| 44> H -4.5927629003 -1.5995558143 -1.5838917424
| 45> H -5.3352618943 -0.3002857625 -2.5358299986
| 46> H -3.5774794952 -0.3792905034 -2.3655104664
| 47> *
| 48>
| 49>                          ****END OF INPUT****

CARTESIAN COORDINATES (ANGSTROEM)
---------------------------------
  C      4.062206   -2.055548   -1.396070
  C      4.638269   -0.725028   -0.953020
  O      3.878751   -0.139262    0.116830
  P      2.408195    0.406593   -0.096134
  S      2.082245    1.192674   -1.868087
  O      2.444279    1.343811    1.179882
  C      1.335882    2.100303    1.690518
  C      1.222472    3.447531    1.004659
  S      1.124615   -1.184906    0.479440
  C      0.146338   -1.410963   -1.051787
  S     -1.571722   -1.805880   -0.693836
  P     -2.115958    0.039849    0.222007
  S     -1.452716    1.636672   -0.700289
  O     -1.609593    0.004733    1.718915
  C     -2.215326   -0.731264    2.810967
  C     -2.115148   -2.231173    2.629606
  O     -3.690300   -0.065249    0.400597
  C     -4.619918    0.326363   -0.625807
  C     -4.525463   -0.549772   -1.857654
  H      3.921198   -2.709642   -0.539240
  H      3.102141   -1.894074   -1.885358
  H      4.740506   -2.524711   -2.101447
  H      4.664448   -0.019867   -1.790114
  H      5.637885   -0.837707   -0.531347
  H      0.409902    1.527259    1.575282
  H      1.559647    2.214847    2.753061
  H      0.957371    3.317791   -0.043418
  H      0.444111    4.030515    1.486628
  H      2.168173    3.978933    1.065711
  H      0.538247   -2.261384   -1.604209
  H      0.210419   -0.489909   -1.639388
  H     -1.645048   -0.394980    3.678323
  H     -3.255309   -0.413131    2.900981
  H     -1.086139   -2.517255    2.422219
  H     -2.443712   -2.717530    3.542825
  H     -2.745406   -2.559965    1.806528
  H     -5.592509    0.234745   -0.139940
  H     -4.428895    1.372855   -0.882565
  H     -4.592763   -1.599556   -1.583892
  H     -5.335262   -0.300286   -2.535830
  H     -3.577479   -0.379291   -2.365510

 Total Charge           Charge          ....    0
 Multiplicity           Mult            ....    1
 Number of Electrons    NEL             ....  202
 Basis Dimension        Dim             ....  334

ORBITAL ENERGIES
----------------

  NO   OCC          E(Eh)            E(eV)
   0   2.0000     -88.047121     -2395.8840
   1   2.0000     -88.039336     -2395.6721
   2   2.0000     -87.985609     -2394.2101
   3   2.0000     -87.982987     -2394.1388
   4   2.0000     -76.430711     -2079.7854
   5   2.0000     -76.420615     -2079.5106
   6   2.0000     -18.802166      -511.6330
   7   2.0000     -18.794769      -511.4317
   8   2.0000     -18.781452      -511.0693
   9   2.0000     -18.780966      -511.0561
  10   2.0000      -9.959871      -271.0219
  11   2.0000      -9.959708      -271.0174
  12   2.0000      -9.953386      -270.8454
  13   2.0000      -9.946583      -270.6603
  14   2.0000      -9.937477      -270.4125
  15   2.0000      -9.889509      -269.1072
  16   2.0000      -9.888936      -269.0916
  17   2.0000      -9.882362      -268.9127
  18   2.0000      -9.865252      -268.4472
  19   2.0000      -7.691961      -209.3089
  20   2.0000      -7.683945      -209.0908
  21   2.0000      -7.630431      -207.6346
  22   2.0000      -7.627838      -207.5640
  23   2.0000      -6.427729      -174.9074
  24   2.0000      -6.417832      -174.6381
  25   2.0000      -5.719883      -155.6459
  26   2.0000      -5.716390      -155.5509
  27   2.0000      -5.711821      -155.4266
  28   2.0000      -5.709001      -155.3498
  29   2.0000      -5.708443      -155.3346
  30   2.0000      -5.700998      -155.1320
  31   2.0000      -5.659369      -153.9993
  32   2.0000      -5.656646      -153.9252
  33   2.0000      -5.651108      -153.7745
  34   2.0000      -5.650511      -153.7582
  35   2.0000      -5.648378      -153.7002
  36   2.0000      -5.648195      -153.6952
  37   2.0000      -4.650857      -126.5562
  38   2.0000      -4.649298      -126.5138
  39   2.0000      -4.647915      -126.4762
  40   2.0000      -4.640041      -126.2619
  41   2.0000      -4.639823      -126.2560
  42   2.0000      -4.638440      -126.2184
  43   2.0000      -0.993890       -27.0451
  44   2.0000      -0.980739       -26.6873
  45   2.0000      -0.949668       -25.8418
  46   2.0000      -0.935335       -25.4517
  47   2.0000      -0.762214       -20.7409
  48   2.0000      -0.720616       -19.6090
  49   2.0000      -0.708368       -19.2757
  50   2.0000      -0.695575       -18.9276
  51   2.0000      -0.679770       -18.4975
  52   2.0000      -0.671013       -18.2592
  53   2.0000      -0.651866       -17.7382
  54   2.0000      -0.632226       -17.2037
  55   2.0000      -0.600803       -16.3487
  56   2.0000      -0.591150       -16.0860
  57   2.0000      -0.584147       -15.8955
  58   2.0000      -0.561129       -15.2691
  59   2.0000      -0.557629       -15.1739
  60   2.0000      -0.501474       -13.6458
  61   2.0000      -0.489376       -13.3166
  62   2.0000      -0.475167       -12.9299
  63   2.0000      -0.461068       -12.5463
  64   2.0000      -0.455102       -12.3840
  65   2.0000      -0.446880       -12.1602
  66   2.0000      -0.442319       -12.0361
  67   2.0000      -0.432355       -11.7650
  68   2.0000      -0.428344       -11.6558
  69   2.0000      -0.416288       -11.3278
  70   2.0000      -0.411234       -11.1903
  71   2.0000      -0.404095       -10.9960
  72   2.0000      -0.393374       -10.7043
  73   2.0000      -0.386700       -10.5226
  74   2.0000      -0.380077       -10.3424
  75   2.0000      -0.371879       -10.1193
  76   2.0000      -0.363485        -9.8909
  77   2.0000      -0.359343        -9.7782
  78   2.0000      -0.355100        -9.6628
  79   2.0000      -0.349024        -9.4974
  80   2.0000      -0.347203        -9.4479
  81   2.0000      -0.342405        -9.3173
  82   2.0000      -0.338283        -9.2051
  83   2.0000      -0.333040        -9.0625
  84   2.0000      -0.322607        -8.7786
  85   2.0000      -0.320837        -8.7304
  86   2.0000      -0.310383        -8.4459
  87   2.0000      -0.301326        -8.1995
  88   2.0000      -0.297610        -8.0984
  89   2.0000      -0.289593        -7.8802
  90   2.0000      -0.279306        -7.6003
  91   2.0000      -0.276267        -7.5176
  92   2.0000      -0.266544        -7.2530
  93   2.0000      -0.260327        -7.0839
  94   2.0000      -0.254042        -6.9128
  95   2.0000      -0.234721        -6.3871
  96   2.0000      -0.219255        -5.9662
  97   2.0000      -0.211368        -5.7516
  98   2.0000      -0.202741        -5.5169
  99   2.0000      -0.196012        -5.3337
 100   2.0000      -0.189601        -5.1593
 101   0.0000      -0.044416        -1.2086
 102   0.0000      -0.034669        -0.9434
 103   0.0000      -0.012840        -0.3494
 104   0.0000       0.009350         0.2544
 105   0.0000       0.015279         0.4158

MULLIKEN ATOMIC CHARGES
-----------------------
   0 C :   -0.321424
   1 C :    0.002886
   2 O :   -0.358748
   3 P :    0.606902
   4 S :   -0.315749
   5 O :   -0.356742
   6 C :   -0.034507
   7 C :   -0.294263
   8 S :   -0.118227
   9 C :   -0.361980
  10 S :   -0.105044
  11 P :    0.612272
  12 S :   -0.301055
  13 O :   -0.355625
  14 C :    0.005440
  15 C :   -0.318939
  16 O :   -0.384460
  17 C :    0.001380
  18 C :   -0.323733
  19 H :    0.119424
  20 H :    0.118852
  21 H :    0.111250
  22 H :    0.111475
  23 H :    0.104997
  24 H :    0.134067
  25 H :    0.095757
  26 H :    0.138537
  27 H :    0.102757
  28 H :    0.107085
  29 H :    0.185827
  30 H :    0.215955
  31 H :    0.109497
  32 H :    0.110498
  33 H :    0.129059
  34 H :    0.113394
  35 H :    0.122323
  36 H :    0.105643
  37 H :    0.115166
  38 H :    0.117727
  39 H :    0.117177
  40 H :    0.135146
Sum of atomic charges:    0.0000000

LOEWDIN ATOMIC CHARGES
----------------------
   0 C :   -0.369176
   1 C :   -0.118443
   2 O :   -0.237881
   3 P :    0.567063
   4 S :   -0.296857
   5 O :   -0.231090
   6 C :   -0.123080
   7 C :   -0.363118
   8 S :    0.063492
   9 C :   -0.483079
  10 S :    0.087073
  11 P :    0.569969
  12 S :   -0.292015
  13 O :   -0.235854
  14 C :   -0.107869
  15 C :   -0.369827
  16 O :   -0.247246
  17 C :   -0.115325
  18 C :   -0.371752
  19 H :    0.125041
  20 H :    0.117815
  21 H :    0.129760
  22 H :    0.109818
  23 H :    0.118896
  24 H :    0.105681
  25 H :    0.114235
  26 H :    0.122932
  27 H :    0.127450
  28 H :    0.122019
  29 H :    0.132412
  30 H :    0.123839
  31 H :    0.122218
  32 H :    0.114456
  33 H :    0.125771
  34 H :    0.130954
  35 H :    0.117256
  36 H :    0.118982
  37 H :    0.114827
  38 H :    0.123082
  39 H :    0.133396
  40 H :    0.124175

  Mayer bond orders larger than 0.100000
B(  0-C ,  1-C ) :   1.1605 B(  0-C , 19-H ) :   0.9439 B(  0-C , 20-H ) :   0.9352
B(  0-C , 21-H ) :   0.9383 B(  1-C ,  2-O ) :   0.9228 B(  1-C , 22-H ) :   0.9152
B(  1-C , 23-H ) :   0.9344 B(  2-O ,  3-P ) :   1.1156 B(  3-P ,  4-S ) :   1.6077
B(  3-P ,  5-O ) :   1.1433 B(  3-P ,  8-S ) :   0.9468 B(  4-S ,  8-S ) :   0.1262
B(  5-O ,  6-C ) :   0.9049 B(  6-C ,  7-C ) :   1.1700 B(  6-C , 24-H ) :   0.8981
B(  6-C , 25-H ) :   0.9356 B(  7-C , 26-H ) :   0.9323 B(  7-C , 27-H ) :   0.9398
B(  7-C , 28-H ) :   0.9463 B(  8-S ,  9-C ) :   0.9931 B(  9-C , 10-S ) :   1.0101
B(  9-C , 29-H ) :   0.9015 B(  9-C , 30-H ) :   0.8412 B( 10-S , 11-P ) :   0.9364
B( 10-S , 12-S ) :   0.1083 B( 11-P , 12-S ) :   1.6493 B( 11-P , 13-O ) :   1.1119
B( 11-P , 16-O ) :   1.0817 B( 13-O , 14-C ) :   0.8986 B( 14-C , 15-C ) :   1.1708
B( 14-C , 31-H ) :   0.9340 B( 14-C , 32-H ) :   0.9271 B( 15-C , 33-H ) :   0.9400
B( 15-C , 34-H ) :   0.9354 B( 15-C , 35-H ) :   0.9398 B( 16-O , 17-C ) :   0.9012
B( 17-C , 18-C ) :   1.1670 B( 17-C , 36-H ) :   0.9343 B( 17-C , 37-H ) :   0.9183
B( 18-C , 38-H ) :   0.9436 B( 18-C , 39-H ) :   0.9365 B( 18-C , 40-H ) :   0.9336

Dispersion correction           -0.067456941
FINAL SINGLE POINT ENERGY     -2929.519204091954

DIPOLE MOMENT
-------------

Method             : SCF
Type of density    : Electron Density
Multiplicity       :   1
Irrep              :   0
Energy             : -2929.6371187414783890 Eh
Relativity type    :
Basis              : AO
                                X                 Y                 Z
Electronic contribution:      5.146795008       3.845087772      -2.645673654
Nuclear contribution   :     -6.207204615      -5.014048468       3.386060005
                        -----------------------------------------
Total Dipole Moment    :     -1.060409607      -1.168960696       0.740386351
                        -----------------------------------------
Magnitude (a.u.)       :      1.743304217
Magnitude (Debye)      :      4.431127173

Rotational constants in cm-1:             0.012345             0.005193             0.004974
Rotational constants in MHz :           370.105791           155.686538           149.102176

                             ****ORCA TERMINATED NORMALLY****
TOTAL RUN TIME: 0 days 0 hours 0 minutes 21 seconds 58 msec
