                         Program Version 6.0.0  -   RELEASE  -
|  1> ! wb97x-v def2-tzvp def2/J RIJCOSX DEFGRID2 scfconv7 GCP(DFT/TZ) printgap
|  2> %output
|  3>     printlevel normal
|  4> end
|  5> * xyz 0 1
|  6> C -1.2893575503134431 -0.5662212626907922 -5.5184659144581024e-05
|  7> C -1.1034970172326097 0.810418602216677 -8.104526101786056e-05
|  8> C 0.15439872061060803 1.400112892664787 -9.492817738683653e-05
|  9> C 1.2538150201813865 0.550873679421273 -7.056459137839012e-05
| 10> C 1.1348206558416538 -0.8331300291649244 -3.429122855265628e-05
| 11> C -0.1500886535791927 -1.3607846748184869 -3.42447833091802e-05
| 12> Cl -0.3416805211942281 -3.1032760150335026 1.6332851239235718e-05
| 13> Cl 2.8601373782255664 1.2534796401479562 -7.083361123431066e-05
| 14> Cl -2.516806628161853 1.8475482897847328 -0.00012105535786810242
| 15> H -2.280324875767288 -1.001256100755953 -5.004277356703687e-05
| 16> H 0.27166791848027333 2.4761584807340244 -0.00011115730265363667
| 17> H 2.00714706423936 -1.4739185307870941 -1.2725945525134602e-05
| 18> *
| 19>
| 20>                          ****END OF INPUT****

CARTESIAN COORDINATES (ANGSTROEM)
---------------------------------
  C     -1.289358   -0.566221   -0.000055
  C     -1.103497    0.810419   -0.000081
  C      0.154399    1.400113   -0.000095
  C      1.253815    0.550874   -0.000071
  C      1.134821   -0.833130   -0.000034
  C     -0.150089   -1.360785   -0.000034
  Cl    -0.341681   -3.103276    0.000016
  Cl     2.860137    1.253480   -0.000071
  Cl    -2.516807    1.847548   -0.000121
  H     -2.280325   -1.001256   -0.000050
  H      0.271668    2.476158   -0.000111
  H      2.007147   -1.473919   -0.000013

 Total Charge           Charge          ....    0
 Multiplicity           Mult            ....    1
 Number of Electrons    NEL             ....   90
 Basis Dimension        Dim             ....  315

ORBITAL ENERGIES
----------------

  NO   OCC          E(Eh)            E(eV)
   0   2.0000    -107.161377     -2916.0093
   1   2.0000    -107.161363     -2916.0089
   2   2.0000    -107.161347     -2916.0085
   3   2.0000     -12.145714      -330.5017
   4   2.0000     -12.145669      -330.5005
   5   2.0000     -12.145117      -330.4854
   6   2.0000     -12.090263      -328.9928
   7   2.0000     -12.090188      -328.9908
   8   2.0000     -12.089671      -328.9767
   9   2.0000     -11.314500      -307.8832
  10   2.0000     -11.314470      -307.8824
  11   2.0000     -11.314462      -307.8822
  12   2.0000      -9.106255      -247.7938
  13   2.0000      -9.106247      -247.7936
  14   2.0000      -9.105523      -247.7739
  15   2.0000      -9.103387      -247.7158
  16   2.0000      -9.103377      -247.7155
  17   2.0000      -9.103304      -247.7135
  18   2.0000      -9.103296      -247.7133
  19   2.0000      -9.103267      -247.7125
  20   2.0000      -9.103258      -247.7123
  21   2.0000      -1.471938       -40.0535
  22   2.0000      -1.439787       -39.1786
  23   2.0000      -1.439733       -39.1771
  24   2.0000      -1.379709       -37.5438
  25   2.0000      -1.301967       -35.4283
  26   2.0000      -1.301888       -35.4262
  27   2.0000      -1.143782       -31.1239
  28   2.0000      -1.143700       -31.1217
  29   2.0000      -1.019964       -27.7546
  30   2.0000      -1.007697       -27.4208
  31   2.0000      -0.967122       -26.3167
  32   2.0000      -0.938163       -25.5287
  33   2.0000      -0.938108       -25.5272
  34   2.0000      -0.880465       -23.9587
  35   2.0000      -0.880455       -23.9584
  36   2.0000      -0.864146       -23.5146
  37   2.0000      -0.831001       -22.6127
  38   2.0000      -0.830976       -22.6120
  39   2.0000      -0.810764       -22.0620
  40   2.0000      -0.810747       -22.0615
  41   2.0000      -0.803444       -21.8628
  42   2.0000      -0.777910       -21.1680
  43   2.0000      -0.681273       -18.5384
  44   2.0000      -0.681228       -18.5372
  45   0.0000      -0.322699        -8.7811
  46   0.0000      -0.291852        -7.9417
  47   0.0000      -0.291821        -7.9409
  48   0.0000      -0.257571        -7.0089
  49   0.0000      -0.257450        -7.0056

MULLIKEN ATOMIC CHARGES
-----------------------
   0 C :   -0.235880
   1 C :    0.158355
   2 C :   -0.235788
   3 C :    0.158767
   4 C :   -0.236406
   5 C :    0.159023
   6 Cl:   -0.076661
   7 Cl:   -0.076691
   8 Cl:   -0.076707
   9 H :    0.153983
  10 H :    0.154152
  11 H :    0.153854
Sum of atomic charges:   -0.0000000

LOEWDIN ATOMIC CHARGES
----------------------
   0 C :   -0.143587
   1 C :   -0.401733
   2 C :   -0.143407
   3 C :   -0.401572
   4 C :   -0.143677
   5 C :   -0.401875
   6 Cl:    0.391223
   7 Cl:    0.390937
   8 Cl:    0.391173
   9 H :    0.154150
  10 H :    0.154185
  11 H :    0.154183

  Mayer bond orders larger than 0.100000
B(  0-C ,  1-C ) :   1.3683 B(  0-C ,  5-C ) :   1.3687 B(  0-C ,  9-H ) :   0.9594
B(  1-C ,  2-C ) :   1.3686 B(  1-C ,  8-Cl) :   1.0021 B(  2-C ,  3-C ) :   1.3686
B(  2-C , 10-H ) :   0.9592 B(  3-C ,  4-C ) :   1.3685 B(  3-C ,  7-Cl) :   1.0019
B(  4-C ,  5-C ) :   1.3687 B(  4-C , 11-H ) :   0.9596 B(  5-C ,  6-Cl) :   1.0013

FINAL SINGLE POINT ENERGY     -1610.894117942806

DIPOLE MOMENT
-------------

Method             : SCF
Type of density    : Electron Density
Multiplicity       :   1
Irrep              :   0
Energy             : -1610.8997708816059458 Eh
Relativity type    :
Basis              : AO
                                X                 Y                 Z
Electronic contribution:      0.002499154      -0.003133973       0.000001670
Nuclear contribution   :     -0.003243525       0.003516468       0.000000004
                        -----------------------------------------
Total Dipole Moment    :     -0.000744372       0.000382496       0.000001674
                        -----------------------------------------
Magnitude (a.u.)       :      0.000836896
Magnitude (Debye)      :      0.002127221

Rotational constants in cm-1:             0.028237             0.028207             0.014111
Rotational constants in MHz :           846.533497           845.625583           423.039648

                             ****ORCA TERMINATED NORMALLY****
TOTAL RUN TIME: 0 days 0 hours 2 minutes 36 seconds 721 msec
