                         Program Version 6.0.0  -   RELEASE  -
|  1> ! wb97x-v def2-tzvp def2/J RIJCOSX DEFGRID2 scfconv7 GCP(DFT/TZ) printgap
|  2> %output
|  3>     printlevel normal
|  4> end
|  5> %cpcm
|  6>     smd true
|  7>     smdsolvent "water"
|  8> end
|  9> * xyz 0 1
| 10> C -1.2893575503134431 -0.5662212626907922 -5.5184659144581024e-05
| 11> C -1.1034970172326097 0.810418602216677 -8.104526101786056e-05
| 12> C 0.15439872061060803 1.400112892664787 -9.492817738683653e-05
| 13> C 1.2538150201813865 0.550873679421273 -7.056459137839012e-05
| 14> C 1.1348206558416538 -0.8331300291649244 -3.429122855265628e-05
| 15> C -0.1500886535791927 -1.3607846748184869 -3.42447833091802e-05
| 16> Cl -0.3416805211942281 -3.1032760150335026 1.6332851239235718e-05
| 17> Cl 2.8601373782255664 1.2534796401479562 -7.083361123431066e-05
| 18> Cl -2.516806628161853 1.8475482897847328 -0.00012105535786810242
| 19> H -2.280324875767288 -1.001256100755953 -5.004277356703687e-05
| 20> H 0.27166791848027333 2.4761584807340244 -0.00011115730265363667
| 21> H 2.00714706423936 -1.4739185307870941 -1.2725945525134602e-05
| 22> *
| 23>
| 24>                          ****END OF INPUT****

CARTESIAN COORDINATES (ANGSTROEM)
---------------------------------
  C     -1.289358   -0.566221   -0.000055
  C     -1.103497    0.810419   -0.000081
  C      0.154399    1.400113   -0.000095
  C      1.253815    0.550874   -0.000071
  C      1.134821   -0.833130   -0.000034
  C     -0.150089   -1.360785   -0.000034
  Cl    -0.341681   -3.103276    0.000016
  Cl     2.860137    1.253480   -0.000071
  Cl    -2.516807    1.847548   -0.000121
  H     -2.280325   -1.001256   -0.000050
  H      0.271668    2.476158   -0.000111
  H      2.007147   -1.473919   -0.000013

 Total Charge           Charge          ....    0
 Multiplicity           Mult            ....    1
 Number of Electrons    NEL             ....   90
 Basis Dimension        Dim             ....  315

ORBITAL ENERGIES
----------------

  NO   OCC          E(Eh)            E(eV)
   0   2.0000    -107.156234     -2915.8694
   1   2.0000    -107.156217     -2915.8689
   2   2.0000    -107.156193     -2915.8683
   3   2.0000     -12.135962      -330.2363
   4   2.0000     -12.135921      -330.2352
   5   2.0000     -12.135358      -330.2199
   6   2.0000     -12.079556      -328.7014
   7   2.0000     -12.079500      -328.6999
   8   2.0000     -12.078988      -328.6860
   9   2.0000     -11.309415      -307.7448
  10   2.0000     -11.309389      -307.7441
  11   2.0000     -11.309369      -307.7436
  12   2.0000      -9.101157      -247.6551
  13   2.0000      -9.101146      -247.6548
  14   2.0000      -9.100429      -247.6353
  15   2.0000      -9.098332      -247.5782
  16   2.0000      -9.098327      -247.5781
  17   2.0000      -9.098259      -247.5762
  18   2.0000      -9.098240      -247.5757
  19   2.0000      -9.098229      -247.5754
  20   2.0000      -9.098207      -247.5748
  21   2.0000      -1.463951       -39.8361
  22   2.0000      -1.433842       -39.0168
  23   2.0000      -1.433792       -39.0155
  24   2.0000      -1.372625       -37.3510
  25   2.0000      -1.292527       -35.1715
  26   2.0000      -1.292445       -35.1692
  27   2.0000      -1.134217       -30.8636
  28   2.0000      -1.134130       -30.8613
  29   2.0000      -1.010193       -27.4887
  30   2.0000      -0.998173       -27.1617
  31   2.0000      -0.956823       -26.0365
  32   2.0000      -0.930016       -25.3070
  33   2.0000      -0.929955       -25.3054
  34   2.0000      -0.868853       -23.6427
  35   2.0000      -0.868818       -23.6417
  36   2.0000      -0.856682       -23.3115
  37   2.0000      -0.826060       -22.4782
  38   2.0000      -0.826035       -22.4776
  39   2.0000      -0.805669       -21.9234
  40   2.0000      -0.805637       -21.9225
  41   2.0000      -0.798377       -21.7249
  42   2.0000      -0.771377       -20.9902
  43   2.0000      -0.672164       -18.2905
  44   2.0000      -0.672121       -18.2893
  45   0.0000      -0.315676        -8.5900
  46   0.0000      -0.281825        -7.6688
  47   0.0000      -0.281792        -7.6680
  48   0.0000      -0.250466        -6.8155
  49   0.0000      -0.250337        -6.8120

MULLIKEN ATOMIC CHARGES
-----------------------
   0 C :   -0.242408
   1 C :    0.150494
   2 C :   -0.242780
   3 C :    0.152334
   4 C :   -0.243244
   5 C :    0.151486
   6 Cl:   -0.093537
   7 Cl:   -0.093648
   8 Cl:   -0.093573
   9 H :    0.184794
  10 H :    0.185227
  11 H :    0.184854
Sum of atomic charges:   -0.0000000

LOEWDIN ATOMIC CHARGES
----------------------
   0 C :   -0.137028
   1 C :   -0.405048
   2 C :   -0.136802
   3 C :   -0.404835
   4 C :   -0.137132
   5 C :   -0.405232
   6 Cl:    0.378199
   7 Cl:    0.377895
   8 Cl:    0.378166
   9 H :    0.163858
  10 H :    0.163990
  11 H :    0.163969

  Mayer bond orders larger than 0.100000
B(  0-C ,  1-C ) :   1.3586 B(  0-C ,  5-C ) :   1.3591 B(  0-C ,  9-H ) :   0.9553
B(  1-C ,  2-C ) :   1.3594 B(  1-C ,  8-Cl) :   0.9962 B(  2-C ,  3-C ) :   1.3583
B(  2-C , 10-H ) :   0.9552 B(  3-C ,  4-C ) :   1.3586 B(  3-C ,  7-Cl) :   0.9958
B(  4-C ,  5-C ) :   1.3591 B(  4-C , 11-H ) :   0.9555 B(  5-C ,  6-Cl) :   0.9954

FINAL SINGLE POINT ENERGY     -1610.895122256588

DIPOLE MOMENT
-------------

Method             : SCF
Type of density    : Electron Density
Multiplicity       :   1
Irrep              :   0
Energy             : -1610.9007751953877232 Eh
Relativity type    :
Basis              : AO
                                X                 Y                 Z
Electronic contribution:      0.002744432      -0.002040325       0.000001860
Nuclear contribution   :     -0.003243525       0.003516468       0.000000004
                        -----------------------------------------
Total Dipole Moment    :     -0.000499093       0.001476143       0.000001864
                        -----------------------------------------
Magnitude (a.u.)       :      0.001558235
Magnitude (Debye)      :      0.003960718

Rotational constants in cm-1:             0.028237             0.028207             0.014111
Rotational constants in MHz :           846.533497           845.625583           423.039648

                             ****ORCA TERMINATED NORMALLY****
TOTAL RUN TIME: 0 days 0 hours 2 minutes 25 seconds 550 msec
