                         Program Version 6.0.0  -   RELEASE  -
|  1> ! pbe def2-sv(p) def2/J RI DEFGRID1 loosescf d4 GCP(DFT/SV(P)) printgap
|  2> %output
|  3>     printlevel normal
|  4> end
|  5> * xyz 0 1
|  6> C 2.9926200798 0.7453070773 -2.3712400041
|  7> C 2.1540359519 -0.5144625782 -2.339210856
|  8> O 1.3400334557 -0.6045650952 -1.1501029833
|  9> P 1.8874270541 -0.5538040678 0.330795163
| 10> S 2.4617499675 1.1416314428 1.1434286347
| 11> O 3.0148485142 -1.6756613815 0.2670741297
| 12> C 3.9420750954 -1.8947347543 1.3497466494
| 13> C 5.2823739232 -1.260752881 1.0326173303
| 14> S 0.3280601129 -1.5126026436 1.3755820766
| 15> C -0.4984618942 -0.079804191 2.1441558481
| 16> S -2.2159401163 0.0974987214 1.6269635281
| 17> P -1.8739697061 0.633249668 -0.4074720009
| 18> S -0.494878985 1.9795609438 -0.7404706819
| 19> O -3.3454671736 0.9447170681 -0.9190359141
| 20> C -4.2905493912 1.8088014529 -0.2594277878
| 21> C -3.7381997163 3.1932696588 0.0052635181
| 22> O -1.5321152407 -0.6932844184 -1.1862978073
| 23> C -2.3703046727 -1.876246872 -1.1650430637
| 24> C -3.2126571972 -1.9532950027 -2.4215431701
| 25> H 3.5062075543 0.8166379314 -3.3247255338
| 26> H 2.3576458787 1.6196895843 -2.2361981528
| 27> H 3.7285213134 0.7278135265 -1.5681332394
| 28> H 2.7802248308 -1.4083307943 -2.388825479
| 29> H 1.4187452819 -0.5236364211 -3.145952991
| 30> H 3.5266027246 -1.4792360749 2.2716338972
| 31> H 4.02104473 -2.9795097627 1.4380534071
| 32> H 5.17612606 -0.1797308946 0.9681828106
| 33> H 5.9859078677 -1.4987006859 1.8236688869
| 34> H 5.662094145 -1.6372972809 0.0869414284
| 35> H 0.0669602024 0.8230057952 1.8927866043
| 36> H -0.5230608857 -0.240117061 3.2189553824
| 37> H -5.1330685103 1.8429289901 -0.9524511316
| 38> H -4.5947291973 1.3289201465 0.6747424298
| 39> H -4.51859164 3.8186882749 0.4264973751
| 40> H -2.9080000351 3.1398265608 0.7083024963
| 41> H -3.3750318479 3.6405589999 -0.9171550591
| 42> H -1.6672834425 -2.709359929 -1.0990924599
| 43> H -2.9959653991 -1.8545501881 -0.2681050256
| 44> H -3.7943394644 -2.8695579431 -2.4018605418
| 45> H -3.884272036 -1.1006415893 -2.4763037215
| 46> H -2.5740438785 -1.9515484035 -3.3004781696
| 47> *
| 48>
| 49>                          ****END OF INPUT****

CARTESIAN COORDINATES (ANGSTROEM)
---------------------------------
  C      2.992620    0.745307   -2.371240
  C      2.154036   -0.514463   -2.339211
  O      1.340033   -0.604565   -1.150103
  P      1.887427   -0.553804    0.330795
  S      2.461750    1.141631    1.143429
  O      3.014849   -1.675661    0.267074
  C      3.942075   -1.894735    1.349747
  C      5.282374   -1.260753    1.032617
  S      0.328060   -1.512603    1.375582
  C     -0.498462   -0.079804    2.144156
  S     -2.215940    0.097499    1.626964
  P     -1.873970    0.633250   -0.407472
  S     -0.494879    1.979561   -0.740471
  O     -3.345467    0.944717   -0.919036
  C     -4.290549    1.808801   -0.259428
  C     -3.738200    3.193270    0.005264
  O     -1.532115   -0.693284   -1.186298
  C     -2.370305   -1.876247   -1.165043
  C     -3.212657   -1.953295   -2.421543
  H      3.506208    0.816638   -3.324726
  H      2.357646    1.619690   -2.236198
  H      3.728521    0.727814   -1.568133
  H      2.780225   -1.408331   -2.388825
  H      1.418745   -0.523636   -3.145953
  H      3.526603   -1.479236    2.271634
  H      4.021045   -2.979510    1.438053
  H      5.176126   -0.179731    0.968183
  H      5.985908   -1.498701    1.823669
  H      5.662094   -1.637297    0.086941
  H      0.066960    0.823006    1.892787
  H     -0.523061   -0.240117    3.218955
  H     -5.133069    1.842929   -0.952451
  H     -4.594729    1.328920    0.674742
  H     -4.518592    3.818688    0.426497
  H     -2.908000    3.139827    0.708302
  H     -3.375032    3.640559   -0.917155
  H     -1.667283   -2.709360   -1.099092
  H     -2.995965   -1.854550   -0.268105
  H     -3.794339   -2.869558   -2.401861
  H     -3.884272   -1.100642   -2.476304
  H     -2.574044   -1.951548   -3.300478

 Total Charge           Charge          ....    0
 Multiplicity           Mult            ....    1
 Number of Electrons    NEL             ....  202
 Basis Dimension        Dim             ....  334

ORBITAL ENERGIES
----------------

  NO   OCC          E(Eh)            E(eV)
   0   2.0000     -88.042510     -2395.7585
   1   2.0000     -88.037681     -2395.6271
   2   2.0000     -87.978935     -2394.0285
   3   2.0000     -87.974189     -2393.8994
   4   2.0000     -76.420998     -2079.5211
   5   2.0000     -76.420811     -2079.5160
   6   2.0000     -18.792779      -511.3775
   7   2.0000     -18.790015      -511.3023
   8   2.0000     -18.783911      -511.1362
   9   2.0000     -18.778484      -510.9885
  10   2.0000      -9.958104      -270.9738
  11   2.0000      -9.951977      -270.8071
  12   2.0000      -9.950959      -270.7794
  13   2.0000      -9.949144      -270.7300
  14   2.0000      -9.946155      -270.6486
  15   2.0000      -9.883411      -268.9413
  16   2.0000      -9.880875      -268.8723
  17   2.0000      -9.880871      -268.8722
  18   2.0000      -9.873392      -268.6687
  19   2.0000      -7.687543      -209.1887
  20   2.0000      -7.682985      -209.0646
  21   2.0000      -7.623943      -207.4580
  22   2.0000      -7.619329      -207.3325
  23   2.0000      -6.418184      -174.6477
  24   2.0000      -6.417971      -174.6419
  25   2.0000      -5.715277      -155.5206
  26   2.0000      -5.711822      -155.4266
  27   2.0000      -5.710815      -155.3992
  28   2.0000      -5.707482      -155.3085
  29   2.0000      -5.704917      -155.2387
  30   2.0000      -5.699947      -155.1035
  31   2.0000      -5.652833      -153.8214
  32   2.0000      -5.648395      -153.7006
  33   2.0000      -5.644649      -153.5987
  34   2.0000      -5.644029      -153.5818
  35   2.0000      -5.639895      -153.4693
  36   2.0000      -5.639343      -153.4543
  37   2.0000      -4.641032      -126.2889
  38   2.0000      -4.640838      -126.2836
  39   2.0000      -4.640118      -126.2640
  40   2.0000      -4.639694      -126.2525
  41   2.0000      -4.638699      -126.2254
  42   2.0000      -4.637840      -126.2020
  43   2.0000      -0.984889       -26.8002
  44   2.0000      -0.981298       -26.7025
  45   2.0000      -0.940923       -25.6038
  46   2.0000      -0.936164       -25.4743
  47   2.0000      -0.759913       -20.6783
  48   2.0000      -0.717217       -19.5165
  49   2.0000      -0.706675       -19.2296
  50   2.0000      -0.688572       -18.7370
  51   2.0000      -0.682800       -18.5799
  52   2.0000      -0.671074       -18.2608
  53   2.0000      -0.647484       -17.6189
  54   2.0000      -0.630502       -17.1568
  55   2.0000      -0.589434       -16.0393
  56   2.0000      -0.584568       -15.9069
  57   2.0000      -0.571000       -15.5377
  58   2.0000      -0.569711       -15.5026
  59   2.0000      -0.563216       -15.3259
  60   2.0000      -0.501650       -13.6506
  61   2.0000      -0.494194       -13.4477
  62   2.0000      -0.471500       -12.8302
  63   2.0000      -0.465865       -12.6768
  64   2.0000      -0.450206       -12.2507
  65   2.0000      -0.443566       -12.0700
  66   2.0000      -0.434451       -11.8220
  67   2.0000      -0.432286       -11.7631
  68   2.0000      -0.428589       -11.6625
  69   2.0000      -0.408313       -11.1107
  70   2.0000      -0.406646       -11.0654
  71   2.0000      -0.404822       -11.0158
  72   2.0000      -0.393669       -10.7123
  73   2.0000      -0.383517       -10.4360
  74   2.0000      -0.382337       -10.4039
  75   2.0000      -0.365263        -9.9393
  76   2.0000      -0.356086        -9.6896
  77   2.0000      -0.353400        -9.6165
  78   2.0000      -0.349281        -9.5044
  79   2.0000      -0.344469        -9.3735
  80   2.0000      -0.341186        -9.2841
  81   2.0000      -0.339013        -9.2250
  82   2.0000      -0.337050        -9.1716
  83   2.0000      -0.331154        -9.0112
  84   2.0000      -0.328140        -8.9291
  85   2.0000      -0.317234        -8.6324
  86   2.0000      -0.312540        -8.5047
  87   2.0000      -0.294690        -8.0189
  88   2.0000      -0.294212        -8.0059
  89   2.0000      -0.287444        -7.8217
  90   2.0000      -0.276841        -7.5332
  91   2.0000      -0.271814        -7.3964
  92   2.0000      -0.269484        -7.3330
  93   2.0000      -0.259708        -7.0670
  94   2.0000      -0.253512        -6.8984
  95   2.0000      -0.235079        -6.3968
  96   2.0000      -0.221012        -6.0140
  97   2.0000      -0.208291        -5.6679
  98   2.0000      -0.194358        -5.2888
  99   2.0000      -0.186737        -5.0814
 100   2.0000      -0.178658        -4.8615
 101   0.0000      -0.036454        -0.9920
 102   0.0000      -0.028110        -0.7649
 103   0.0000      -0.009473        -0.2578
 104   0.0000       0.015832         0.4308
 105   0.0000       0.019744         0.5373

MULLIKEN ATOMIC CHARGES
-----------------------
   0 C :   -0.326805
   1 C :    0.009514
   2 O :   -0.349075
   3 P :    0.623764
   4 S :   -0.314303
   5 O :   -0.387062
   6 C :   -0.001814
   7 C :   -0.293940
   8 S :   -0.099682
   9 C :   -0.349342
  10 S :   -0.121613
  11 P :    0.583158
  12 S :   -0.287272
  13 O :   -0.380710
  14 C :   -0.013989
  15 C :   -0.307387
  16 O :   -0.339596
  17 C :   -0.007874
  18 C :   -0.283630
  19 H :    0.105652
  20 H :    0.137902
  21 H :    0.125904
  22 H :    0.102221
  23 H :    0.105817
  24 H :    0.099546
  25 H :    0.103947
  26 H :    0.129250
  27 H :    0.108002
  28 H :    0.110075
  29 H :    0.208965
  30 H :    0.180498
  31 H :    0.108075
  32 H :    0.113511
  33 H :    0.109754
  34 H :    0.128405
  35 H :    0.126803
  36 H :    0.107248
  37 H :    0.095095
  38 H :    0.106801
  39 H :    0.118243
  40 H :    0.115947
Sum of atomic charges:   -0.0000000

LOEWDIN ATOMIC CHARGES
----------------------
   0 C :   -0.369805
   1 C :   -0.107043
   2 O :   -0.228054
   3 P :    0.571413
   4 S :   -0.304019
   5 O :   -0.252459
   6 C :   -0.117252
   7 C :   -0.361435
   8 S :    0.072572
   9 C :   -0.479935
  10 S :    0.060625
  11 P :    0.559871
  12 S :   -0.292106
  13 O :   -0.248032
  14 C :   -0.115492
  15 C :   -0.369550
  16 O :   -0.226150
  17 C :   -0.118051
  18 C :   -0.358369
  19 H :    0.127077
  20 H :    0.132583
  21 H :    0.119701
  22 H :    0.109327
  23 H :    0.120947
  24 H :    0.107901
  25 H :    0.116692
  26 H :    0.125447
  27 H :    0.129058
  28 H :    0.123326
  29 H :    0.125933
  30 H :    0.136517
  31 H :    0.120431
  32 H :    0.107370
  33 H :    0.129309
  34 H :    0.122552
  35 H :    0.130615
  36 H :    0.117793
  37 H :    0.100681
  38 H :    0.127921
  39 H :    0.125301
  40 H :    0.126788

  Mayer bond orders larger than 0.100000
B(  0-C ,  1-C ) :   1.1669 B(  0-C , 19-H ) :   0.9354 B(  0-C , 20-H ) :   0.9400
B(  0-C , 21-H ) :   0.9350 B(  1-C ,  2-O ) :   0.9061 B(  1-C , 22-H ) :   0.9317
B(  1-C , 23-H ) :   0.9322 B(  2-O ,  3-P ) :   1.1494 B(  3-P ,  4-S ) :   1.5981
B(  3-P ,  5-O ) :   1.0795 B(  3-P ,  8-S ) :   0.9618 B(  4-S ,  8-S ) :   0.1226
B(  5-O ,  6-C ) :   0.9028 B(  6-C ,  7-C ) :   1.1679 B(  6-C , 24-H ) :   0.9106
B(  6-C , 25-H ) :   0.9350 B(  7-C , 26-H ) :   0.9336 B(  7-C , 27-H ) :   0.9403
B(  7-C , 28-H ) :   0.9479 B(  8-S ,  9-C ) :   0.9975 B(  9-C , 10-S ) :   1.0011
B(  9-C , 29-H ) :   0.8431 B(  9-C , 30-H ) :   0.9120 B( 10-S , 11-P ) :   0.9333
B( 10-S , 12-S ) :   0.1074 B( 11-P , 12-S ) :   1.6722 B( 11-P , 13-O ) :   1.0717
B( 11-P , 16-O ) :   1.1396 B( 13-O , 14-C ) :   0.9151 B( 14-C , 15-C ) :   1.1672
B( 14-C , 31-H ) :   0.9333 B( 14-C , 32-H ) :   0.9259 B( 15-C , 33-H ) :   0.9345
B( 15-C , 34-H ) :   0.9316 B( 15-C , 35-H ) :   0.9428 B( 16-O , 17-C ) :   0.8937
B( 17-C , 18-C ) :   1.1628 B( 17-C , 36-H ) :   0.9322 B( 17-C , 37-H ) :   0.9113
B( 18-C , 38-H ) :   0.9409 B( 18-C , 39-H ) :   0.9432 B( 18-C , 40-H ) :   0.9478

Dispersion correction           -0.067623402
FINAL SINGLE POINT ENERGY     -2929.513623622824

DIPOLE MOMENT
-------------

Method             : SCF
Type of density    : Electron Density
Multiplicity       :   1
Irrep              :   0
Energy             : -2929.6313427595755456 Eh
Relativity type    :
Basis              : AO
                                X                 Y                 Z
Electronic contribution:     -2.741813951       1.477143688       9.835897466
Nuclear contribution   :      2.099805610      -2.659227985      -9.990349570
                        -----------------------------------------
Total Dipole Moment    :     -0.642008342      -1.182084297      -0.154452104
                        -----------------------------------------
Magnitude (a.u.)       :      1.354013829
Magnitude (Debye)      :      3.441629643

Rotational constants in cm-1:             0.013308             0.005086             0.005042
Rotational constants in MHz :           398.977827           152.467147           151.150947

                             ****ORCA TERMINATED NORMALLY****
TOTAL RUN TIME: 0 days 0 hours 0 minutes 21 seconds 462 msec
