                         Program Version 6.0.0  -   RELEASE  -
|  1> ! wb97x-v def2-tzvp def2/J RIJCOSX DEFGRID2 scfconv7 GCP(DFT/TZ) printgap
|  2> %output
|  3>     printlevel normal
|  4> end
|  5> * xyz 0 1
|  6> C 1.4034234434336474 -0.0016348585466063321 0.002603613868902824
|  7> N -0.08996242219269877 -9.068869834166058e-05 0.007440889575569238
|  8> O -0.6666947681781922 -1.0817368590942567 -0.00529387981350277
|  9> O -0.6634156070443752 1.0833744467956175 -0.005343738651151624
| 10> H 1.7454955104726793 -0.9155122616335013 0.484578039228053
| 11> H 1.7466603010638062 0.8985417303320408 0.5092284290438176
| 12> H 1.7070842071964998 0.013227620787384745 -1.0475307702854617
| 13> *
| 14>
| 15>                          ****END OF INPUT****

CARTESIAN COORDINATES (ANGSTROEM)
---------------------------------
  C      1.403423   -0.001635    0.002604
  N     -0.089962   -0.000091    0.007441
  O     -0.666695   -1.081737   -0.005294
  O     -0.663416    1.083374   -0.005344
  H      1.745496   -0.915512    0.484578
  H      1.746660    0.898542    0.509228
  H      1.707084    0.013228   -1.047531

 Total Charge           Charge          ....    0
 Multiplicity           Mult            ....    1
 Number of Electrons    NEL             ....   32
 Basis Dimension        Dim             ....  142

ORBITAL ENERGIES
----------------

  NO   OCC          E(Eh)            E(eV)
   0   2.0000     -21.713951      -590.8666
   1   2.0000     -21.713781      -590.8620
   2   2.0000     -16.777541      -456.5401
   3   2.0000     -12.123242      -329.8902
   4   2.0000      -1.909012       -51.9469
   5   2.0000      -1.754641       -47.7462
   6   2.0000      -1.391575       -37.8667
   7   2.0000      -1.221151       -33.2292
   8   2.0000      -1.145918       -31.1820
   9   2.0000      -1.089186       -29.6383
  10   2.0000      -1.084645       -29.5147
  11   2.0000      -0.931157       -25.3381
  12   2.0000      -0.899289       -24.4709
  13   2.0000      -0.895234       -24.3606
  14   2.0000      -0.887172       -24.1412
  15   2.0000      -0.887115       -24.1396
  16   0.0000      -0.481715       -13.1081
  17   0.0000      -0.229069        -6.2333
  18   0.0000      -0.121206        -3.2982
  19   0.0000      -0.088004        -2.3947
  20   0.0000      -0.016434        -0.4472

MULLIKEN ATOMIC CHARGES
-----------------------
   0 C :   -0.267138
   1 N :    0.393021
   2 O :   -0.300801
   3 O :   -0.300740
   4 H :    0.159934
   5 H :    0.159938
   6 H :    0.155786
Sum of atomic charges:   -0.0000000

LOEWDIN ATOMIC CHARGES
----------------------
   0 C :   -0.241831
   1 N :   -0.067480
   2 O :   -0.039153
   3 O :   -0.039358
   4 H :    0.127053
   5 H :    0.127243
   6 H :    0.133525

  Mayer bond orders larger than 0.100000
B(  0-C ,  1-N ) :   0.8924 B(  0-C ,  4-H ) :   0.9611 B(  0-C ,  5-H ) :   0.9609
B(  0-C ,  6-H ) :   0.9538 B(  1-N ,  2-O ) :   1.6668 B(  1-N ,  3-O ) :   1.6659
B(  2-O ,  3-O ) :   0.2036

FINAL SINGLE POINT ENERGY      -245.031326366777

DIPOLE MOMENT
-------------

Method             : SCF
Type of density    : Electron Density
Multiplicity       :   1
Irrep              :   0
Energy             :  -245.0356802650766781 Eh
Relativity type    :
Basis              : AO
                                X                 Y                 Z
Electronic contribution:     -3.394937414       0.001668715       0.043480930
Nuclear contribution   :      4.878327470      -0.003558768      -0.046371370
                        -----------------------------------------
Total Dipole Moment    :      1.483390056      -0.001890053      -0.002890440
                        -----------------------------------------
Magnitude (a.u.)       :      1.483394077
Magnitude (Debye)      :      3.770488097

Rotational constants in cm-1:             0.413544             0.346798             0.195651
Rotational constants in MHz :         12397.732749         10396.753585          5865.458405

                             ****ORCA TERMINATED NORMALLY****
TOTAL RUN TIME: 0 days 0 hours 0 minutes 30 seconds 49 msec
