                         Program Version 6.0.0  -   RELEASE  -
|  1> ! wb97x-v def2-tzvp def2/J RIJCOSX DEFGRID2 scfconv7 GCP(DFT/TZ) printgap
|  2> %output
|  3>     printlevel normal
|  4> end
|  5> %cpcm
|  6>     smd true
|  7>     smdsolvent "water"
|  8> end
|  9> * xyz 0 1
| 10> C 1.4034234434336474 -0.0016348585466063321 0.002603613868902824
| 11> N -0.08996242219269877 -9.068869834166058e-05 0.007440889575569238
| 12> O -0.6666947681781922 -1.0817368590942567 -0.00529387981350277
| 13> O -0.6634156070443752 1.0833744467956175 -0.005343738651151624
| 14> H 1.7454955104726793 -0.9155122616335013 0.484578039228053
| 15> H 1.7466603010638062 0.8985417303320408 0.5092284290438176
| 16> H 1.7070842071964998 0.013227620787384745 -1.0475307702854617
| 17> *
| 18>
| 19>                          ****END OF INPUT****

CARTESIAN COORDINATES (ANGSTROEM)
---------------------------------
  C      1.403423   -0.001635    0.002604
  N     -0.089962   -0.000091    0.007441
  O     -0.666695   -1.081737   -0.005294
  O     -0.663416    1.083374   -0.005344
  H      1.745496   -0.915512    0.484578
  H      1.746660    0.898542    0.509228
  H      1.707084    0.013228   -1.047531

 Total Charge           Charge          ....    0
 Multiplicity           Mult            ....    1
 Number of Electrons    NEL             ....   32
 Basis Dimension        Dim             ....  142

ORBITAL ENERGIES
----------------

  NO   OCC          E(Eh)            E(eV)
   0   2.0000     -21.722439      -591.0976
   1   2.0000     -21.722323      -591.0944
   2   2.0000     -16.781768      -456.6551
   3   2.0000     -12.095972      -329.1481
   4   2.0000      -1.916076       -52.1391
   5   2.0000      -1.762957       -47.9725
   6   2.0000      -1.384874       -37.6843
   7   2.0000      -1.223215       -33.2854
   8   2.0000      -1.157736       -31.5036
   9   2.0000      -1.089013       -29.6335
  10   2.0000      -1.074788       -29.2465
  11   2.0000      -0.938670       -25.5425
  12   2.0000      -0.911790       -24.8111
  13   2.0000      -0.899991       -24.4900
  14   2.0000      -0.862514       -23.4702
  15   2.0000      -0.858961       -23.3735
  16   0.0000      -0.484897       -13.1947
  17   0.0000      -0.224732        -6.1153
  18   0.0000      -0.113935        -3.1003
  19   0.0000      -0.087531        -2.3818
  20   0.0000       0.018217         0.4957

MULLIKEN ATOMIC CHARGES
-----------------------
   0 C :   -0.289064
   1 N :    0.463314
   2 O :   -0.369261
   3 O :   -0.369345
   4 H :    0.184005
   5 H :    0.184508
   6 H :    0.195842
Sum of atomic charges:    0.0000000

LOEWDIN ATOMIC CHARGES
----------------------
   0 C :   -0.221450
   1 N :   -0.045088
   2 O :   -0.078047
   3 O :   -0.078316
   4 H :    0.137122
   5 H :    0.137446
   6 H :    0.148333

  Mayer bond orders larger than 0.100000
B(  0-C ,  1-N ) :   0.8880 B(  0-C ,  4-H ) :   0.9520 B(  0-C ,  5-H ) :   0.9515
B(  0-C ,  6-H ) :   0.9361 B(  1-N ,  2-O ) :   1.6289 B(  1-N ,  3-O ) :   1.6280
B(  2-O ,  3-O ) :   0.2009

FINAL SINGLE POINT ENERGY      -245.038469042169

DIPOLE MOMENT
-------------

Method             : SCF
Type of density    : Electron Density
Multiplicity       :   1
Irrep              :   0
Energy             :  -245.0428229404687102 Eh
Relativity type    :
Basis              : AO
                                X                 Y                 Z
Electronic contribution:     -2.980282019       0.001442645       0.032779598
Nuclear contribution   :      4.878327470      -0.003558768      -0.046371370
                        -----------------------------------------
Total Dipole Moment    :      1.898045451      -0.002116123      -0.013591772
                        -----------------------------------------
Magnitude (a.u.)       :      1.898095295
Magnitude (Debye)      :      4.824574825

Rotational constants in cm-1:             0.413544             0.346798             0.195651
Rotational constants in MHz :         12397.732749         10396.753585          5865.458405

                             ****ORCA TERMINATED NORMALLY****
TOTAL RUN TIME: 0 days 0 hours 0 minutes 28 seconds 978 msec
