                         Program Version 6.0.0  -   RELEASE  -
|  1> ! r2scan-3c def2/J RI DEFGRID2 scfconv6 printgap
|  2> %output
|  3>     printlevel normal
|  4> end
|  5> * xyz 0 1
|  6> C 1.0238013006 -3.1930169641 1.0559633161
|  7> C 1.9205397569 -2.1676824689 1.7208333972
|  8> O 1.5308674653 -0.8329913901 1.3174042264
|  9> P 2.3803961498 0.015725903 0.2828053764
| 10> S 3.1695336271 -0.9612231329 -1.2287075221
| 11> O 3.4492139892 0.6842077279 1.252553189
| 12> C 4.644183107 1.3188385143 0.7659518386
| 13> C 4.3408991475 2.5958774952 0.0092636193
| 14> S 0.9864452846 1.5374912135 -0.1481131394
| 15> C 0.230895525 0.7112317682 -1.5776893757
| 16> S -0.7102232428 -0.7617733091 -1.1282102632
| 17> P -2.5270339282 0.1978139101 -0.5098859723
| 18> S -2.7405459962 2.0649715697 -1.0472585456
| 19> O -2.6588631748 -0.1670524049 1.0367742134
| 20> C -1.7301399874 0.2016524484 2.069503878
| 21> C -1.7769462242 1.6814955726 2.3922012203
| 22> O -3.6691526131 -0.6794652607 -1.1399509652
| 23> C -3.7598193094 -2.1194391166 -0.9961720241
| 24> C -4.7003611234 -2.4920193075 0.1314632155
| 25> H 1.2925804669 -4.1845283615 1.405384669
| 26> H -0.0166365556 -2.9943544469 1.2969360809
| 27> H 1.1435415424 -3.1496946571 -0.0246333452
| 28> H 2.9680458441 -2.3337178489 1.4544481594
| 29> H 1.8119452909 -2.1793626717 2.8063900633
| 30> H 5.2246443919 1.5124775562 1.668867957
| 31> H 5.1763069348 0.6087184985 0.1246250357
| 32> H 3.7185181421 3.2533507754 0.6111652112
| 33> H 5.2706347557 3.1004406925 -0.2332938612
| 34> H 3.8136668326 2.3650971536 -0.915777263
| 35> H 1.0142751687 0.3839793666 -2.2605602991
| 36> H -0.4330275973 1.4414962968 -2.0414571623
| 37> H -2.0467231499 -0.3970721169 2.9260890161
| 38> H -0.7218889895 -0.098453872 1.7684535998
| 39> H -1.4285322657 2.2698106726 1.5453920574
| 40> H -2.7943598841 1.9827094264 2.6281520079
| 41> H -1.1343783945 1.8807119211 3.243892619
| 42> H -4.1394589479 -2.4638114555 -1.959768064
| 43> H -2.7566805706 -2.5230532066 -0.8328532076
| 44> H -4.7944508318 -3.5727029462 0.1722702881
| 45> H -4.3182661281 -2.1268862469 1.0806041325
| 46> H -5.6787153392 -2.0526219108 -0.0424443543
| 47> *
| 48>
| 49>                          ****END OF INPUT****

CARTESIAN COORDINATES (ANGSTROEM)
---------------------------------
  C      1.023801   -3.193017    1.055963
  C      1.920540   -2.167682    1.720833
  O      1.530867   -0.832991    1.317404
  P      2.380396    0.015726    0.282805
  S      3.169534   -0.961223   -1.228708
  O      3.449214    0.684208    1.252553
  C      4.644183    1.318839    0.765952
  C      4.340899    2.595877    0.009264
  S      0.986445    1.537491   -0.148113
  C      0.230896    0.711232   -1.577689
  S     -0.710223   -0.761773   -1.128210
  P     -2.527034    0.197814   -0.509886
  S     -2.740546    2.064972   -1.047259
  O     -2.658863   -0.167052    1.036774
  C     -1.730140    0.201652    2.069504
  C     -1.776946    1.681496    2.392201
  O     -3.669153   -0.679465   -1.139951
  C     -3.759819   -2.119439   -0.996172
  C     -4.700361   -2.492019    0.131463
  H      1.292580   -4.184528    1.405385
  H     -0.016637   -2.994354    1.296936
  H      1.143542   -3.149695   -0.024633
  H      2.968046   -2.333718    1.454448
  H      1.811945   -2.179363    2.806390
  H      5.224644    1.512478    1.668868
  H      5.176307    0.608718    0.124625
  H      3.718518    3.253351    0.611165
  H      5.270635    3.100441   -0.233294
  H      3.813667    2.365097   -0.915777
  H      1.014275    0.383979   -2.260560
  H     -0.433028    1.441496   -2.041457
  H     -2.046723   -0.397072    2.926089
  H     -0.721889   -0.098454    1.768454
  H     -1.428532    2.269811    1.545392
  H     -2.794360    1.982709    2.628152
  H     -1.134378    1.880712    3.243893
  H     -4.139459   -2.463811   -1.959768
  H     -2.756681   -2.523053   -0.832853
  H     -4.794451   -3.572703    0.172270
  H     -4.318266   -2.126886    1.080604
  H     -5.678715   -2.052622   -0.042444

 Total Charge           Charge          ....    0
 Multiplicity           Mult            ....    1
 Number of Electrons    NEL             ....  202
 Basis Dimension        Dim             ....  539

ORBITAL ENERGIES
----------------

  NO   OCC          E(Eh)            E(eV)
   0   2.0000     -88.579733     -2410.3771
   1   2.0000     -88.574109     -2410.2240
   2   2.0000     -88.526632     -2408.9321
   3   2.0000     -88.519204     -2408.7300
   4   2.0000     -76.918734     -2093.0652
   5   2.0000     -76.914011     -2092.9366
   6   2.0000     -18.997057      -516.9362
   7   2.0000     -18.994223      -516.8591
   8   2.0000     -18.991125      -516.7748
   9   2.0000     -18.990927      -516.7694
  10   2.0000     -10.106539      -275.0129
  11   2.0000     -10.104649      -274.9615
  12   2.0000     -10.104491      -274.9572
  13   2.0000     -10.101438      -274.8741
  14   2.0000     -10.094728      -274.6915
  15   2.0000     -10.033457      -273.0242
  16   2.0000     -10.031697      -272.9763
  17   2.0000     -10.031231      -272.9637
  18   2.0000     -10.020005      -272.6582
  19   2.0000      -7.874045      -214.2637
  20   2.0000      -7.868428      -214.1108
  21   2.0000      -7.821342      -212.8295
  22   2.0000      -7.814049      -212.6311
  23   2.0000      -6.597329      -179.5224
  24   2.0000      -6.592211      -179.3832
  25   2.0000      -5.820877      -158.3941
  26   2.0000      -5.817972      -158.3151
  27   2.0000      -5.815316      -158.2428
  28   2.0000      -5.812238      -158.1590
  29   2.0000      -5.811135      -158.1290
  30   2.0000      -5.805568      -157.9775
  31   2.0000      -5.768956      -156.9813
  32   2.0000      -5.761861      -156.7882
  33   2.0000      -5.761728      -156.7846
  34   2.0000      -5.761290      -156.7727
  35   2.0000      -5.754345      -156.5837
  36   2.0000      -5.753859      -156.5705
  37   2.0000      -4.742807      -129.0584
  38   2.0000      -4.742205      -129.0420
  39   2.0000      -4.741113      -129.0122
  40   2.0000      -4.737904      -128.9249
  41   2.0000      -4.737301      -128.9085
  42   2.0000      -4.735663      -128.8639
  43   2.0000      -1.054413       -28.6920
  44   2.0000      -1.050455       -28.5843
  45   2.0000      -1.014729       -27.6122
  46   2.0000      -1.009119       -27.4595
  47   2.0000      -0.803110       -21.8537
  48   2.0000      -0.761560       -20.7231
  49   2.0000      -0.753003       -20.4903
  50   2.0000      -0.734286       -19.9809
  51   2.0000      -0.731737       -19.9116
  52   2.0000      -0.712699       -19.3935
  53   2.0000      -0.687322       -18.7030
  54   2.0000      -0.672660       -18.3040
  55   2.0000      -0.633449       -17.2370
  56   2.0000      -0.619214       -16.8497
  57   2.0000      -0.611679       -16.6446
  58   2.0000      -0.608567       -16.5600
  59   2.0000      -0.593576       -16.1520
  60   2.0000      -0.533600       -14.5200
  61   2.0000      -0.524198       -14.2642
  62   2.0000      -0.495344       -13.4790
  63   2.0000      -0.493769       -13.4361
  64   2.0000      -0.478182       -13.0120
  65   2.0000      -0.466421       -12.6920
  66   2.0000      -0.463321       -12.6076
  67   2.0000      -0.455155       -12.3854
  68   2.0000      -0.445778       -12.1302
  69   2.0000      -0.437275       -11.8989
  70   2.0000      -0.422269       -11.4905
  71   2.0000      -0.418785       -11.3957
  72   2.0000      -0.415707       -11.3120
  73   2.0000      -0.403449       -10.9784
  74   2.0000      -0.401213       -10.9175
  75   2.0000      -0.390286       -10.6202
  76   2.0000      -0.381620       -10.3844
  77   2.0000      -0.375276       -10.2118
  78   2.0000      -0.372226       -10.1288
  79   2.0000      -0.369122       -10.0443
  80   2.0000      -0.364641        -9.9224
  81   2.0000      -0.361151        -9.8274
  82   2.0000      -0.355569        -9.6755
  83   2.0000      -0.354852        -9.6560
  84   2.0000      -0.348284        -9.4773
  85   2.0000      -0.336889        -9.1672
  86   2.0000      -0.326258        -8.8779
  87   2.0000      -0.315224        -8.5777
  88   2.0000      -0.311704        -8.4819
  89   2.0000      -0.304617        -8.2890
  90   2.0000      -0.302185        -8.2229
  91   2.0000      -0.296377        -8.0648
  92   2.0000      -0.291822        -7.9409
  93   2.0000      -0.283016        -7.7013
  94   2.0000      -0.273428        -7.4403
  95   2.0000      -0.248904        -6.7730
  96   2.0000      -0.232189        -6.3182
  97   2.0000      -0.227664        -6.1950
  98   2.0000      -0.220543        -6.0013
  99   2.0000      -0.217549        -5.9198
 100   2.0000      -0.212884        -5.7929
 101   0.0000      -0.050057        -1.3621
 102   0.0000      -0.031444        -0.8556
 103   0.0000      -0.006700        -0.1823
 104   0.0000      -0.003363        -0.0915
 105   0.0000       0.009650         0.2626

MULLIKEN ATOMIC CHARGES
-----------------------
   0 C :   -0.462450
   1 C :   -0.122389
   2 O :   -0.273794
   3 P :    0.663328
   4 S :   -0.473308
   5 O :   -0.300425
   6 C :   -0.153462
   7 C :   -0.448499
   8 S :   -0.116504
   9 C :   -0.252551
  10 S :   -0.163933
  11 P :    0.659970
  12 S :   -0.434860
  13 O :   -0.257589
  14 C :   -0.183634
  15 C :   -0.419654
  16 O :   -0.285969
  17 C :   -0.111358
  18 C :   -0.450768
  19 H :    0.145131
  20 H :    0.151254
  21 H :    0.179954
  22 H :    0.158390
  23 H :    0.150315
  24 H :    0.148265
  25 H :    0.172435
  26 H :    0.156730
  27 H :    0.149006
  28 H :    0.174967
  29 H :    0.219823
  30 H :    0.218490
  31 H :    0.144051
  32 H :    0.181604
  33 H :    0.174108
  34 H :    0.151272
  35 H :    0.143110
  36 H :    0.157704
  37 H :    0.141259
  38 H :    0.146111
  39 H :    0.165651
  40 H :    0.158221
Sum of atomic charges:   -0.0000000

LOEWDIN ATOMIC CHARGES
----------------------
   0 C :   -0.401558
   1 C :    0.024816
   2 O :   -0.694084
   3 P :    0.375597
   4 S :   -0.130492
   5 O :   -0.659682
   6 C :    0.019771
   7 C :   -0.405645
   8 S :    0.170857
   9 C :   -0.425336
  10 S :    0.138140
  11 P :    0.392202
  12 S :   -0.094935
  13 O :   -0.673096
  14 C :    0.016680
  15 C :   -0.408898
  16 O :   -0.650395
  17 C :    0.027004
  18 C :   -0.392659
  19 H :    0.157885
  20 H :    0.157406
  21 H :    0.167928
  22 H :    0.178420
  23 H :    0.177199
  24 H :    0.179724
  25 H :    0.179772
  26 H :    0.160773
  27 H :    0.159917
  28 H :    0.165163
  29 H :    0.191581
  30 H :    0.195564
  31 H :    0.177313
  32 H :    0.193424
  33 H :    0.167407
  34 H :    0.160442
  35 H :    0.158880
  36 H :    0.182387
  37 H :    0.172884
  38 H :    0.158258
  39 H :    0.166596
  40 H :    0.162791

  Mayer bond orders larger than 0.100000
B(  0-C ,  1-C ) :   0.9511 B(  0-C , 19-H ) :   0.9635 B(  0-C , 20-H ) :   0.9700
B(  0-C , 21-H ) :   0.9626 B(  1-C ,  2-O ) :   0.7567 B(  1-C , 22-H ) :   0.9618
B(  1-C , 23-H ) :   0.9612 B(  2-O ,  3-P ) :   1.1423 B(  3-P ,  4-S ) :   1.7547
B(  3-P ,  5-O ) :   1.0678 B(  3-P ,  8-S ) :   1.1020 B(  5-O ,  6-C ) :   0.8177
B(  6-C ,  7-C ) :   0.9227 B(  6-C , 24-H ) :   0.9580 B(  6-C , 25-H ) :   0.9664
B(  7-C , 26-H ) :   0.9685 B(  7-C , 27-H ) :   0.9587 B(  7-C , 28-H ) :   0.9618
B(  8-S ,  9-C ) :   0.8997 B(  9-C , 10-S ) :   0.9141 B(  9-C , 29-H ) :   0.9106
B(  9-C , 30-H ) :   0.8991 B( 10-S , 11-P ) :   0.9800 B( 11-P , 12-S ) :   1.8345
B( 11-P , 13-O ) :   1.0406 B( 11-P , 16-O ) :   1.1873 B( 13-O , 14-C ) :   0.7963
B( 14-C , 15-C ) :   0.9335 B( 14-C , 31-H ) :   0.9657 B( 14-C , 32-H ) :   0.9466
B( 15-C , 33-H ) :   0.9506 B( 15-C , 34-H ) :   0.9694 B( 15-C , 35-H ) :   0.9644
B( 16-O , 17-C ) :   0.7556 B( 17-C , 18-C ) :   0.9515 B( 17-C , 36-H ) :   0.9624
B( 17-C , 37-H ) :   0.9643 B( 18-C , 38-H ) :   0.9662 B( 18-C , 39-H ) :   0.9653
B( 18-C , 40-H ) :   0.9691

Dispersion correction           -0.021756794
FINAL SINGLE POINT ENERGY     -2932.461657313396

DIPOLE MOMENT
-------------

Method             : SCF
Type of density    : Electron Density
Multiplicity       :   1
Irrep              :   0
Energy             : -2932.4865873168719190 Eh
Relativity type    :
Basis              : AO
                                X                 Y                 Z
Electronic contribution:     -0.559811213       7.863951017     -12.529718091
Nuclear contribution   :      1.189282068      -8.963803199      13.872464462
                        -----------------------------------------
Total Dipole Moment    :      0.629470856      -1.099852182       1.342746371
                        -----------------------------------------
Magnitude (a.u.)       :      1.846314219
Magnitude (Debye)      :      4.692957790

Rotational constants in cm-1:             0.012689             0.005011             0.004529
Rotational constants in MHz :           380.413481           150.230054           135.779949

                             ****ORCA TERMINATED NORMALLY****
TOTAL RUN TIME: 0 days 0 hours 1 minutes 20 seconds 762 msec
