                         Program Version 6.0.0  -   RELEASE  -
|  1> ! r2scan-3c def2/J RI DEFGRID2 scfconv6 printgap
|  2> %output
|  3>     printlevel normal
|  4> end
|  5> %cpcm
|  6>     smd true
|  7>     smdsolvent "water"
|  8> end
|  9> * xyz 0 1
| 10> C 1.0238013006 -3.1930169641 1.0559633161
| 11> C 1.9205397569 -2.1676824689 1.7208333972
| 12> O 1.5308674653 -0.8329913901 1.3174042264
| 13> P 2.3803961498 0.015725903 0.2828053764
| 14> S 3.1695336271 -0.9612231329 -1.2287075221
| 15> O 3.4492139892 0.6842077279 1.252553189
| 16> C 4.644183107 1.3188385143 0.7659518386
| 17> C 4.3408991475 2.5958774952 0.0092636193
| 18> S 0.9864452846 1.5374912135 -0.1481131394
| 19> C 0.230895525 0.7112317682 -1.5776893757
| 20> S -0.7102232428 -0.7617733091 -1.1282102632
| 21> P -2.5270339282 0.1978139101 -0.5098859723
| 22> S -2.7405459962 2.0649715697 -1.0472585456
| 23> O -2.6588631748 -0.1670524049 1.0367742134
| 24> C -1.7301399874 0.2016524484 2.069503878
| 25> C -1.7769462242 1.6814955726 2.3922012203
| 26> O -3.6691526131 -0.6794652607 -1.1399509652
| 27> C -3.7598193094 -2.1194391166 -0.9961720241
| 28> C -4.7003611234 -2.4920193075 0.1314632155
| 29> H 1.2925804669 -4.1845283615 1.405384669
| 30> H -0.0166365556 -2.9943544469 1.2969360809
| 31> H 1.1435415424 -3.1496946571 -0.0246333452
| 32> H 2.9680458441 -2.3337178489 1.4544481594
| 33> H 1.8119452909 -2.1793626717 2.8063900633
| 34> H 5.2246443919 1.5124775562 1.668867957
| 35> H 5.1763069348 0.6087184985 0.1246250357
| 36> H 3.7185181421 3.2533507754 0.6111652112
| 37> H 5.2706347557 3.1004406925 -0.2332938612
| 38> H 3.8136668326 2.3650971536 -0.915777263
| 39> H 1.0142751687 0.3839793666 -2.2605602991
| 40> H -0.4330275973 1.4414962968 -2.0414571623
| 41> H -2.0467231499 -0.3970721169 2.9260890161
| 42> H -0.7218889895 -0.098453872 1.7684535998
| 43> H -1.4285322657 2.2698106726 1.5453920574
| 44> H -2.7943598841 1.9827094264 2.6281520079
| 45> H -1.1343783945 1.8807119211 3.243892619
| 46> H -4.1394589479 -2.4638114555 -1.959768064
| 47> H -2.7566805706 -2.5230532066 -0.8328532076
| 48> H -4.7944508318 -3.5727029462 0.1722702881
| 49> H -4.3182661281 -2.1268862469 1.0806041325
| 50> H -5.6787153392 -2.0526219108 -0.0424443543
| 51> *
| 52>
| 53>                          ****END OF INPUT****

CARTESIAN COORDINATES (ANGSTROEM)
---------------------------------
  C      1.023801   -3.193017    1.055963
  C      1.920540   -2.167682    1.720833
  O      1.530867   -0.832991    1.317404
  P      2.380396    0.015726    0.282805
  S      3.169534   -0.961223   -1.228708
  O      3.449214    0.684208    1.252553
  C      4.644183    1.318839    0.765952
  C      4.340899    2.595877    0.009264
  S      0.986445    1.537491   -0.148113
  C      0.230896    0.711232   -1.577689
  S     -0.710223   -0.761773   -1.128210
  P     -2.527034    0.197814   -0.509886
  S     -2.740546    2.064972   -1.047259
  O     -2.658863   -0.167052    1.036774
  C     -1.730140    0.201652    2.069504
  C     -1.776946    1.681496    2.392201
  O     -3.669153   -0.679465   -1.139951
  C     -3.759819   -2.119439   -0.996172
  C     -4.700361   -2.492019    0.131463
  H      1.292580   -4.184528    1.405385
  H     -0.016637   -2.994354    1.296936
  H      1.143542   -3.149695   -0.024633
  H      2.968046   -2.333718    1.454448
  H      1.811945   -2.179363    2.806390
  H      5.224644    1.512478    1.668868
  H      5.176307    0.608718    0.124625
  H      3.718518    3.253351    0.611165
  H      5.270635    3.100441   -0.233294
  H      3.813667    2.365097   -0.915777
  H      1.014275    0.383979   -2.260560
  H     -0.433028    1.441496   -2.041457
  H     -2.046723   -0.397072    2.926089
  H     -0.721889   -0.098454    1.768454
  H     -1.428532    2.269811    1.545392
  H     -2.794360    1.982709    2.628152
  H     -1.134378    1.880712    3.243893
  H     -4.139459   -2.463811   -1.959768
  H     -2.756681   -2.523053   -0.832853
  H     -4.794451   -3.572703    0.172270
  H     -4.318266   -2.126886    1.080604
  H     -5.678715   -2.052622   -0.042444

 Total Charge           Charge          ....    0
 Multiplicity           Mult            ....    1
 Number of Electrons    NEL             ....  202
 Basis Dimension        Dim             ....  539

ORBITAL ENERGIES
----------------

  NO   OCC          E(Eh)            E(eV)
   0   2.0000     -88.580825     -2410.4068
   1   2.0000     -88.577836     -2410.3255
   2   2.0000     -88.531063     -2409.0527
   3   2.0000     -88.529522     -2409.0108
   4   2.0000     -76.921371     -2093.1369
   5   2.0000     -76.919556     -2093.0875
   6   2.0000     -18.995915      -516.9051
   7   2.0000     -18.995893      -516.9045
   8   2.0000     -18.994270      -516.8604
   9   2.0000     -18.991048      -516.7727
  10   2.0000     -10.104270      -274.9512
  11   2.0000     -10.095180      -274.7038
  12   2.0000     -10.089946      -274.5614
  13   2.0000     -10.089399      -274.5465
  14   2.0000     -10.088155      -274.5126
  15   2.0000     -10.019175      -272.6356
  16   2.0000     -10.018707      -272.6229
  17   2.0000     -10.016813      -272.5713
  18   2.0000     -10.015446      -272.5341
  19   2.0000      -7.875210      -214.2954
  20   2.0000      -7.872087      -214.2104
  21   2.0000      -7.826279      -212.9639
  22   2.0000      -7.824509      -212.9157
  23   2.0000      -6.599658      -179.5858
  24   2.0000      -6.598165      -179.5452
  25   2.0000      -5.822032      -158.4255
  26   2.0000      -5.819146      -158.3470
  27   2.0000      -5.818990      -158.3428
  28   2.0000      -5.815891      -158.2584
  29   2.0000      -5.812294      -158.1606
  30   2.0000      -5.809227      -158.0771
  31   2.0000      -5.773958      -157.1174
  32   2.0000      -5.772069      -157.0660
  33   2.0000      -5.766574      -156.9165
  34   2.0000      -5.766151      -156.9050
  35   2.0000      -5.764884      -156.8705
  36   2.0000      -5.764471      -156.8592
  37   2.0000      -4.745320      -129.1267
  38   2.0000      -4.744668      -129.1090
  39   2.0000      -4.743577      -129.0793
  40   2.0000      -4.743250      -129.0704
  41   2.0000      -4.743037      -129.0646
  42   2.0000      -4.742052      -129.0378
  43   2.0000      -1.054276       -28.6883
  44   2.0000      -1.051963       -28.6254
  45   2.0000      -1.012114       -27.5410
  46   2.0000      -1.011379       -27.5210
  47   2.0000      -0.804247       -21.8847
  48   2.0000      -0.757480       -20.6121
  49   2.0000      -0.745438       -20.2844
  50   2.0000      -0.725439       -19.7402
  51   2.0000      -0.722291       -19.6545
  52   2.0000      -0.710261       -19.3272
  53   2.0000      -0.689903       -18.7732
  54   2.0000      -0.676825       -18.4173
  55   2.0000      -0.629212       -17.1217
  56   2.0000      -0.618406       -16.8277
  57   2.0000      -0.602329       -16.3902
  58   2.0000      -0.601512       -16.3680
  59   2.0000      -0.590472       -16.0676
  60   2.0000      -0.527702       -14.3595
  61   2.0000      -0.518913       -14.1204
  62   2.0000      -0.492273       -13.3954
  63   2.0000      -0.486675       -13.2431
  64   2.0000      -0.477325       -12.9887
  65   2.0000      -0.462164       -12.5761
  66   2.0000      -0.455376       -12.3914
  67   2.0000      -0.449426       -12.2295
  68   2.0000      -0.439823       -11.9682
  69   2.0000      -0.431959       -11.7542
  70   2.0000      -0.419974       -11.4281
  71   2.0000      -0.416809       -11.3420
  72   2.0000      -0.409533       -11.1440
  73   2.0000      -0.396483       -10.7888
  74   2.0000      -0.394921       -10.7463
  75   2.0000      -0.387858       -10.5542
  76   2.0000      -0.379338       -10.3223
  77   2.0000      -0.367393        -9.9973
  78   2.0000      -0.364786        -9.9263
  79   2.0000      -0.363004        -9.8778
  80   2.0000      -0.357073        -9.7165
  81   2.0000      -0.351465        -9.5638
  82   2.0000      -0.349307        -9.5051
  83   2.0000      -0.347279        -9.4500
  84   2.0000      -0.344741        -9.3809
  85   2.0000      -0.334179        -9.0935
  86   2.0000      -0.320125        -8.7110
  87   2.0000      -0.308159        -8.3854
  88   2.0000      -0.305678        -8.3179
  89   2.0000      -0.300640        -8.1808
  90   2.0000      -0.298909        -8.1337
  91   2.0000      -0.292778        -7.9669
  92   2.0000      -0.289247        -7.8708
  93   2.0000      -0.280688        -7.6379
  94   2.0000      -0.275876        -7.5070
  95   2.0000      -0.249945        -6.8013
  96   2.0000      -0.238857        -6.4996
  97   2.0000      -0.233226        -6.3464
  98   2.0000      -0.226907        -6.1744
  99   2.0000      -0.224793        -6.1169
 100   2.0000      -0.222440        -6.0529
 101   0.0000      -0.053786        -1.4636
 102   0.0000      -0.036209        -0.9853
 103   0.0000      -0.008216        -0.2236
 104   0.0000      -0.006963        -0.1895
 105   0.0000       0.010706         0.2913

MULLIKEN ATOMIC CHARGES
-----------------------
   0 C :   -0.494874
   1 C :   -0.122781
   2 O :   -0.293928
   3 P :    0.704589
   4 S :   -0.520717
   5 O :   -0.326177
   6 C :   -0.153630
   7 C :   -0.485996
   8 S :   -0.125488
   9 C :   -0.262459
  10 S :   -0.164385
  11 P :    0.669967
  12 S :   -0.492055
  13 O :   -0.275506
  14 C :   -0.164834
  15 C :   -0.468397
  16 O :   -0.323328
  17 C :   -0.097061
  18 C :   -0.493256
  19 H :    0.168333
  20 H :    0.167303
  21 H :    0.169217
  22 H :    0.169943
  23 H :    0.175609
  24 H :    0.174770
  25 H :    0.177687
  26 H :    0.169657
  27 H :    0.172927
  28 H :    0.171779
  29 H :    0.239902
  30 H :    0.230541
  31 H :    0.176155
  32 H :    0.177949
  33 H :    0.166179
  34 H :    0.164578
  35 H :    0.170141
  36 H :    0.180233
  37 H :    0.158122
  38 H :    0.171653
  39 H :    0.169983
  40 H :    0.167657
Sum of atomic charges:   -0.0000000

LOEWDIN ATOMIC CHARGES
----------------------
   0 C :   -0.404087
   1 C :    0.030275
   2 O :   -0.700336
   3 P :    0.381990
   4 S :   -0.159070
   5 O :   -0.670698
   6 C :    0.024839
   7 C :   -0.409440
   8 S :    0.165163
   9 C :   -0.421381
  10 S :    0.143383
  11 P :    0.391931
  12 S :   -0.140009
  13 O :   -0.677296
  14 C :    0.023493
  15 C :   -0.414600
  16 O :   -0.674124
  17 C :    0.034344
  18 C :   -0.394922
  19 H :    0.166222
  20 H :    0.161959
  21 H :    0.162058
  22 H :    0.181777
  23 H :    0.188238
  24 H :    0.190818
  25 H :    0.181407
  26 H :    0.163688
  27 H :    0.168489
  28 H :    0.161436
  29 H :    0.197533
  30 H :    0.198745
  31 H :    0.190865
  32 H :    0.193075
  33 H :    0.161393
  34 H :    0.162240
  35 H :    0.168412
  36 H :    0.191947
  37 H :    0.180798
  38 H :    0.169041
  39 H :    0.166142
  40 H :    0.164262

  Mayer bond orders larger than 0.100000
B(  0-C ,  1-C ) :   0.9389 B(  0-C , 19-H ) :   0.9596 B(  0-C , 20-H ) :   0.9672
B(  0-C , 21-H ) :   0.9656 B(  1-C ,  2-O ) :   0.7439 B(  1-C , 22-H ) :   0.9588
B(  1-C , 23-H ) :   0.9502 B(  2-O ,  3-P ) :   1.1555 B(  3-P ,  4-S ) :   1.7115
B(  3-P ,  5-O ) :   1.0747 B(  3-P ,  8-S ) :   1.1076 B(  5-O ,  6-C ) :   0.8067
B(  6-C ,  7-C ) :   0.9098 B(  6-C , 24-H ) :   0.9488 B(  6-C , 25-H ) :   0.9651
B(  7-C , 26-H ) :   0.9660 B(  7-C , 27-H ) :   0.9535 B(  7-C , 28-H ) :   0.9630
B(  8-S ,  9-C ) :   0.8947 B(  9-C , 10-S ) :   0.9016 B(  9-C , 29-H ) :   0.9047
B(  9-C , 30-H ) :   0.8970 B( 10-S , 11-P ) :   1.0003 B( 11-P , 12-S ) :   1.8097
B( 11-P , 13-O ) :   1.0495 B( 11-P , 16-O ) :   1.1894 B( 13-O , 14-C ) :   0.7885
B( 14-C , 15-C ) :   0.9146 B( 14-C , 31-H ) :   0.9560 B( 14-C , 32-H ) :   0.9466
B( 15-C , 33-H ) :   0.9542 B( 15-C , 34-H ) :   0.9701 B( 15-C , 35-H ) :   0.9595
B( 16-O , 17-C ) :   0.7468 B( 17-C , 18-C ) :   0.9414 B( 17-C , 36-H ) :   0.9518
B( 17-C , 37-H ) :   0.9530 B( 18-C , 38-H ) :   0.9592 B( 18-C , 39-H ) :   0.9651
B( 18-C , 40-H ) :   0.9681

Dispersion correction           -0.021756794
FINAL SINGLE POINT ENERGY     -2932.469693884407

DIPOLE MOMENT
-------------

Method             : SCF
Type of density    : Electron Density
Multiplicity       :   1
Irrep              :   0
Energy             : -2932.4946238878824261 Eh
Relativity type    :
Basis              : AO
                                X                 Y                 Z
Electronic contribution:     -0.202852313       7.333630983     -12.000846102
Nuclear contribution   :      1.189282068      -8.963803199      13.872464462
                        -----------------------------------------
Total Dipole Moment    :      0.986429755      -1.630172215       1.871618360
                        -----------------------------------------
Magnitude (a.u.)       :      2.670853871
Magnitude (Debye)      :      6.788771027

Rotational constants in cm-1:             0.012689             0.005011             0.004529
Rotational constants in MHz :           380.413481           150.230054           135.779949

                             ****ORCA TERMINATED NORMALLY****
TOTAL RUN TIME: 0 days 0 hours 1 minutes 56 seconds 768 msec
