                         Program Version 6.0.0  -   RELEASE  -
|  1> ! pbe def2-sv(p) def2/J RI DEFGRID1 loosescf d4 GCP(DFT/SV(P)) printgap
|  2> %output
|  3>     printlevel normal
|  4> end
|  5> * xyz 0 1
|  6> C 3.1193180418 2.2008660195 -2.0057604764
|  7> C 2.0057095356 1.1937806754 -1.8123683703
|  8> O 1.4463822277 1.3024437525 -0.4786675617
|  9> P 1.8305583664 0.3064885572 0.6830838876
| 10> S 1.2124974817 0.8673175541 2.4490656884
| 11> O 3.4166588391 0.2587454642 0.5337016984
| 12> C 4.2873168472 -0.1885106782 1.5873852659
| 13> C 4.1042782929 -1.6555119125 1.9182265154
| 14> S 1.2519943841 -1.6440203511 0.0179995339
| 15> C -0.0415627199 -2.022676836 1.2271988452
| 16> S -1.7082906878 -2.1545251148 0.514755042
| 17> P -1.8231184618 -0.3146785479 -0.5429474312
| 18> S -1.1038961616 -0.3048743835 -2.3698328139
| 19> O -1.1886701392 0.6892102503 0.5058439857
| 20> C -1.7249623118 2.0068204208 0.7721462118
| 21> C -1.5735732626 2.9227678135 -0.4225067831
| 22> O -3.3679053004 0.0350984899 -0.471903883
| 23> C -4.3214542195 -0.4673274058 -1.4296680654
| 24> C -5.4544902234 0.5334577333 -1.5362821183
| 25> H 3.9457364264 1.9836129841 -1.3344687437
| 26> H 3.4659014991 2.1463901943 -3.0328954346
| 27> H 2.7542748278 3.2039649844 -1.8028775955
| 28> H 2.3576364245 0.1707005583 -1.9694230731
| 29> H 1.1667489254 1.3854409533 -2.4851788117
| 30> H 5.2867267798 0.0121462032 1.1986661278
| 31> H 4.1006216441 0.4297088308 2.4708639028
| 32> H 4.1698183391 -2.2597931579 1.0168911818
| 33> H 4.878101025 -1.9614098238 2.6149610248
| 34> H 3.1315857715 -1.8153138509 2.3810485531
| 35> H -0.0327231109 -1.2509313204 2.0019431247
| 36> H 0.1664612243 -3.0052617827 1.6439920141
| 37> H -2.7710436701 1.8972464875 1.0618963671
| 38> H -1.1346667898 2.3504988918 1.6241410478
| 39> H -0.5234826393 3.0136395596 -0.6901614773
| 40> H -2.1157245036 2.5151747609 -1.2753006497
| 41> H -1.9710415741 3.9026963001 -0.1780368332
| 42> H -3.8138429249 -0.6030435043 -2.3909660494
| 43> H -4.6751324151 -1.4362927419 -1.0696722011
| 44> H -6.1985234581 0.1516035412 -2.2274839373
| 45> H -5.911809856 0.6827949883 -0.5624678366
| 46> H -5.083016472 1.4864945109 -1.9028419226
| 47> *
| 48>
| 49>                          ****END OF INPUT****

CARTESIAN COORDINATES (ANGSTROEM)
---------------------------------
  C      3.119318    2.200866   -2.005760
  C      2.005710    1.193781   -1.812368
  O      1.446382    1.302444   -0.478668
  P      1.830558    0.306489    0.683084
  S      1.212497    0.867318    2.449066
  O      3.416659    0.258745    0.533702
  C      4.287317   -0.188511    1.587385
  C      4.104278   -1.655512    1.918227
  S      1.251994   -1.644020    0.018000
  C     -0.041563   -2.022677    1.227199
  S     -1.708291   -2.154525    0.514755
  P     -1.823118   -0.314679   -0.542947
  S     -1.103896   -0.304874   -2.369833
  O     -1.188670    0.689210    0.505844
  C     -1.724962    2.006820    0.772146
  C     -1.573573    2.922768   -0.422507
  O     -3.367905    0.035098   -0.471904
  C     -4.321454   -0.467327   -1.429668
  C     -5.454490    0.533458   -1.536282
  H      3.945736    1.983613   -1.334469
  H      3.465901    2.146390   -3.032895
  H      2.754275    3.203965   -1.802878
  H      2.357636    0.170701   -1.969423
  H      1.166749    1.385441   -2.485179
  H      5.286727    0.012146    1.198666
  H      4.100622    0.429709    2.470864
  H      4.169818   -2.259793    1.016891
  H      4.878101   -1.961410    2.614961
  H      3.131586   -1.815314    2.381049
  H     -0.032723   -1.250931    2.001943
  H      0.166461   -3.005262    1.643992
  H     -2.771044    1.897246    1.061896
  H     -1.134667    2.350499    1.624141
  H     -0.523483    3.013640   -0.690161
  H     -2.115725    2.515175   -1.275301
  H     -1.971042    3.902696   -0.178037
  H     -3.813843   -0.603044   -2.390966
  H     -4.675132   -1.436293   -1.069672
  H     -6.198523    0.151604   -2.227484
  H     -5.911810    0.682795   -0.562468
  H     -5.083016    1.486495   -1.902842

 Total Charge           Charge          ....    0
 Multiplicity           Mult            ....    1
 Number of Electrons    NEL             ....  202
 Basis Dimension        Dim             ....  334

ORBITAL ENERGIES
----------------

  NO   OCC          E(Eh)            E(eV)
   0   2.0000     -88.039793     -2395.6846
   1   2.0000     -88.032593     -2395.4886
   2   2.0000     -87.988619     -2394.2920
   3   2.0000     -87.980505     -2394.0713
   4   2.0000     -76.426283     -2079.6649
   5   2.0000     -76.423971     -2079.6020
   6   2.0000     -18.794309      -511.4192
   7   2.0000     -18.791780      -511.3503
   8   2.0000     -18.787218      -511.2262
   9   2.0000     -18.784833      -511.1613
  10   2.0000      -9.953788      -270.8564
  11   2.0000      -9.952851      -270.8309
  12   2.0000      -9.952231      -270.8140
  13   2.0000      -9.947333      -270.6807
  14   2.0000      -9.944866      -270.6136
  15   2.0000      -9.889886      -269.1175
  16   2.0000      -9.883777      -268.9512
  17   2.0000      -9.881321      -268.8844
  18   2.0000      -9.875895      -268.7368
  19   2.0000      -7.684322      -209.1010
  20   2.0000      -7.678506      -208.9428
  21   2.0000      -7.633650      -207.7222
  22   2.0000      -7.625546      -207.5017
  23   2.0000      -6.423505      -174.7925
  24   2.0000      -6.421300      -174.7325
  25   2.0000      -5.712183      -155.4364
  26   2.0000      -5.708942      -155.3482
  27   2.0000      -5.706606      -155.2846
  28   2.0000      -5.703124      -155.1899
  29   2.0000      -5.701233      -155.1384
  30   2.0000      -5.695044      -154.9700
  31   2.0000      -5.662648      -154.0885
  32   2.0000      -5.654346      -153.8626
  33   2.0000      -5.654265      -153.8604
  34   2.0000      -5.653646      -153.8435
  35   2.0000      -5.646260      -153.6425
  36   2.0000      -5.645736      -153.6283
  37   2.0000      -4.646313      -126.4326
  38   2.0000      -4.645020      -126.3974
  39   2.0000      -4.644621      -126.3866
  40   2.0000      -4.644059      -126.3713
  41   2.0000      -4.642969      -126.3416
  42   2.0000      -4.641197      -126.2934
  43   2.0000      -0.987485       -26.8708
  44   2.0000      -0.985564       -26.8185
  45   2.0000      -0.942902       -25.6577
  46   2.0000      -0.940358       -25.5885
  47   2.0000      -0.757614       -20.6157
  48   2.0000      -0.718587       -19.5537
  49   2.0000      -0.707043       -19.2396
  50   2.0000      -0.688191       -18.7266
  51   2.0000      -0.687297       -18.7023
  52   2.0000      -0.669619       -18.2212
  53   2.0000      -0.648039       -17.6341
  54   2.0000      -0.637297       -17.3417
  55   2.0000      -0.595288       -16.1986
  56   2.0000      -0.586197       -15.9512
  57   2.0000      -0.571340       -15.5470
  58   2.0000      -0.570102       -15.5133
  59   2.0000      -0.559514       -15.2251
  60   2.0000      -0.505821       -13.7641
  61   2.0000      -0.497656       -13.5419
  62   2.0000      -0.471847       -12.8396
  63   2.0000      -0.470867       -12.8129
  64   2.0000      -0.449050       -12.2193
  65   2.0000      -0.445956       -12.1351
  66   2.0000      -0.440617       -11.9898
  67   2.0000      -0.437729       -11.9112
  68   2.0000      -0.422239       -11.4897
  69   2.0000      -0.414737       -11.2856
  70   2.0000      -0.404230       -10.9996
  71   2.0000      -0.399026       -10.8580
  72   2.0000      -0.390298       -10.6205
  73   2.0000      -0.383574       -10.4376
  74   2.0000      -0.379604       -10.3295
  75   2.0000      -0.365916        -9.9571
  76   2.0000      -0.365000        -9.9322
  77   2.0000      -0.355979        -9.6867
  78   2.0000      -0.352910        -9.6032
  79   2.0000      -0.351678        -9.5697
  80   2.0000      -0.343394        -9.3442
  81   2.0000      -0.341609        -9.2956
  82   2.0000      -0.337539        -9.1849
  83   2.0000      -0.335947        -9.1416
  84   2.0000      -0.332112        -9.0372
  85   2.0000      -0.317262        -8.6331
  86   2.0000      -0.312150        -8.4940
  87   2.0000      -0.302457        -8.2303
  88   2.0000      -0.295941        -8.0530
  89   2.0000      -0.294816        -8.0223
  90   2.0000      -0.283833        -7.7235
  91   2.0000      -0.272989        -7.4284
  92   2.0000      -0.262787        -7.1508
  93   2.0000      -0.259522        -7.0619
  94   2.0000      -0.254289        -6.9196
  95   2.0000      -0.232471        -6.3259
  96   2.0000      -0.218888        -5.9563
  97   2.0000      -0.207956        -5.6588
  98   2.0000      -0.205311        -5.5868
  99   2.0000      -0.191180        -5.2023
 100   2.0000      -0.187154        -5.0927
 101   0.0000      -0.047625        -1.2959
 102   0.0000      -0.033907        -0.9226
 103   0.0000      -0.013294        -0.3618
 104   0.0000       0.004541         0.1236
 105   0.0000       0.016170         0.4400

MULLIKEN ATOMIC CHARGES
-----------------------
   0 C :   -0.281278
   1 C :   -0.019201
   2 O :   -0.359070
   3 P :    0.620782
   4 S :   -0.308515
   5 O :   -0.384006
   6 C :    0.002898
   7 C :   -0.312376
   8 S :   -0.099209
   9 C :   -0.343255
  10 S :   -0.111854
  11 P :    0.641762
  12 S :   -0.320405
  13 O :   -0.376796
  14 C :    0.001214
  15 C :   -0.324213
  16 O :   -0.387076
  17 C :   -0.010620
  18 C :   -0.288842
  19 H :    0.116657
  20 H :    0.108703
  21 H :    0.115453
  22 H :    0.105486
  23 H :    0.124664
  24 H :    0.103268
  25 H :    0.111076
  26 H :    0.119979
  27 H :    0.111945
  28 H :    0.119524
  29 H :    0.199482
  30 H :    0.179847
  31 H :    0.106749
  32 H :    0.114833
  33 H :    0.134394
  34 H :    0.117286
  35 H :    0.105656
  36 H :    0.108634
  37 H :    0.103851
  38 H :    0.113366
  39 H :    0.117792
  40 H :    0.121415
Sum of atomic charges:   -0.0000000

LOEWDIN ATOMIC CHARGES
----------------------
   0 C :   -0.358380
   1 C :   -0.118017
   2 O :   -0.229863
   3 P :    0.583098
   4 S :   -0.290043
   5 O :   -0.250227
   6 C :   -0.116750
   7 C :   -0.370866
   8 S :    0.082422
   9 C :   -0.479293
  10 S :    0.054133
  11 P :    0.571072
  12 S :   -0.308969
  13 O :   -0.241622
  14 C :   -0.112623
  15 C :   -0.367278
  16 O :   -0.245835
  17 C :   -0.121190
  18 C :   -0.351737
  19 H :    0.124264
  20 H :    0.129493
  21 H :    0.126389
  22 H :    0.107028
  23 H :    0.115492
  24 H :    0.117648
  25 H :    0.111280
  26 H :    0.124004
  27 H :    0.130160
  28 H :    0.118977
  29 H :    0.122261
  30 H :    0.136637
  31 H :    0.111198
  32 H :    0.116231
  33 H :    0.129832
  34 H :    0.117278
  35 H :    0.127373
  36 H :    0.107199
  37 H :    0.112970
  38 H :    0.131768
  39 H :    0.126767
  40 H :    0.127720

  Mayer bond orders larger than 0.100000
B(  0-C ,  1-C ) :   1.1620 B(  0-C , 19-H ) :   0.9418 B(  0-C , 20-H ) :   0.9403
B(  0-C , 21-H ) :   0.9486 B(  1-C ,  2-O ) :   0.8763 B(  1-C , 22-H ) :   0.9200
B(  1-C , 23-H ) :   0.9171 B(  2-O ,  3-P ) :   1.1362 B(  3-P ,  4-S ) :   1.6003
B(  3-P ,  5-O ) :   1.0696 B(  3-P ,  8-S ) :   0.9564 B(  4-S ,  8-S ) :   0.1162
B(  4-S , 29-H ) :   0.1112 B(  5-O ,  6-C ) :   0.9125 B(  6-C ,  7-C ) :   1.1676
B(  6-C , 24-H ) :   0.9340 B(  6-C , 25-H ) :   0.9181 B(  7-C , 26-H ) :   0.9417
B(  7-C , 27-H ) :   0.9367 B(  7-C , 28-H ) :   0.9385 B(  8-S ,  9-C ) :   1.0124
B(  9-C , 10-S ) :   0.9953 B(  9-C , 29-H ) :   0.8523 B(  9-C , 30-H ) :   0.9122
B( 10-S , 11-P ) :   0.9592 B( 10-S , 12-S ) :   0.1161 B( 11-P , 12-S ) :   1.6436
B( 11-P , 13-O ) :   1.1108 B( 11-P , 16-O ) :   1.0748 B( 13-O , 14-C ) :   0.8900
B( 14-C , 15-C ) :   1.1714 B( 14-C , 31-H ) :   0.9279 B( 14-C , 32-H ) :   0.9155
B( 15-C , 33-H ) :   0.9372 B( 15-C , 34-H ) :   0.9339 B( 15-C , 35-H ) :   0.9374
B( 16-O , 17-C ) :   0.9050 B( 17-C , 18-C ) :   1.1607 B( 17-C , 36-H ) :   0.9009
B( 17-C , 37-H ) :   0.9317 B( 18-C , 38-H ) :   0.9414 B( 18-C , 39-H ) :   0.9504
B( 18-C , 40-H ) :   0.9511

Dispersion correction           -0.068570814
FINAL SINGLE POINT ENERGY     -2929.511862417830

DIPOLE MOMENT
-------------

Method             : SCF
Type of density    : Electron Density
Multiplicity       :   1
Irrep              :   0
Energy             : -2929.6315333961329088 Eh
Relativity type    :
Basis              : AO
                                X                 Y                 Z
Electronic contribution:     -1.074765725     -12.166888998       4.708023219
Nuclear contribution   :      1.126824820      12.331139431      -4.745567641
                        -----------------------------------------
Total Dipole Moment    :      0.052059096       0.164250433      -0.037544422
                        -----------------------------------------
Magnitude (a.u.)       :      0.176346074
Magnitude (Debye)      :      0.448236098

Rotational constants in cm-1:             0.013073             0.005537             0.005051
Rotational constants in MHz :           391.923374           165.994418           151.435488

                             ****ORCA TERMINATED NORMALLY****
TOTAL RUN TIME: 0 days 0 hours 0 minutes 21 seconds 950 msec
