                         Program Version 6.0.0  -   RELEASE  -
|  1> ! pbe def2-sv(p) def2/J RI DEFGRID1 loosescf d4 GCP(DFT/SV(P)) printgap
|  2> %output
|  3>     printlevel normal
|  4> end
|  5> * xyz 0 1
|  6> C 3.6610677554 -1.9249051162 -2.3375199646
|  7> C 4.0804640962 -0.5400317437 -1.8888109247
|  8> O 3.6671865584 -0.2635949592 -0.5398759179
|  9> P 2.1396422084 -0.1067682315 -0.1337052622
| 10> S 1.0699708753 0.8626490052 -1.4668998561
| 11> O 2.2291855374 0.5408226991 1.3080556046
| 12> C 2.2828365443 1.9634007806 1.5306213456
| 13> C 3.5434778271 2.5803417515 0.964432411
| 14> S 1.618519478 -2.0697357549 0.4393119136
| 15> C -0.0843519374 -1.8087181537 0.9911999041
| 16> S -1.2657868544 -1.6440958484 -0.3968133468
| 17> P -2.25745978 0.0853421748 0.2605858744
| 18> S -1.2351431704 1.4091159481 1.2972302604
| 19> O -3.4416566733 -0.6065077648 1.0516280175
| 20> C -4.4039480419 0.1559461241 1.817739055
| 21> C -4.0678706919 0.0967975683 3.2946798175
| 22> O -3.0404408227 0.6778990238 -0.9851387614
| 23> C -2.4604961067 1.5031446224 -2.0119463989
| 24> C -2.1001750373 0.6700846515 -3.2249001796
| 25> H 2.5748530396 -1.9800563692 -2.4052971036
| 26> H 4.0857531402 -2.1316279082 -3.3145963062
| 27> H 4.0035346108 -2.672291395 -1.6262812153
| 28> H 3.6504224193 0.2229912957 -2.546076077
| 29> H 5.1657003497 -0.4358952831 -1.8570037561
| 30> H 1.3893873613 2.418137798 1.0903730482
| 31> H 2.2341311399 2.0557162143 2.616497279
| 32> H 4.4183358438 2.0580320405 1.3428693239
| 33> H 3.5338692732 2.512620086 -0.1228403742
| 34> H 3.5903014599 3.625940536 1.2521809289
| 35> H -0.1349541336 -0.9037950258 1.6013099454
| 36> H -0.350846589 -2.6924095678 1.5642662769
| 37> H -4.4171538595 1.1877029784 1.4568161544
| 38> H -5.3638293203 -0.3174985631 1.6058877716
| 39> H -3.1109031209 0.5798534432 3.481145384
| 40> H -4.839608358 0.6114495647 3.8580702672
| 41> H -4.0105903911 -0.9373746822 3.6220026959
| 42> H -3.2352265745 2.2351442032 -2.2478437276
| 43> H -1.5803268287 2.0168292096 -1.6125777366
| 44> H -1.7628684598 1.328377997 -4.0186580092
| 45> H -1.296393088 -0.0214160956 -2.9818472485
| 46> H -2.9657428054 0.1057517257 -3.5597666671
| 47> *
| 48>
| 49>                          ****END OF INPUT****

CARTESIAN COORDINATES (ANGSTROEM)
---------------------------------
  C      3.661068   -1.924905   -2.337520
  C      4.080464   -0.540032   -1.888811
  O      3.667187   -0.263595   -0.539876
  P      2.139642   -0.106768   -0.133705
  S      1.069971    0.862649   -1.466900
  O      2.229186    0.540823    1.308056
  C      2.282837    1.963401    1.530621
  C      3.543478    2.580342    0.964432
  S      1.618519   -2.069736    0.439312
  C     -0.084352   -1.808718    0.991200
  S     -1.265787   -1.644096   -0.396813
  P     -2.257460    0.085342    0.260586
  S     -1.235143    1.409116    1.297230
  O     -3.441657   -0.606508    1.051628
  C     -4.403948    0.155946    1.817739
  C     -4.067871    0.096798    3.294680
  O     -3.040441    0.677899   -0.985139
  C     -2.460496    1.503145   -2.011946
  C     -2.100175    0.670085   -3.224900
  H      2.574853   -1.980056   -2.405297
  H      4.085753   -2.131628   -3.314596
  H      4.003535   -2.672291   -1.626281
  H      3.650422    0.222991   -2.546076
  H      5.165700   -0.435895   -1.857004
  H      1.389387    2.418138    1.090373
  H      2.234131    2.055716    2.616497
  H      4.418336    2.058032    1.342869
  H      3.533869    2.512620   -0.122840
  H      3.590301    3.625941    1.252181
  H     -0.134954   -0.903795    1.601310
  H     -0.350847   -2.692410    1.564266
  H     -4.417154    1.187703    1.456816
  H     -5.363829   -0.317499    1.605888
  H     -3.110903    0.579853    3.481145
  H     -4.839608    0.611450    3.858070
  H     -4.010590   -0.937375    3.622003
  H     -3.235227    2.235144   -2.247844
  H     -1.580327    2.016829   -1.612578
  H     -1.762868    1.328378   -4.018658
  H     -1.296393   -0.021416   -2.981847
  H     -2.965743    0.105752   -3.559767

 Total Charge           Charge          ....    0
 Multiplicity           Mult            ....    1
 Number of Electrons    NEL             ....  202
 Basis Dimension        Dim             ....  334

ORBITAL ENERGIES
----------------

  NO   OCC          E(Eh)            E(eV)
   0   2.0000     -88.042294     -2395.7526
   1   2.0000     -88.038821     -2395.6581
   2   2.0000     -87.983903     -2394.1637
   3   2.0000     -87.983376     -2394.1494
   4   2.0000     -76.424431     -2079.6145
   5   2.0000     -76.423138     -2079.5793
   6   2.0000     -18.792005      -511.3565
   7   2.0000     -18.790724      -511.3216
   8   2.0000     -18.786201      -511.1985
   9   2.0000     -18.783145      -511.1154
  10   2.0000      -9.955081      -270.8915
  11   2.0000      -9.951494      -270.7939
  12   2.0000      -9.949941      -270.7517
  13   2.0000      -9.946552      -270.6594
  14   2.0000      -9.943305      -270.5711
  15   2.0000      -9.883664      -268.9482
  16   2.0000      -9.879159      -268.8256
  17   2.0000      -9.878845      -268.8170
  18   2.0000      -9.876397      -268.7504
  19   2.0000      -7.687793      -209.1955
  20   2.0000      -7.684291      -209.1002
  21   2.0000      -7.628612      -207.5851
  22   2.0000      -7.628170      -207.5731
  23   2.0000      -6.421901      -174.7488
  24   2.0000      -6.420882      -174.7211
  25   2.0000      -5.715649      -155.5307
  26   2.0000      -5.712373      -155.4416
  27   2.0000      -5.712221      -155.4374
  28   2.0000      -5.708997      -155.3497
  29   2.0000      -5.704627      -155.2308
  30   2.0000      -5.700927      -155.1301
  31   2.0000      -5.657321      -153.9435
  32   2.0000      -5.656951      -153.9335
  33   2.0000      -5.649305      -153.7254
  34   2.0000      -5.649068      -153.7190
  35   2.0000      -5.648912      -153.7147
  36   2.0000      -5.648163      -153.6943
  37   2.0000      -4.644398      -126.3805
  38   2.0000      -4.643677      -126.3609
  39   2.0000      -4.643463      -126.3551
  40   2.0000      -4.642546      -126.3301
  41   2.0000      -4.642450      -126.3275
  42   2.0000      -4.641406      -126.2991
  43   2.0000      -0.984507       -26.7898
  44   2.0000      -0.982942       -26.7472
  45   2.0000      -0.943689       -25.6791
  46   2.0000      -0.939748       -25.5718
  47   2.0000      -0.761263       -20.7150
  48   2.0000      -0.720075       -19.5942
  49   2.0000      -0.705090       -19.1865
  50   2.0000      -0.685155       -18.6440
  51   2.0000      -0.682453       -18.5705
  52   2.0000      -0.670931       -18.2570
  53   2.0000      -0.651167       -17.7192
  54   2.0000      -0.632765       -17.2184
  55   2.0000      -0.600092       -16.3293
  56   2.0000      -0.587798       -15.9948
  57   2.0000      -0.570378       -15.5208
  58   2.0000      -0.568734       -15.4760
  59   2.0000      -0.557232       -15.1630
  60   2.0000      -0.499794       -13.6001
  61   2.0000      -0.489401       -13.3173
  62   2.0000      -0.471163       -12.8210
  63   2.0000      -0.470089       -12.7918
  64   2.0000      -0.451732       -12.2923
  65   2.0000      -0.445506       -12.1228
  66   2.0000      -0.437347       -11.9008
  67   2.0000      -0.431822       -11.7505
  68   2.0000      -0.425460       -11.5774
  69   2.0000      -0.413234       -11.2447
  70   2.0000      -0.406765       -11.0686
  71   2.0000      -0.396285       -10.7834
  72   2.0000      -0.389572       -10.6008
  73   2.0000      -0.384050       -10.4505
  74   2.0000      -0.377132       -10.2623
  75   2.0000      -0.374677       -10.1955
  76   2.0000      -0.368134       -10.0174
  77   2.0000      -0.354087        -9.6352
  78   2.0000      -0.352735        -9.5984
  79   2.0000      -0.346439        -9.4271
  80   2.0000      -0.344858        -9.3841
  81   2.0000      -0.340396        -9.2626
  82   2.0000      -0.338342        -9.2068
  83   2.0000      -0.332877        -9.0580
  84   2.0000      -0.327953        -8.9240
  85   2.0000      -0.312316        -8.4986
  86   2.0000      -0.306660        -8.3446
  87   2.0000      -0.294051        -8.0015
  88   2.0000      -0.290358        -7.9010
  89   2.0000      -0.286106        -7.7853
  90   2.0000      -0.280015        -7.6196
  91   2.0000      -0.271472        -7.3871
  92   2.0000      -0.269201        -7.3253
  93   2.0000      -0.262702        -7.1485
  94   2.0000      -0.259964        -7.0740
  95   2.0000      -0.240620        -6.5476
  96   2.0000      -0.223954        -6.0941
  97   2.0000      -0.207030        -5.6336
  98   2.0000      -0.201996        -5.4966
  99   2.0000      -0.194069        -5.2809
 100   2.0000      -0.184766        -5.0277
 101   0.0000      -0.039499        -1.0748
 102   0.0000      -0.030890        -0.8406
 103   0.0000      -0.012136        -0.3302
 104   0.0000       0.004609         0.1254
 105   0.0000       0.022092         0.6011

MULLIKEN ATOMIC CHARGES
-----------------------
   0 C :   -0.321866
   1 C :   -0.003808
   2 O :   -0.371872
   3 P :    0.621707
   4 S :   -0.330851
   5 O :   -0.366507
   6 C :   -0.010770
   7 C :   -0.305913
   8 S :   -0.083582
   9 C :   -0.355370
  10 S :   -0.070489
  11 P :    0.618491
  12 S :   -0.334067
  13 O :   -0.370394
  14 C :   -0.001083
  15 C :   -0.288829
  16 O :   -0.374898
  17 C :   -0.013542
  18 C :   -0.306792
  19 H :    0.130615
  20 H :    0.114105
  21 H :    0.119982
  22 H :    0.110226
  23 H :    0.105266
  24 H :    0.129099
  25 H :    0.103532
  26 H :    0.115140
  27 H :    0.119823
  28 H :    0.110611
  29 H :    0.195711
  30 H :    0.185876
  31 H :    0.102408
  32 H :    0.106032
  33 H :    0.123288
  34 H :    0.106054
  35 H :    0.110891
  36 H :    0.101464
  37 H :    0.121955
  38 H :    0.108967
  39 H :    0.138508
  40 H :    0.110884
Sum of atomic charges:    0.0000000

LOEWDIN ATOMIC CHARGES
----------------------
   0 C :   -0.371114
   1 C :   -0.120744
   2 O :   -0.242047
   3 P :    0.574182
   4 S :   -0.313909
   5 O :   -0.237471
   6 C :   -0.119209
   7 C :   -0.365860
   8 S :    0.093879
   9 C :   -0.477730
  10 S :    0.089977
  11 P :    0.570818
  12 S :   -0.313830
  13 O :   -0.249835
  14 C :   -0.112533
  15 C :   -0.361293
  16 O :   -0.241421
  17 C :   -0.116588
  18 C :   -0.365290
  19 H :    0.122552
  20 H :    0.131766
  21 H :    0.124504
  22 H :    0.109545
  23 H :    0.118756
  24 H :    0.109769
  25 H :    0.119141
  26 H :    0.125281
  27 H :    0.121019
  28 H :    0.129891
  29 H :    0.123861
  30 H :    0.138079
  31 H :    0.109757
  32 H :    0.118490
  33 H :    0.124040
  34 H :    0.127758
  35 H :    0.124669
  36 H :    0.116668
  37 H :    0.109022
  38 H :    0.130360
  39 H :    0.121459
  40 H :    0.123632

  Mayer bond orders larger than 0.100000
B(  0-C ,  1-C ) :   1.1659 B(  0-C , 19-H ) :   0.9335 B(  0-C , 20-H ) :   0.9378
B(  0-C , 21-H ) :   0.9438 B(  1-C ,  2-O ) :   0.9074 B(  1-C , 22-H ) :   0.9136
B(  1-C , 23-H ) :   0.9329 B(  2-O ,  3-P ) :   1.1030 B(  3-P ,  4-S ) :   1.6072
B(  3-P ,  5-O ) :   1.1309 B(  3-P ,  8-S ) :   0.9619 B(  4-S ,  8-S ) :   0.1167
B(  5-O ,  6-C ) :   0.8998 B(  6-C ,  7-C ) :   1.1628 B(  6-C , 24-H ) :   0.9096
B(  6-C , 25-H ) :   0.9361 B(  7-C , 26-H ) :   0.9449 B(  7-C , 27-H ) :   0.9364
B(  7-C , 28-H ) :   0.9390 B(  8-S ,  9-C ) :   1.0044 B(  9-C , 10-S ) :   0.9864
B(  9-C , 29-H ) :   0.8540 B(  9-C , 30-H ) :   0.9107 B( 10-S , 11-P ) :   0.9772
B( 10-S , 12-S ) :   0.1176 B( 11-P , 12-S ) :   1.5830 B( 11-P , 13-O ) :   1.1259
B( 11-P , 16-O ) :   1.1254 B( 13-O , 14-C ) :   0.8934 B( 14-C , 15-C ) :   1.1684
B( 14-C , 31-H ) :   0.9155 B( 14-C , 32-H ) :   0.9349 B( 15-C , 33-H ) :   0.9357
B( 15-C , 34-H ) :   0.9408 B( 15-C , 35-H ) :   0.9474 B( 16-O , 17-C ) :   0.8988
B( 17-C , 18-C ) :   1.1712 B( 17-C , 36-H ) :   0.9342 B( 17-C , 37-H ) :   0.9059
B( 18-C , 38-H ) :   0.9406 B( 18-C , 39-H ) :   0.9306 B( 18-C , 40-H ) :   0.9466

Dispersion correction           -0.066486123
FINAL SINGLE POINT ENERGY     -2929.520370747118

DIPOLE MOMENT
-------------

Method             : SCF
Type of density    : Electron Density
Multiplicity       :   1
Irrep              :   0
Energy             : -2929.6380957428314105 Eh
Relativity type    :
Basis              : AO
                                X                 Y                 Z
Electronic contribution:     -1.553588914      -8.291651873       2.652955270
Nuclear contribution   :      1.571456359       8.384053416      -2.725491308
                        -----------------------------------------
Total Dipole Moment    :      0.017867445       0.092401542      -0.072536038
                        -----------------------------------------
Magnitude (a.u.)       :      0.118822420
Magnitude (Debye)      :      0.302022589

Rotational constants in cm-1:             0.011971             0.005186             0.004944
Rotational constants in MHz :           358.876877           155.484183           148.223054

                             ****ORCA TERMINATED NORMALLY****
TOTAL RUN TIME: 0 days 0 hours 0 minutes 21 seconds 176 msec
