                         Program Version 6.0.0  -   RELEASE  -
|  1> ! pbe def2-sv(p) def2/J RI DEFGRID1 loosescf d4 GCP(DFT/SV(P)) printgap
|  2> %output
|  3>     printlevel normal
|  4> end
|  5> * xyz 0 1
|  6> C 1.9999211938 0.6691196557 -3.1245785324
|  7> C 1.5722583408 -0.6411117945 -2.4934062451
|  8> O 2.4580691845 -1.0275363494 -1.4313374053
|  9> P 2.3425600995 -0.5524276904 0.0732810724
| 10> S 2.6031339036 1.3444418458 0.5165962141
| 11> O 3.4916946664 -1.5099052536 0.5909901131
| 12> C 4.2212967246 -1.2555680054 1.8016337682
| 13> C 3.3570972739 -1.4404303255 3.0334572517
| 14> S 0.5104006645 -1.4296640345 0.7258264634
| 15> C -0.0866782493 -0.117892158 1.8481944285
| 16> S -1.8900163904 0.0079014154 1.8562749478
| 17> P -2.1822332718 0.5285384747 -0.1574918138
| 18> S -0.8378856694 1.6557557741 -1.0482390643
| 19> O -3.6602917546 1.1143698205 -0.2286329272
| 20> C -3.9484645594 2.5131391507 -0.0615953855
| 21> C -3.6652970916 2.9871168297 1.349150594
| 22> O -2.3911491502 -0.9160938181 -0.7674055135
| 23> C -2.5133731673 -1.1499405958 -2.1886408528
| 24> C -2.0523310246 -2.5657608957 -2.4688482952
| 25> H 1.8753882906 1.486986652 -2.4167987877
| 26> H 3.0429257372 0.6169849453 -3.42389304
| 27> H 1.3812693528 0.8679944528 -3.9938184918
| 28> H 1.6349597969 -1.4650371271 -3.2071566651
| 29> H 0.5511133474 -0.5659976713 -2.1078484011
| 30> H 5.0383112435 -1.977538831 1.7698479859
| 31> H 4.6221966196 -0.2375642473 1.7627271387
| 32> H 2.6108846541 -0.648066121 3.0786980274
| 33> H 2.855242926 -2.4042807668 3.0001865972
| 34> H 3.9785558774 -1.3876222457 3.9216231898
| 35> H 0.3592648248 0.830336602 1.5325258774
| 36> H 0.188246472 -0.363489129 2.8712454512
| 37> H -3.3512892615 3.0775238533 -0.785220592
| 38> H -5.0073730952 2.5935969042 -0.310564238
| 39> H -4.010789456 4.0097911964 1.4615920155
| 40> H -4.1723583191 2.3509884088 2.0702289611
| 41> H -2.5940316243 2.9539388464 1.5450646847
| 42> H -3.5617446662 -1.0076519981 -2.4603521362
| 43> H -1.9027390831 -0.4114690804 -2.7209520691
| 44> H -2.1337495201 -2.7646948513 -3.5323594342
| 45> H -1.0193611404 -2.6943662751 -2.1551141738
| 46> H -2.6702816995 -3.2696193029 -1.9194635531
| 47> *
| 48>
| 49>                          ****END OF INPUT****

CARTESIAN COORDINATES (ANGSTROEM)
---------------------------------
  C      1.999921    0.669120   -3.124579
  C      1.572258   -0.641112   -2.493406
  O      2.458069   -1.027536   -1.431337
  P      2.342560   -0.552428    0.073281
  S      2.603134    1.344442    0.516596
  O      3.491695   -1.509905    0.590990
  C      4.221297   -1.255568    1.801634
  C      3.357097   -1.440430    3.033457
  S      0.510401   -1.429664    0.725826
  C     -0.086678   -0.117892    1.848194
  S     -1.890016    0.007901    1.856275
  P     -2.182233    0.528538   -0.157492
  S     -0.837886    1.655756   -1.048239
  O     -3.660292    1.114370   -0.228633
  C     -3.948465    2.513139   -0.061595
  C     -3.665297    2.987117    1.349151
  O     -2.391149   -0.916094   -0.767406
  C     -2.513373   -1.149941   -2.188641
  C     -2.052331   -2.565761   -2.468848
  H      1.875388    1.486987   -2.416799
  H      3.042926    0.616985   -3.423893
  H      1.381269    0.867994   -3.993818
  H      1.634960   -1.465037   -3.207157
  H      0.551113   -0.565998   -2.107848
  H      5.038311   -1.977539    1.769848
  H      4.622197   -0.237564    1.762727
  H      2.610885   -0.648066    3.078698
  H      2.855243   -2.404281    3.000187
  H      3.978556   -1.387622    3.921623
  H      0.359265    0.830337    1.532526
  H      0.188246   -0.363489    2.871245
  H     -3.351289    3.077524   -0.785221
  H     -5.007373    2.593597   -0.310564
  H     -4.010789    4.009791    1.461592
  H     -4.172358    2.350988    2.070229
  H     -2.594032    2.953939    1.545065
  H     -3.561745   -1.007652   -2.460352
  H     -1.902739   -0.411469   -2.720952
  H     -2.133750   -2.764695   -3.532359
  H     -1.019361   -2.694366   -2.155114
  H     -2.670282   -3.269619   -1.919464

 Total Charge           Charge          ....    0
 Multiplicity           Mult            ....    1
 Number of Electrons    NEL             ....  202
 Basis Dimension        Dim             ....  334

ORBITAL ENERGIES
----------------

  NO   OCC          E(Eh)            E(eV)
   0   2.0000     -88.048906     -2395.9325
   1   2.0000     -88.041324     -2395.7262
   2   2.0000     -87.988817     -2394.2974
   3   2.0000     -87.986204     -2394.2263
   4   2.0000     -76.428292     -2079.7196
   5   2.0000     -76.423997     -2079.6027
   6   2.0000     -18.795285      -511.4457
   7   2.0000     -18.790833      -511.3246
   8   2.0000     -18.787644      -511.2378
   9   2.0000     -18.784043      -511.1398
  10   2.0000      -9.955500      -270.9029
  11   2.0000      -9.954415      -270.8734
  12   2.0000      -9.953843      -270.8579
  13   2.0000      -9.949122      -270.7294
  14   2.0000      -9.946232      -270.6507
  15   2.0000      -9.888185      -269.0712
  16   2.0000      -9.885744      -269.0048
  17   2.0000      -9.884839      -268.9801
  18   2.0000      -9.872708      -268.6501
  19   2.0000      -7.694430      -209.3761
  20   2.0000      -7.685772      -209.1405
  21   2.0000      -7.633449      -207.7167
  22   2.0000      -7.631067      -207.6519
  23   2.0000      -6.425951      -174.8590
  24   2.0000      -6.421182      -174.7293
  25   2.0000      -5.722451      -155.7158
  26   2.0000      -5.718839      -155.6175
  27   2.0000      -5.713637      -155.4760
  28   2.0000      -5.711267      -155.4115
  29   2.0000      -5.710339      -155.3862
  30   2.0000      -5.702813      -155.1814
  31   2.0000      -5.662173      -154.0756
  32   2.0000      -5.659852      -154.0124
  33   2.0000      -5.654219      -153.8591
  34   2.0000      -5.653681      -153.8445
  35   2.0000      -5.651654      -153.7893
  36   2.0000      -5.651394      -153.7823
  37   2.0000      -4.648462      -126.4911
  38   2.0000      -4.647664      -126.4694
  39   2.0000      -4.646469      -126.4369
  40   2.0000      -4.643460      -126.3550
  41   2.0000      -4.643124      -126.3458
  42   2.0000      -4.641769      -126.3089
  43   2.0000      -0.988460       -26.8974
  44   2.0000      -0.985338       -26.8124
  45   2.0000      -0.946513       -25.7559
  46   2.0000      -0.940212       -25.5845
  47   2.0000      -0.764405       -20.8005
  48   2.0000      -0.721640       -19.6368
  49   2.0000      -0.710299       -19.3282
  50   2.0000      -0.689143       -18.7525
  51   2.0000      -0.680607       -18.5203
  52   2.0000      -0.675335       -18.3768
  53   2.0000      -0.652564       -17.7572
  54   2.0000      -0.635763       -17.3000
  55   2.0000      -0.601180       -16.3589
  56   2.0000      -0.593657       -16.1542
  57   2.0000      -0.575520       -15.6607
  58   2.0000      -0.563450       -15.3322
  59   2.0000      -0.559533       -15.2257
  60   2.0000      -0.506099       -13.7716
  61   2.0000      -0.494555       -13.4575
  62   2.0000      -0.475303       -12.9337
  63   2.0000      -0.465826       -12.6758
  64   2.0000      -0.447553       -12.1785
  65   2.0000      -0.446399       -12.1471
  66   2.0000      -0.441811       -12.0223
  67   2.0000      -0.431869       -11.7518
  68   2.0000      -0.430188       -11.7060
  69   2.0000      -0.417921       -11.3722
  70   2.0000      -0.413616       -11.2551
  71   2.0000      -0.399665       -10.8754
  72   2.0000      -0.393392       -10.7047
  73   2.0000      -0.389676       -10.6036
  74   2.0000      -0.384828       -10.4717
  75   2.0000      -0.373949       -10.1757
  76   2.0000      -0.365566        -9.9476
  77   2.0000      -0.357482        -9.7276
  78   2.0000      -0.353354        -9.6152
  79   2.0000      -0.349556        -9.5119
  80   2.0000      -0.345346        -9.3973
  81   2.0000      -0.342304        -9.3146
  82   2.0000      -0.340175        -9.2566
  83   2.0000      -0.335431        -9.1276
  84   2.0000      -0.327874        -8.9219
  85   2.0000      -0.316475        -8.6117
  86   2.0000      -0.311271        -8.4701
  87   2.0000      -0.298620        -8.1259
  88   2.0000      -0.294541        -8.0149
  89   2.0000      -0.290536        -7.9059
  90   2.0000      -0.284634        -7.7453
  91   2.0000      -0.276958        -7.5364
  92   2.0000      -0.266026        -7.2389
  93   2.0000      -0.265821        -7.2334
  94   2.0000      -0.257484        -7.0065
  95   2.0000      -0.236884        -6.4459
  96   2.0000      -0.223012        -6.0685
  97   2.0000      -0.213340        -5.8053
  98   2.0000      -0.203843        -5.5469
  99   2.0000      -0.200703        -5.4614
 100   2.0000      -0.193790        -5.2733
 101   0.0000      -0.045047        -1.2258
 102   0.0000      -0.034607        -0.9417
 103   0.0000      -0.013883        -0.3778
 104   0.0000       0.011424         0.3109
 105   0.0000       0.013445         0.3659

MULLIKEN ATOMIC CHARGES
-----------------------
   0 C :   -0.291713
   1 C :   -0.046550
   2 O :   -0.356112
   3 P :    0.606349
   4 S :   -0.316491
   5 O :   -0.357383
   6 C :    0.003320
   7 C :   -0.325250
   8 S :   -0.105261
   9 C :   -0.372691
  10 S :   -0.076000
  11 P :    0.614185
  12 S :   -0.325453
  13 O :   -0.376791
  14 C :   -0.002832
  15 C :   -0.320318
  16 O :   -0.365279
  17 C :   -0.009295
  18 C :   -0.287791
  19 H :    0.139448
  20 H :    0.111877
  21 H :    0.103058
  22 H :    0.101698
  23 H :    0.135566
  24 H :    0.106082
  25 H :    0.111938
  26 H :    0.120405
  27 H :    0.121221
  28 H :    0.112481
  29 H :    0.212701
  30 H :    0.189336
  31 H :    0.111933
  32 H :    0.105243
  33 H :    0.114966
  34 H :    0.118545
  35 H :    0.130170
  36 H :    0.105964
  37 H :    0.103749
  38 H :    0.109177
  39 H :    0.127178
  40 H :    0.118622
Sum of atomic charges:    0.0000000

LOEWDIN ATOMIC CHARGES
----------------------
   0 C :   -0.362140
   1 C :   -0.123432
   2 O :   -0.229706
   3 P :    0.567869
   4 S :   -0.296548
   5 O :   -0.237104
   6 C :   -0.118068
   7 C :   -0.368498
   8 S :    0.066830
   9 C :   -0.482074
  10 S :    0.101798
  11 P :    0.566988
  12 S :   -0.303775
  13 O :   -0.247516
  14 C :   -0.119559
  15 C :   -0.369454
  16 O :   -0.242848
  17 C :   -0.115983
  18 C :   -0.351644
  19 H :    0.124675
  20 H :    0.124953
  21 H :    0.127239
  22 H :    0.115301
  23 H :    0.100624
  24 H :    0.119529
  25 H :    0.109995
  26 H :    0.118155
  27 H :    0.126214
  28 H :    0.130638
  29 H :    0.123455
  30 H :    0.132095
  31 H :    0.110891
  32 H :    0.118778
  33 H :    0.132007
  34 H :    0.124396
  35 H :    0.122276
  36 H :    0.114453
  37 H :    0.103935
  38 H :    0.129363
  39 H :    0.126907
  40 H :    0.128984

  Mayer bond orders larger than 0.100000
B(  0-C ,  1-C ) :   1.1707 B(  0-C , 19-H ) :   0.9314 B(  0-C , 20-H ) :   0.9461
B(  0-C , 21-H ) :   0.9396 B(  1-C ,  2-O ) :   0.9094 B(  1-C , 22-H ) :   0.9346
B(  1-C , 23-H ) :   0.8916 B(  2-O ,  3-P ) :   1.1405 B(  3-P ,  4-S ) :   1.6063
B(  3-P ,  5-O ) :   1.1163 B(  3-P ,  8-S ) :   0.9434 B(  4-S ,  8-S ) :   0.1278
B(  5-O ,  6-C ) :   0.9223 B(  6-C ,  7-C ) :   1.1596 B(  6-C , 24-H ) :   0.9341
B(  6-C , 25-H ) :   0.9152 B(  7-C , 26-H ) :   0.9327 B(  7-C , 27-H ) :   0.9444
B(  7-C , 28-H ) :   0.9381 B(  8-S ,  9-C ) :   0.9953 B(  9-C , 10-S ) :   1.0044
B(  9-C , 29-H ) :   0.8469 B(  9-C , 30-H ) :   0.8978 B( 10-S , 11-P ) :   0.9637
B( 10-S , 12-S ) :   0.1129 B( 11-P , 12-S ) :   1.6047 B( 11-P , 13-O ) :   1.1058
B( 11-P , 16-O ) :   1.1289 B( 13-O , 14-C ) :   0.9085 B( 14-C , 15-C ) :   1.1645
B( 14-C , 31-H ) :   0.9151 B( 14-C , 32-H ) :   0.9337 B( 15-C , 33-H ) :   0.9379
B( 15-C , 34-H ) :   0.9448 B( 15-C , 35-H ) :   0.9356 B( 16-O , 17-C ) :   0.8977
B( 17-C , 18-C ) :   1.1659 B( 17-C , 36-H ) :   0.9318 B( 17-C , 37-H ) :   0.9035
B( 18-C , 38-H ) :   0.9413 B( 18-C , 39-H ) :   0.9469 B( 18-C , 40-H ) :   0.9479

Dispersion correction           -0.066395599
FINAL SINGLE POINT ENERGY     -2929.523158554412

DIPOLE MOMENT
-------------

Method             : SCF
Type of density    : Electron Density
Multiplicity       :   1
Irrep              :   0
Energy             : -2929.6406234299824973 Eh
Relativity type    :
Basis              : AO
                                X                 Y                 Z
Electronic contribution:      1.486959867       0.016358933       5.630597335
Nuclear contribution   :     -2.299980898      -0.442941871      -5.658917777
                        -----------------------------------------
Total Dipole Moment    :     -0.813021032      -0.426582938      -0.028320442
                        -----------------------------------------
Magnitude (a.u.)       :      0.918574030
Magnitude (Debye)      :      2.334829633

Rotational constants in cm-1:             0.011458             0.005397             0.004883
Rotational constants in MHz :           343.502018           161.803993           146.394569

                             ****ORCA TERMINATED NORMALLY****
TOTAL RUN TIME: 0 days 0 hours 0 minutes 21 seconds 29 msec
