                         Program Version 6.0.1  -  RELEASE   -
|  1> ! pbe def2-sv(p) def2/J RI DEFGRID1 loosescf d4 GCP(DFT/SV(P)) printgap
|  2> %output
|  3>     printlevel normal
|  4> end
|  5> * xyz 0 1
|  6> C 4.0357656292 -2.3229318867 0.1712546361
|  7> C 2.6347814204 -2.6363961126 -0.3283596133
|  8> O 1.9553797058 -1.4369068666 -0.747458807
|  9> C 2.119085101 -1.027201202 -1.9960202049
| 10> O 2.7916326338 -1.6068725732 -2.8176067025
| 11> C 1.3826912415 0.2638971475 -2.2864790941
| 12> C 0.3473634312 0.6271914112 -1.232695735
| 13> H -0.0810698598 1.6115473333 -1.4511463561
| 14> C 0.9188207142 0.6787950405 0.169635669
| 15> O 0.3232867098 0.220102185 1.1248168357
| 16> O 2.0632716618 1.3002769029 0.2211435131
| 17> C 2.6520700589 1.5320950697 1.5192460221
| 18> C 2.1188669505 2.8233269079 2.1176282979
| 19> S -1.0301480286 -0.5708399294 -1.2069916634
| 20> P -2.1517511727 0.3093267789 0.384765315
| 21> S -1.890686359 2.1936674684 0.8461626228
| 22> O -3.621236861 0.1937656097 -0.2257608049
| 23> C -4.198897001 -1.0469413868 -0.6611712206
| 24> O -2.3007999461 -0.7569776178 1.5654877484
| 25> C -1.5852881883 -0.813776384 2.7984744896
| 26> H 3.9945299001 -1.6045818359 0.985920635
| 27> H 4.5009421909 -3.2371769124 0.5247502966
| 28> H 4.6354613863 -1.9108337563 -0.6368933918
| 29> H 2.0076888901 -3.0441515266 0.4651368326
| 30> H 2.6699375575 -3.325311945 -1.176822373
| 31> H 0.9144217922 0.1718997582 -3.2672132297
| 32> H 2.1302618347 1.0595114482 -2.3409058561
| 33> H 2.4234554649 0.6793833732 2.1635835209
| 34> H 3.7229497135 1.5931813191 1.3251922477
| 35> H 1.0372403716 2.7679651405 2.2306897942
| 36> H 2.568655267 2.9827016571 3.0918062084
| 37> H 2.354704614 3.6634844633 1.4707885134
| 38> H -5.1433705906 -0.7742725686 -1.1251861882
| 39> H -4.3617365754 -1.70120242 0.193397183
| 40> H -3.5414673338 -1.5311802134 -1.3844466399
| 41> H -0.6817159054 -1.4062285436 2.6718164535
| 42> H -2.264559115 -1.2844005369 3.506299451
| 43> H -1.3211255331 0.1900721366 3.1301837458
| 44> *
| 45>
| 46>                          ****END OF INPUT****

CARTESIAN COORDINATES (ANGSTROEM)
---------------------------------
  C      4.035766   -2.322932    0.171255
  C      2.634781   -2.636396   -0.328360
  O      1.955380   -1.436907   -0.747459
  C      2.119085   -1.027201   -1.996020
  O      2.791633   -1.606873   -2.817607
  C      1.382691    0.263897   -2.286479
  C      0.347363    0.627191   -1.232696
  H     -0.081070    1.611547   -1.451146
  C      0.918821    0.678795    0.169636
  O      0.323287    0.220102    1.124817
  O      2.063272    1.300277    0.221144
  C      2.652070    1.532095    1.519246
  C      2.118867    2.823327    2.117628
  S     -1.030148   -0.570840   -1.206992
  P     -2.151751    0.309327    0.384765
  S     -1.890686    2.193667    0.846163
  O     -3.621237    0.193766   -0.225761
  C     -4.198897   -1.046941   -0.661171
  O     -2.300800   -0.756978    1.565488
  C     -1.585288   -0.813776    2.798474
  H      3.994530   -1.604582    0.985921
  H      4.500942   -3.237177    0.524750
  H      4.635461   -1.910834   -0.636893
  H      2.007689   -3.044152    0.465137
  H      2.669938   -3.325312   -1.176822
  H      0.914422    0.171900   -3.267213
  H      2.130262    1.059511   -2.340906
  H      2.423455    0.679383    2.163584
  H      3.722950    1.593181    1.325192
  H      1.037240    2.767965    2.230690
  H      2.568655    2.982702    3.091806
  H      2.354705    3.663484    1.470789
  H     -5.143371   -0.774273   -1.125186
  H     -4.361737   -1.701202    0.193397
  H     -3.541467   -1.531180   -1.384447
  H     -0.681716   -1.406229    2.671816
  H     -2.264559   -1.284401    3.506299
  H     -1.321126    0.190072    3.130184

 Total Charge           Charge          ....    0
 Multiplicity           Mult            ....    1
 Number of Electrons    NEL             ....  174
 Basis Dimension        Dim             ....  316

ORBITAL ENERGIES
----------------

  NO   OCC          E(Eh)            E(eV)
   0   2.0000     -88.031991     -2395.4723
   1   2.0000     -87.970400     -2393.7963
   2   2.0000     -76.419067     -2079.4685
   3   2.0000     -18.820810      -512.1403
   4   2.0000     -18.813564      -511.9431
   5   2.0000     -18.783543      -511.1262
   6   2.0000     -18.773132      -510.8429
   7   2.0000     -18.753116      -510.2982
   8   2.0000     -18.743071      -510.0249
   9   2.0000     -10.026495      -272.8348
  10   2.0000     -10.019089      -272.6333
  11   2.0000      -9.959404      -271.0092
  12   2.0000      -9.955478      -270.9023
  13   2.0000      -9.949059      -270.7277
  14   2.0000      -9.939301      -270.4621
  15   2.0000      -9.935670      -270.3633
  16   2.0000      -9.922571      -270.0069
  17   2.0000      -9.895422      -269.2681
  18   2.0000      -9.889670      -269.1116
  19   2.0000      -7.676944      -208.9003
  20   2.0000      -7.615853      -207.2379
  21   2.0000      -6.414801      -174.5556
  22   2.0000      -5.704854      -155.2370
  23   2.0000      -5.701885      -155.1562
  24   2.0000      -5.693473      -154.9273
  25   2.0000      -5.645181      -153.6132
  26   2.0000      -5.636640      -153.3808
  27   2.0000      -5.635334      -153.3452
  28   2.0000      -4.637670      -126.1974
  29   2.0000      -4.636694      -126.1708
  30   2.0000      -4.635303      -126.1330
  31   2.0000      -1.031474       -28.0678
  32   2.0000      -1.018289       -27.7090
  33   2.0000      -0.972248       -26.4562
  34   2.0000      -0.934389       -25.4260
  35   2.0000      -0.926546       -25.2126
  36   2.0000      -0.922403       -25.0999
  37   2.0000      -0.770864       -20.9763
  38   2.0000      -0.714734       -19.4489
  39   2.0000      -0.712341       -19.3838
  40   2.0000      -0.691136       -18.8068
  41   2.0000      -0.658904       -17.9297
  42   2.0000      -0.630280       -17.1508
  43   2.0000      -0.625147       -17.0111
  44   2.0000      -0.608098       -16.5472
  45   2.0000      -0.603261       -16.4156
  46   2.0000      -0.571937       -15.5632
  47   2.0000      -0.513198       -13.9648
  48   2.0000      -0.509614       -13.8673
  49   2.0000      -0.505120       -13.7450
  50   2.0000      -0.488671       -13.2974
  51   2.0000      -0.467730       -12.7276
  52   2.0000      -0.467269       -12.7150
  53   2.0000      -0.451795       -12.2940
  54   2.0000      -0.437977       -11.9180
  55   2.0000      -0.435475       -11.8499
  56   2.0000      -0.424305       -11.5459
  57   2.0000      -0.419672       -11.4199
  58   2.0000      -0.413213       -11.2441
  59   2.0000      -0.409304       -11.1377
  60   2.0000      -0.405721       -11.0402
  61   2.0000      -0.400797       -10.9063
  62   2.0000      -0.389963       -10.6114
  63   2.0000      -0.387587       -10.5468
  64   2.0000      -0.382574       -10.4104
  65   2.0000      -0.373356       -10.1595
  66   2.0000      -0.366370        -9.9694
  67   2.0000      -0.358765        -9.7625
  68   2.0000      -0.348771        -9.4905
  69   2.0000      -0.346960        -9.4412
  70   2.0000      -0.338896        -9.2218
  71   2.0000      -0.332796        -9.0558
  72   2.0000      -0.328888        -8.9495
  73   2.0000      -0.310020        -8.4361
  74   2.0000      -0.307899        -8.3784
  75   2.0000      -0.300503        -8.1771
  76   2.0000      -0.292519        -7.9598
  77   2.0000      -0.288113        -7.8399
  78   2.0000      -0.279080        -7.5942
  79   2.0000      -0.268117        -7.2958
  80   2.0000      -0.259309        -7.0562
  81   2.0000      -0.251794        -6.8517
  82   2.0000      -0.241604        -6.5744
  83   2.0000      -0.229819        -6.2537
  84   2.0000      -0.207670        -5.6510
  85   2.0000      -0.193439        -5.2637
  86   2.0000      -0.183423        -4.9912
  87   0.0000      -0.043671        -1.1884
  88   0.0000      -0.034416        -0.9365
  89   0.0000      -0.027176        -0.7395
  90   0.0000       0.002699         0.0734
  91   0.0000       0.023159         0.6302

MULLIKEN ATOMIC CHARGES
-----------------------
   0 C :   -0.310977
   1 C :   -0.008075
   2 O :   -0.236640
   3 C :    0.116401
   4 O :   -0.197776
   5 C :   -0.111732
   6 C :   -0.279561
   7 H :    0.155581
   8 C :    0.240745
   9 O :   -0.202400
  10 O :   -0.226880
  11 C :   -0.023685
  12 C :   -0.304745
  13 S :   -0.120064
  14 P :    0.643623
  15 S :   -0.337251
  16 O :   -0.369094
  17 C :   -0.111062
  18 O :   -0.398377
  19 C :   -0.077348
  20 H :    0.116014
  21 H :    0.116469
  22 H :    0.127320
  23 H :    0.109564
  24 H :    0.112874
  25 H :    0.137161
  26 H :    0.142785
  27 H :    0.111979
  28 H :    0.107084
  29 H :    0.143221
  30 H :    0.112453
  31 H :    0.115717
  32 H :    0.128452
  33 H :    0.117328
  34 H :    0.118221
  35 H :    0.112783
  36 H :    0.114748
  37 H :    0.115143
Sum of atomic charges:    0.0000000

LOEWDIN ATOMIC CHARGES
----------------------
   0 C :   -0.355569
   1 C :   -0.107730
   2 O :   -0.048117
   3 C :    0.033468
   4 O :   -0.160885
   5 C :   -0.247536
   6 C :   -0.268323
   7 H :    0.148087
   8 C :    0.017121
   9 O :   -0.163169
  10 O :   -0.040157
  11 C :   -0.107491
  12 C :   -0.357371
  13 S :    0.080774
  14 P :    0.589887
  15 S :   -0.330775
  16 O :   -0.255561
  17 C :   -0.214050
  18 O :   -0.253335
  19 C :   -0.205671
  20 H :    0.122891
  21 H :    0.132779
  22 H :    0.131202
  23 H :    0.120845
  24 H :    0.123202
  25 H :    0.150774
  26 H :    0.157442
  27 H :    0.119217
  28 H :    0.118667
  29 H :    0.133817
  30 H :    0.130974
  31 H :    0.126794
  32 H :    0.124380
  33 H :    0.112325
  34 H :    0.103549
  35 H :    0.111004
  36 H :    0.114960
  37 H :    0.111582

  Mayer bond orders larger than 0.100000
B(  0-C ,  1-C ) :   1.1760 B(  0-C , 20-H ) :   0.9471 B(  0-C , 21-H ) :   0.9434
B(  0-C , 22-H ) :   0.9453 B(  1-C ,  2-O ) :   0.9059 B(  1-C , 23-H ) :   0.9348
B(  1-C , 24-H ) :   0.9129 B(  2-O ,  3-C ) :   1.2128 B(  3-C ,  4-O ) :   2.0572
B(  3-C ,  5-C ) :   1.0066 B(  5-C ,  6-C ) :   1.0630 B(  5-C , 25-H ) :   0.8985
B(  5-C , 26-H ) :   0.8799 B(  6-C ,  7-H ) :   0.8485 B(  6-C ,  8-C ) :   0.8802
B(  6-C , 13-S ) :   1.0478 B(  8-C ,  9-O ) :   1.9371 B(  8-C , 10-O ) :   1.2705
B(  9-O , 14-P ) :   0.1034 B( 10-O , 11-C ) :   0.8994 B( 11-C , 12-C ) :   1.1770
B( 11-C , 27-H ) :   0.9109 B( 11-C , 28-H ) :   0.9354 B( 12-C , 29-H ) :   0.9330
B( 12-C , 30-H ) :   0.9420 B( 12-C , 31-H ) :   0.9479 B( 13-S , 14-P ) :   0.9229
B( 13-S , 15-S ) :   0.1089 B( 14-P , 15-S ) :   1.5919 B( 14-P , 16-O ) :   1.1024
B( 14-P , 18-O ) :   1.0882 B( 16-O , 17-C ) :   0.9363 B( 17-C , 32-H ) :   0.9607
B( 17-C , 33-H ) :   0.9467 B( 17-C , 34-H ) :   0.9357 B( 18-O , 19-C ) :   0.9290
B( 19-C , 35-H ) :   0.9527 B( 19-C , 36-H ) :   0.9534 B( 19-C , 37-H ) :   0.9427

Dispersion correction           -0.053021345
FINAL SINGLE POINT ENERGY     -1979.010304529520

DIPOLE MOMENT
-------------

Method             : SCF
Type of density    : Electron Density
Multiplicity       :   1
Irrep              :   0
Energy             : -1979.1412494635151234 Eh
Relativity type    :
Basis              : AO
                                X                 Y                 Z
Electronic contribution:    -15.500831879       4.297579817      -8.594614376
Nuclear contribution   :     16.627929046      -5.138559731       9.388989375
                        -----------------------------------------
Total Dipole Moment    :      1.127097167      -0.840979914       0.794374999
                        -----------------------------------------
Magnitude (a.u.)       :      1.615124416
Magnitude (Debye)      :      4.105320010

Rotational constants in cm-1:             0.013545             0.007469             0.006222
Rotational constants in MHz :           406.056647           223.917240           186.544780

                             ****ORCA TERMINATED NORMALLY****
TOTAL RUN TIME: 0 days 0 hours 0 minutes 32 seconds 308 msec
