                         Program Version 6.0.0  -   RELEASE  -
|  1> ! r2scan-3c def2/J RI DEFGRID2 scfconv6 printgap
|  2> %output
|  3>     printlevel normal
|  4> end
|  5> * xyz 0 1
|  6> C -2.6062920707 0.5413875778 -0.0548937274
|  7> C -1.2248902726 -0.0476039658 0.0034813381
|  8> C -1.1355287243 -1.4368920455 0.0126414644
|  9> C 0.0868291537 -2.0771160064 0.0279568651
| 10> C 1.2470034224 -1.3292655621 0.0083560213
| 11> C 1.1754064174 0.0574622546 -0.0070492464
| 12> C -0.0595517611 0.7207924455 0.020593699
| 13> C -0.0822180285 2.2263062291 0.0669435669
| 14> O 2.3690498006 0.7217726191 -0.050980131
| 15> H -3.0612352361 0.2913866315 -1.0124739874
| 16> H -3.2261936132 0.1100322578 0.7289014999
| 17> H -2.6168258178 1.6197276582 0.0488721217
| 18> H -2.0457205006 -2.0182615065 0.0066551291
| 19> H 0.1403444769 -3.1549882932 0.0419649532
| 20> H 2.2211807459 -1.7923593391 -0.0012667878
| 21> H -0.0495133083 2.6481725222 -0.9378207472
| 22> H -0.9822943792 2.5862092844 0.5544230721
| 23> H 0.7604779608 2.6102499683 0.6399957184
| 24> H 2.2282871085 1.6697427615 -0.1898647166
| 25> *
| 26>
| 27>                          ****END OF INPUT****

CARTESIAN COORDINATES (ANGSTROEM)
---------------------------------
  C     -2.606292    0.541388   -0.054894
  C     -1.224890   -0.047604    0.003481
  C     -1.135529   -1.436892    0.012641
  C      0.086829   -2.077116    0.027957
  C      1.247003   -1.329266    0.008356
  C      1.175406    0.057462   -0.007049
  C     -0.059552    0.720792    0.020594
  C     -0.082218    2.226306    0.066944
  O      2.369050    0.721773   -0.050980
  H     -3.061235    0.291387   -1.012474
  H     -3.226194    0.110032    0.728901
  H     -2.616826    1.619728    0.048872
  H     -2.045721   -2.018262    0.006655
  H      0.140344   -3.154988    0.041965
  H      2.221181   -1.792359   -0.001267
  H     -0.049513    2.648173   -0.937821
  H     -0.982294    2.586209    0.554423
  H      0.760478    2.610250    0.639996
  H      2.228287    1.669743   -0.189865

 Total Charge           Charge          ....    0
 Multiplicity           Mult            ....    1
 Number of Electrons    NEL             ....   66
 Basis Dimension        Dim             ....  226

ORBITAL ENERGIES
----------------

  NO   OCC          E(Eh)            E(eV)
   0   2.0000     -18.980359      -516.4818
   1   2.0000     -10.088983      -274.5352
   2   2.0000     -10.041071      -273.2314
   3   2.0000     -10.040712      -273.2217
   4   2.0000     -10.040356      -273.2120
   5   2.0000     -10.027723      -272.8682
   6   2.0000     -10.027027      -272.8493
   7   2.0000     -10.020359      -272.6678
   8   2.0000     -10.017764      -272.5972
   9   2.0000      -1.023172       -27.8419
  10   2.0000      -0.823681       -22.4135
  11   2.0000      -0.748780       -20.3753
  12   2.0000      -0.726710       -19.7748
  13   2.0000      -0.671903       -18.2834
  14   2.0000      -0.644612       -17.5408
  15   2.0000      -0.572994       -15.5920
  16   2.0000      -0.548088       -14.9142
  17   2.0000      -0.506270       -13.7763
  18   2.0000      -0.462034       -12.5726
  19   2.0000      -0.434614       -11.8264
  20   2.0000      -0.414448       -11.2777
  21   2.0000      -0.389990       -10.6122
  22   2.0000      -0.385781       -10.4976
  23   2.0000      -0.378069       -10.2878
  24   2.0000      -0.372752       -10.1431
  25   2.0000      -0.368394       -10.0245
  26   2.0000      -0.360684        -9.8147
  27   2.0000      -0.338074        -9.1995
  28   2.0000      -0.317588        -8.6420
  29   2.0000      -0.301131        -8.1942
  30   2.0000      -0.295345        -8.0367
  31   2.0000      -0.219766        -5.9801
  32   2.0000      -0.196877        -5.3573
  33   0.0000      -0.022199        -0.6041
  34   0.0000      -0.012977        -0.3531
  35   0.0000       0.049105         1.3362
  36   0.0000       0.090456         2.4614
  37   0.0000       0.101651         2.7661

MULLIKEN ATOMIC CHARGES
-----------------------
   0 C :   -0.528932
   1 C :    0.221561
   2 C :   -0.252630
   3 C :   -0.122531
   4 C :   -0.318271
   5 C :    0.419395
   6 C :   -0.080205
   7 C :   -0.620956
   8 O :   -0.422103
   9 H :    0.169419
  10 H :    0.161626
  11 H :    0.133386
  12 H :    0.144836
  13 H :    0.145199
  14 H :    0.156301
  15 H :    0.189648
  16 H :    0.155713
  17 H :    0.136709
  18 H :    0.311837
Sum of atomic charges:    0.0000000

LOEWDIN ATOMIC CHARGES
----------------------
   0 C :   -0.388741
   1 C :   -0.086033
   2 C :   -0.187695
   3 C :   -0.155097
   4 C :   -0.147818
   5 C :    0.191784
   6 C :   -0.099099
   7 C :   -0.388374
   8 O :   -0.509868
   9 H :    0.168116
  10 H :    0.165732
  11 H :    0.153751
  12 H :    0.167266
  13 H :    0.167293
  14 H :    0.179273
  15 H :    0.166232
  16 H :    0.164889
  17 H :    0.157051
  18 H :    0.281337

  Mayer bond orders larger than 0.100000
B(  0-C ,  1-C ) :   0.7815 B(  0-C ,  9-H ) :   0.9743 B(  0-C , 10-H ) :   0.9862
B(  0-C , 11-H ) :   0.9836 B(  1-C ,  2-C ) :   1.3520 B(  1-C ,  6-C ) :   1.4545
B(  2-C ,  3-C ) :   1.4368 B(  2-C , 12-H ) :   0.9345 B(  3-C ,  4-C ) :   1.3770
B(  3-C , 13-H ) :   0.9483 B(  4-C ,  5-C ) :   1.4094 B(  4-C , 14-H ) :   0.9440
B(  5-C ,  6-C ) :   1.3721 B(  5-C ,  8-O ) :   0.9355 B(  6-C ,  7-C ) :   0.7669
B(  7-C , 15-H ) :   0.9812 B(  7-C , 16-H ) :   0.9786 B(  7-C , 17-H ) :   0.9871
B(  8-O , 18-H ) :   0.8686

Dispersion correction           -0.006334419
FINAL SINGLE POINT ENERGY      -386.000557925950

DIPOLE MOMENT
-------------

Method             : SCF
Type of density    : Electron Density
Multiplicity       :   1
Irrep              :   0
Energy             :  -386.0019517617790825 Eh
Relativity type    :
Basis              : AO
                                X                 Y                 Z
Electronic contribution:      5.739101907      -3.643949253       0.022678540
Nuclear contribution   :     -6.186349451       4.298045178      -0.113911572
                        -----------------------------------------
Total Dipole Moment    :     -0.447247545       0.654095926      -0.091233032
                        -----------------------------------------
Magnitude (a.u.)       :      0.797618526
Magnitude (Debye)      :      2.027385173

Rotational constants in cm-1:             0.075844             0.058819             0.033572
Rotational constants in MHz :          2273.735025          1763.348575          1006.462115

                             ****ORCA TERMINATED NORMALLY****
TOTAL RUN TIME: 0 days 0 hours 0 minutes 23 seconds 284 msec
