                         Program Version 6.0.0  -   RELEASE  -
|  1> ! r2scan-3c def2/J RI DEFGRID2 scfconv6 printgap
|  2> %output
|  3>     printlevel normal
|  4> end
|  5> %cpcm
|  6>     smd true
|  7>     smdsolvent "water"
|  8> end
|  9> * xyz 0 1
| 10> C -2.6062920707 0.5413875778 -0.0548937274
| 11> C -1.2248902726 -0.0476039658 0.0034813381
| 12> C -1.1355287243 -1.4368920455 0.0126414644
| 13> C 0.0868291537 -2.0771160064 0.0279568651
| 14> C 1.2470034224 -1.3292655621 0.0083560213
| 15> C 1.1754064174 0.0574622546 -0.0070492464
| 16> C -0.0595517611 0.7207924455 0.020593699
| 17> C -0.0822180285 2.2263062291 0.0669435669
| 18> O 2.3690498006 0.7217726191 -0.050980131
| 19> H -3.0612352361 0.2913866315 -1.0124739874
| 20> H -3.2261936132 0.1100322578 0.7289014999
| 21> H -2.6168258178 1.6197276582 0.0488721217
| 22> H -2.0457205006 -2.0182615065 0.0066551291
| 23> H 0.1403444769 -3.1549882932 0.0419649532
| 24> H 2.2211807459 -1.7923593391 -0.0012667878
| 25> H -0.0495133083 2.6481725222 -0.9378207472
| 26> H -0.9822943792 2.5862092844 0.5544230721
| 27> H 0.7604779608 2.6102499683 0.6399957184
| 28> H 2.2282871085 1.6697427615 -0.1898647166
| 29> *
| 30>
| 31>                          ****END OF INPUT****

CARTESIAN COORDINATES (ANGSTROEM)
---------------------------------
  C     -2.606292    0.541388   -0.054894
  C     -1.224890   -0.047604    0.003481
  C     -1.135529   -1.436892    0.012641
  C      0.086829   -2.077116    0.027957
  C      1.247003   -1.329266    0.008356
  C      1.175406    0.057462   -0.007049
  C     -0.059552    0.720792    0.020594
  C     -0.082218    2.226306    0.066944
  O      2.369050    0.721773   -0.050980
  H     -3.061235    0.291387   -1.012474
  H     -3.226194    0.110032    0.728901
  H     -2.616826    1.619728    0.048872
  H     -2.045721   -2.018262    0.006655
  H      0.140344   -3.154988    0.041965
  H      2.221181   -1.792359   -0.001267
  H     -0.049513    2.648173   -0.937821
  H     -0.982294    2.586209    0.554423
  H      0.760478    2.610250    0.639996
  H      2.228287    1.669743   -0.189865

 Total Charge           Charge          ....    0
 Multiplicity           Mult            ....    1
 Number of Electrons    NEL             ....   66
 Basis Dimension        Dim             ....  226

ORBITAL ENERGIES
----------------

  NO   OCC          E(Eh)            E(eV)
   0   2.0000     -18.980353      -516.4817
   1   2.0000     -10.091074      -274.5921
   2   2.0000     -10.041443      -273.2416
   3   2.0000     -10.040240      -273.2088
   4   2.0000     -10.028222      -272.8818
   5   2.0000     -10.023251      -272.7465
   6   2.0000     -10.022331      -272.7215
   7   2.0000     -10.018383      -272.6141
   8   2.0000     -10.017031      -272.5773
   9   2.0000      -1.023470       -27.8500
  10   2.0000      -0.824964       -22.4484
  11   2.0000      -0.746132       -20.3033
  12   2.0000      -0.722986       -19.6735
  13   2.0000      -0.666968       -18.1491
  14   2.0000      -0.638853       -17.3841
  15   2.0000      -0.571040       -15.5388
  16   2.0000      -0.546427       -14.8690
  17   2.0000      -0.502965       -13.6864
  18   2.0000      -0.459673       -12.5083
  19   2.0000      -0.432797       -11.7770
  20   2.0000      -0.407095       -11.0776
  21   2.0000      -0.385980       -10.5030
  22   2.0000      -0.376211       -10.2372
  23   2.0000      -0.373488       -10.1631
  24   2.0000      -0.369296       -10.0491
  25   2.0000      -0.357725        -9.7342
  26   2.0000      -0.357268        -9.7218
  27   2.0000      -0.333095        -9.0640
  28   2.0000      -0.314485        -8.5576
  29   2.0000      -0.303296        -8.2531
  30   2.0000      -0.294797        -8.0218
  31   2.0000      -0.221808        -6.0357
  32   2.0000      -0.201390        -5.4801
  33   0.0000      -0.024769        -0.6740
  34   0.0000      -0.016467        -0.4481
  35   0.0000       0.068012         1.8507
  36   0.0000       0.097034         2.6404
  37   0.0000       0.114159         3.1064

MULLIKEN ATOMIC CHARGES
-----------------------
   0 C :   -0.544769
   1 C :    0.190199
   2 C :   -0.284563
   3 C :   -0.176924
   4 C :   -0.356474
   5 C :    0.399625
   6 C :   -0.093965
   7 C :   -0.619612
   8 O :   -0.472045
   9 H :    0.183317
  10 H :    0.174803
  11 H :    0.159122
  12 H :    0.173490
  13 H :    0.176365
  14 H :    0.180801
  15 H :    0.202885
  16 H :    0.174590
  17 H :    0.164545
  18 H :    0.368608
Sum of atomic charges:    0.0000000

LOEWDIN ATOMIC CHARGES
----------------------
   0 C :   -0.392138
   1 C :   -0.092326
   2 C :   -0.201035
   3 C :   -0.172606
   4 C :   -0.169964
   5 C :    0.177972
   6 C :   -0.096720
   7 C :   -0.387366
   8 O :   -0.528325
   9 H :    0.173592
  10 H :    0.171099
  11 H :    0.162441
  12 H :    0.177152
  13 H :    0.177264
  14 H :    0.185785
  15 H :    0.175272
  16 H :    0.170760
  17 H :    0.168593
  18 H :    0.300551

  Mayer bond orders larger than 0.100000
B(  0-C ,  1-C ) :   0.8009 B(  0-C ,  9-H ) :   0.9677 B(  0-C , 10-H ) :   0.9763
B(  0-C , 11-H ) :   0.9800 B(  1-C ,  2-C ) :   1.3199 B(  1-C ,  6-C ) :   1.4058
B(  2-C ,  3-C ) :   1.4005 B(  2-C , 12-H ) :   0.9540 B(  3-C ,  4-C ) :   1.3497
B(  3-C , 13-H ) :   0.9623 B(  4-C ,  5-C ) :   1.3498 B(  4-C , 14-H ) :   0.9619
B(  5-C ,  6-C ) :   1.3470 B(  5-C ,  8-O ) :   0.9320 B(  6-C ,  7-C ) :   0.8199
B(  7-C , 15-H ) :   0.9641 B(  7-C , 16-H ) :   0.9738 B(  7-C , 17-H ) :   0.9794
B(  8-O , 18-H ) :   0.8428

Dispersion correction           -0.006334419
FINAL SINGLE POINT ENERGY      -386.008926849284

DIPOLE MOMENT
-------------

Method             : SCF
Type of density    : Electron Density
Multiplicity       :   1
Irrep              :   0
Energy             :  -386.0103206851126174 Eh
Relativity type    :
Basis              : AO
                                X                 Y                 Z
Electronic contribution:      5.541273508      -3.280693630      -0.017257916
Nuclear contribution   :     -6.186349451       4.298045178      -0.113911572
                        -----------------------------------------
Total Dipole Moment    :     -0.645075944       1.017351548      -0.131169488
                        -----------------------------------------
Magnitude (a.u.)       :      1.211747738
Magnitude (Debye)      :      3.080017977

Rotational constants in cm-1:             0.075844             0.058819             0.033572
Rotational constants in MHz :          2273.735025          1763.348575          1006.462115

                             ****ORCA TERMINATED NORMALLY****
TOTAL RUN TIME: 0 days 0 hours 0 minutes 35 seconds 819 msec
