                         Program Version 6.0.0  -   RELEASE  -
|  1> ! pbe def2-sv(p) def2/J RI DEFGRID1 loosescf d4 GCP(DFT/SV(P)) printgap
|  2> %output
|  3>     printlevel normal
|  4> end
|  5> * xyz 0 1
|  6> C 3.1939864349 2.3749673967 2.2506287871
|  7> C 1.8025116172 1.7966127092 2.1063456125
|  8> O 1.6098054546 1.1914983735 0.8093473717
|  9> P 2.3334023832 -0.154995154 0.3915464419
| 10> S 2.6883119631 -1.4284153421 1.8436219343
| 11> O 3.61637368 0.3893534105 -0.3692428275
| 12> C 4.7471208363 -0.4466162086 -0.6696550807
| 13> C 4.4186058553 -1.4991455242 -1.7087530045
| 14> S 1.0308240147 -0.79503739 -1.1494790759
| 15> C -0.1237968699 -1.6710564099 -0.058517013
| 16> S -1.1538280565 -0.5510918272 0.9120268489
| 17> P -2.4147948814 0.0757931454 -0.6987182087
| 18> S -2.7559054497 -1.3023976304 -2.0459279112
| 19> O -1.7836285942 1.3428030451 -1.3801569032
| 20> C -1.1147915369 2.4730630706 -0.7681896523
| 21> C -1.8465116681 3.0338887954 0.4316727515
| 22> O -3.6754937897 0.6750192824 0.0573559587
| 23> C -4.5660782533 -0.1173753845 0.8673952015
| 24> C -5.6885739335 -0.7113099264 0.0389303205
| 25> H 3.2673023538 2.905730809 3.1946050181
| 26> H 3.9312440651 1.5731085285 2.2377836807
| 27> H 3.4043007371 3.0581162978 1.4319730256
| 28> H 1.0337459993 2.5687899525 2.152949716
| 29> H 1.6135118242 1.0380215624 2.8723605646
| 30> H 5.5025234622 0.2531528298 -1.0294566423
| 31> H 5.0855249253 -0.9175182632 0.2589959474
| 32> H 3.7057674569 -2.2158224162 -1.3022133829
| 33> H 3.9825696004 -1.0371098545 -2.59116048
| 34> H 5.3255790465 -2.0257858438 -1.9879059796
| 35> H 0.4370707038 -2.2834034499 0.6479157341
| 36> H -0.7620544532 -2.2790499319 -0.7013039268
| 37> H -0.1037284988 2.1551680343 -0.5000674426
| 38> H -1.0642338893 3.197641108 -1.5827845643
| 39> H -1.8490430537 2.313085621 1.2474244322
| 40> H -1.3420165868 3.9384679624 0.7583745808
| 41> H -2.8736968272 3.2721560944 0.16817118
| 42> H -3.9924035051 -0.8997851766 1.3717259155
| 43> H -4.9523633924 0.5856478841 1.6080264271
| 44> H -5.2900181045 -1.4036813832 -0.6992795609
| 45> H -6.3719492814 -1.2439888684 0.6923946585
| 46> H -6.2272459313 0.0767028135 -0.4800579435
| 47> *
| 48>
| 49>                          ****END OF INPUT****

CARTESIAN COORDINATES (ANGSTROEM)
---------------------------------
  C      3.193986    2.374967    2.250629
  C      1.802512    1.796613    2.106346
  O      1.609805    1.191498    0.809347
  P      2.333402   -0.154995    0.391546
  S      2.688312   -1.428415    1.843622
  O      3.616374    0.389353   -0.369243
  C      4.747121   -0.446616   -0.669655
  C      4.418606   -1.499146   -1.708753
  S      1.030824   -0.795037   -1.149479
  C     -0.123797   -1.671056   -0.058517
  S     -1.153828   -0.551092    0.912027
  P     -2.414795    0.075793   -0.698718
  S     -2.755905   -1.302398   -2.045928
  O     -1.783629    1.342803   -1.380157
  C     -1.114792    2.473063   -0.768190
  C     -1.846512    3.033889    0.431673
  O     -3.675494    0.675019    0.057356
  C     -4.566078   -0.117375    0.867395
  C     -5.688574   -0.711310    0.038930
  H      3.267302    2.905731    3.194605
  H      3.931244    1.573109    2.237784
  H      3.404301    3.058116    1.431973
  H      1.033746    2.568790    2.152950
  H      1.613512    1.038022    2.872361
  H      5.502523    0.253153   -1.029457
  H      5.085525   -0.917518    0.258996
  H      3.705767   -2.215822   -1.302213
  H      3.982570   -1.037110   -2.591160
  H      5.325579   -2.025786   -1.987906
  H      0.437071   -2.283403    0.647916
  H     -0.762054   -2.279050   -0.701304
  H     -0.103728    2.155168   -0.500067
  H     -1.064234    3.197641   -1.582785
  H     -1.849043    2.313086    1.247424
  H     -1.342017    3.938468    0.758375
  H     -2.873697    3.272156    0.168171
  H     -3.992404   -0.899785    1.371726
  H     -4.952363    0.585648    1.608026
  H     -5.290018   -1.403681   -0.699280
  H     -6.371949   -1.243989    0.692395
  H     -6.227246    0.076703   -0.480058

 Total Charge           Charge          ....    0
 Multiplicity           Mult            ....    1
 Number of Electrons    NEL             ....  202
 Basis Dimension        Dim             ....  334

ORBITAL ENERGIES
----------------

  NO   OCC          E(Eh)            E(eV)
   0   2.0000     -88.044454     -2395.8114
   1   2.0000     -88.042627     -2395.7617
   2   2.0000     -87.995537     -2394.4803
   3   2.0000     -87.980537     -2394.0721
   4   2.0000     -76.431613     -2079.8099
   5   2.0000     -76.425617     -2079.6468
   6   2.0000     -18.799674      -511.5651
   7   2.0000     -18.797366      -511.5023
   8   2.0000     -18.794324      -511.4196
   9   2.0000     -18.788539      -511.2621
  10   2.0000      -9.957491      -270.9571
  11   2.0000      -9.957345      -270.9531
  12   2.0000      -9.955604      -270.9058
  13   2.0000      -9.951456      -270.7929
  14   2.0000      -9.950924      -270.7784
  15   2.0000      -9.889639      -269.1107
  16   2.0000      -9.888231      -269.0724
  17   2.0000      -9.886943      -269.0374
  18   2.0000      -9.879461      -268.8338
  19   2.0000      -7.689423      -209.2398
  20   2.0000      -7.687333      -209.1830
  21   2.0000      -7.640381      -207.9053
  22   2.0000      -7.625886      -207.5109
  23   2.0000      -6.429352      -174.9516
  24   2.0000      -6.422747      -174.7718
  25   2.0000      -5.717207      -155.5731
  26   2.0000      -5.714988      -155.5127
  27   2.0000      -5.714146      -155.4898
  28   2.0000      -5.711837      -155.4270
  29   2.0000      -5.706289      -155.2760
  30   2.0000      -5.704613      -155.2304
  31   2.0000      -5.669095      -154.2639
  32   2.0000      -5.661059      -154.0452
  33   2.0000      -5.660727      -154.0362
  34   2.0000      -5.654834      -153.8758
  35   2.0000      -5.646402      -153.6464
  36   2.0000      -5.646039      -153.6365
  37   2.0000      -4.651796      -126.5818
  38   2.0000      -4.651071      -126.5621
  39   2.0000      -4.649910      -126.5305
  40   2.0000      -4.645498      -126.4104
  41   2.0000      -4.644795      -126.3913
  42   2.0000      -4.642857      -126.3386
  43   2.0000      -0.993678       -27.0394
  44   2.0000      -0.986084       -26.8327
  45   2.0000      -0.953024       -25.9331
  46   2.0000      -0.943923       -25.6855
  47   2.0000      -0.765498       -20.8303
  48   2.0000      -0.723367       -19.6838
  49   2.0000      -0.711518       -19.3614
  50   2.0000      -0.691983       -18.8298
  51   2.0000      -0.690101       -18.7786
  52   2.0000      -0.677941       -18.4477
  53   2.0000      -0.653007       -17.7692
  54   2.0000      -0.638886       -17.3850
  55   2.0000      -0.606278       -16.4977
  56   2.0000      -0.591930       -16.1072
  57   2.0000      -0.577674       -15.7193
  58   2.0000      -0.573667       -15.6103
  59   2.0000      -0.563915       -15.3449
  60   2.0000      -0.502682       -13.6787
  61   2.0000      -0.494371       -13.4525
  62   2.0000      -0.478944       -13.0327
  63   2.0000      -0.472575       -12.8594
  64   2.0000      -0.460407       -12.5283
  65   2.0000      -0.446489       -12.1496
  66   2.0000      -0.443244       -12.0613
  67   2.0000      -0.441265       -12.0074
  68   2.0000      -0.430847       -11.7239
  69   2.0000      -0.418479       -11.3874
  70   2.0000      -0.402573       -10.9546
  71   2.0000      -0.400254       -10.8915
  72   2.0000      -0.397834       -10.8256
  73   2.0000      -0.394115       -10.7244
  74   2.0000      -0.389532       -10.5997
  75   2.0000      -0.377389       -10.2693
  76   2.0000      -0.366263        -9.9665
  77   2.0000      -0.359466        -9.7816
  78   2.0000      -0.354263        -9.6400
  79   2.0000      -0.353184        -9.6106
  80   2.0000      -0.351542        -9.5659
  81   2.0000      -0.349789        -9.5182
  82   2.0000      -0.344761        -9.3814
  83   2.0000      -0.341710        -9.2984
  84   2.0000      -0.331919        -9.0320
  85   2.0000      -0.324363        -8.8264
  86   2.0000      -0.314384        -8.5548
  87   2.0000      -0.300417        -8.1748
  88   2.0000      -0.295185        -8.0324
  89   2.0000      -0.290208        -7.8970
  90   2.0000      -0.287454        -7.8220
  91   2.0000      -0.280643        -7.6367
  92   2.0000      -0.271587        -7.3902
  93   2.0000      -0.267963        -7.2917
  94   2.0000      -0.260823        -7.0974
  95   2.0000      -0.236918        -6.4469
  96   2.0000      -0.220908        -6.0112
  97   2.0000      -0.216702        -5.8968
  98   2.0000      -0.208451        -5.6722
  99   2.0000      -0.199181        -5.4200
 100   2.0000      -0.195964        -5.3325
 101   0.0000      -0.045241        -1.2311
 102   0.0000      -0.025908        -0.7050
 103   0.0000      -0.003231        -0.0879
 104   0.0000      -0.000509        -0.0138
 105   0.0000       0.014072         0.3829

MULLIKEN ATOMIC CHARGES
-----------------------
   0 C :   -0.304935
   1 C :   -0.006731
   2 O :   -0.359323
   3 P :    0.612288
   4 S :   -0.334039
   5 O :   -0.370200
   6 C :   -0.007312
   7 C :   -0.316474
   8 S :   -0.058494
   9 C :   -0.374603
  10 S :   -0.105152
  11 P :    0.605842
  12 S :   -0.317509
  13 O :   -0.355512
  14 C :   -0.017946
  15 C :   -0.321082
  16 O :   -0.373736
  17 C :   -0.013499
  18 C :   -0.293237
  19 H :    0.113869
  20 H :    0.123046
  21 H :    0.117014
  22 H :    0.104841
  23 H :    0.114944
  24 H :    0.107589
  25 H :    0.112262
  26 H :    0.128640
  27 H :    0.121890
  28 H :    0.115385
  29 H :    0.192117
  30 H :    0.197421
  31 H :    0.138475
  32 H :    0.106358
  33 H :    0.118989
  34 H :    0.112650
  35 H :    0.124320
  36 H :    0.104125
  37 H :    0.104715
  38 H :    0.132257
  39 H :    0.106685
  40 H :    0.114061
Sum of atomic charges:    0.0000000

LOEWDIN ATOMIC CHARGES
----------------------
   0 C :   -0.363679
   1 C :   -0.117563
   2 O :   -0.235704
   3 P :    0.574873
   4 S :   -0.320231
   5 O :   -0.241920
   6 C :   -0.118900
   7 C :   -0.369019
   8 S :    0.103187
   9 C :   -0.490497
  10 S :    0.066507
  11 P :    0.569011
  12 S :   -0.310172
  13 O :   -0.230097
  14 C :   -0.114918
  15 C :   -0.368804
  16 O :   -0.242080
  17 C :   -0.116621
  18 C :   -0.364246
  19 H :    0.131313
  20 H :    0.123231
  21 H :    0.126718
  22 H :    0.116370
  23 H :    0.111960
  24 H :    0.119856
  25 H :    0.110990
  26 H :    0.122208
  27 H :    0.126369
  28 H :    0.132348
  29 H :    0.127904
  30 H :    0.128805
  31 H :    0.114018
  32 H :    0.121819
  33 H :    0.116066
  34 H :    0.129056
  35 H :    0.128244
  36 H :    0.105713
  37 H :    0.117679
  38 H :    0.125194
  39 H :    0.128479
  40 H :    0.126534

  Mayer bond orders larger than 0.100000
B(  0-C ,  1-C ) :   1.1642 B(  0-C , 19-H ) :   0.9391 B(  0-C , 20-H ) :   0.9368
B(  0-C , 21-H ) :   0.9461 B(  1-C ,  2-O ) :   0.8987 B(  1-C , 22-H ) :   0.9312
B(  1-C , 23-H ) :   0.9159 B(  2-O ,  3-P ) :   1.1099 B(  3-P ,  4-S ) :   1.5869
B(  3-P ,  5-O ) :   1.1152 B(  3-P ,  8-S ) :   0.9671 B(  4-S ,  8-S ) :   0.1095
B(  5-O ,  6-C ) :   0.9052 B(  6-C ,  7-C ) :   1.1662 B(  6-C , 24-H ) :   0.9335
B(  6-C , 25-H ) :   0.9166 B(  7-C , 26-H ) :   0.9353 B(  7-C , 27-H ) :   0.9445
B(  7-C , 28-H ) :   0.9376 B(  8-S ,  9-C ) :   1.0018 B(  9-C , 10-S ) :   1.0095
B(  9-C , 29-H ) :   0.8719 B(  9-C , 30-H ) :   0.8635 B( 10-S , 11-P ) :   0.9336
B( 10-S , 12-S ) :   0.1110 B( 11-P , 12-S ) :   1.6351 B( 11-P , 13-O ) :   1.1580
B( 11-P , 16-O ) :   1.0919 B( 13-O , 14-C ) :   0.8918 B( 14-C , 15-C ) :   1.1725
B( 14-C , 31-H ) :   0.9043 B( 14-C , 32-H ) :   0.9335 B( 15-C , 33-H ) :   0.9378
B( 15-C , 34-H ) :   0.9337 B( 15-C , 35-H ) :   0.9404 B( 16-O , 17-C ) :   0.9068
B( 17-C , 18-C ) :   1.1685 B( 17-C , 36-H ) :   0.9148 B( 17-C , 37-H ) :   0.9355
B( 18-C , 38-H ) :   0.9295 B( 18-C , 39-H ) :   0.9387 B( 18-C , 40-H ) :   0.9473

Dispersion correction           -0.065883583
FINAL SINGLE POINT ENERGY     -2929.523237922921

DIPOLE MOMENT
-------------

Method             : SCF
Type of density    : Electron Density
Multiplicity       :   1
Irrep              :   0
Energy             : -2929.6432364093816432 Eh
Relativity type    :
Basis              : AO
                                X                 Y                 Z
Electronic contribution:     -1.833871612     -10.847960882      -6.658274074
Nuclear contribution   :      2.383057390      12.090856844       7.562276908
                        -----------------------------------------
Total Dipole Moment    :      0.549185778       1.242895962       0.904002835
                        -----------------------------------------
Magnitude (a.u.)       :      1.632058980
Magnitude (Debye)      :      4.148364252

Rotational constants in cm-1:             0.013663             0.004710             0.004273
Rotational constants in MHz :           409.620400           141.216664           128.098529

                             ****ORCA TERMINATED NORMALLY****
TOTAL RUN TIME: 0 days 0 hours 0 minutes 20 seconds 876 msec
