                         Program Version 6.0.1  -  RELEASE   -
|  1> ! pbe def2-sv(p) def2/J RI DEFGRID1 loosescf d4 GCP(DFT/SV(P)) printgap
|  2> %output
|  3>     printlevel normal
|  4> end
|  5> * xyz 0 1
|  6> C 5.8899322318 -2.1780648604 -1.0795512238
|  7> C 4.8800845811 -1.0527816581 -1.1993658052
|  8> O 3.5860197283 -1.564707699 -0.8236432236
|  9> C 2.5133796749 -0.96125715 -1.2863412007
| 10> O 2.5280282896 0.0111764505 -2.0090765559
| 11> C 1.2444733429 -1.6524868808 -0.81854173
| 12> C 0.2167214117 -0.5988655864 -0.4337520092
| 13> H 0.1244161604 0.1375835999 -1.2447946032
| 14> C 0.5849888627 0.1803005314 0.8120612624
| 15> O -0.2574989611 0.600568187 1.5799413001
| 16> O 1.8744943562 0.3428777683 0.9445347694
| 17> C 2.3510583551 1.1731727332 2.027495564
| 18> C 2.3560083108 2.6351170519 1.6146545901
| 19> S -1.4306085585 -1.3255077001 -0.1587045628
| 20> P -2.5100151297 0.4771169631 0.1817878
| 21> S -1.7938512876 2.1190595897 -0.6096340865
| 22> O -3.9329357309 0.0689593863 -0.4501383183
| 23> C -4.1037297537 -0.0980203789 -1.8596409917
| 24> O -2.9460678742 0.5921876662 1.6940535174
| 25> C -3.5988459449 -0.4875329745 2.3908097257
| 26> H 5.6362841101 -2.9847770791 -1.7608456705
| 27> H 6.8771390876 -1.8010622264 -1.324968842
| 28> H 5.8950175135 -2.5647182872 -0.0650993151
| 29> H 4.8167499657 -0.6625334139 -2.2196555322
| 30> H 5.1195221746 -0.225724036 -0.5246858871
| 31> H 1.475495225 -2.314217059 0.0145132282
| 32> H 0.8504100896 -2.2447170167 -1.6466397984
| 33> H 1.7058408545 1.0147480065 2.8957334983
| 34> H 3.3583920998 0.8064928669 2.2241017406
| 35> H 2.7741030509 3.2349757677 2.4160047116
| 36> H 2.9494419162 2.7694262787 0.7139547315
| 37> H 1.3403653892 2.9717219615 1.4130720277
| 38> H -5.177653849 -0.1378509627 -2.0226709723
| 39> H -3.6303491262 -1.0251993462 -2.1828501788
| 40> H -3.6688921889 0.7492515501 -2.3928574522
| 41> H -3.009342733 -1.4002426366 2.3014206933
| 42> H -4.5948155523 -0.6425729166 1.9799452998
| 43> H -3.6496095189 -0.1630364044 3.42683695
| 44> *
| 45>
| 46>                          ****END OF INPUT****

CARTESIAN COORDINATES (ANGSTROEM)
---------------------------------
  C      5.889932   -2.178065   -1.079551
  C      4.880085   -1.052782   -1.199366
  O      3.586020   -1.564708   -0.823643
  C      2.513380   -0.961257   -1.286341
  O      2.528028    0.011176   -2.009077
  C      1.244473   -1.652487   -0.818542
  C      0.216721   -0.598866   -0.433752
  H      0.124416    0.137584   -1.244795
  C      0.584989    0.180301    0.812061
  O     -0.257499    0.600568    1.579941
  O      1.874494    0.342878    0.944535
  C      2.351058    1.173173    2.027496
  C      2.356008    2.635117    1.614655
  S     -1.430609   -1.325508   -0.158705
  P     -2.510015    0.477117    0.181788
  S     -1.793851    2.119060   -0.609634
  O     -3.932936    0.068959   -0.450138
  C     -4.103730   -0.098020   -1.859641
  O     -2.946068    0.592188    1.694054
  C     -3.598846   -0.487533    2.390810
  H      5.636284   -2.984777   -1.760846
  H      6.877139   -1.801062   -1.324969
  H      5.895018   -2.564718   -0.065099
  H      4.816750   -0.662533   -2.219656
  H      5.119522   -0.225724   -0.524686
  H      1.475495   -2.314217    0.014513
  H      0.850410   -2.244717   -1.646640
  H      1.705841    1.014748    2.895733
  H      3.358392    0.806493    2.224102
  H      2.774103    3.234976    2.416005
  H      2.949442    2.769426    0.713955
  H      1.340365    2.971722    1.413072
  H     -5.177654   -0.137851   -2.022671
  H     -3.630349   -1.025199   -2.182850
  H     -3.668892    0.749252   -2.392857
  H     -3.009343   -1.400243    2.301421
  H     -4.594816   -0.642573    1.979945
  H     -3.649610   -0.163036    3.426837

 Total Charge           Charge          ....    0
 Multiplicity           Mult            ....    1
 Number of Electrons    NEL             ....  174
 Basis Dimension        Dim             ....  316

ORBITAL ENERGIES
----------------

  NO   OCC          E(Eh)            E(eV)
   0   2.0000     -88.036328     -2395.5903
   1   2.0000     -87.971103     -2393.8154
   2   2.0000     -76.416943     -2079.4107
   3   2.0000     -18.819367      -512.1010
   4   2.0000     -18.806685      -511.7559
   5   2.0000     -18.780589      -511.0458
   6   2.0000     -18.778796      -510.9970
   7   2.0000     -18.745845      -510.1004
   8   2.0000     -18.740926      -509.9665
   9   2.0000     -10.019854      -272.6541
  10   2.0000     -10.014637      -272.5121
  11   2.0000      -9.955909      -270.9141
  12   2.0000      -9.953295      -270.8429
  13   2.0000      -9.944541      -270.6047
  14   2.0000      -9.941851      -270.5315
  15   2.0000      -9.934260      -270.3250
  16   2.0000      -9.916858      -269.8514
  17   2.0000      -9.894741      -269.2496
  18   2.0000      -9.886743      -269.0319
  19   2.0000      -7.681138      -209.0144
  20   2.0000      -7.616314      -207.2504
  21   2.0000      -6.413177      -174.5114
  22   2.0000      -5.708848      -155.3457
  23   2.0000      -5.705793      -155.2625
  24   2.0000      -5.698196      -155.0558
  25   2.0000      -5.645576      -153.6239
  26   2.0000      -5.636961      -153.3895
  27   2.0000      -5.636063      -153.3651
  28   2.0000      -4.635938      -126.1503
  29   2.0000      -4.635229      -126.1310
  30   2.0000      -4.633466      -126.0830
  31   2.0000      -1.027061       -27.9478
  32   2.0000      -1.014374       -27.6025
  33   2.0000      -0.975349       -26.5406
  34   2.0000      -0.930551       -25.3216
  35   2.0000      -0.926663       -25.2158
  36   2.0000      -0.918407       -24.9911
  37   2.0000      -0.765796       -20.8384
  38   2.0000      -0.717738       -19.5306
  39   2.0000      -0.710232       -19.3264
  40   2.0000      -0.689143       -18.7525
  41   2.0000      -0.659133       -17.9359
  42   2.0000      -0.626774       -17.0554
  43   2.0000      -0.622143       -16.9294
  44   2.0000      -0.610814       -16.6211
  45   2.0000      -0.594088       -16.1660
  46   2.0000      -0.564114       -15.3503
  47   2.0000      -0.516701       -14.0602
  48   2.0000      -0.509255       -13.8575
  49   2.0000      -0.502622       -13.6770
  50   2.0000      -0.475215       -12.9313
  51   2.0000      -0.471055       -12.8181
  52   2.0000      -0.463783       -12.6202
  53   2.0000      -0.451954       -12.2983
  54   2.0000      -0.436834       -11.8869
  55   2.0000      -0.429617       -11.6905
  56   2.0000      -0.422116       -11.4864
  57   2.0000      -0.420445       -11.4409
  58   2.0000      -0.412349       -11.2206
  59   2.0000      -0.410274       -11.1641
  60   2.0000      -0.405478       -11.0336
  61   2.0000      -0.396544       -10.7905
  62   2.0000      -0.390906       -10.6371
  63   2.0000      -0.387695       -10.5497
  64   2.0000      -0.371882       -10.1194
  65   2.0000      -0.367659       -10.0045
  66   2.0000      -0.360047        -9.7974
  67   2.0000      -0.353594        -9.6218
  68   2.0000      -0.352388        -9.5890
  69   2.0000      -0.345019        -9.3884
  70   2.0000      -0.333124        -9.0648
  71   2.0000      -0.332408        -9.0453
  72   2.0000      -0.323136        -8.7930
  73   2.0000      -0.313676        -8.5356
  74   2.0000      -0.303472        -8.2579
  75   2.0000      -0.301002        -8.1907
  76   2.0000      -0.291184        -7.9235
  77   2.0000      -0.287335        -7.8188
  78   2.0000      -0.273768        -7.4496
  79   2.0000      -0.263664        -7.1747
  80   2.0000      -0.261135        -7.1058
  81   2.0000      -0.250394        -6.8136
  82   2.0000      -0.235009        -6.3949
  83   2.0000      -0.226937        -6.1753
  84   2.0000      -0.219013        -5.9597
  85   2.0000      -0.192382        -5.2350
  86   2.0000      -0.184804        -5.0288
  87   0.0000      -0.043302        -1.1783
  88   0.0000      -0.027885        -0.7588
  89   0.0000      -0.019659        -0.5349
  90   0.0000       0.013838         0.3765
  91   0.0000       0.024607         0.6696

MULLIKEN ATOMIC CHARGES
-----------------------
   0 C :   -0.277469
   1 C :   -0.031598
   2 O :   -0.230935
   3 C :    0.113000
   4 O :   -0.202699
   5 C :   -0.056917
   6 C :   -0.342682
   7 H :    0.176443
   8 C :    0.229542
   9 O :   -0.182139
  10 O :   -0.222527
  11 C :   -0.011666
  12 C :   -0.308689
  13 S :   -0.108084
  14 P :    0.626208
  15 S :   -0.323492
  16 O :   -0.397184
  17 C :   -0.098615
  18 O :   -0.353300
  19 C :   -0.101058
  20 H :    0.116326
  21 H :    0.113636
  22 H :    0.115095
  23 H :    0.115612
  24 H :    0.103867
  25 H :    0.106775
  26 H :    0.125525
  27 H :    0.114241
  28 H :    0.103656
  29 H :    0.113868
  30 H :    0.122167
  31 H :    0.142323
  32 H :    0.120145
  33 H :    0.108782
  34 H :    0.115815
  35 H :    0.114126
  36 H :    0.122297
  37 H :    0.129602
Sum of atomic charges:    0.0000000

LOEWDIN ATOMIC CHARGES
----------------------
   0 C :   -0.350556
   1 C :   -0.107442
   2 O :   -0.058384
   3 C :    0.027083
   4 O :   -0.166234
   5 C :   -0.247676
   6 C :   -0.275277
   7 H :    0.151222
   8 C :    0.023182
   9 O :   -0.154068
  10 O :   -0.035037
  11 C :   -0.106006
  12 C :   -0.355689
  13 S :    0.087569
  14 P :    0.587738
  15 S :   -0.320054
  16 O :   -0.268181
  17 C :   -0.220024
  18 O :   -0.231311
  19 C :   -0.207718
  20 H :    0.127340
  21 H :    0.131384
  22 H :    0.126565
  23 H :    0.120515
  24 H :    0.115684
  25 H :    0.134521
  26 H :    0.149115
  27 H :    0.123410
  28 H :    0.117400
  29 H :    0.131445
  30 H :    0.129097
  31 H :    0.137703
  32 H :    0.119743
  33 H :    0.104760
  34 H :    0.109728
  35 H :    0.108074
  36 H :    0.114937
  37 H :    0.125440

  Mayer bond orders larger than 0.100000
B(  0-C ,  1-C ) :   1.1569 B(  0-C , 20-H ) :   0.9519 B(  0-C , 21-H ) :   0.9441
B(  0-C , 22-H ) :   0.9484 B(  1-C ,  2-O ) :   0.9073 B(  1-C , 23-H ) :   0.9200
B(  1-C , 24-H ) :   0.9343 B(  2-O ,  3-C ) :   1.2378 B(  3-C ,  4-O ) :   2.0515
B(  3-C ,  5-C ) :   1.0043 B(  5-C ,  6-C ) :   1.0516 B(  5-C , 25-H ) :   0.9079
B(  5-C , 26-H ) :   0.8772 B(  6-C ,  7-H ) :   0.8270 B(  6-C ,  8-C ) :   0.8981
B(  6-C , 13-S ) :   1.0333 B(  8-C ,  9-O ) :   2.0028 B(  8-C , 10-O ) :   1.2638
B( 10-O , 11-C ) :   0.8972 B( 11-C , 12-C ) :   1.1794 B( 11-C , 27-H ) :   0.9132
B( 11-C , 28-H ) :   0.9358 B( 12-C , 29-H ) :   0.9424 B( 12-C , 30-H ) :   0.9473
B( 12-C , 31-H ) :   0.9389 B( 13-S , 14-P ) :   0.9329 B( 13-S , 15-S ) :   0.1126
B( 14-P , 15-S ) :   1.6237 B( 14-P , 16-O ) :   1.0468 B( 14-P , 18-O ) :   1.1317
B( 16-O , 17-C ) :   0.9400 B( 17-C , 32-H ) :   0.9589 B( 17-C , 33-H ) :   0.9461
B( 17-C , 34-H ) :   0.9332 B( 18-O , 19-C ) :   0.9232 B( 19-C , 35-H ) :   0.9391
B( 19-C , 36-H ) :   0.9477 B( 19-C , 37-H ) :   0.9599

Dispersion correction           -0.050103603
FINAL SINGLE POINT ENERGY     -1979.015649473009

DIPOLE MOMENT
-------------

Method             : SCF
Type of density    : Electron Density
Multiplicity       :   1
Irrep              :   0
Energy             : -1979.1473585770922909 Eh
Relativity type    :
Basis              : AO
                                X                 Y                 Z
Electronic contribution:    -19.195489043       3.190150312      -1.165349662
Nuclear contribution   :     20.354544424      -4.653830613       1.750496831
                        -----------------------------------------
Total Dipole Moment    :      1.159055381      -1.463680301       0.585147169
                        -----------------------------------------
Magnitude (a.u.)       :      1.956570113
Magnitude (Debye)      :      4.973206001

Rotational constants in cm-1:             0.017280             0.005382             0.004896
Rotational constants in MHz :           518.027451           161.341634           146.783936

                             ****ORCA TERMINATED NORMALLY****
TOTAL RUN TIME: 0 days 0 hours 0 minutes 41 seconds 36 msec
