                         Program Version 6.0.1  -  RELEASE   -
|  1> ! pbe def2-sv(p) def2/J RI DEFGRID1 loosescf d4 GCP(DFT/SV(P)) printgap
|  2> %output
|  3>     printlevel normal
|  4> end
|  5> * xyz 0 1
|  6> C 5.1332004138 -1.082982318 -2.456463647
|  7> C 4.3005310051 -0.2419591844 -1.5018522456
|  8> O 2.9312781518 -0.6869591425 -1.4787562864
|  9> C 2.608911027 -1.6735668709 -0.6652192565
| 10> O 3.383188798 -2.2491810034 0.0642613935
| 11> C 1.1320486957 -2.0168837845 -0.7661636947
| 12> C 0.2733693247 -0.7793248717 -0.5157834565
| 13> H 0.5129643506 0.0015757736 -1.244643135
| 14> C 0.483137749 -0.2115395501 0.8749361513
| 15> O -0.4352316696 -0.0287355235 1.6484669825
| 16> O 1.7388851633 0.0467502576 1.1156970033
| 17> C 2.0849609959 0.675263721 2.3707089926
| 18> C 2.1122635973 2.1855888075 2.2079664504
| 19> S -1.4922162905 -1.203685331 -0.6801035798
| 20> P -2.3233448546 0.6802840669 -0.116459189
| 21> S -1.2028359594 2.2835457282 -0.1573280578
| 22> O -3.4440633971 0.8473229021 -1.232642186
| 23> C -4.4689789579 -0.1343167113 -1.4659663103
| 24> O -3.2636239546 0.453884371 1.1545758159
| 25> C -2.9635072387 0.7119283734 2.525616815
| 26> H 4.6943861502 -1.0667038016 -3.4502748997
| 27> H 6.1397201475 -0.6806995496 -2.5033442551
| 28> H 5.1797011023 -2.1110539098 -2.1048707146
| 29> H 4.2439160605 0.7957530793 -1.8310569454
| 30> H 4.7002736434 -0.2990853792 -0.4857213037
| 31> H 0.9024191039 -2.7983887647 -0.0415757988
| 32> H 0.9262545194 -2.3888817391 -1.7709148473
| 33> H 1.3526687728 0.3728909086 3.1235054635
| 34> H 3.0696996507 0.2756177277 2.6147239457
| 35> H 2.8524798269 2.4723729758 1.4667511157
| 36> H 1.1383849895 2.5456529834 1.8797880429
| 37> H 2.3588549262 2.6443770625 3.1594350566
| 38> H -4.0166128171 -1.1120775134 -1.6356703915
| 39> H -4.9916320655 0.2069431026 -2.3558181835
| 40> H -5.14278722 -0.176407587 -0.6123530827
| 41> H -2.5029220898 -0.1664164421 2.9730638943
| 42> H -3.9194363989 0.9339928063 2.9951377186
| 43> H -2.2876736584 1.5627365987 2.6121243641
| 44> *
| 45>
| 46>                          ****END OF INPUT****

CARTESIAN COORDINATES (ANGSTROEM)
---------------------------------
  C      5.133200   -1.082982   -2.456464
  C      4.300531   -0.241959   -1.501852
  O      2.931278   -0.686959   -1.478756
  C      2.608911   -1.673567   -0.665219
  O      3.383189   -2.249181    0.064261
  C      1.132049   -2.016884   -0.766164
  C      0.273369   -0.779325   -0.515783
  H      0.512964    0.001576   -1.244643
  C      0.483138   -0.211540    0.874936
  O     -0.435232   -0.028736    1.648467
  O      1.738885    0.046750    1.115697
  C      2.084961    0.675264    2.370709
  C      2.112264    2.185589    2.207966
  S     -1.492216   -1.203685   -0.680104
  P     -2.323345    0.680284   -0.116459
  S     -1.202836    2.283546   -0.157328
  O     -3.444063    0.847323   -1.232642
  C     -4.468979   -0.134317   -1.465966
  O     -3.263624    0.453884    1.154576
  C     -2.963507    0.711928    2.525617
  H      4.694386   -1.066704   -3.450275
  H      6.139720   -0.680700   -2.503344
  H      5.179701   -2.111054   -2.104871
  H      4.243916    0.795753   -1.831057
  H      4.700274   -0.299085   -0.485721
  H      0.902419   -2.798389   -0.041576
  H      0.926255   -2.388882   -1.770915
  H      1.352669    0.372891    3.123505
  H      3.069700    0.275618    2.614724
  H      2.852480    2.472373    1.466751
  H      1.138385    2.545653    1.879788
  H      2.358855    2.644377    3.159435
  H     -4.016613   -1.112078   -1.635670
  H     -4.991632    0.206943   -2.355818
  H     -5.142787   -0.176408   -0.612353
  H     -2.502922   -0.166416    2.973064
  H     -3.919436    0.933993    2.995138
  H     -2.287674    1.562737    2.612124

 Total Charge           Charge          ....    0
 Multiplicity           Mult            ....    1
 Number of Electrons    NEL             ....  174
 Basis Dimension        Dim             ....  316

ORBITAL ENERGIES
----------------

  NO   OCC          E(Eh)            E(eV)
   0   2.0000     -88.033516     -2395.5138
   1   2.0000     -87.975419     -2393.9329
   2   2.0000     -76.420788     -2079.5154
   3   2.0000     -18.821798      -512.1672
   4   2.0000     -18.805751      -511.7305
   5   2.0000     -18.785056      -511.1673
   6   2.0000     -18.778330      -510.9843
   7   2.0000     -18.752532      -510.2823
   8   2.0000     -18.741454      -509.9809
   9   2.0000     -10.025846      -272.8171
  10   2.0000     -10.015548      -272.5369
  11   2.0000      -9.955636      -270.9066
  12   2.0000      -9.952090      -270.8101
  13   2.0000      -9.949343      -270.7354
  14   2.0000      -9.942729      -270.5554
  15   2.0000      -9.935116      -270.3482
  16   2.0000      -9.918787      -269.9039
  17   2.0000      -9.890171      -269.1252
  18   2.0000      -9.887881      -269.0629
  19   2.0000      -7.678637      -208.9463
  20   2.0000      -7.620747      -207.3711
  21   2.0000      -6.417028      -174.6162
  22   2.0000      -5.706584      -155.2840
  23   2.0000      -5.703480      -155.1996
  24   2.0000      -5.695217      -154.9747
  25   2.0000      -5.649981      -153.7438
  26   2.0000      -5.641439      -153.5114
  27   2.0000      -5.640431      -153.4839
  28   2.0000      -4.639833      -126.2563
  29   2.0000      -4.638895      -126.2307
  30   2.0000      -4.637515      -126.1932
  31   2.0000      -1.030678       -28.0462
  32   2.0000      -1.013747       -27.5855
  33   2.0000      -0.975564       -26.5465
  34   2.0000      -0.934742       -25.4356
  35   2.0000      -0.929761       -25.3001
  36   2.0000      -0.918677       -24.9985
  37   2.0000      -0.769214       -20.9314
  38   2.0000      -0.713387       -19.4123
  39   2.0000      -0.711916       -19.3722
  40   2.0000      -0.691353       -18.8127
  41   2.0000      -0.658155       -17.9093
  42   2.0000      -0.631706       -17.1896
  43   2.0000      -0.623187       -16.9578
  44   2.0000      -0.612633       -16.6706
  45   2.0000      -0.597917       -16.2702
  46   2.0000      -0.568221       -15.4621
  47   2.0000      -0.513090       -13.9619
  48   2.0000      -0.508365       -13.8333
  49   2.0000      -0.501649       -13.6506
  50   2.0000      -0.481346       -13.0981
  51   2.0000      -0.470273       -12.7968
  52   2.0000      -0.468798       -12.7566
  53   2.0000      -0.451276       -12.2799
  54   2.0000      -0.441510       -12.0141
  55   2.0000      -0.427637       -11.6366
  56   2.0000      -0.424335       -11.5467
  57   2.0000      -0.418372       -11.3845
  58   2.0000      -0.417379       -11.3575
  59   2.0000      -0.410549       -11.1716
  60   2.0000      -0.404317       -11.0020
  61   2.0000      -0.396625       -10.7927
  62   2.0000      -0.391111       -10.6427
  63   2.0000      -0.387037       -10.5318
  64   2.0000      -0.379607       -10.3296
  65   2.0000      -0.367497       -10.0001
  66   2.0000      -0.363444        -9.8898
  67   2.0000      -0.356598        -9.7035
  68   2.0000      -0.349378        -9.5071
  69   2.0000      -0.340359        -9.2616
  70   2.0000      -0.339231        -9.2310
  71   2.0000      -0.332253        -9.0411
  72   2.0000      -0.325231        -8.8500
  73   2.0000      -0.313839        -8.5400
  74   2.0000      -0.302784        -8.2392
  75   2.0000      -0.299907        -8.1609
  76   2.0000      -0.295578        -8.0431
  77   2.0000      -0.289881        -7.8881
  78   2.0000      -0.277759        -7.5582
  79   2.0000      -0.263751        -7.1770
  80   2.0000      -0.261687        -7.1209
  81   2.0000      -0.254545        -6.9265
  82   2.0000      -0.241630        -6.5751
  83   2.0000      -0.224993        -6.1224
  84   2.0000      -0.210609        -5.7310
  85   2.0000      -0.197321        -5.3694
  86   2.0000      -0.189836        -5.1657
  87   0.0000      -0.043314        -1.1786
  88   0.0000      -0.042009        -1.1431
  89   0.0000      -0.021941        -0.5971
  90   0.0000       0.006304         0.1715
  91   0.0000       0.028511         0.7758

MULLIKEN ATOMIC CHARGES
-----------------------
   0 C :   -0.306250
   1 C :   -0.009626
   2 O :   -0.238869
   3 C :    0.114695
   4 O :   -0.196440
   5 C :   -0.052841
   6 C :   -0.313600
   7 H :    0.167931
   8 C :    0.213609
   9 O :   -0.193686
  10 O :   -0.219893
  11 C :   -0.010849
  12 C :   -0.309928
  13 S :   -0.118679
  14 P :    0.643004
  15 S :   -0.332361
  16 O :   -0.366678
  17 C :   -0.111613
  18 O :   -0.397248
  19 C :   -0.081266
  20 H :    0.115577
  21 H :    0.114060
  22 H :    0.128026
  23 H :    0.106369
  24 H :    0.105577
  25 H :    0.107980
  26 H :    0.128516
  27 H :    0.111473
  28 H :    0.113266
  29 H :    0.113458
  30 H :    0.142365
  31 H :    0.113235
  32 H :    0.120283
  33 H :    0.129939
  34 H :    0.120409
  35 H :    0.120873
  36 H :    0.115062
  37 H :    0.114118
Sum of atomic charges:   -0.0000000

LOEWDIN ATOMIC CHARGES
----------------------
   0 C :   -0.356329
   1 C :   -0.109056
   2 O :   -0.059886
   3 C :    0.024955
   4 O :   -0.162682
   5 C :   -0.239610
   6 C :   -0.269458
   7 H :    0.147619
   8 C :    0.021627
   9 O :   -0.161483
  10 O :   -0.027226
  11 C :   -0.104926
  12 C :   -0.357230
  13 S :    0.082328
  14 P :    0.587007
  15 S :   -0.321844
  16 O :   -0.252226
  17 C :   -0.212817
  18 O :   -0.252599
  19 C :   -0.205940
  20 H :    0.125593
  21 H :    0.131305
  22 H :    0.130897
  23 H :    0.119385
  24 H :    0.118782
  25 H :    0.139446
  26 H :    0.147064
  27 H :    0.121743
  28 H :    0.122196
  29 H :    0.125212
  30 H :    0.131647
  31 H :    0.131205
  32 H :    0.104923
  33 H :    0.125212
  34 H :    0.114142
  35 H :    0.114789
  36 H :    0.115315
  37 H :    0.110919

  Mayer bond orders larger than 0.100000
B(  0-C ,  1-C ) :   1.1747 B(  0-C , 20-H ) :   0.9485 B(  0-C , 21-H ) :   0.9441
B(  0-C , 22-H ) :   0.9457 B(  1-C ,  2-O ) :   0.9153 B(  1-C , 23-H ) :   0.9363
B(  1-C , 24-H ) :   0.9142 B(  2-O ,  3-C ) :   1.2047 B(  3-C ,  4-O ) :   2.0662
B(  3-C ,  5-C ) :   1.0276 B(  5-C ,  6-C ) :   1.0538 B(  5-C , 25-H ) :   0.8998
B(  5-C , 26-H ) :   0.8864 B(  6-C ,  7-H ) :   0.8542 B(  6-C ,  8-C ) :   0.8819
B(  6-C , 13-S ) :   1.0411 B(  8-C ,  9-O ) :   1.9709 B(  8-C , 10-O ) :   1.2683
B( 10-O , 11-C ) :   0.8892 B( 11-C , 12-C ) :   1.1790 B( 11-C , 27-H ) :   0.9113
B( 11-C , 28-H ) :   0.9339 B( 12-C , 29-H ) :   0.9492 B( 12-C , 30-H ) :   0.9328
B( 12-C , 31-H ) :   0.9421 B( 13-S , 14-P ) :   0.9257 B( 13-S , 15-S ) :   0.1097
B( 14-P , 15-S ) :   1.6000 B( 14-P , 16-O ) :   1.1131 B( 14-P , 18-O ) :   1.0937
B( 16-O , 17-C ) :   0.9313 B( 17-C , 32-H ) :   0.9358 B( 17-C , 33-H ) :   0.9605
B( 17-C , 34-H ) :   0.9468 B( 18-O , 19-C ) :   0.9256 B( 19-C , 35-H ) :   0.9518
B( 19-C , 36-H ) :   0.9536 B( 19-C , 37-H ) :   0.9422

Dispersion correction           -0.051506405
FINAL SINGLE POINT ENERGY     -1979.011554875386

DIPOLE MOMENT
-------------

Method             : SCF
Type of density    : Electron Density
Multiplicity       :   1
Irrep              :   0
Energy             : -1979.1436373655146781 Eh
Relativity type    :
Basis              : AO
                                X                 Y                 Z
Electronic contribution:    -15.991324832      -0.630159181      -2.552759548
Nuclear contribution   :     16.437629573       0.286569931       2.763022155
                        -----------------------------------------
Total Dipole Moment    :      0.446304741      -0.343589250       0.210262607
                        -----------------------------------------
Magnitude (a.u.)       :      0.601208665
Magnitude (Debye)      :      1.528150982

Rotational constants in cm-1:             0.016183             0.006013             0.005278
Rotational constants in MHz :           485.139525           180.251251           158.225654

                             ****ORCA TERMINATED NORMALLY****
TOTAL RUN TIME: 0 days 0 hours 0 minutes 35 seconds 209 msec
