                         Program Version 6.0.0  -   RELEASE  -
|  1> ! r2scan-3c def2/J RI DEFGRID2 scfconv6 printgap
|  2> %output
|  3>     printlevel normal
|  4> end
|  5> * xyz 0 1
|  6> C 5.4641370988 -0.1762867164 -0.8213889899
|  7> C 4.455257441 -0.9589968055 -0.0033127412
|  8> O 3.4456401302 -0.0844516741 0.5381773264
|  9> P 2.0377588854 0.1311340309 -0.171548163
| 10> S 2.0939572666 0.5916270927 -2.0796275277
| 11> O 1.3723410827 1.166634038 0.8212838374
| 12> C 1.4816862556 2.5904975628 0.6333512345
| 13> C 2.9057966126 3.07219756 0.8034682166
| 14> S 1.0612040397 -1.6649458771 0.3219050882
| 15> C -0.1512160668 -1.8083406828 -1.0387398006
| 16> S -1.8526763557 -1.8799585269 -0.4450177083
| 17> P -2.0377905798 0.1474988735 0.166452064
| 18> S -1.2974707457 1.4563683529 -1.090164022
| 19> O -1.3872228269 0.2736385778 1.5938549619
| 20> C -1.461914817 -0.6897325953 2.6766679883
| 21> C -2.8782194617 -1.1023195766 3.0100402962
| 22> O -3.5830883798 0.3472633957 0.4663429269
| 23> C -4.556261466 0.5838354435 -0.5662631195
| 24> C -5.1462315136 -0.7138586197 -1.082492816
| 25> H 6.2415436772 -0.8490232371 -1.1685557863
| 26> H 4.9777765372 0.2770371907 -1.6826053284
| 27> H 5.9102603963 0.6071791235 -0.2152088432
| 28> H 4.9204431791 -1.4179236386 0.8709586509
| 29> H 3.9766740933 -1.7328246387 -0.6104602409
| 30> H 1.0978367434 2.8391477418 -0.3621379113
| 31> H 0.8121226855 3.0029090133 1.3898668761
| 32> H 2.9264324229 4.1562809815 0.751863747
| 33> H 3.3002980103 2.7432726728 1.7613076478
| 34> H 3.5276842309 2.6666691527 0.0061502127
| 35> H 0.031393497 -2.7477313271 -1.5538421213
| 36> H -0.0221710177 -0.9558039346 -1.7119432913
| 37> H -0.8547964913 -1.5572092493 2.4015481362
| 38> H -0.9870725653 -0.1611760852 3.5046529481
| 39> H -3.3116157159 -1.6660629806 2.1865853932
| 40> H -2.8599039072 -1.7293807559 3.8962125647
| 41> H -3.492388441 -0.2261555893 3.2005137818
| 42> H -5.3170768299 1.1990749293 -0.0826338994
| 43> H -4.0840431843 1.1561703819 -1.3718762945
| 44> H -5.5588423271 -1.2895066711 -0.2589226991
| 45> H -5.9364155733 -0.4851240769 -1.7904196612
| 46> H -4.3855861703 -1.310173053 -1.5807660264
| 47> *
| 48>
| 49>                          ****END OF INPUT****

CARTESIAN COORDINATES (ANGSTROEM)
---------------------------------
  C      5.464137   -0.176287   -0.821389
  C      4.455257   -0.958997   -0.003313
  O      3.445640   -0.084452    0.538177
  P      2.037759    0.131134   -0.171548
  S      2.093957    0.591627   -2.079628
  O      1.372341    1.166634    0.821284
  C      1.481686    2.590498    0.633351
  C      2.905797    3.072198    0.803468
  S      1.061204   -1.664946    0.321905
  C     -0.151216   -1.808341   -1.038740
  S     -1.852676   -1.879959   -0.445018
  P     -2.037791    0.147499    0.166452
  S     -1.297471    1.456368   -1.090164
  O     -1.387223    0.273639    1.593855
  C     -1.461915   -0.689733    2.676668
  C     -2.878219   -1.102320    3.010040
  O     -3.583088    0.347263    0.466343
  C     -4.556261    0.583835   -0.566263
  C     -5.146232   -0.713859   -1.082493
  H      6.241544   -0.849023   -1.168556
  H      4.977777    0.277037   -1.682605
  H      5.910260    0.607179   -0.215209
  H      4.920443   -1.417924    0.870959
  H      3.976674   -1.732825   -0.610460
  H      1.097837    2.839148   -0.362138
  H      0.812123    3.002909    1.389867
  H      2.926432    4.156281    0.751864
  H      3.300298    2.743273    1.761308
  H      3.527684    2.666669    0.006150
  H      0.031393   -2.747731   -1.553842
  H     -0.022171   -0.955804   -1.711943
  H     -0.854796   -1.557209    2.401548
  H     -0.987073   -0.161176    3.504653
  H     -3.311616   -1.666063    2.186585
  H     -2.859904   -1.729381    3.896213
  H     -3.492388   -0.226156    3.200514
  H     -5.317077    1.199075   -0.082634
  H     -4.084043    1.156170   -1.371876
  H     -5.558842   -1.289507   -0.258923
  H     -5.936416   -0.485124   -1.790420
  H     -4.385586   -1.310173   -1.580766

 Total Charge           Charge          ....    0
 Multiplicity           Mult            ....    1
 Number of Electrons    NEL             ....  202
 Basis Dimension        Dim             ....  539

ORBITAL ENERGIES
----------------

  NO   OCC          E(Eh)            E(eV)
   0   2.0000     -88.578130     -2410.3335
   1   2.0000     -88.573902     -2410.2184
   2   2.0000     -88.513871     -2408.5849
   3   2.0000     -88.510594     -2408.4957
   4   2.0000     -76.911683     -2092.8733
   5   2.0000     -76.908802     -2092.7949
   6   2.0000     -18.991823      -516.7938
   7   2.0000     -18.988045      -516.6910
   8   2.0000     -18.986441      -516.6473
   9   2.0000     -18.979582      -516.4607
  10   2.0000     -10.106244      -275.0049
  11   2.0000     -10.098954      -274.8065
  12   2.0000     -10.097581      -274.7691
  13   2.0000     -10.096415      -274.7374
  14   2.0000     -10.084746      -274.4199
  15   2.0000     -10.031244      -272.9640
  16   2.0000     -10.030426      -272.9418
  17   2.0000     -10.022987      -272.7393
  18   2.0000     -10.019915      -272.6557
  19   2.0000      -7.872659      -214.2259
  20   2.0000      -7.868538      -214.1138
  21   2.0000      -7.808627      -212.4835
  22   2.0000      -7.805540      -212.3995
  23   2.0000      -6.589957      -179.3219
  24   2.0000      -6.587115      -179.2445
  25   2.0000      -5.819500      -158.3567
  26   2.0000      -5.816259      -158.2685
  27   2.0000      -5.815314      -158.2428
  28   2.0000      -5.812311      -158.1610
  29   2.0000      -5.810016      -158.0986
  30   2.0000      -5.805764      -157.9829
  31   2.0000      -5.756290      -156.6366
  32   2.0000      -5.753338      -156.5563
  33   2.0000      -5.749085      -156.4406
  34   2.0000      -5.748449      -156.4233
  35   2.0000      -5.745682      -156.3480
  36   2.0000      -5.745498      -156.3429
  37   2.0000      -4.735681      -128.8644
  38   2.0000      -4.735114      -128.8490
  39   2.0000      -4.733277      -128.7990
  40   2.0000      -4.732499      -128.7778
  41   2.0000      -4.731990      -128.7640
  42   2.0000      -4.731033      -128.7379
  43   2.0000      -1.048425       -28.5291
  44   2.0000      -1.042987       -28.3811
  45   2.0000      -1.008786       -27.4505
  46   2.0000      -1.002487       -27.2791
  47   2.0000      -0.799857       -21.7652
  48   2.0000      -0.756175       -20.5766
  49   2.0000      -0.746637       -20.3170
  50   2.0000      -0.734684       -19.9918
  51   2.0000      -0.724359       -19.7108
  52   2.0000      -0.710037       -19.3211
  53   2.0000      -0.683204       -18.5909
  54   2.0000      -0.662270       -18.0213
  55   2.0000      -0.629035       -17.1169
  56   2.0000      -0.621429       -16.9099
  57   2.0000      -0.607348       -16.5268
  58   2.0000      -0.597976       -16.2718
  59   2.0000      -0.590796       -16.0764
  60   2.0000      -0.523301       -14.2398
  61   2.0000      -0.515548       -14.0288
  62   2.0000      -0.491778       -13.3820
  63   2.0000      -0.486150       -13.2288
  64   2.0000      -0.467399       -12.7186
  65   2.0000      -0.462189       -12.5768
  66   2.0000      -0.457854       -12.4588
  67   2.0000      -0.452126       -12.3030
  68   2.0000      -0.446662       -12.1543
  69   2.0000      -0.427264       -11.6264
  70   2.0000      -0.424231       -11.5439
  71   2.0000      -0.414042       -11.2667
  72   2.0000      -0.410604       -11.1731
  73   2.0000      -0.400988       -10.9114
  74   2.0000      -0.396778       -10.7969
  75   2.0000      -0.384736       -10.4692
  76   2.0000      -0.381276       -10.3751
  77   2.0000      -0.375871       -10.2280
  78   2.0000      -0.367108        -9.9895
  79   2.0000      -0.365513        -9.9461
  80   2.0000      -0.361673        -9.8416
  81   2.0000      -0.356008        -9.6875
  82   2.0000      -0.348938        -9.4951
  83   2.0000      -0.346837        -9.4379
  84   2.0000      -0.343360        -9.3433
  85   2.0000      -0.328669        -8.9435
  86   2.0000      -0.323280        -8.7969
  87   2.0000      -0.308588        -8.3971
  88   2.0000      -0.305973        -8.3259
  89   2.0000      -0.303801        -8.2669
  90   2.0000      -0.292130        -7.9493
  91   2.0000      -0.286622        -7.7994
  92   2.0000      -0.277715        -7.5570
  93   2.0000      -0.277367        -7.5475
  94   2.0000      -0.272177        -7.4063
  95   2.0000      -0.250436        -6.8147
  96   2.0000      -0.234191        -6.3727
  97   2.0000      -0.224356        -6.1050
  98   2.0000      -0.214040        -5.8243
  99   2.0000      -0.204628        -5.5682
 100   2.0000      -0.196043        -5.3346
 101   0.0000      -0.041635        -1.1330
 102   0.0000      -0.030465        -0.8290
 103   0.0000      -0.008059        -0.2193
 104   0.0000       0.016590         0.4514
 105   0.0000       0.020009         0.5445

MULLIKEN ATOMIC CHARGES
-----------------------
   0 C :   -0.462254
   1 C :   -0.128418
   2 O :   -0.288429
   3 P :    0.639724
   4 S :   -0.454749
   5 O :   -0.265033
   6 C :   -0.146316
   7 C :   -0.453318
   8 S :   -0.152693
   9 C :   -0.212612
  10 S :   -0.173361
  11 P :    0.671527
  12 S :   -0.433858
  13 O :   -0.255800
  14 C :   -0.134451
  15 C :   -0.442216
  16 O :   -0.276667
  17 C :   -0.175701
  18 C :   -0.447159
  19 H :    0.143832
  20 H :    0.184354
  21 H :    0.151022
  22 H :    0.148881
  23 H :    0.152884
  24 H :    0.181014
  25 H :    0.155629
  26 H :    0.146190
  27 H :    0.155652
  28 H :    0.166848
  29 H :    0.196353
  30 H :    0.220783
  31 H :    0.167273
  32 H :    0.153506
  33 H :    0.158828
  34 H :    0.149405
  35 H :    0.161837
  36 H :    0.149009
  37 H :    0.178809
  38 H :    0.155255
  39 H :    0.148724
  40 H :    0.165696
Sum of atomic charges:    0.0000000

LOEWDIN ATOMIC CHARGES
----------------------
   0 C :   -0.402987
   1 C :    0.018671
   2 O :   -0.667295
   3 P :    0.368095
   4 S :   -0.124109
   5 O :   -0.662990
   6 C :    0.013020
   7 C :   -0.401244
   8 S :    0.159636
   9 C :   -0.413185
  10 S :    0.124007
  11 P :    0.381536
  12 S :   -0.078453
  13 O :   -0.648941
  14 C :    0.020590
  15 C :   -0.400993
  16 O :   -0.667773
  17 C :    0.020800
  18 C :   -0.403380
  19 H :    0.157574
  20 H :    0.169156
  21 H :    0.157310
  22 H :    0.177504
  23 H :    0.175981
  24 H :    0.184471
  25 H :    0.183097
  26 H :    0.158756
  27 H :    0.160257
  28 H :    0.164664
  29 H :    0.180454
  30 H :    0.203673
  31 H :    0.178197
  32 H :    0.183603
  33 H :    0.162641
  34 H :    0.159582
  35 H :    0.164285
  36 H :    0.179170
  37 H :    0.183101
  38 H :    0.158087
  39 H :    0.160105
  40 H :    0.163329

  Mayer bond orders larger than 0.100000
B(  0-C ,  1-C ) :   0.9493 B(  0-C , 19-H ) :   0.9645 B(  0-C , 20-H ) :   0.9588
B(  0-C , 21-H ) :   0.9743 B(  1-C ,  2-O ) :   0.7845 B(  1-C , 22-H ) :   0.9646
B(  1-C , 23-H ) :   0.9651 B(  2-O ,  3-P ) :   1.0498 B(  3-P ,  4-S ) :   1.7692
B(  3-P ,  5-O ) :   1.1843 B(  3-P ,  8-S ) :   1.1210 B(  5-O ,  6-C ) :   0.8019
B(  6-C ,  7-C ) :   0.9103 B(  6-C , 24-H ) :   0.9631 B(  6-C , 25-H ) :   0.9620
B(  7-C , 26-H ) :   0.9616 B(  7-C , 27-H ) :   0.9728 B(  7-C , 28-H ) :   0.9609
B(  8-S ,  9-C ) :   0.8878 B(  9-C , 10-S ) :   0.9084 B(  9-C , 29-H ) :   0.9136
B(  9-C , 30-H ) :   0.9045 B( 10-S , 11-P ) :   0.9882 B( 11-P , 12-S ) :   1.8266
B( 11-P , 13-O ) :   1.1579 B( 11-P , 16-O ) :   1.0517 B( 13-O , 14-C ) :   0.8083
B( 14-C , 15-C ) :   0.9168 B( 14-C , 31-H ) :   0.9611 B( 14-C , 32-H ) :   0.9585
B( 15-C , 33-H ) :   0.9625 B( 15-C , 34-H ) :   0.9572 B( 15-C , 35-H ) :   0.9699
B( 16-O , 17-C ) :   0.7873 B( 17-C , 18-C ) :   0.9380 B( 17-C , 36-H ) :   0.9625
B( 17-C , 37-H ) :   0.9615 B( 18-C , 38-H ) :   0.9752 B( 18-C , 39-H ) :   0.9631
B( 18-C , 40-H ) :   0.9578

Dispersion correction           -0.022268681
FINAL SINGLE POINT ENERGY     -2932.457519036933

DIPOLE MOMENT
-------------

Method             : SCF
Type of density    : Electron Density
Multiplicity       :   1
Irrep              :   0
Energy             : -2932.4819173599862552 Eh
Relativity type    :
Basis              : AO
                                X                 Y                 Z
Electronic contribution:     -1.205375620      -2.940000383      -6.150806491
Nuclear contribution   :      0.853758805       2.183455171       7.262132011
                        -----------------------------------------
Total Dipole Moment    :     -0.351616815      -0.756545211       1.111325520
                        -----------------------------------------
Magnitude (a.u.)       :      1.389618456
Magnitude (Debye)      :      3.532129412

Rotational constants in cm-1:             0.014144             0.004962             0.004831
Rotational constants in MHz :           424.014938           148.770533           144.824599

                             ****ORCA TERMINATED NORMALLY****
TOTAL RUN TIME: 0 days 0 hours 1 minutes 25 seconds 327 msec
