                         Program Version 6.0.0  -   RELEASE  -
|  1> ! r2scan-3c def2/J RI DEFGRID2 scfconv6 printgap
|  2> %output
|  3>     printlevel normal
|  4> end
|  5> %cpcm
|  6>     smd true
|  7>     smdsolvent "water"
|  8> end
|  9> * xyz 0 1
| 10> C 5.4641370988 -0.1762867164 -0.8213889899
| 11> C 4.455257441 -0.9589968055 -0.0033127412
| 12> O 3.4456401302 -0.0844516741 0.5381773264
| 13> P 2.0377588854 0.1311340309 -0.171548163
| 14> S 2.0939572666 0.5916270927 -2.0796275277
| 15> O 1.3723410827 1.166634038 0.8212838374
| 16> C 1.4816862556 2.5904975628 0.6333512345
| 17> C 2.9057966126 3.07219756 0.8034682166
| 18> S 1.0612040397 -1.6649458771 0.3219050882
| 19> C -0.1512160668 -1.8083406828 -1.0387398006
| 20> S -1.8526763557 -1.8799585269 -0.4450177083
| 21> P -2.0377905798 0.1474988735 0.166452064
| 22> S -1.2974707457 1.4563683529 -1.090164022
| 23> O -1.3872228269 0.2736385778 1.5938549619
| 24> C -1.461914817 -0.6897325953 2.6766679883
| 25> C -2.8782194617 -1.1023195766 3.0100402962
| 26> O -3.5830883798 0.3472633957 0.4663429269
| 27> C -4.556261466 0.5838354435 -0.5662631195
| 28> C -5.1462315136 -0.7138586197 -1.082492816
| 29> H 6.2415436772 -0.8490232371 -1.1685557863
| 30> H 4.9777765372 0.2770371907 -1.6826053284
| 31> H 5.9102603963 0.6071791235 -0.2152088432
| 32> H 4.9204431791 -1.4179236386 0.8709586509
| 33> H 3.9766740933 -1.7328246387 -0.6104602409
| 34> H 1.0978367434 2.8391477418 -0.3621379113
| 35> H 0.8121226855 3.0029090133 1.3898668761
| 36> H 2.9264324229 4.1562809815 0.751863747
| 37> H 3.3002980103 2.7432726728 1.7613076478
| 38> H 3.5276842309 2.6666691527 0.0061502127
| 39> H 0.031393497 -2.7477313271 -1.5538421213
| 40> H -0.0221710177 -0.9558039346 -1.7119432913
| 41> H -0.8547964913 -1.5572092493 2.4015481362
| 42> H -0.9870725653 -0.1611760852 3.5046529481
| 43> H -3.3116157159 -1.6660629806 2.1865853932
| 44> H -2.8599039072 -1.7293807559 3.8962125647
| 45> H -3.492388441 -0.2261555893 3.2005137818
| 46> H -5.3170768299 1.1990749293 -0.0826338994
| 47> H -4.0840431843 1.1561703819 -1.3718762945
| 48> H -5.5588423271 -1.2895066711 -0.2589226991
| 49> H -5.9364155733 -0.4851240769 -1.7904196612
| 50> H -4.3855861703 -1.310173053 -1.5807660264
| 51> *
| 52>
| 53>                          ****END OF INPUT****

CARTESIAN COORDINATES (ANGSTROEM)
---------------------------------
  C      5.464137   -0.176287   -0.821389
  C      4.455257   -0.958997   -0.003313
  O      3.445640   -0.084452    0.538177
  P      2.037759    0.131134   -0.171548
  S      2.093957    0.591627   -2.079628
  O      1.372341    1.166634    0.821284
  C      1.481686    2.590498    0.633351
  C      2.905797    3.072198    0.803468
  S      1.061204   -1.664946    0.321905
  C     -0.151216   -1.808341   -1.038740
  S     -1.852676   -1.879959   -0.445018
  P     -2.037791    0.147499    0.166452
  S     -1.297471    1.456368   -1.090164
  O     -1.387223    0.273639    1.593855
  C     -1.461915   -0.689733    2.676668
  C     -2.878219   -1.102320    3.010040
  O     -3.583088    0.347263    0.466343
  C     -4.556261    0.583835   -0.566263
  C     -5.146232   -0.713859   -1.082493
  H      6.241544   -0.849023   -1.168556
  H      4.977777    0.277037   -1.682605
  H      5.910260    0.607179   -0.215209
  H      4.920443   -1.417924    0.870959
  H      3.976674   -1.732825   -0.610460
  H      1.097837    2.839148   -0.362138
  H      0.812123    3.002909    1.389867
  H      2.926432    4.156281    0.751864
  H      3.300298    2.743273    1.761308
  H      3.527684    2.666669    0.006150
  H      0.031393   -2.747731   -1.553842
  H     -0.022171   -0.955804   -1.711943
  H     -0.854796   -1.557209    2.401548
  H     -0.987073   -0.161176    3.504653
  H     -3.311616   -1.666063    2.186585
  H     -2.859904   -1.729381    3.896213
  H     -3.492388   -0.226156    3.200514
  H     -5.317077    1.199075   -0.082634
  H     -4.084043    1.156170   -1.371876
  H     -5.558842   -1.289507   -0.258923
  H     -5.936416   -0.485124   -1.790420
  H     -4.385586   -1.310173   -1.580766

 Total Charge           Charge          ....    0
 Multiplicity           Mult            ....    1
 Number of Electrons    NEL             ....  202
 Basis Dimension        Dim             ....  539

ORBITAL ENERGIES
----------------

  NO   OCC          E(Eh)            E(eV)
   0   2.0000     -88.581163     -2410.4160
   1   2.0000     -88.578815     -2410.3521
   2   2.0000     -88.524977     -2408.8871
   3   2.0000     -88.521512     -2408.7928
   4   2.0000     -76.918699     -2093.0642
   5   2.0000     -76.918037     -2093.0462
   6   2.0000     -18.994554      -516.8681
   7   2.0000     -18.994256      -516.8600
   8   2.0000     -18.992512      -516.8125
   9   2.0000     -18.990228      -516.7504
  10   2.0000     -10.105638      -274.9884
  11   2.0000     -10.091784      -274.6114
  12   2.0000     -10.089937      -274.5611
  13   2.0000     -10.089257      -274.5427
  14   2.0000     -10.086681      -274.4726
  15   2.0000     -10.019877      -272.6547
  16   2.0000     -10.018196      -272.6090
  17   2.0000     -10.017590      -272.5925
  18   2.0000     -10.016171      -272.5539
  19   2.0000      -7.875584      -214.3055
  20   2.0000      -7.873392      -214.2459
  21   2.0000      -7.820047      -212.7943
  22   2.0000      -7.816798      -212.7059
  23   2.0000      -6.597042      -179.5147
  24   2.0000      -6.596405      -179.4973
  25   2.0000      -5.822461      -158.4372
  26   2.0000      -5.820177      -158.3751
  27   2.0000      -5.819204      -158.3486
  28   2.0000      -5.817173      -158.2933
  29   2.0000      -5.812902      -158.1771
  30   2.0000      -5.810616      -158.1149
  31   2.0000      -5.767646      -156.9456
  32   2.0000      -5.764481      -156.8595
  33   2.0000      -5.760499      -156.7511
  34   2.0000      -5.759881      -156.7343
  35   2.0000      -5.757036      -156.6569
  36   2.0000      -5.756708      -156.6480
  37   2.0000      -4.742738      -129.0565
  38   2.0000      -4.742144      -129.0403
  39   2.0000      -4.741756      -129.0297
  40   2.0000      -4.741286      -129.0170
  41   2.0000      -4.740478      -128.9950
  42   2.0000      -4.740372      -128.9921
  43   2.0000      -1.052744       -28.6466
  44   2.0000      -1.050819       -28.5942
  45   2.0000      -1.012676       -27.5563
  46   2.0000      -1.010118       -27.4867
  47   2.0000      -0.802162       -21.8280
  48   2.0000      -0.755813       -20.5667
  49   2.0000      -0.744881       -20.2692
  50   2.0000      -0.726244       -19.7621
  51   2.0000      -0.722022       -19.6472
  52   2.0000      -0.711401       -19.3582
  53   2.0000      -0.688723       -18.7411
  54   2.0000      -0.669618       -18.2212
  55   2.0000      -0.630991       -17.1702
  56   2.0000      -0.622231       -16.9318
  57   2.0000      -0.603061       -16.4101
  58   2.0000      -0.595417       -16.2021
  59   2.0000      -0.590981       -16.0814
  60   2.0000      -0.523550       -14.2465
  61   2.0000      -0.514253       -13.9935
  62   2.0000      -0.490851       -13.3567
  63   2.0000      -0.488763       -13.2999
  64   2.0000      -0.469208       -12.7678
  65   2.0000      -0.464028       -12.6268
  66   2.0000      -0.454802       -12.3758
  67   2.0000      -0.452164       -12.3040
  68   2.0000      -0.444424       -12.0934
  69   2.0000      -0.427774       -11.6403
  70   2.0000      -0.421164       -11.4604
  71   2.0000      -0.414653       -11.2833
  72   2.0000      -0.407782       -11.0963
  73   2.0000      -0.402219       -10.9449
  74   2.0000      -0.396778       -10.7969
  75   2.0000      -0.385709       -10.4957
  76   2.0000      -0.378784       -10.3072
  77   2.0000      -0.372209       -10.1283
  78   2.0000      -0.364204        -9.9105
  79   2.0000      -0.360216        -9.8020
  80   2.0000      -0.353443        -9.6177
  81   2.0000      -0.352148        -9.5824
  82   2.0000      -0.351002        -9.5512
  83   2.0000      -0.343056        -9.3350
  84   2.0000      -0.341995        -9.3062
  85   2.0000      -0.326672        -8.8892
  86   2.0000      -0.324836        -8.8392
  87   2.0000      -0.307805        -8.3758
  88   2.0000      -0.304871        -8.2960
  89   2.0000      -0.300248        -8.1702
  90   2.0000      -0.296801        -8.0764
  91   2.0000      -0.289331        -7.8731
  92   2.0000      -0.283872        -7.7246
  93   2.0000      -0.279354        -7.6016
  94   2.0000      -0.276185        -7.5154
  95   2.0000      -0.254490        -6.9250
  96   2.0000      -0.241241        -6.5645
  97   2.0000      -0.235510        -6.4085
  98   2.0000      -0.225232        -6.1289
  99   2.0000      -0.214541        -5.8380
 100   2.0000      -0.207769        -5.6537
 101   0.0000      -0.046093        -1.2543
 102   0.0000      -0.036974        -1.0061
 103   0.0000      -0.012271        -0.3339
 104   0.0000       0.010286         0.2799
 105   0.0000       0.013720         0.3733

MULLIKEN ATOMIC CHARGES
-----------------------
   0 C :   -0.496181
   1 C :   -0.127099
   2 O :   -0.315854
   3 P :    0.671497
   4 S :   -0.508018
   5 O :   -0.295874
   6 C :   -0.144633
   7 C :   -0.495872
   8 S :   -0.149546
   9 C :   -0.212473
  10 S :   -0.166991
  11 P :    0.684084
  12 S :   -0.487570
  13 O :   -0.292941
  14 C :   -0.127981
  15 C :   -0.481124
  16 O :   -0.298809
  17 C :   -0.167542
  18 C :   -0.476557
  19 H :    0.169122
  20 H :    0.172894
  21 H :    0.166333
  22 H :    0.175795
  23 H :    0.164496
  24 H :    0.180276
  25 H :    0.177534
  26 H :    0.171614
  27 H :    0.170812
  28 H :    0.168638
  29 H :    0.238565
  30 H :    0.213193
  31 H :    0.174598
  32 H :    0.178578
  33 H :    0.165488
  34 H :    0.175706
  35 H :    0.171176
  36 H :    0.174500
  37 H :    0.175404
  38 H :    0.172088
  39 H :    0.171148
  40 H :    0.161524
Sum of atomic charges:    0.0000000

LOEWDIN ATOMIC CHARGES
----------------------
   0 C :   -0.406363
   1 C :    0.024159
   2 O :   -0.680604
   3 P :    0.371706
   4 S :   -0.157033
   5 O :   -0.683571
   6 C :    0.013568
   7 C :   -0.403263
   8 S :    0.164811
   9 C :   -0.407326
  10 S :    0.136769
  11 P :    0.382582
  12 S :   -0.118137
  13 O :   -0.672478
  14 C :    0.025812
  15 C :   -0.401744
  16 O :   -0.677121
  17 C :    0.025233
  18 C :   -0.404673
  19 H :    0.167028
  20 H :    0.162849
  21 H :    0.161834
  22 H :    0.189081
  23 H :    0.180072
  24 H :    0.183351
  25 H :    0.190670
  26 H :    0.168463
  27 H :    0.164345
  28 H :    0.163192
  29 H :    0.197359
  30 H :    0.200425
  31 H :    0.181467
  32 H :    0.193643
  33 H :    0.163087
  34 H :    0.170041
  35 H :    0.166064
  36 H :    0.189807
  37 H :    0.182020
  38 H :    0.163646
  39 H :    0.168501
  40 H :    0.160725

  Mayer bond orders larger than 0.100000
B(  0-C ,  1-C ) :   0.9408 B(  0-C , 19-H ) :   0.9593 B(  0-C , 20-H ) :   0.9631
B(  0-C , 21-H ) :   0.9710 B(  1-C ,  2-O ) :   0.7704 B(  1-C , 22-H ) :   0.9539
B(  1-C , 23-H ) :   0.9584 B(  2-O ,  3-P ) :   1.0573 B(  3-P ,  4-S ) :   1.7182
B(  3-P ,  5-O ) :   1.1795 B(  3-P ,  8-S ) :   1.1472 B(  5-O ,  6-C ) :   0.7868
B(  6-C ,  7-C ) :   0.9072 B(  6-C , 24-H ) :   0.9593 B(  6-C , 25-H ) :   0.9504
B(  7-C , 26-H ) :   0.9548 B(  7-C , 27-H ) :   0.9709 B(  7-C , 28-H ) :   0.9601
B(  8-S ,  9-C ) :   0.8822 B(  9-C , 10-S ) :   0.9028 B(  9-C , 29-H ) :   0.8972
B(  9-C , 30-H ) :   0.9091 B( 10-S , 11-P ) :   1.0129 B( 11-P , 12-S ) :   1.8000
B( 11-P , 13-O ) :   1.1545 B( 11-P , 16-O ) :   1.0602 B( 13-O , 14-C ) :   0.7968
B( 14-C , 15-C ) :   0.9117 B( 14-C , 31-H ) :   0.9533 B( 14-C , 32-H ) :   0.9465
B( 15-C , 33-H ) :   0.9598 B( 15-C , 34-H ) :   0.9504 B( 15-C , 35-H ) :   0.9690
B( 16-O , 17-C ) :   0.7776 B( 17-C , 18-C ) :   0.9363 B( 17-C , 36-H ) :   0.9525
B( 17-C , 37-H ) :   0.9586 B( 18-C , 38-H ) :   0.9715 B( 18-C , 39-H ) :   0.9581
B( 18-C , 40-H ) :   0.9571

Dispersion correction           -0.022268681
FINAL SINGLE POINT ENERGY     -2932.466783893877

DIPOLE MOMENT
-------------

Method             : SCF
Type of density    : Electron Density
Multiplicity       :   1
Irrep              :   0
Energy             : -2932.4911822169301558 Eh
Relativity type    :
Basis              : AO
                                X                 Y                 Z
Electronic contribution:     -1.322305932      -3.523254793      -5.797000321
Nuclear contribution   :      0.853758805       2.183455171       7.262132011
                        -----------------------------------------
Total Dipole Moment    :     -0.468547127      -1.339799622       1.465131690
                        -----------------------------------------
Magnitude (a.u.)       :      2.039904484
Magnitude (Debye)      :      5.185025139

Rotational constants in cm-1:             0.014144             0.004962             0.004831
Rotational constants in MHz :           424.014938           148.770533           144.824599

                             ****ORCA TERMINATED NORMALLY****
TOTAL RUN TIME: 0 days 0 hours 1 minutes 56 seconds 950 msec
