                         Program Version 6.0.0  -   RELEASE  -
|  1> ! pbe def2-sv(p) def2/J RI DEFGRID1 loosescf d4 GCP(DFT/SV(P)) printgap
|  2> %output
|  3>     printlevel normal
|  4> end
|  5> * xyz 0 1
|  6> C 4.4449573495 -1.8391826647 0.8965872803
|  7> C 4.4884033162 -0.3364166218 0.7083850551
|  8> O 3.1879941829 0.2645776661 0.8449319478
|  9> P 2.0287947699 0.0442655022 -0.2196272152
| 10> S 2.6314404864 -0.0192127764 -2.0886019231
| 11> O 1.023741072 1.216363903 0.1654943047
| 12> C 1.0927102385 2.5083834563 -0.4650993363
| 13> C 2.3549466562 3.2544133221 -0.0910434604
| 14> S 1.0010223876 -1.6048782096 0.5707253452
| 15> C -0.1466233275 -1.9488528984 -0.8029542268
| 16> S -0.8719538341 -0.4652229143 -1.5616839975
| 17> P -2.0672078944 0.3341513042 0.0150510557
| 18> S -2.6178781386 2.1607139514 -0.4158725705
| 19> O -1.312612251 0.1778950345 1.3838501497
| 20> C -1.6282599706 -0.7510764582 2.4591091267
| 21> C -0.7786296623 -0.3464069704 3.6444541241
| 22> O -3.2522598648 -0.7205384644 0.1770344115
| 23> C -4.2933002328 -0.8011001374 -0.8156718915
| 24> C -5.3989610734 -1.6737758054 -0.2577263174
| 25> H 5.4583487501 -2.2273656854 0.9095809008
| 26> H 3.9491593204 -2.0896574662 1.830969745
| 27> H 3.900701022 -2.3015393165 0.0742871794
| 28> H 4.8827036314 -0.0847147275 -0.2814424035
| 29> H 5.0836692061 0.1512546987 1.4814181038
| 30> H 1.027402477 2.3676665539 -1.5501616226
| 31> H 0.1941572265 3.0220130155 -0.1163909978
| 32> H 2.4533403814 3.3031880905 0.9902933711
| 33> H 3.2237427974 2.743410453 -0.5049630654
| 34> H 2.3084495168 4.2596651089 -0.4979342228
| 35> H -0.925395955 -2.5974067581 -0.4088520027
| 36> H 0.3959275208 -2.4369477875 -1.6110384953
| 37> H -2.694246748 -0.6769749715 2.6776798463
| 38> H -1.3854015668 -1.762924857 2.1302810785
| 39> H -0.9827536207 -1.0172360178 4.4725914239
| 40> H 0.274159591 -0.4083463241 3.3815303825
| 41> H -1.0062530711 0.6740284342 3.9395322718
| 42> H -4.6463283659 0.2127668374 -1.0307826739
| 43> H -3.8671135292 -1.2253119868 -1.7296388859
| 44> H -5.8068660249 -1.2286085656 0.6451351645
| 45> H -6.1865880384 -1.7631097566 -0.9984746608
| 46> H -5.0132285527 -2.6612770225 -0.0223637651
| 47> *
| 48>
| 49>                          ****END OF INPUT****

CARTESIAN COORDINATES (ANGSTROEM)
---------------------------------
  C      4.444957   -1.839183    0.896587
  C      4.488403   -0.336417    0.708385
  O      3.187994    0.264578    0.844932
  P      2.028795    0.044266   -0.219627
  S      2.631440   -0.019213   -2.088602
  O      1.023741    1.216364    0.165494
  C      1.092710    2.508383   -0.465099
  C      2.354947    3.254413   -0.091043
  S      1.001022   -1.604878    0.570725
  C     -0.146623   -1.948853   -0.802954
  S     -0.871954   -0.465223   -1.561684
  P     -2.067208    0.334151    0.015051
  S     -2.617878    2.160714   -0.415873
  O     -1.312612    0.177895    1.383850
  C     -1.628260   -0.751076    2.459109
  C     -0.778630   -0.346407    3.644454
  O     -3.252260   -0.720538    0.177034
  C     -4.293300   -0.801100   -0.815672
  C     -5.398961   -1.673776   -0.257726
  H      5.458349   -2.227366    0.909581
  H      3.949159   -2.089657    1.830970
  H      3.900701   -2.301539    0.074287
  H      4.882704   -0.084715   -0.281442
  H      5.083669    0.151255    1.481418
  H      1.027402    2.367667   -1.550162
  H      0.194157    3.022013   -0.116391
  H      2.453340    3.303188    0.990293
  H      3.223743    2.743410   -0.504963
  H      2.308450    4.259665   -0.497934
  H     -0.925396   -2.597407   -0.408852
  H      0.395928   -2.436948   -1.611038
  H     -2.694247   -0.676975    2.677680
  H     -1.385402   -1.762925    2.130281
  H     -0.982754   -1.017236    4.472591
  H      0.274160   -0.408346    3.381530
  H     -1.006253    0.674028    3.939532
  H     -4.646328    0.212767   -1.030783
  H     -3.867114   -1.225312   -1.729639
  H     -5.806866   -1.228609    0.645135
  H     -6.186588   -1.763110   -0.998475
  H     -5.013229   -2.661277   -0.022364

 Total Charge           Charge          ....    0
 Multiplicity           Mult            ....    1
 Number of Electrons    NEL             ....  202
 Basis Dimension        Dim             ....  334

ORBITAL ENERGIES
----------------

  NO   OCC          E(Eh)            E(eV)
   0   2.0000     -88.045363     -2395.8361
   1   2.0000     -88.041959     -2395.7435
   2   2.0000     -87.985177     -2394.1984
   3   2.0000     -87.982175     -2394.1167
   4   2.0000     -76.426386     -2079.6677
   5   2.0000     -76.425820     -2079.6523
   6   2.0000     -18.796181      -511.4701
   7   2.0000     -18.793742      -511.4037
   8   2.0000     -18.790908      -511.3266
   9   2.0000     -18.781021      -511.0576
  10   2.0000      -9.963504      -271.1207
  11   2.0000      -9.959307      -271.0065
  12   2.0000      -9.954050      -270.8635
  13   2.0000      -9.952547      -270.8226
  14   2.0000      -9.934390      -270.3285
  15   2.0000      -9.892052      -269.1764
  16   2.0000      -9.886581      -269.0275
  17   2.0000      -9.885442      -268.9966
  18   2.0000      -9.873442      -268.6700
  19   2.0000      -7.690447      -209.2677
  20   2.0000      -7.686210      -209.1524
  21   2.0000      -7.630137      -207.6266
  22   2.0000      -7.627448      -207.5534
  23   2.0000      -6.423363      -174.7886
  24   2.0000      -6.422889      -174.7757
  25   2.0000      -5.718463      -155.6073
  26   2.0000      -5.714949      -155.5117
  27   2.0000      -5.714531      -155.5003
  28   2.0000      -5.710481      -155.3901
  29   2.0000      -5.707177      -155.3002
  30   2.0000      -5.703101      -155.1893
  31   2.0000      -5.659029      -153.9900
  32   2.0000      -5.656397      -153.9184
  33   2.0000      -5.650850      -153.7674
  34   2.0000      -5.650299      -153.7525
  35   2.0000      -5.648032      -153.6908
  36   2.0000      -5.647600      -153.6790
  37   2.0000      -4.646565      -126.4395
  38   2.0000      -4.645268      -126.4042
  39   2.0000      -4.645152      -126.4010
  40   2.0000      -4.644674      -126.3880
  41   2.0000      -4.643604      -126.3589
  42   2.0000      -4.643331      -126.3515
  43   2.0000      -0.989736       -26.9321
  44   2.0000      -0.983045       -26.7500
  45   2.0000      -0.944632       -25.7047
  46   2.0000      -0.940145       -25.5826
  47   2.0000      -0.764688       -20.8082
  48   2.0000      -0.724451       -19.7133
  49   2.0000      -0.707621       -19.2554
  50   2.0000      -0.694523       -18.8989
  51   2.0000      -0.682805       -18.5801
  52   2.0000      -0.670541       -18.2463
  53   2.0000      -0.650821       -17.7097
  54   2.0000      -0.636512       -17.3204
  55   2.0000      -0.597709       -16.2645
  56   2.0000      -0.583670       -15.8825
  57   2.0000      -0.575151       -15.6507
  58   2.0000      -0.569118       -15.4865
  59   2.0000      -0.563381       -15.3304
  60   2.0000      -0.514411       -13.9978
  61   2.0000      -0.488947       -13.3049
  62   2.0000      -0.486078       -13.2269
  63   2.0000      -0.469576       -12.7778
  64   2.0000      -0.460089       -12.5196
  65   2.0000      -0.441515       -12.0142
  66   2.0000      -0.438253       -11.9255
  67   2.0000      -0.436228       -11.8704
  68   2.0000      -0.427554       -11.6343
  69   2.0000      -0.417950       -11.3730
  70   2.0000      -0.411910       -11.2086
  71   2.0000      -0.389389       -10.5958
  72   2.0000      -0.386154       -10.5078
  73   2.0000      -0.385606       -10.4929
  74   2.0000      -0.378704       -10.3051
  75   2.0000      -0.376835       -10.2542
  76   2.0000      -0.368012       -10.0141
  77   2.0000      -0.363732        -9.8976
  78   2.0000      -0.355070        -9.6620
  79   2.0000      -0.353745        -9.6259
  80   2.0000      -0.347550        -9.4573
  81   2.0000      -0.344424        -9.3723
  82   2.0000      -0.339753        -9.2452
  83   2.0000      -0.336391        -9.1537
  84   2.0000      -0.329796        -8.9742
  85   2.0000      -0.321226        -8.7410
  86   2.0000      -0.311797        -8.4844
  87   2.0000      -0.302610        -8.2344
  88   2.0000      -0.297712        -8.1012
  89   2.0000      -0.294388        -8.0107
  90   2.0000      -0.279928        -7.6172
  91   2.0000      -0.271742        -7.3945
  92   2.0000      -0.268248        -7.2994
  93   2.0000      -0.262173        -7.1341
  94   2.0000      -0.254884        -6.9358
  95   2.0000      -0.230890        -6.2828
  96   2.0000      -0.223544        -6.0829
  97   2.0000      -0.204325        -5.5600
  98   2.0000      -0.201056        -5.4710
  99   2.0000      -0.200386        -5.4528
 100   2.0000      -0.194048        -5.2803
 101   0.0000      -0.048941        -1.3318
 102   0.0000      -0.024038        -0.6541
 103   0.0000      -0.007674        -0.2088
 104   0.0000      -0.000455        -0.0124
 105   0.0000       0.007400         0.2014

MULLIKEN ATOMIC CHARGES
-----------------------
   0 C :   -0.315223
   1 C :   -0.004732
   2 O :   -0.370481
   3 P :    0.617298
   4 S :   -0.328794
   5 O :   -0.359843
   6 C :   -0.013632
   7 C :   -0.303069
   8 S :   -0.106459
   9 C :   -0.332090
  10 S :   -0.086937
  11 P :    0.637303
  12 S :   -0.320122
  13 O :   -0.362454
  14 C :   -0.000247
  15 C :   -0.278419
  16 O :   -0.396521
  17 C :   -0.011689
  18 C :   -0.278639
  19 H :    0.113662
  20 H :    0.115837
  21 H :    0.125928
  22 H :    0.112212
  23 H :    0.105871
  24 H :    0.111176
  25 H :    0.117216
  26 H :    0.112931
  27 H :    0.115330
  28 H :    0.110620
  29 H :    0.174095
  30 H :    0.191004
  31 H :    0.110322
  32 H :    0.094733
  33 H :    0.107027
  34 H :    0.122131
  35 H :    0.121613
  36 H :    0.109579
  37 H :    0.099478
  38 H :    0.118623
  39 H :    0.114304
  40 H :    0.111054
Sum of atomic charges:   -0.0000000

LOEWDIN ATOMIC CHARGES
----------------------
   0 C :   -0.369895
   1 C :   -0.119952
   2 O :   -0.242804
   3 P :    0.569255
   4 S :   -0.327536
   5 O :   -0.235127
   6 C :   -0.125896
   7 C :   -0.365197
   8 S :    0.094682
   9 C :   -0.474063
  10 S :    0.094014
  11 P :    0.569134
  12 S :   -0.314162
  13 O :   -0.233991
  14 C :   -0.108568
  15 C :   -0.350158
  16 O :   -0.257154
  17 C :   -0.123765
  18 C :   -0.350396
  19 H :    0.131364
  20 H :    0.122915
  21 H :    0.121053
  22 H :    0.110853
  23 H :    0.118962
  24 H :    0.110243
  25 H :    0.115162
  26 H :    0.124421
  27 H :    0.118179
  28 H :    0.129843
  29 H :    0.129019
  30 H :    0.138411
  31 H :    0.113921
  32 H :    0.101417
  33 H :    0.128512
  34 H :    0.126089
  35 H :    0.130542
  36 H :    0.110618
  37 H :    0.106401
  38 H :    0.127571
  39 H :    0.132077
  40 H :    0.124006

  Mayer bond orders larger than 0.100000
B(  0-C ,  1-C ) :   1.1671 B(  0-C , 19-H ) :   0.9377 B(  0-C , 20-H ) :   0.9445
B(  0-C , 21-H ) :   0.9355 B(  1-C ,  2-O ) :   0.9073 B(  1-C , 22-H ) :   0.9143
B(  1-C , 23-H ) :   0.9337 B(  2-O ,  3-P ) :   1.1057 B(  3-P ,  4-S ) :   1.5998
B(  3-P ,  5-O ) :   1.1259 B(  3-P ,  8-S ) :   0.9584 B(  4-S ,  8-S ) :   0.1081
B(  5-O ,  6-C ) :   0.8955 B(  6-C ,  7-C ) :   1.1603 B(  6-C , 24-H ) :   0.9191
B(  6-C , 25-H ) :   0.9180 B(  7-C , 26-H ) :   0.9459 B(  7-C , 27-H ) :   0.9368
B(  7-C , 28-H ) :   0.9401 B(  8-S ,  9-C ) :   0.9822 B(  9-C , 10-S ) :   0.9917
B(  9-C , 29-H ) :   0.9090 B(  9-C , 30-H ) :   0.9024 B( 10-S , 11-P ) :   0.9425
B( 11-P , 12-S ) :   1.6808 B( 11-P , 13-O ) :   1.1450 B( 11-P , 16-O ) :   1.0466
B( 13-O , 14-C ) :   0.8744 B( 14-C , 15-C ) :   1.1659 B( 14-C , 31-H ) :   0.9279
B( 14-C , 32-H ) :   0.9208 B( 15-C , 33-H ) :   0.9403 B( 15-C , 34-H ) :   0.9460
B( 15-C , 35-H ) :   0.9485 B( 16-O , 17-C ) :   0.9069 B( 17-C , 18-C ) :   1.1573
B( 17-C , 36-H ) :   0.9119 B( 17-C , 37-H ) :   0.9232 B( 18-C , 38-H ) :   0.9514
B( 18-C , 39-H ) :   0.9421 B( 18-C , 40-H ) :   0.9515

Dispersion correction           -0.067251524
FINAL SINGLE POINT ENERGY     -2929.516188230967

DIPOLE MOMENT
-------------

Method             : SCF
Type of density    : Electron Density
Multiplicity       :   1
Irrep              :   0
Energy             : -2929.6343481387352767 Eh
Relativity type    :
Basis              : AO
                                X                 Y                 Z
Electronic contribution:     -0.820367655       4.315015802     -12.143674512
Nuclear contribution   :      0.623128731      -5.718362744      13.251240945
                        -----------------------------------------
Total Dipole Moment    :     -0.197238923      -1.403346942       1.107566433
                        -----------------------------------------
Magnitude (a.u.)       :      1.798607583
Magnitude (Debye)      :      4.571697156

Rotational constants in cm-1:             0.012616             0.005329             0.005034
Rotational constants in MHz :           378.226120           159.762092           150.901172

                             ****ORCA TERMINATED NORMALLY****
TOTAL RUN TIME: 0 days 0 hours 0 minutes 21 seconds 332 msec
