                         Program Version 6.0.0  -   RELEASE  -
|  1> ! pbe def2-sv(p) def2/J RI DEFGRID1 loosescf d4 GCP(DFT/SV(P)) printgap
|  2> %output
|  3>     printlevel normal
|  4> end
|  5> * xyz 0 1
|  6> C 2.6582314882 -0.3019792376 -2.9656176037
|  7> C 3.4607415105 -0.5051837738 -1.6957880442
|  8> O 2.6178279676 -0.987228291 -0.6244326165
|  9> P 1.9910853181 -0.0207895544 0.46138417
| 10> S 1.2581810839 1.7065248243 -0.154065463
| 11> O 3.2369027408 0.2004388324 1.4290924376
| 12> C 3.2730636125 1.2052221086 2.4541691689
| 13> C 2.5529155697 0.7400726233 3.7035685131
| 14> S 0.8143434469 -1.4086536657 1.5151967162
| 15> C -0.1874717342 -2.1679938982 0.1839208657
| 16> S -0.4278761418 -1.1382994505 -1.2847407267
| 17> P -1.9524288971 0.1480891285 -0.6139617489
| 18> S -2.365465826 1.7052756494 -1.7262540017
| 19> O -1.4777403931 0.4086404664 0.8738952907
| 20> C -2.2108638274 1.326011476 1.7183933889
| 21> C -1.3308297541 1.6693209021 2.9010100251
| 22> O -3.218306483 -0.7933543455 -0.3371520196
| 23> C -4.2205748554 -1.035053265 -1.3356845988
| 24> C -3.6950505119 -1.8969962499 -2.4660290058
| 25> H 2.1324674857 -1.215951357 -3.2278812281
| 26> H 1.9242055083 0.4898642683 -2.8276828847
| 27> H 3.3287051738 -0.0231319339 -3.7721066587
| 28> H 3.9441070162 0.4242818492 -1.3829583964
| 29> H 4.2118643294 -1.2868246173 -1.8198199308
| 30> H 4.3365861977 1.3648802825 2.6382089645
| 31> H 2.8260399205 2.1236750963 2.0570273089
| 32> H 2.6389839066 1.4994708593 4.4739064704
| 33> H 1.4999862737 0.571714591 3.4836243487
| 34> H 2.985481641 -0.19060581 4.060022617
| 35> H -1.1512096352 -2.4149822346 0.6245038956
| 36> H 0.3313908291 -3.0570211083 -0.1670141282
| 37> H -2.4577128155 2.2158559166 1.1289426517
| 38> H -3.1340663996 0.8313114645 2.0297568746
| 39> H -0.4166258179 2.1436659617 2.5514675172
| 40> H -1.8611921249 2.3548568537 3.5534844049
| 41> H -1.0782385416 0.7656908412 3.4494836822
| 42> H -5.0258773319 -1.5279824356 -0.7893950179
| 43> H -4.5640534781 -0.0689240533 -1.7190938423
| 44> H -2.905081826 -1.3655563629 -2.9967679536
| 45> H -3.2933713741 -2.8303239235 -2.0804825173
| 46> H -4.501988637 -2.1106593501 -3.1593882803
| 47> *
| 48>
| 49>                          ****END OF INPUT****

CARTESIAN COORDINATES (ANGSTROEM)
---------------------------------
  C      2.658231   -0.301979   -2.965618
  C      3.460742   -0.505184   -1.695788
  O      2.617828   -0.987228   -0.624433
  P      1.991085   -0.020790    0.461384
  S      1.258181    1.706525   -0.154065
  O      3.236903    0.200439    1.429092
  C      3.273064    1.205222    2.454169
  C      2.552916    0.740073    3.703569
  S      0.814343   -1.408654    1.515197
  C     -0.187472   -2.167994    0.183921
  S     -0.427876   -1.138299   -1.284741
  P     -1.952429    0.148089   -0.613962
  S     -2.365466    1.705276   -1.726254
  O     -1.477740    0.408640    0.873895
  C     -2.210864    1.326011    1.718393
  C     -1.330830    1.669321    2.901010
  O     -3.218306   -0.793354   -0.337152
  C     -4.220575   -1.035053   -1.335685
  C     -3.695051   -1.896996   -2.466029
  H      2.132467   -1.215951   -3.227881
  H      1.924206    0.489864   -2.827683
  H      3.328705   -0.023132   -3.772107
  H      3.944107    0.424282   -1.382958
  H      4.211864   -1.286825   -1.819820
  H      4.336586    1.364880    2.638209
  H      2.826040    2.123675    2.057027
  H      2.638984    1.499471    4.473906
  H      1.499986    0.571715    3.483624
  H      2.985482   -0.190606    4.060023
  H     -1.151210   -2.414982    0.624504
  H      0.331391   -3.057021   -0.167014
  H     -2.457713    2.215856    1.128943
  H     -3.134066    0.831311    2.029757
  H     -0.416626    2.143666    2.551468
  H     -1.861192    2.354857    3.553484
  H     -1.078239    0.765691    3.449484
  H     -5.025877   -1.527982   -0.789395
  H     -4.564053   -0.068924   -1.719094
  H     -2.905082   -1.365556   -2.996768
  H     -3.293371   -2.830324   -2.080483
  H     -4.501989   -2.110659   -3.159388

 Total Charge           Charge          ....    0
 Multiplicity           Mult            ....    1
 Number of Electrons    NEL             ....  202
 Basis Dimension        Dim             ....  334

ORBITAL ENERGIES
----------------

  NO   OCC          E(Eh)            E(eV)
   0   2.0000     -88.046860     -2395.8769
   1   2.0000     -88.038345     -2395.6452
   2   2.0000     -87.982544     -2394.1267
   3   2.0000     -87.977966     -2394.0022
   4   2.0000     -76.423243     -2079.5822
   5   2.0000     -76.421859     -2079.5445
   6   2.0000     -18.787720      -511.2399
   7   2.0000     -18.787551      -511.2352
   8   2.0000     -18.787372      -511.2304
   9   2.0000     -18.784387      -511.1491
  10   2.0000      -9.962712      -271.0992
  11   2.0000      -9.950778      -270.7744
  12   2.0000      -9.948166      -270.7034
  13   2.0000      -9.947943      -270.6973
  14   2.0000      -9.946759      -270.6651
  15   2.0000      -9.884817      -268.9795
  16   2.0000      -9.882740      -268.9230
  17   2.0000      -9.879321      -268.8300
  18   2.0000      -9.876028      -268.7404
  19   2.0000      -7.691439      -209.2947
  20   2.0000      -7.683708      -209.0843
  21   2.0000      -7.627719      -207.5608
  22   2.0000      -7.622592      -207.4213
  23   2.0000      -6.420355      -174.7068
  24   2.0000      -6.419549      -174.6848
  25   2.0000      -5.719796      -155.6436
  26   2.0000      -5.715694      -155.5319
  27   2.0000      -5.711957      -155.4302
  28   2.0000      -5.708291      -155.3305
  29   2.0000      -5.708132      -155.3262
  30   2.0000      -5.700138      -155.1086
  31   2.0000      -5.656678      -153.9260
  32   2.0000      -5.651586      -153.7875
  33   2.0000      -5.648549      -153.7048
  34   2.0000      -5.647642      -153.6801
  35   2.0000      -5.643200      -153.5593
  36   2.0000      -5.642739      -153.5467
  37   2.0000      -4.643117      -126.3456
  38   2.0000      -4.642167      -126.3198
  39   2.0000      -4.641953      -126.3140
  40   2.0000      -4.641501      -126.3017
  41   2.0000      -4.640673      -126.2791
  42   2.0000      -4.639971      -126.2600
  43   2.0000      -0.983068       -26.7507
  44   2.0000      -0.982139       -26.7254
  45   2.0000      -0.941355       -25.6156
  46   2.0000      -0.938909       -25.5490
  47   2.0000      -0.764554       -20.8046
  48   2.0000      -0.718676       -19.5562
  49   2.0000      -0.705563       -19.1993
  50   2.0000      -0.684255       -18.6195
  51   2.0000      -0.682641       -18.5756
  52   2.0000      -0.671199       -18.2642
  53   2.0000      -0.650393       -17.6981
  54   2.0000      -0.633951       -17.2507
  55   2.0000      -0.594500       -16.1772
  56   2.0000      -0.586321       -15.9546
  57   2.0000      -0.572290       -15.5728
  58   2.0000      -0.569267       -15.4905
  59   2.0000      -0.558410       -15.1951
  60   2.0000      -0.500880       -13.6296
  61   2.0000      -0.498156       -13.5555
  62   2.0000      -0.469343       -12.7715
  63   2.0000      -0.468151       -12.7390
  64   2.0000      -0.458178       -12.4677
  65   2.0000      -0.440915       -11.9979
  66   2.0000      -0.434706       -11.8290
  67   2.0000      -0.434338       -11.8190
  68   2.0000      -0.424249       -11.5444
  69   2.0000      -0.415687       -11.3114
  70   2.0000      -0.410890       -11.1809
  71   2.0000      -0.397043       -10.8041
  72   2.0000      -0.390605       -10.6289
  73   2.0000      -0.386208       -10.5093
  74   2.0000      -0.376674       -10.2498
  75   2.0000      -0.370953       -10.0942
  76   2.0000      -0.367473        -9.9995
  77   2.0000      -0.354786        -9.6542
  78   2.0000      -0.352054        -9.5799
  79   2.0000      -0.349988        -9.5237
  80   2.0000      -0.347287        -9.4502
  81   2.0000      -0.340398        -9.2627
  82   2.0000      -0.336453        -9.1554
  83   2.0000      -0.332711        -9.0535
  84   2.0000      -0.326768        -8.8918
  85   2.0000      -0.318738        -8.6733
  86   2.0000      -0.305339        -8.3087
  87   2.0000      -0.296807        -8.0765
  88   2.0000      -0.292902        -7.9703
  89   2.0000      -0.288433        -7.8487
  90   2.0000      -0.282729        -7.6935
  91   2.0000      -0.273150        -7.4328
  92   2.0000      -0.267901        -7.2900
  93   2.0000      -0.260640        -7.0924
  94   2.0000      -0.258870        -7.0442
  95   2.0000      -0.229241        -6.2380
  96   2.0000      -0.219217        -5.9652
  97   2.0000      -0.205922        -5.6034
  98   2.0000      -0.197352        -5.3702
  99   2.0000      -0.190843        -5.1931
 100   2.0000      -0.185185        -5.0391
 101   0.0000      -0.051932        -1.4132
 102   0.0000      -0.026125        -0.7109
 103   0.0000      -0.017033        -0.4635
 104   0.0000      -0.003686        -0.1003
 105   0.0000       0.021038         0.5725

MULLIKEN ATOMIC CHARGES
-----------------------
   0 C :   -0.294181
   1 C :   -0.001061
   2 O :   -0.377509
   3 P :    0.616124
   4 S :   -0.311292
   5 O :   -0.371712
   6 C :   -0.007548
   7 C :   -0.330639
   8 S :   -0.108845
   9 C :   -0.310646
  10 S :   -0.080498
  11 P :    0.630021
  12 S :   -0.310392
  13 O :   -0.371625
  14 C :   -0.005851
  15 C :   -0.296650
  16 O :   -0.388335
  17 C :   -0.005023
  18 C :   -0.307984
  19 H :    0.110299
  20 H :    0.137746
  21 H :    0.106769
  22 H :    0.103541
  23 H :    0.105034
  24 H :    0.103209
  25 H :    0.108211
  26 H :    0.112544
  27 H :    0.140195
  28 H :    0.117752
  29 H :    0.182117
  30 H :    0.186656
  31 H :    0.107404
  32 H :    0.097859
  33 H :    0.130436
  34 H :    0.104867
  35 H :    0.124347
  36 H :    0.100422
  37 H :    0.109821
  38 H :    0.123647
  39 H :    0.109067
  40 H :    0.111701
Sum of atomic charges:    0.0000000

LOEWDIN ATOMIC CHARGES
----------------------
   0 C :   -0.363725
   1 C :   -0.109931
   2 O :   -0.249781
   3 P :    0.561121
   4 S :   -0.307062
   5 O :   -0.246801
   6 C :   -0.123595
   7 C :   -0.367505
   8 S :    0.078384
   9 C :   -0.465905
  10 S :    0.121265
  11 P :    0.569678
  12 S :   -0.308982
  13 O :   -0.241914
  14 C :   -0.113216
  15 C :   -0.356424
  16 O :   -0.257151
  17 C :   -0.123819
  18 C :   -0.367104
  19 H :    0.120860
  20 H :    0.127795
  21 H :    0.127719
  22 H :    0.111136
  23 H :    0.118128
  24 H :    0.117752
  25 H :    0.105362
  26 H :    0.131020
  27 H :    0.121473
  28 H :    0.126399
  29 H :    0.133637
  30 H :    0.138095
  31 H :    0.110909
  32 H :    0.109456
  33 H :    0.126000
  34 H :    0.127944
  35 H :    0.123043
  36 H :    0.115914
  37 H :    0.108738
  38 H :    0.119923
  39 H :    0.121140
  40 H :    0.130022

  Mayer bond orders larger than 0.100000
B(  0-C ,  1-C ) :   1.1727 B(  0-C , 19-H ) :   0.9442 B(  0-C , 20-H ) :   0.9334
B(  0-C , 21-H ) :   0.9397 B(  1-C ,  2-O ) :   0.8946 B(  1-C , 22-H ) :   0.9164
B(  1-C , 23-H ) :   0.9347 B(  2-O ,  3-P ) :   1.1109 B(  3-P ,  4-S ) :   1.6037
B(  3-P ,  5-O ) :   1.0957 B(  3-P ,  8-S ) :   0.9794 B(  4-S ,  8-S ) :   0.1178
B(  5-O ,  6-C ) :   0.9152 B(  6-C ,  7-C ) :   1.1633 B(  6-C , 24-H ) :   0.9324
B(  6-C , 25-H ) :   0.9044 B(  7-C , 26-H ) :   0.9399 B(  7-C , 27-H ) :   0.9279
B(  7-C , 28-H ) :   0.9453 B(  8-S ,  9-C ) :   0.9691 B(  9-C , 10-S ) :   1.0102
B(  9-C , 29-H ) :   0.9036 B(  9-C , 30-H ) :   0.9085 B( 10-S , 11-P ) :   0.9575
B( 11-P , 12-S ) :   1.6614 B( 11-P , 13-O ) :   1.1189 B( 11-P , 16-O ) :   1.0548
B( 13-O , 14-C ) :   0.8952 B( 14-C , 15-C ) :   1.1632 B( 14-C , 31-H ) :   0.9124
B( 14-C , 32-H ) :   0.9310 B( 15-C , 33-H ) :   0.9369 B( 15-C , 34-H ) :   0.9368
B( 15-C , 35-H ) :   0.9401 B( 16-O , 17-C ) :   0.9195 B( 17-C , 18-C ) :   1.1630
B( 17-C , 36-H ) :   0.9338 B( 17-C , 37-H ) :   0.9115 B( 18-C , 38-H ) :   0.9361
B( 18-C , 39-H ) :   0.9467 B( 18-C , 40-H ) :   0.9390

Dispersion correction           -0.068650612
FINAL SINGLE POINT ENERGY     -2929.513205032619

DIPOLE MOMENT
-------------

Method             : SCF
Type of density    : Electron Density
Multiplicity       :   1
Irrep              :   0
Energy             : -2929.6292132434086852 Eh
Relativity type    :
Basis              : AO
                                X                 Y                 Z
Electronic contribution:      0.268545544       0.280516469      -5.200350170
Nuclear contribution   :     -0.211917715      -1.382032431       5.934155504
                        -----------------------------------------
Total Dipole Moment    :      0.056627829      -1.101515961       0.733805334
                        -----------------------------------------
Magnitude (a.u.)       :      1.324769562
Magnitude (Debye)      :      3.367296623

Rotational constants in cm-1:             0.011526             0.006113             0.005235
Rotational constants in MHz :           345.535688           183.260540           156.927004

                             ****ORCA TERMINATED NORMALLY****
TOTAL RUN TIME: 0 days 0 hours 0 minutes 21 seconds 816 msec
