                         Program Version 6.0.0  -   RELEASE  -
|  1> ! pbe def2-sv(p) def2/J RI DEFGRID1 loosescf d4 GCP(DFT/SV(P)) printgap
|  2> %output
|  3>     printlevel normal
|  4> end
|  5> * xyz 0 1
|  6> C 1.1974750666 -2.2647689581 1.8534942073
|  7> C 2.1322724897 -2.4191064795 0.6701148934
|  8> O 3.0446949402 -1.3066017743 0.5999750236
|  9> P 2.8741966557 -0.1080117636 -0.4328998617
| 10> S 2.6787668518 -0.6527177356 -2.3062218681
| 11> O 4.1957164274 0.7095435078 -0.1938226274
| 12> C 4.8595940101 0.8776879 1.0851857465
| 13> C 3.983452479 1.5692186957 2.1069237955
| 14> S 1.2876617037 1.1393624646 0.2817453218
| 15> C 0.0563085719 0.8062630599 -0.994629189
| 16> S -1.007462046 -0.6096501091 -0.611542814
| 17> P -2.8693979395 0.3960154021 -0.2955272961
| 18> S -2.9019946844 2.3025561652 -0.7454724041
| 19> O -3.3396331048 0.0729286236 1.1904566091
| 20> C -3.0092116816 0.9064933985 2.3124856156
| 21> C -1.5796827297 0.7007416205 2.7709774039
| 22> O -3.9037821022 -0.4200289735 -1.1582332439
| 23> C -3.9049623963 -1.8509633365 -1.3813801523
| 24> C -3.85214203 -2.6443264818 -0.0944257149
| 25> H 0.5674149896 -1.3889811413 1.7247978196
| 26> H 0.5680212261 -3.1458054693 1.9222392281
| 27> H 1.7707154632 -2.1584300748 2.7699488479
| 28> H 1.5776338284 -2.4922459077 -0.2712069016
| 29> H 2.7703736597 -3.2980513892 0.7806255243
| 30> H 5.1713758248 -0.1072723135 1.4368728468
| 31> H 5.7347440266 1.4774478539 0.830956014
| 32> H 4.5602792079 1.7400509687 3.0105760778
| 33> H 3.6291567582 2.5224955602 1.7228062708
| 34> H 3.1222394396 0.9489831019 2.3479722429
| 35> H 0.5785706237 0.5852454239 -1.9273926297
| 36> H -0.5702934218 1.6966399516 -1.0903980516
| 37> H -3.1827398513 1.9517230431 2.0358077443
| 38> H -3.722662228 0.6055762408 3.0811526251
| 39> H -1.3938382131 -0.354010784 2.9554258347
| 40> H -0.882819721 1.0636625475 2.0161384523
| 41> H -1.4147930047 1.2585784862 3.6869924706
| 42> H -4.8377177716 -2.0162684725 -1.9226824062
| 43> H -3.0556779821 -2.0949923414 -2.0249821669
| 44> H -4.6633693553 -2.34761562 0.5648930173
| 45> H -3.9421869071 -3.701167482 -0.3257543844
| 46> H -2.9033777417 -2.4712780654 0.4101349212
| 47> *
| 48>
| 49>                          ****END OF INPUT****

CARTESIAN COORDINATES (ANGSTROEM)
---------------------------------
  C      1.197475   -2.264769    1.853494
  C      2.132272   -2.419106    0.670115
  O      3.044695   -1.306602    0.599975
  P      2.874197   -0.108012   -0.432900
  S      2.678767   -0.652718   -2.306222
  O      4.195716    0.709544   -0.193823
  C      4.859594    0.877688    1.085186
  C      3.983452    1.569219    2.106924
  S      1.287662    1.139362    0.281745
  C      0.056309    0.806263   -0.994629
  S     -1.007462   -0.609650   -0.611543
  P     -2.869398    0.396015   -0.295527
  S     -2.901995    2.302556   -0.745472
  O     -3.339633    0.072929    1.190457
  C     -3.009212    0.906493    2.312486
  C     -1.579683    0.700742    2.770977
  O     -3.903782   -0.420029   -1.158233
  C     -3.904962   -1.850963   -1.381380
  C     -3.852142   -2.644326   -0.094426
  H      0.567415   -1.388981    1.724798
  H      0.568021   -3.145805    1.922239
  H      1.770715   -2.158430    2.769949
  H      1.577634   -2.492246   -0.271207
  H      2.770374   -3.298051    0.780626
  H      5.171376   -0.107272    1.436873
  H      5.734744    1.477448    0.830956
  H      4.560279    1.740051    3.010576
  H      3.629157    2.522496    1.722806
  H      3.122239    0.948983    2.347972
  H      0.578571    0.585245   -1.927393
  H     -0.570293    1.696640   -1.090398
  H     -3.182740    1.951723    2.035808
  H     -3.722662    0.605576    3.081153
  H     -1.393838   -0.354011    2.955426
  H     -0.882820    1.063663    2.016138
  H     -1.414793    1.258578    3.686992
  H     -4.837718   -2.016268   -1.922682
  H     -3.055678   -2.094992   -2.024982
  H     -4.663369   -2.347616    0.564893
  H     -3.942187   -3.701167   -0.325754
  H     -2.903378   -2.471278    0.410135

 Total Charge           Charge          ....    0
 Multiplicity           Mult            ....    1
 Number of Electrons    NEL             ....  202
 Basis Dimension        Dim             ....  334

ORBITAL ENERGIES
----------------

  NO   OCC          E(Eh)            E(eV)
   0   2.0000     -88.046681     -2395.8720
   1   2.0000     -88.046487     -2395.8667
   2   2.0000     -87.989338     -2394.3116
   3   2.0000     -87.987945     -2394.2737
   4   2.0000     -76.429643     -2079.7563
   5   2.0000     -76.429492     -2079.7522
   6   2.0000     -18.796318      -511.4738
   7   2.0000     -18.796129      -511.4687
   8   2.0000     -18.794185      -511.4158
   9   2.0000     -18.792826      -511.3788
  10   2.0000      -9.962599      -271.0961
  11   2.0000      -9.961235      -271.0590
  12   2.0000      -9.957404      -270.9547
  13   2.0000      -9.953774      -270.8560
  14   2.0000      -9.947783      -270.6929
  15   2.0000      -9.895902      -269.2812
  16   2.0000      -9.893950      -269.2281
  17   2.0000      -9.887576      -269.0546
  18   2.0000      -9.886971      -269.0381
  19   2.0000      -7.691021      -209.2833
  20   2.0000      -7.690502      -209.2692
  21   2.0000      -7.634421      -207.7431
  22   2.0000      -7.633084      -207.7068
  23   2.0000      -6.427202      -174.8930
  24   2.0000      -6.427025      -174.8882
  25   2.0000      -5.718791      -155.6162
  26   2.0000      -5.718330      -155.6037
  27   2.0000      -5.715492      -155.5264
  28   2.0000      -5.714982      -155.5126
  29   2.0000      -5.708269      -155.3299
  30   2.0000      -5.707768      -155.3163
  31   2.0000      -5.663374      -154.1083
  32   2.0000      -5.662082      -154.0731
  33   2.0000      -5.655147      -153.8844
  34   2.0000      -5.654398      -153.8640
  35   2.0000      -5.653518      -153.8401
  36   2.0000      -5.653321      -153.8347
  37   2.0000      -4.650136      -126.5366
  38   2.0000      -4.649634      -126.5230
  39   2.0000      -4.648745      -126.4988
  40   2.0000      -4.648717      -126.4980
  41   2.0000      -4.647524      -126.4656
  42   2.0000      -4.647513      -126.4653
  43   2.0000      -0.992972       -27.0201
  44   2.0000      -0.989261       -26.9192
  45   2.0000      -0.948345       -25.8058
  46   2.0000      -0.947819       -25.7915
  47   2.0000      -0.762396       -20.7458
  48   2.0000      -0.725660       -19.7462
  49   2.0000      -0.716914       -19.5082
  50   2.0000      -0.696802       -18.9609
  51   2.0000      -0.694420       -18.8961
  52   2.0000      -0.681835       -18.5537
  53   2.0000      -0.652748       -17.7622
  54   2.0000      -0.638496       -17.3744
  55   2.0000      -0.605049       -16.4642
  56   2.0000      -0.598876       -16.2963
  57   2.0000      -0.582042       -15.8382
  58   2.0000      -0.578524       -15.7424
  59   2.0000      -0.559723       -15.2308
  60   2.0000      -0.504812       -13.7366
  61   2.0000      -0.496903       -13.5214
  62   2.0000      -0.480028       -13.0622
  63   2.0000      -0.476209       -12.9583
  64   2.0000      -0.461602       -12.5608
  65   2.0000      -0.452649       -12.3172
  66   2.0000      -0.448148       -12.1947
  67   2.0000      -0.441394       -12.0110
  68   2.0000      -0.433737       -11.8026
  69   2.0000      -0.432432       -11.7671
  70   2.0000      -0.411024       -11.1845
  71   2.0000      -0.403481       -10.9793
  72   2.0000      -0.396984       -10.8025
  73   2.0000      -0.392663       -10.6849
  74   2.0000      -0.384046       -10.4504
  75   2.0000      -0.374634       -10.1943
  76   2.0000      -0.370175       -10.0730
  77   2.0000      -0.364093        -9.9075
  78   2.0000      -0.358736        -9.7617
  79   2.0000      -0.356771        -9.7082
  80   2.0000      -0.354002        -9.6329
  81   2.0000      -0.350931        -9.5493
  82   2.0000      -0.348233        -9.4759
  83   2.0000      -0.341811        -9.3011
  84   2.0000      -0.340193        -9.2571
  85   2.0000      -0.322415        -8.7733
  86   2.0000      -0.313523        -8.5314
  87   2.0000      -0.303410        -8.2562
  88   2.0000      -0.299033        -8.1371
  89   2.0000      -0.296570        -8.0701
  90   2.0000      -0.294785        -8.0215
  91   2.0000      -0.280701        -7.6383
  92   2.0000      -0.276881        -7.5343
  93   2.0000      -0.266139        -7.2420
  94   2.0000      -0.259979        -7.0744
  95   2.0000      -0.232590        -6.3291
  96   2.0000      -0.223366        -6.0781
  97   2.0000      -0.212573        -5.7844
  98   2.0000      -0.205953        -5.6043
  99   2.0000      -0.204329        -5.5601
 100   2.0000      -0.200684        -5.4609
 101   0.0000      -0.046549        -1.2667
 102   0.0000      -0.037768        -1.0277
 103   0.0000      -0.019112        -0.5201
 104   0.0000       0.001998         0.0544
 105   0.0000       0.008039         0.2188

MULLIKEN ATOMIC CHARGES
-----------------------
   0 C :   -0.322129
   1 C :   -0.006828
   2 O :   -0.383335
   3 P :    0.609932
   4 S :   -0.301004
   5 O :   -0.361375
   6 C :    0.008058
   7 C :   -0.341261
   8 S :   -0.126560
   9 C :   -0.335332
  10 S :   -0.131406
  11 P :    0.600703
  12 S :   -0.302989
  13 O :   -0.372710
  14 C :   -0.002316
  15 C :   -0.329551
  16 O :   -0.358183
  17 C :   -0.006092
  18 C :   -0.317341
  19 H :    0.152050
  20 H :    0.108542
  21 H :    0.110407
  22 H :    0.103973
  23 H :    0.108798
  24 H :    0.112979
  25 H :    0.114603
  26 H :    0.120224
  27 H :    0.133899
  28 H :    0.132451
  29 H :    0.200364
  30 H :    0.193541
  31 H :    0.113733
  32 H :    0.103927
  33 H :    0.124742
  34 H :    0.132770
  35 H :    0.111319
  36 H :    0.115135
  37 H :    0.118388
  38 H :    0.126722
  39 H :    0.116957
  40 H :    0.124193
Sum of atomic charges:   -0.0000000

LOEWDIN ATOMIC CHARGES
----------------------
   0 C :   -0.368381
   1 C :   -0.116001
   2 O :   -0.250064
   3 P :    0.569260
   4 S :   -0.296696
   5 O :   -0.234924
   6 C :   -0.106747
   7 C :   -0.373644
   8 S :    0.084037
   9 C :   -0.493732
  10 S :    0.070956
  11 P :    0.571173
  12 S :   -0.295710
  13 O :   -0.244049
  14 C :   -0.119541
  15 C :   -0.368609
  16 O :   -0.234542
  17 C :   -0.113680
  18 C :   -0.367461
  19 H :    0.118114
  20 H :    0.129334
  21 H :    0.123251
  22 H :    0.104635
  23 H :    0.120042
  24 H :    0.116316
  25 H :    0.124752
  26 H :    0.135185
  27 H :    0.130213
  28 H :    0.118614
  29 H :    0.126895
  30 H :    0.125405
  31 H :    0.110497
  32 H :    0.118220
  33 H :    0.124965
  34 H :    0.112470
  35 H :    0.131159
  36 H :    0.125099
  37 H :    0.112594
  38 H :    0.130986
  39 H :    0.133035
  40 H :    0.116576

  Mayer bond orders larger than 0.100000
B(  0-C ,  1-C ) :   1.1663 B(  0-C , 19-H ) :   0.9203 B(  0-C , 20-H ) :   0.9403
B(  0-C , 21-H ) :   0.9447 B(  1-C ,  2-O ) :   0.9045 B(  1-C , 22-H ) :   0.9038
B(  1-C , 23-H ) :   0.9353 B(  2-O ,  3-P ) :   1.0695 B(  3-P ,  4-S ) :   1.6515
B(  3-P ,  5-O ) :   1.1501 B(  3-P ,  8-S ) :   0.9329 B(  4-S ,  8-S ) :   0.1163
B(  4-S , 29-H ) :   0.1108 B(  5-O ,  6-C ) :   0.8961 B(  6-C ,  7-C ) :   1.1696
B(  6-C , 24-H ) :   0.9276 B(  6-C , 25-H ) :   0.9334 B(  7-C , 26-H ) :   0.9347
B(  7-C , 27-H ) :   0.9405 B(  7-C , 28-H ) :   0.9314 B(  8-S ,  9-C ) :   1.0175
B(  9-C , 10-S ) :   1.0056 B(  9-C , 29-H ) :   0.8520 B(  9-C , 30-H ) :   0.8438
B( 10-S , 11-P ) :   0.9420 B( 10-S , 12-S ) :   0.1125 B( 11-P , 12-S ) :   1.6247
B( 11-P , 13-O ) :   1.0835 B( 11-P , 16-O ) :   1.1517 B( 12-S , 30-H ) :   0.1232
B( 13-O , 14-C ) :   0.9141 B( 14-C , 15-C ) :   1.1604 B( 14-C , 31-H ) :   0.9110
B( 14-C , 32-H ) :   0.9331 B( 15-C , 33-H ) :   0.9383 B( 15-C , 34-H ) :   0.9302
B( 15-C , 35-H ) :   0.9369 B( 16-O , 17-C ) :   0.9015 B( 17-C , 18-C ) :   1.1685
B( 17-C , 36-H ) :   0.9333 B( 17-C , 37-H ) :   0.9215 B( 18-C , 38-H ) :   0.9420
B( 18-C , 39-H ) :   0.9346 B( 18-C , 40-H ) :   0.9365

Dispersion correction           -0.064126724
FINAL SINGLE POINT ENERGY     -2929.513900105065

DIPOLE MOMENT
-------------

Method             : SCF
Type of density    : Electron Density
Multiplicity       :   1
Irrep              :   0
Energy             : -2929.6360824166513339 Eh
Relativity type    :
Basis              : AO
                                X                 Y                 Z
Electronic contribution:      0.649942759      10.125297570     -20.980966037
Nuclear contribution   :     -0.492846649     -11.335143938      23.022666612
                        -----------------------------------------
Total Dipole Moment    :      0.157096111      -1.209846368       2.041700575
                        -----------------------------------------
Magnitude (a.u.)       :      2.378434077
Magnitude (Debye)      :      6.045498981

Rotational constants in cm-1:             0.012537             0.004412             0.004243
Rotational constants in MHz :           375.852708           132.255831           127.191061

                             ****ORCA TERMINATED NORMALLY****
TOTAL RUN TIME: 0 days 0 hours 0 minutes 21 seconds 194 msec
