                         Program Version 6.0.0  -   RELEASE  -
|  1> ! pbe def2-sv(p) def2/J RI DEFGRID1 loosescf d4 GCP(DFT/SV(P)) printgap
|  2> %output
|  3>     printlevel normal
|  4> end
|  5> * xyz 0 1
|  6> C -1.9184235924 -0.0001944005 -0.0014582549
|  7> C -1.0588377378 1.2141050079 0.3727361146
|  8> C 0.2748436619 1.2061733921 -0.3697336008
|  9> C 1.0917007997 4.71284e-05 0.0008863308
| 10> O 2.3093982828 0.0004459498 0.0030247912
| 11> C 0.2743879419 -1.2063875256 0.3693195929
| 12> C -1.0582461469 -1.2142205311 -0.3750064879
| 13> H -2.564058689 0.247347638 -0.8446209874
| 14> H -2.5646427125 -0.2480823305 0.8411771579
| 15> H -1.5966747494 2.1343993617 0.145085165
| 16> H -0.8564299208 1.211628059 1.445206442
| 17> H 0.100371829 1.1580410292 -1.4480058429
| 18> H 0.8552321588 2.1088218306 -0.173103897
| 19> H 0.8551251202 -2.1088527614 0.1731747043
| 20> H 0.098511623 -1.1586853596 1.4473879902
| 21> H -0.8546627203 -1.2114404599 -1.4472324685
| 22> H -1.596341418 -2.1345725195 -0.1482788602
| 23> *
| 24>
| 25>                          ****END OF INPUT****

CARTESIAN COORDINATES (ANGSTROEM)
---------------------------------
  C     -1.918424   -0.000194   -0.001458
  C     -1.058838    1.214105    0.372736
  C      0.274844    1.206173   -0.369734
  C      1.091701    0.000047    0.000886
  O      2.309398    0.000446    0.003025
  C      0.274388   -1.206388    0.369320
  C     -1.058246   -1.214221   -0.375006
  H     -2.564059    0.247348   -0.844621
  H     -2.564643   -0.248082    0.841177
  H     -1.596675    2.134399    0.145085
  H     -0.856430    1.211628    1.445206
  H      0.100372    1.158041   -1.448006
  H      0.855232    2.108822   -0.173104
  H      0.855125   -2.108853    0.173175
  H      0.098512   -1.158685    1.447388
  H     -0.854663   -1.211440   -1.447232
  H     -1.596341   -2.134573   -0.148279

 Total Charge           Charge          ....    0
 Multiplicity           Mult            ....    1
 Number of Electrons    NEL             ....   54
 Basis Dimension        Dim             ....  118

ORBITAL ENERGIES
----------------

  NO   OCC          E(Eh)            E(eV)
   0   2.0000     -18.730133      -509.6728
   1   2.0000      -9.968569      -271.2586
   2   2.0000      -9.897214      -269.3169
   3   2.0000      -9.897181      -269.3160
   4   2.0000      -9.894264      -269.2366
   5   2.0000      -9.892480      -269.1881
   6   2.0000      -9.892455      -269.1874
   7   2.0000      -0.927446       -25.2371
   8   2.0000      -0.761222       -20.7139
   9   2.0000      -0.681455       -18.5433
  10   2.0000      -0.653911       -17.7938
  11   2.0000      -0.572657       -15.5828
  12   2.0000      -0.522499       -14.2179
  13   2.0000      -0.465228       -12.6595
  14   2.0000      -0.453443       -12.3388
  15   2.0000      -0.421192       -11.4612
  16   2.0000      -0.400479       -10.8976
  17   2.0000      -0.372355       -10.1323
  18   2.0000      -0.369772       -10.0620
  19   2.0000      -0.350850        -9.5471
  20   2.0000      -0.347473        -9.4552
  21   2.0000      -0.334758        -9.1092
  22   2.0000      -0.319993        -8.7075
  23   2.0000      -0.290425        -7.9029
  24   2.0000      -0.286454        -7.7948
  25   2.0000      -0.278768        -7.5857
  26   2.0000      -0.187926        -5.1137
  27   0.0000      -0.047967        -1.3052
  28   0.0000       0.020653         0.5620
  29   0.0000       0.047377         1.2892
  30   0.0000       0.073819         2.0087
  31   0.0000       0.074226         2.0198

MULLIKEN ATOMIC CHARGES
-----------------------
   0 C :   -0.158747
   1 C :   -0.175276
   2 C :   -0.130374
   3 C :   -0.042277
   4 O :   -0.168099
   5 C :   -0.130483
   6 C :   -0.175140
   7 H :    0.087896
   8 H :    0.087901
   9 H :    0.095561
  10 H :    0.091388
  11 H :    0.112502
  12 H :    0.102827
  13 H :    0.102878
  14 H :    0.112551
  15 H :    0.091367
  16 H :    0.095526
Sum of atomic charges:   -0.0000000

LOEWDIN ATOMIC CHARGES
----------------------
   0 C :   -0.230884
   1 C :   -0.228686
   2 C :   -0.250777
   3 C :    0.040466
   4 O :   -0.135109
   5 C :   -0.250787
   6 C :   -0.228714
   7 H :    0.120016
   8 H :    0.120014
   9 H :    0.124420
  10 H :    0.119137
  11 H :    0.143441
  12 H :    0.135197
  13 H :    0.135230
  14 H :    0.143488
  15 H :    0.119132
  16 H :    0.124416

  Mayer bond orders larger than 0.100000
B(  0-C ,  1-C ) :   1.1395 B(  0-C ,  6-C ) :   1.1396 B(  0-C ,  7-H ) :   0.9220
B(  0-C ,  8-H ) :   0.9220 B(  1-C ,  2-C ) :   1.1423 B(  1-C ,  9-H ) :   0.9181
B(  1-C , 10-H ) :   0.9164 B(  2-C ,  3-C ) :   1.0209 B(  2-C , 11-H ) :   0.8787
B(  2-C , 12-H ) :   0.8994 B(  3-C ,  4-O ) :   2.1888 B(  3-C ,  5-C ) :   1.0208
B(  5-C ,  6-C ) :   1.1422 B(  5-C , 13-H ) :   0.8994 B(  5-C , 14-H ) :   0.8787
B(  6-C , 15-H ) :   0.9164 B(  6-C , 16-H ) :   0.9181

Dispersion correction           -0.014756947
FINAL SINGLE POINT ENERGY      -309.176063941140

DIPOLE MOMENT
-------------

Method             : SCF
Type of density    : Electron Density
Multiplicity       :   1
Irrep              :   0
Energy             :  -309.2337301698189549 Eh
Relativity type    :
Basis              : AO
                                X                 Y                 Z
Electronic contribution:      6.441512631       0.000855284       0.006936846
Nuclear contribution   :     -7.587020704      -0.001302611      -0.008596226
                        -----------------------------------------
Total Dipole Moment    :     -1.145508073      -0.000447327      -0.001659380
                        -----------------------------------------
Magnitude (a.u.)       :      1.145509362
Magnitude (Debye)      :      2.911653406

Rotational constants in cm-1:             0.151977             0.080062             0.058483
Rotational constants in MHz :          4556.168247          2400.203713          1753.280335

                             ****ORCA TERMINATED NORMALLY****
TOTAL RUN TIME: 0 days 0 hours 0 minutes 7 seconds 792 msec
