                         Program Version 6.0.1  -  RELEASE   -
|  1> ! pbe def2-sv(p) def2/J RI DEFGRID1 loosescf d4 GCP(DFT/SV(P)) printgap
|  2> %output
|  3>     printlevel normal
|  4> end
|  5> * xyz 0 1
|  6> C 5.1779562659 -1.3404567983 -2.2819095702
|  7> C 4.2037311804 -0.2861595501 -1.7806223099
|  8> O 2.8978751003 -0.8523190291 -1.5618181938
|  9> C 2.6440582615 -1.4139498471 -0.3980188951
| 10> O 3.4325589772 -1.5030544595 0.5155238353
| 11> C 1.2154068245 -1.9294301682 -0.3366078543
| 12> C 0.248322233 -0.7467143847 -0.4242868569
| 13> H 0.3809961395 -0.2150818994 -1.3694992746
| 14> C 0.4997151041 0.2029431031 0.7326273977
| 15> O -0.2133290464 0.2572127166 1.7127318439
| 16> O 1.5893045268 0.9016592007 0.5410910596
| 17> C 2.0078136871 1.8075224154 1.5841242064
| 18> C 2.6784186504 1.0607990915 2.7256071534
| 19> S -1.4705867738 -1.3410095774 -0.3059249324
| 20> P -2.4052897758 0.5364564029 0.010531658
| 21> S -1.4348687282 2.1040605817 -0.6483246128
| 22> O -3.8180976149 0.3034224391 -0.7100429014
| 23> C -3.9157454009 0.1667468222 -2.1322979058
| 24> O -2.8965658859 0.6887066581 1.5007155712
| 25> C -3.5309701743 -0.3831220327 2.2268359298
| 26> H 4.7929123001 -1.8071420853 -3.1842416291
| 27> H 6.1315727949 -0.8714952239 -2.5004545539
| 28> H 5.3261282781 -2.1041987583 -1.5219138202
| 29> H 4.0409774041 0.493483096 -2.5247842024
| 30> H 4.554083038 0.1517664564 -0.8419733906
| 31> H 1.0723292263 -2.4684605013 0.6004832161
| 32> H 1.033730435 -2.5976729638 -1.1784932716
| 33> H 2.69910745 2.4827305005 1.0804224457
| 34> H 1.1282464377 2.3568296922 1.9327891806
| 35> H 3.1244382035 1.7757833229 3.4084631363
| 36> H 1.947838035 0.4623574116 3.2648768539
| 37> H 3.4496425363 0.3996953876 2.3362684439
| 38> H -3.5147122031 -0.7988354562 -2.43961105
| 39> H -3.3693355265 0.9732434765 -2.6236730203
| 40> H -4.976543437 0.2332968834 -2.3593871562
| 41> H -2.7949401881 -1.1567796939 2.444042081
| 42> H -4.3571929813 -0.7920468311 1.6481194375
| 43> H -3.8874202003 0.0731473997 3.1464843737
| 44> *
| 45>
| 46>                          ****END OF INPUT****

CARTESIAN COORDINATES (ANGSTROEM)
---------------------------------
  C      5.177956   -1.340457   -2.281910
  C      4.203731   -0.286160   -1.780622
  O      2.897875   -0.852319   -1.561818
  C      2.644058   -1.413950   -0.398019
  O      3.432559   -1.503054    0.515524
  C      1.215407   -1.929430   -0.336608
  C      0.248322   -0.746714   -0.424287
  H      0.380996   -0.215082   -1.369499
  C      0.499715    0.202943    0.732627
  O     -0.213329    0.257213    1.712732
  O      1.589305    0.901659    0.541091
  C      2.007814    1.807522    1.584124
  C      2.678419    1.060799    2.725607
  S     -1.470587   -1.341010   -0.305925
  P     -2.405290    0.536456    0.010532
  S     -1.434869    2.104061   -0.648325
  O     -3.818098    0.303422   -0.710043
  C     -3.915745    0.166747   -2.132298
  O     -2.896566    0.688707    1.500716
  C     -3.530970   -0.383122    2.226836
  H      4.792912   -1.807142   -3.184242
  H      6.131573   -0.871495   -2.500455
  H      5.326128   -2.104199   -1.521914
  H      4.040977    0.493483   -2.524784
  H      4.554083    0.151766   -0.841973
  H      1.072329   -2.468461    0.600483
  H      1.033730   -2.597673   -1.178493
  H      2.699107    2.482731    1.080422
  H      1.128246    2.356830    1.932789
  H      3.124438    1.775783    3.408463
  H      1.947838    0.462357    3.264877
  H      3.449643    0.399695    2.336268
  H     -3.514712   -0.798835   -2.439611
  H     -3.369336    0.973243   -2.623673
  H     -4.976543    0.233297   -2.359387
  H     -2.794940   -1.156780    2.444042
  H     -4.357193   -0.792047    1.648119
  H     -3.887420    0.073147    3.146484

 Total Charge           Charge          ....    0
 Multiplicity           Mult            ....    1
 Number of Electrons    NEL             ....  174
 Basis Dimension        Dim             ....  316

ORBITAL ENERGIES
----------------

  NO   OCC          E(Eh)            E(eV)
   0   2.0000     -88.039081     -2395.6652
   1   2.0000     -87.978965     -2394.0293
   2   2.0000     -76.422497     -2079.5619
   3   2.0000     -18.808294      -511.7997
   4   2.0000     -18.808241      -511.7982
   5   2.0000     -18.787773      -511.2413
   6   2.0000     -18.786284      -511.2008
   7   2.0000     -18.744686      -510.0688
   8   2.0000     -18.739265      -509.9213
   9   2.0000     -10.017475      -272.5893
  10   2.0000     -10.015615      -272.5388
  11   2.0000      -9.952953      -270.8336
  12   2.0000      -9.947119      -270.6749
  13   2.0000      -9.945394      -270.6279
  14   2.0000      -9.943522      -270.5770
  15   2.0000      -9.941621      -270.5253
  16   2.0000      -9.918896      -269.9069
  17   2.0000      -9.891469      -269.1606
  18   2.0000      -9.877303      -268.7751
  19   2.0000      -7.684120      -209.0955
  20   2.0000      -7.624224      -207.4657
  21   2.0000      -6.419302      -174.6781
  22   2.0000      -5.711877      -155.4281
  23   2.0000      -5.708753      -155.3431
  24   2.0000      -5.701108      -155.1350
  25   2.0000      -5.653336      -153.8351
  26   2.0000      -5.644656      -153.5989
  27   2.0000      -5.644312      -153.5896
  28   2.0000      -4.641956      -126.3140
  29   2.0000      -4.641319      -126.2967
  30   2.0000      -4.639617      -126.2504
  31   2.0000      -1.019626       -27.7454
  32   2.0000      -1.013884       -27.5892
  33   2.0000      -0.981516       -26.7084
  34   2.0000      -0.937248       -25.5038
  35   2.0000      -0.921736       -25.0817
  36   2.0000      -0.920534       -25.0490
  37   2.0000      -0.768774       -20.9194
  38   2.0000      -0.715765       -19.4769
  39   2.0000      -0.703079       -19.1317
  40   2.0000      -0.690949       -18.8017
  41   2.0000      -0.661156       -17.9910
  42   2.0000      -0.632286       -17.2054
  43   2.0000      -0.619469       -16.8566
  44   2.0000      -0.615458       -16.7475
  45   2.0000      -0.598099       -16.2751
  46   2.0000      -0.564931       -15.3725
  47   2.0000      -0.513230       -13.9657
  48   2.0000      -0.505204       -13.7473
  49   2.0000      -0.493558       -13.4304
  50   2.0000      -0.478373       -13.0172
  51   2.0000      -0.470118       -12.7926
  52   2.0000      -0.466076       -12.6826
  53   2.0000      -0.446082       -12.1385
  54   2.0000      -0.438411       -11.9298
  55   2.0000      -0.427788       -11.6407
  56   2.0000      -0.426634       -11.6093
  57   2.0000      -0.420308       -11.4372
  58   2.0000      -0.412254       -11.2180
  59   2.0000      -0.411092       -11.1864
  60   2.0000      -0.403495       -10.9797
  61   2.0000      -0.399779       -10.8786
  62   2.0000      -0.392066       -10.6687
  63   2.0000      -0.386464       -10.5162
  64   2.0000      -0.379018       -10.3136
  65   2.0000      -0.364669        -9.9231
  66   2.0000      -0.362157        -9.8548
  67   2.0000      -0.350054        -9.5255
  68   2.0000      -0.343640        -9.3509
  69   2.0000      -0.342115        -9.3094
  70   2.0000      -0.337056        -9.1718
  71   2.0000      -0.331734        -9.0269
  72   2.0000      -0.322049        -8.7634
  73   2.0000      -0.314621        -8.5613
  74   2.0000      -0.301515        -8.2046
  75   2.0000      -0.298630        -8.1261
  76   2.0000      -0.294453        -8.0125
  77   2.0000      -0.290103        -7.8941
  78   2.0000      -0.271018        -7.3748
  79   2.0000      -0.267094        -7.2680
  80   2.0000      -0.258284        -7.0283
  81   2.0000      -0.256321        -6.9749
  82   2.0000      -0.232686        -6.3317
  83   2.0000      -0.226908        -6.1745
  84   2.0000      -0.219793        -5.9809
  85   2.0000      -0.198420        -5.3993
  86   2.0000      -0.196540        -5.3481
  87   0.0000      -0.043147        -1.1741
  88   0.0000      -0.034943        -0.9509
  89   0.0000      -0.021747        -0.5918
  90   0.0000       0.014069         0.3828
  91   0.0000       0.025009         0.6805

MULLIKEN ATOMIC CHARGES
-----------------------
   0 C :   -0.305288
   1 C :   -0.012161
   2 O :   -0.232502
   3 C :    0.108586
   4 O :   -0.197733
   5 C :   -0.041375
   6 C :   -0.287798
   7 H :    0.153744
   8 C :    0.169808
   9 O :   -0.187923
  10 O :   -0.222547
  11 C :   -0.002091
  12 C :   -0.325476
  13 S :   -0.100162
  14 P :    0.613444
  15 S :   -0.322425
  16 O :   -0.387338
  17 C :   -0.099913
  18 O :   -0.347618
  19 C :   -0.102601
  20 H :    0.115006
  21 H :    0.114798
  22 H :    0.127402
  23 H :    0.107381
  24 H :    0.109620
  25 H :    0.110949
  26 H :    0.124411
  27 H :    0.100712
  28 H :    0.116720
  29 H :    0.109384
  30 H :    0.127444
  31 H :    0.135520
  32 H :    0.112738
  33 H :    0.116676
  34 H :    0.124252
  35 H :    0.128097
  36 H :    0.117134
  37 H :    0.131126
Sum of atomic charges:   -0.0000000

LOEWDIN ATOMIC CHARGES
----------------------
   0 C :   -0.355975
   1 C :   -0.108701
   2 O :   -0.055438
   3 C :    0.027593
   4 O :   -0.161016
   5 C :   -0.238139
   6 C :   -0.266994
   7 H :    0.140527
   8 C :   -0.001697
   9 O :   -0.166109
  10 O :   -0.035369
  11 C :   -0.103916
  12 C :   -0.363636
  13 S :    0.091943
  14 P :    0.584596
  15 S :   -0.311092
  16 O :   -0.262427
  17 C :   -0.217587
  18 O :   -0.227139
  19 C :   -0.207144
  20 H :    0.125324
  21 H :    0.131692
  22 H :    0.130821
  23 H :    0.120244
  24 H :    0.119722
  25 H :    0.139918
  26 H :    0.143037
  27 H :    0.117513
  28 H :    0.124782
  29 H :    0.128720
  30 H :    0.130547
  31 H :    0.130608
  32 H :    0.106805
  33 H :    0.111094
  34 H :    0.121909
  35 H :    0.116257
  36 H :    0.111720
  37 H :    0.127008

  Mayer bond orders larger than 0.100000
B(  0-C ,  1-C ) :   1.1735 B(  0-C , 20-H ) :   0.9485 B(  0-C , 21-H ) :   0.9441
B(  0-C , 22-H ) :   0.9459 B(  1-C ,  2-O ) :   0.9135 B(  1-C , 23-H ) :   0.9366
B(  1-C , 24-H ) :   0.9146 B(  2-O ,  3-C ) :   1.2124 B(  3-C ,  4-O ) :   2.0300
B(  3-C ,  5-C ) :   1.0223 B(  5-C ,  6-C ) :   1.0522 B(  5-C , 25-H ) :   0.8972
B(  5-C , 26-H ) :   0.8902 B(  6-C ,  7-H ) :   0.8648 B(  6-C ,  8-C ) :   0.8801
B(  6-C , 13-S ) :   1.0175 B(  8-C ,  9-O ) :   2.0186 B(  8-C , 10-O ) :   1.2431
B( 10-O , 11-C ) :   0.9009 B( 11-C , 12-C ) :   1.1716 B( 11-C , 27-H ) :   0.9382
B( 11-C , 28-H ) :   0.9177 B( 12-C , 29-H ) :   0.9424 B( 12-C , 30-H ) :   0.9430
B( 12-C , 31-H ) :   0.9364 B( 13-S , 14-P ) :   0.9490 B( 13-S , 15-S ) :   0.1124
B( 14-P , 15-S ) :   1.6131 B( 14-P , 16-O ) :   1.0714 B( 14-P , 18-O ) :   1.1490
B( 16-O , 17-C ) :   0.9344 B( 17-C , 32-H ) :   0.9461 B( 17-C , 33-H ) :   0.9354
B( 17-C , 34-H ) :   0.9587 B( 18-O , 19-C ) :   0.9169 B( 19-C , 35-H ) :   0.9425
B( 19-C , 36-H ) :   0.9451 B( 19-C , 37-H ) :   0.9598

Dispersion correction           -0.052308004
FINAL SINGLE POINT ENERGY     -1979.016438216518

DIPOLE MOMENT
-------------

Method             : SCF
Type of density    : Electron Density
Multiplicity       :   1
Irrep              :   0
Energy             : -1979.1473044990534618 Eh
Relativity type    :
Basis              : AO
                                X                 Y                 Z
Electronic contribution:    -17.665057412       3.026241137      -0.056564411
Nuclear contribution   :     17.992196661      -3.703025803      -0.592102177
                        -----------------------------------------
Total Dipole Moment    :      0.327139248      -0.676784666      -0.648666588
                        -----------------------------------------
Magnitude (a.u.)       :      0.992887665
Magnitude (Debye)      :      2.523719880

Rotational constants in cm-1:             0.016721             0.005946             0.005395
Rotational constants in MHz :           501.287907           178.254740           161.748999

                             ****ORCA TERMINATED NORMALLY****
TOTAL RUN TIME: 0 days 0 hours 0 minutes 44 seconds 336 msec
