                         Program Version 6.0.0  -   RELEASE  -
|  1> ! pbe def2-sv(p) def2/J RI DEFGRID1 loosescf d4 GCP(DFT/SV(P)) printgap
|  2> %output
|  3>     printlevel normal
|  4> end
|  5> * xyz 0 1
|  6> C 2.8978432377 2.2180742557 0.8469314456
|  7> C 1.5887067033 1.8310048698 1.5030559751
|  8> O 1.4536588806 0.4097499243 1.7245497478
|  9> P 1.6696622301 -0.7556432344 0.6641813414
| 10> S 0.8692394145 -2.4057827857 1.3429814278
| 11> O 3.2506148875 -0.8497467213 0.4184814905
| 12> C 4.1300108645 -1.3217511892 1.4567464226
| 13> C 4.5115229406 -2.7691613794 1.2142377773
| 14> S 1.2124351038 -0.1231659178 -1.2915088447
| 15> C -0.1049909008 -1.3029397301 -1.7008513121
| 16> S -1.709473025 -0.546668934 -2.1183777917
| 17> P -1.9918722063 0.7756967601 -0.4795099035
| 18> S -3.8330072736 1.3286382142 -0.1091965162
| 19> O -0.951780843 1.9585278478 -0.6958652035
| 20> C -0.7567379435 2.6648903317 -1.9389707849
| 21> C -2.0546256524 3.1166989703 -2.574628097
| 22> O -1.2399047925 0.0786047304 0.746142933
| 23> C -2.0061176652 -0.5302684558 1.8027516043
| 24> C -2.6823202684 -1.8099954218 1.3541240741
| 25> H 3.7395499835 1.8796783388 1.4466213705
| 26> H 2.9717197441 1.7800679849 -0.1476334794
| 27> H 2.937851919 3.2995522804 0.7588919233
| 28> H 0.7359619144 2.1565435758 0.9029641946
| 29> H 1.5051278609 2.248108489 2.5086152889
| 30> H 5.0056480307 -0.671235697 1.4053051019
| 31> H 3.6415830429 -1.2021104841 2.4298585755
| 32> H 5.2303863664 -3.0823070768 1.9646656274
| 33> H 3.6319914858 -3.4063406669 1.2769387658
| 34> H 4.9504656104 -2.8744469893 0.2262399027
| 35> H -0.2244360659 -1.9914672967 -0.8603665017
| 36> H 0.1856176729 -1.8369982261 -2.6024463087
| 37> H -0.1356452698 3.5160632494 -1.6550737497
| 38> H -0.1961824345 2.0114995385 -2.6148468362
| 39> H -2.6323621998 3.716922073 -1.8753237916
| 40> H -1.8337891234 3.7066658528 -3.4583692224
| 41> H -2.654471952 2.2538784575 -2.8643396802
| 42> H -1.272982114 -0.7201494942 2.5884084005
| 43> H -2.7486454546 0.1940226885 2.1499787796
| 44> H -1.9431766715 -2.5474753457 1.050087727
| 45> H -3.2608371961 -2.2126612791 2.1791365291
| 46> H -3.3528580111 -1.6021497781 0.5204446756
| 47> *
| 48>
| 49>                          ****END OF INPUT****

CARTESIAN COORDINATES (ANGSTROEM)
---------------------------------
  C      2.897843    2.218074    0.846931
  C      1.588707    1.831005    1.503056
  O      1.453659    0.409750    1.724550
  P      1.669662   -0.755643    0.664181
  S      0.869239   -2.405783    1.342981
  O      3.250615   -0.849747    0.418481
  C      4.130011   -1.321751    1.456746
  C      4.511523   -2.769161    1.214238
  S      1.212435   -0.123166   -1.291509
  C     -0.104991   -1.302940   -1.700851
  S     -1.709473   -0.546669   -2.118378
  P     -1.991872    0.775697   -0.479510
  S     -3.833007    1.328638   -0.109197
  O     -0.951781    1.958528   -0.695865
  C     -0.756738    2.664890   -1.938971
  C     -2.054626    3.116699   -2.574628
  O     -1.239905    0.078605    0.746143
  C     -2.006118   -0.530268    1.802752
  C     -2.682320   -1.809995    1.354124
  H      3.739550    1.879678    1.446621
  H      2.971720    1.780068   -0.147633
  H      2.937852    3.299552    0.758892
  H      0.735962    2.156544    0.902964
  H      1.505128    2.248108    2.508615
  H      5.005648   -0.671236    1.405305
  H      3.641583   -1.202110    2.429859
  H      5.230386   -3.082307    1.964666
  H      3.631991   -3.406341    1.276939
  H      4.950466   -2.874447    0.226240
  H     -0.224436   -1.991467   -0.860367
  H      0.185618   -1.836998   -2.602446
  H     -0.135645    3.516063   -1.655074
  H     -0.196182    2.011500   -2.614847
  H     -2.632362    3.716922   -1.875324
  H     -1.833789    3.706666   -3.458369
  H     -2.654472    2.253878   -2.864340
  H     -1.272982   -0.720149    2.588408
  H     -2.748645    0.194023    2.149979
  H     -1.943177   -2.547475    1.050088
  H     -3.260837   -2.212661    2.179137
  H     -3.352858   -1.602150    0.520445

 Total Charge           Charge          ....    0
 Multiplicity           Mult            ....    1
 Number of Electrons    NEL             ....  202
 Basis Dimension        Dim             ....  334

ORBITAL ENERGIES
----------------

  NO   OCC          E(Eh)            E(eV)
   0   2.0000     -88.051750     -2396.0099
   1   2.0000     -88.047298     -2395.8888
   2   2.0000     -87.989939     -2394.3280
   3   2.0000     -87.985594     -2394.2097
   4   2.0000     -76.430548     -2079.7809
   5   2.0000     -76.427815     -2079.7066
   6   2.0000     -18.794526      -511.4251
   7   2.0000     -18.792194      -511.3616
   8   2.0000     -18.791453      -511.3414
   9   2.0000     -18.789139      -511.2785
  10   2.0000      -9.961293      -271.0606
  11   2.0000      -9.957995      -270.9708
  12   2.0000      -9.955546      -270.9042
  13   2.0000      -9.955153      -270.8935
  14   2.0000      -9.938102      -270.4295
  15   2.0000      -9.895111      -269.2597
  16   2.0000      -9.884913      -268.9822
  17   2.0000      -9.881787      -268.8971
  18   2.0000      -9.868777      -268.5431
  19   2.0000      -7.696502      -209.4325
  20   2.0000      -7.692168      -209.3145
  21   2.0000      -7.635057      -207.7605
  22   2.0000      -7.630823      -207.6452
  23   2.0000      -6.428002      -174.9148
  24   2.0000      -6.424880      -174.8299
  25   2.0000      -5.724458      -155.7704
  26   2.0000      -5.721211      -155.6821
  27   2.0000      -5.720427      -155.6607
  28   2.0000      -5.716249      -155.5471
  29   2.0000      -5.713138      -155.4624
  30   2.0000      -5.709259      -155.3568
  31   2.0000      -5.664057      -154.1268
  32   2.0000      -5.659900      -154.0137
  33   2.0000      -5.656151      -153.9117
  34   2.0000      -5.654507      -153.8670
  35   2.0000      -5.651520      -153.7857
  36   2.0000      -5.650743      -153.7645
  37   2.0000      -4.650880      -126.5569
  38   2.0000      -4.649628      -126.5228
  39   2.0000      -4.648421      -126.4900
  40   2.0000      -4.647289      -126.4592
  41   2.0000      -4.647246      -126.4580
  42   2.0000      -4.645004      -126.3970
  43   2.0000      -0.986812       -26.8525
  44   2.0000      -0.984033       -26.7769
  45   2.0000      -0.944492       -25.7009
  46   2.0000      -0.942574       -25.6488
  47   2.0000      -0.766382       -20.8543
  48   2.0000      -0.723527       -19.6882
  49   2.0000      -0.709426       -19.3045
  50   2.0000      -0.695768       -18.9328
  51   2.0000      -0.682580       -18.5739
  52   2.0000      -0.674171       -18.3451
  53   2.0000      -0.656551       -17.8657
  54   2.0000      -0.642099       -17.4724
  55   2.0000      -0.597112       -16.2482
  56   2.0000      -0.592196       -16.1145
  57   2.0000      -0.583751       -15.8847
  58   2.0000      -0.570161       -15.5149
  59   2.0000      -0.560663       -15.2564
  60   2.0000      -0.503885       -13.7114
  61   2.0000      -0.490864       -13.3571
  62   2.0000      -0.477788       -13.0013
  63   2.0000      -0.461612       -12.5611
  64   2.0000      -0.459055       -12.4915
  65   2.0000      -0.452402       -12.3105
  66   2.0000      -0.437909       -11.9161
  67   2.0000      -0.435390       -11.8476
  68   2.0000      -0.427723       -11.6389
  69   2.0000      -0.420431       -11.4405
  70   2.0000      -0.414933       -11.2909
  71   2.0000      -0.408950       -11.1281
  72   2.0000      -0.397396       -10.8137
  73   2.0000      -0.387316       -10.5394
  74   2.0000      -0.382981       -10.4215
  75   2.0000      -0.372817       -10.1449
  76   2.0000      -0.362368        -9.8605
  77   2.0000      -0.357849        -9.7376
  78   2.0000      -0.356368        -9.6973
  79   2.0000      -0.353243        -9.6122
  80   2.0000      -0.349233        -9.5031
  81   2.0000      -0.348389        -9.4801
  82   2.0000      -0.338648        -9.2151
  83   2.0000      -0.334018        -9.0891
  84   2.0000      -0.330012        -8.9801
  85   2.0000      -0.319469        -8.6932
  86   2.0000      -0.312243        -8.4966
  87   2.0000      -0.309080        -8.4105
  88   2.0000      -0.299907        -8.1609
  89   2.0000      -0.285339        -7.7645
  90   2.0000      -0.282296        -7.6817
  91   2.0000      -0.275730        -7.5030
  92   2.0000      -0.272920        -7.4265
  93   2.0000      -0.266737        -7.2583
  94   2.0000      -0.257522        -7.0075
  95   2.0000      -0.236718        -6.4414
  96   2.0000      -0.223722        -6.0878
  97   2.0000      -0.209635        -5.7044
  98   2.0000      -0.208081        -5.6622
  99   2.0000      -0.200202        -5.4478
 100   2.0000      -0.197699        -5.3797
 101   0.0000      -0.049201        -1.3388
 102   0.0000      -0.034995        -0.9523
 103   0.0000      -0.028379        -0.7722
 104   0.0000      -0.003459        -0.0941
 105   0.0000       0.017135         0.4663

MULLIKEN ATOMIC CHARGES
-----------------------
   0 C :   -0.331138
   1 C :   -0.024143
   2 O :   -0.374277
   3 P :    0.641322
   4 S :   -0.317685
   5 O :   -0.381476
   6 C :   -0.025165
   7 C :   -0.280361
   8 S :   -0.107594
   9 C :   -0.333309
  10 S :   -0.103065
  11 P :    0.595458
  12 S :   -0.306000
  13 O :   -0.361999
  14 C :    0.002105
  15 C :   -0.310263
  16 O :   -0.376781
  17 C :    0.000983
  18 C :   -0.322640
  19 H :    0.119417
  20 H :    0.130523
  21 H :    0.116501
  22 H :    0.142658
  23 H :    0.107530
  24 H :    0.105145
  25 H :    0.106092
  26 H :    0.106131
  27 H :    0.127658
  28 H :    0.112898
  29 H :    0.208286
  30 H :    0.183548
  31 H :    0.102681
  32 H :    0.103312
  33 H :    0.129282
  34 H :    0.111881
  35 H :    0.124819
  36 H :    0.111249
  37 H :    0.111154
  38 H :    0.128684
  39 H :    0.107009
  40 H :    0.119571
Sum of atomic charges:    0.0000000

LOEWDIN ATOMIC CHARGES
----------------------
   0 C :   -0.367589
   1 C :   -0.119859
   2 O :   -0.238961
   3 P :    0.583180
   4 S :   -0.286587
   5 O :   -0.258529
   6 C :   -0.119880
   7 C :   -0.360498
   8 S :    0.102781
   9 C :   -0.475657
  10 S :    0.072580
  11 P :    0.571085
  12 S :   -0.304837
  13 O :   -0.238167
  14 C :   -0.118978
  15 C :   -0.369856
  16 O :   -0.241128
  17 C :   -0.129148
  18 C :   -0.372987
  19 H :    0.125250
  20 H :    0.118447
  21 H :    0.132929
  22 H :    0.118337
  23 H :    0.121962
  24 H :    0.114890
  25 H :    0.109478
  26 H :    0.128065
  27 H :    0.125366
  28 H :    0.126084
  29 H :    0.124751
  30 H :    0.140203
  31 H :    0.118025
  32 H :    0.099165
  33 H :    0.130169
  34 H :    0.130484
  35 H :    0.119622
  36 H :    0.116721
  37 H :    0.107332
  38 H :    0.117730
  39 H :    0.130420
  40 H :    0.117604

  Mayer bond orders larger than 0.100000
B(  0-C ,  1-C ) :   1.1620 B(  0-C , 19-H ) :   0.9426 B(  0-C , 20-H ) :   0.9362
B(  0-C , 21-H ) :   0.9362 B(  1-C ,  2-O ) :   0.9008 B(  1-C , 22-H ) :   0.9046
B(  1-C , 23-H ) :   0.9337 B(  2-O ,  3-P ) :   1.1120 B(  3-P ,  4-S ) :   1.6010
B(  3-P ,  5-O ) :   1.0807 B(  3-P ,  8-S ) :   0.9553 B(  4-S ,  8-S ) :   0.1079
B(  4-S , 29-H ) :   0.1047 B(  5-O ,  6-C ) :   0.9033 B(  6-C ,  7-C ) :   1.1696
B(  6-C , 24-H ) :   0.9314 B(  6-C , 25-H ) :   0.9137 B(  7-C , 26-H ) :   0.9402
B(  7-C , 27-H ) :   0.9342 B(  7-C , 28-H ) :   0.9472 B(  8-S ,  9-C ) :   1.0153
B(  9-C , 10-S ) :   0.9807 B(  9-C , 29-H ) :   0.8488 B(  9-C , 30-H ) :   0.9092
B( 10-S , 11-P ) :   0.9597 B( 11-P , 12-S ) :   1.6543 B( 11-P , 13-O ) :   1.0775
B( 11-P , 16-O ) :   1.0900 B( 13-O , 14-C ) :   0.9092 B( 14-C , 15-C ) :   1.1688
B( 14-C , 31-H ) :   0.9330 B( 14-C , 32-H ) :   0.9143 B( 15-C , 33-H ) :   0.9406
B( 15-C , 34-H ) :   0.9346 B( 15-C , 35-H ) :   0.9341 B( 16-O , 17-C ) :   0.8863
B( 17-C , 18-C ) :   1.1696 B( 17-C , 36-H ) :   0.9161 B( 17-C , 37-H ) :   0.9143
B( 18-C , 38-H ) :   0.9320 B( 18-C , 39-H ) :   0.9390 B( 18-C , 40-H ) :   0.9324

Dispersion correction           -0.070372283
FINAL SINGLE POINT ENERGY     -2929.513420869156

DIPOLE MOMENT
-------------

Method             : SCF
Type of density    : Electron Density
Multiplicity       :   1
Irrep              :   0
Energy             : -2929.6331676008708200 Eh
Relativity type    :
Basis              : AO
                                X                 Y                 Z
Electronic contribution:    -12.089503227      -3.646547831      -5.058403930
Nuclear contribution   :     13.822867320       4.386588556       4.930698512
                        -----------------------------------------
Total Dipole Moment    :      1.733364093       0.740040725      -0.127705417
                        -----------------------------------------
Magnitude (a.u.)       :      1.889052680
Magnitude (Debye)      :      4.801590325

Rotational constants in cm-1:             0.012944             0.005752             0.005164
Rotational constants in MHz :           388.038845           172.428266           154.807932

                             ****ORCA TERMINATED NORMALLY****
TOTAL RUN TIME: 0 days 0 hours 0 minutes 22 seconds 426 msec
