                         Program Version 6.0.0  -   RELEASE  -
|  1> ! pbe def2-sv(p) def2/J RI DEFGRID1 loosescf d4 GCP(DFT/SV(P)) printgap
|  2> %output
|  3>     printlevel normal
|  4> end
|  5> * xyz 0 1
|  6> C 1.3159698676 0.677552216 2.8565226613
|  7> C 2.7252776349 0.1559866215 2.6669807291
|  8> O 3.2112792974 0.40701952 1.3379491904
|  9> P 2.7297512124 -0.4361746154 0.0768862297
| 10> S 2.4573864057 -2.3500172684 0.4422295733
| 11> O 3.8113544673 -0.0246884977 -1.0029433824
| 12> C 5.2293088042 0.065891291 -0.7438554568
| 13> C 5.8236714595 -1.2628179633 -0.3242800547
| 14> S 1.0926772667 0.5745962762 -0.8130886922
| 15> C -0.1553632536 -0.7465098098 -0.7786928058
| 16> S -1.4090221181 -0.5296335902 0.5045128398
| 17> P -2.9145715786 0.4693762982 -0.6463827153
| 18> S -2.4673989106 0.9090757972 -2.4975677047
| 19> O -3.3877822689 1.6904267869 0.2612189785
| 20> C -2.7608662444 2.983643042 0.2329747776
| 21> C -1.3896206977 2.9704673428 0.8779379841
| 22> O -4.1688658114 -0.4795559073 -0.5558156718
| 23> C -4.6758394615 -1.0023209326 0.7014923512
| 24> C -4.4905995371 -2.505790836 0.7421070175
| 25> H 1.0376767376 0.5884960273 3.9015217563
| 26> H 1.2584949981 1.7200100296 2.553953692
| 27> H 0.6155930734 0.0956765231 2.2580911148
| 28> H 2.7690425259 -0.9216355505 2.8566270267
| 29> H 3.4366728468 0.6761090473 3.3102026458
| 30> H 5.6388500934 0.4043667745 -1.6970499905
| 31> H 5.3912149606 0.8271524847 0.0221361887
| 32> H 6.8989767784 -1.160294476 -0.2175361128
| 33> H 5.4002258608 -1.5807524054 0.6276661656
| 34> H 5.6070794177 -2.0257907407 -1.0685446799
| 35> H 0.3493194455 -1.6949734783 -0.5803560522
| 36> H -0.647351773 -0.7468707687 -1.7511203344
| 37> H -2.6971832078 3.3161425725 -0.8079082683
| 38> H -3.4567696017 3.6194769435 0.7827364441
| 39> H -1.0311711077 3.9905454129 0.9717482915
| 40> H -1.442425072 2.5137134171 1.8630588333
| 41> H -0.6879413922 2.4103976801 0.2611390441
| 42> H -4.156164785 -0.5146695378 1.5288820389
| 43> H -5.7320247261 -0.7297571473 0.7183291097
| 44> H -4.9555610281 -2.9608140424 -0.1279879083
| 45> H -3.4331528268 -2.7586203792 0.7488072173
| 46> H -4.9541513299 -2.8965465289 1.642229136
| 47> *
| 48>
| 49>                          ****END OF INPUT****

CARTESIAN COORDINATES (ANGSTROEM)
---------------------------------
  C      1.315970    0.677552    2.856523
  C      2.725278    0.155987    2.666981
  O      3.211279    0.407020    1.337949
  P      2.729751   -0.436175    0.076886
  S      2.457386   -2.350017    0.442230
  O      3.811354   -0.024688   -1.002943
  C      5.229309    0.065891   -0.743855
  C      5.823671   -1.262818   -0.324280
  S      1.092677    0.574596   -0.813089
  C     -0.155363   -0.746510   -0.778693
  S     -1.409022   -0.529634    0.504513
  P     -2.914572    0.469376   -0.646383
  S     -2.467399    0.909076   -2.497568
  O     -3.387782    1.690427    0.261219
  C     -2.760866    2.983643    0.232975
  C     -1.389621    2.970467    0.877938
  O     -4.168866   -0.479556   -0.555816
  C     -4.675839   -1.002321    0.701492
  C     -4.490600   -2.505791    0.742107
  H      1.037677    0.588496    3.901522
  H      1.258495    1.720010    2.553954
  H      0.615593    0.095677    2.258091
  H      2.769043   -0.921636    2.856627
  H      3.436673    0.676109    3.310203
  H      5.638850    0.404367   -1.697050
  H      5.391215    0.827152    0.022136
  H      6.898977   -1.160294   -0.217536
  H      5.400226   -1.580752    0.627666
  H      5.607079   -2.025791   -1.068545
  H      0.349319   -1.694973   -0.580356
  H     -0.647352   -0.746871   -1.751120
  H     -2.697183    3.316143   -0.807908
  H     -3.456770    3.619477    0.782736
  H     -1.031171    3.990545    0.971748
  H     -1.442425    2.513713    1.863059
  H     -0.687941    2.410398    0.261139
  H     -4.156165   -0.514670    1.528882
  H     -5.732025   -0.729757    0.718329
  H     -4.955561   -2.960814   -0.127988
  H     -3.433153   -2.758620    0.748807
  H     -4.954151   -2.896547    1.642229

 Total Charge           Charge          ....    0
 Multiplicity           Mult            ....    1
 Number of Electrons    NEL             ....  202
 Basis Dimension        Dim             ....  334

ORBITAL ENERGIES
----------------

  NO   OCC          E(Eh)            E(eV)
   0   2.0000     -88.044151     -2395.8032
   1   2.0000     -88.042505     -2395.7584
   2   2.0000     -87.992731     -2394.4039
   3   2.0000     -87.989754     -2394.3229
   4   2.0000     -76.429383     -2079.7492
   5   2.0000     -76.426908     -2079.6819
   6   2.0000     -18.797236      -511.4988
   7   2.0000     -18.792350      -511.3658
   8   2.0000     -18.792076      -511.3584
   9   2.0000     -18.790492      -511.3153
  10   2.0000      -9.959204      -271.0037
  11   2.0000      -9.956940      -270.9421
  12   2.0000      -9.955445      -270.9014
  13   2.0000      -9.952693      -270.8265
  14   2.0000      -9.948125      -270.7022
  15   2.0000      -9.886290      -269.0196
  16   2.0000      -9.885697      -269.0035
  17   2.0000      -9.885676      -269.0029
  18   2.0000      -9.882459      -268.9154
  19   2.0000      -7.688320      -209.2098
  20   2.0000      -7.687147      -209.1779
  21   2.0000      -7.637555      -207.8284
  22   2.0000      -7.634950      -207.7576
  23   2.0000      -6.426900      -174.8849
  24   2.0000      -6.424608      -174.8225
  25   2.0000      -5.716073      -155.5422
  26   2.0000      -5.714970      -155.5122
  27   2.0000      -5.712859      -155.4548
  28   2.0000      -5.711648      -155.4218
  29   2.0000      -5.705502      -155.2546
  30   2.0000      -5.704222      -155.2198
  31   2.0000      -5.666272      -154.1871
  32   2.0000      -5.663959      -154.1241
  33   2.0000      -5.658362      -153.9718
  34   2.0000      -5.657761      -153.9555
  35   2.0000      -5.655379      -153.8907
  36   2.0000      -5.655180      -153.8853
  37   2.0000      -4.649703      -126.5248
  38   2.0000      -4.648323      -126.4873
  39   2.0000      -4.647474      -126.4642
  40   2.0000      -4.647277      -126.4588
  41   2.0000      -4.646229      -126.4303
  42   2.0000      -4.645102      -126.3996
  43   2.0000      -0.991337       -26.9757
  44   2.0000      -0.987968       -26.8840
  45   2.0000      -0.947177       -25.7740
  46   2.0000      -0.944170       -25.6922
  47   2.0000      -0.760349       -20.6902
  48   2.0000      -0.723749       -19.6942
  49   2.0000      -0.712093       -19.3770
  50   2.0000      -0.691330       -18.8120
  51   2.0000      -0.688821       -18.7438
  52   2.0000      -0.677290       -18.4300
  53   2.0000      -0.653036       -17.7700
  54   2.0000      -0.639633       -17.4053
  55   2.0000      -0.602404       -16.3922
  56   2.0000      -0.591339       -16.0912
  57   2.0000      -0.580616       -15.7994
  58   2.0000      -0.576000       -15.6738
  59   2.0000      -0.555863       -15.1258
  60   2.0000      -0.504478       -13.7275
  61   2.0000      -0.499172       -13.5832
  62   2.0000      -0.474810       -12.9202
  63   2.0000      -0.473518       -12.8851
  64   2.0000      -0.461027       -12.5452
  65   2.0000      -0.450210       -12.2508
  66   2.0000      -0.441423       -12.0117
  67   2.0000      -0.433994       -11.8096
  68   2.0000      -0.432397       -11.7661
  69   2.0000      -0.419493       -11.4150
  70   2.0000      -0.414360       -11.2753
  71   2.0000      -0.406484       -11.0610
  72   2.0000      -0.395454       -10.7608
  73   2.0000      -0.384738       -10.4693
  74   2.0000      -0.376093       -10.2340
  75   2.0000      -0.370912       -10.0930
  76   2.0000      -0.368645       -10.0313
  77   2.0000      -0.357446        -9.7266
  78   2.0000      -0.354921        -9.6579
  79   2.0000      -0.350372        -9.5341
  80   2.0000      -0.347867        -9.4659
  81   2.0000      -0.346653        -9.4329
  82   2.0000      -0.344096        -9.3633
  83   2.0000      -0.338991        -9.2244
  84   2.0000      -0.338729        -9.2173
  85   2.0000      -0.320047        -8.7089
  86   2.0000      -0.311209        -8.4684
  87   2.0000      -0.301671        -8.2089
  88   2.0000      -0.300426        -8.1750
  89   2.0000      -0.295189        -8.0325
  90   2.0000      -0.291835        -7.9412
  91   2.0000      -0.278345        -7.5742
  92   2.0000      -0.272547        -7.4164
  93   2.0000      -0.265744        -7.2313
  94   2.0000      -0.258925        -7.0457
  95   2.0000      -0.228772        -6.2252
  96   2.0000      -0.221524        -6.0280
  97   2.0000      -0.214179        -5.8281
  98   2.0000      -0.208911        -5.6847
  99   2.0000      -0.206221        -5.6116
 100   2.0000      -0.202141        -5.5005
 101   0.0000      -0.043225        -1.1762
 102   0.0000      -0.036425        -0.9912
 103   0.0000      -0.014842        -0.4039
 104   0.0000       0.005989         0.1630
 105   0.0000       0.010510         0.2860

MULLIKEN ATOMIC CHARGES
-----------------------
   0 C :   -0.329333
   1 C :   -0.001924
   2 O :   -0.380783
   3 P :    0.621906
   4 S :   -0.327362
   5 O :   -0.369887
   6 C :   -0.001614
   7 C :   -0.315379
   8 S :   -0.070486
   9 C :   -0.352240
  10 S :   -0.122246
  11 P :    0.594287
  12 S :   -0.300206
  13 O :   -0.378436
  14 C :    0.005200
  15 C :   -0.340233
  16 O :   -0.356147
  17 C :   -0.017682
  18 C :   -0.282882
  19 H :    0.110732
  20 H :    0.123413
  21 H :    0.136157
  22 H :    0.111030
  23 H :    0.102535
  24 H :    0.110383
  25 H :    0.109779
  26 H :    0.111336
  27 H :    0.127094
  28 H :    0.126742
  29 H :    0.196271
  30 H :    0.196357
  31 H :    0.111153
  32 H :    0.103270
  33 H :    0.110413
  34 H :    0.117760
  35 H :    0.147162
  36 H :    0.107585
  37 H :    0.114342
  38 H :    0.121841
  39 H :    0.121152
  40 H :    0.108940
Sum of atomic charges:   -0.0000000

LOEWDIN ATOMIC CHARGES
----------------------
   0 C :   -0.368587
   1 C :   -0.120265
   2 O :   -0.246097
   3 P :    0.567525
   4 S :   -0.306515
   5 O :   -0.242482
   6 C :   -0.110508
   7 C :   -0.366538
   8 S :    0.105905
   9 C :   -0.489503
  10 S :    0.077673
  11 P :    0.566566
  12 S :   -0.294255
  13 O :   -0.250171
  14 C :   -0.115483
  15 C :   -0.373405
  16 O :   -0.239699
  17 C :   -0.112166
  18 C :   -0.358276
  19 H :    0.130669
  20 H :    0.126955
  21 H :    0.112432
  22 H :    0.108857
  23 H :    0.117142
  24 H :    0.122146
  25 H :    0.113187
  26 H :    0.129857
  27 H :    0.121790
  28 H :    0.131080
  29 H :    0.124237
  30 H :    0.128328
  31 H :    0.112003
  32 H :    0.117923
  33 H :    0.130101
  34 H :    0.123542
  35 H :    0.113617
  36 H :    0.106914
  37 H :    0.122946
  38 H :    0.130330
  39 H :    0.122898
  40 H :    0.129327

  Mayer bond orders larger than 0.100000
B(  0-C ,  1-C ) :   1.1625 B(  0-C , 19-H ) :   0.9380 B(  0-C , 20-H ) :   0.9427
B(  0-C , 21-H ) :   0.9284 B(  1-C ,  2-O ) :   0.9120 B(  1-C , 22-H ) :   0.9114
B(  1-C , 23-H ) :   0.9325 B(  2-O ,  3-P ) :   1.0795 B(  3-P ,  4-S ) :   1.6017
B(  3-P ,  5-O ) :   1.1357 B(  3-P ,  8-S ) :   0.9688 B(  4-S ,  8-S ) :   0.1219
B(  4-S , 29-H ) :   0.1147 B(  5-O ,  6-C ) :   0.9072 B(  6-C ,  7-C ) :   1.1659
B(  6-C , 24-H ) :   0.9346 B(  6-C , 25-H ) :   0.9290 B(  7-C , 26-H ) :   0.9364
B(  7-C , 27-H ) :   0.9365 B(  7-C , 28-H ) :   0.9453 B(  8-S ,  9-C ) :   1.0167
B(  9-C , 10-S ) :   1.0127 B(  9-C , 29-H ) :   0.8474 B(  9-C , 30-H ) :   0.8652
B( 10-S , 11-P ) :   0.9322 B( 10-S , 12-S ) :   0.1123 B( 11-P , 12-S ) :   1.6445
B( 11-P , 13-O ) :   1.0914 B( 11-P , 16-O ) :   1.1449 B( 13-O , 14-C ) :   0.9123
B( 14-C , 15-C ) :   1.1626 B( 14-C , 31-H ) :   0.9168 B( 14-C , 32-H ) :   0.9342
B( 15-C , 33-H ) :   0.9371 B( 15-C , 34-H ) :   0.9423 B( 15-C , 35-H ) :   0.9247
B( 16-O , 17-C ) :   0.8866 B( 17-C , 18-C ) :   1.1634 B( 17-C , 36-H ) :   0.9183
B( 17-C , 37-H ) :   0.9337 B( 18-C , 38-H ) :   0.9460 B( 18-C , 39-H ) :   0.9401
B( 18-C , 40-H ) :   0.9399

Dispersion correction           -0.062847380
FINAL SINGLE POINT ENERGY     -2929.519651642073

DIPOLE MOMENT
-------------

Method             : SCF
Type of density    : Electron Density
Multiplicity       :   1
Irrep              :   0
Energy             : -2929.6415828047215655 Eh
Relativity type    :
Basis              : AO
                                X                 Y                 Z
Electronic contribution:     -4.615156754      -1.433699077     -15.574288389
Nuclear contribution   :      5.053847619       2.071450034      17.274167470
                        -----------------------------------------
Total Dipole Moment    :      0.438690865       0.637750957       1.699879080
                        -----------------------------------------
Magnitude (a.u.)       :      1.867823558
Magnitude (Debye)      :      4.747630185

Rotational constants in cm-1:             0.013591             0.003957             0.003849
Rotational constants in MHz :           407.444570           118.641573           115.382515

                             ****ORCA TERMINATED NORMALLY****
TOTAL RUN TIME: 0 days 0 hours 0 minutes 20 seconds 426 msec
