                         Program Version 6.0.0  -   RELEASE  -
|  1> ! pbe def2-sv(p) def2/J RI DEFGRID1 loosescf d4 GCP(DFT/SV(P)) printgap
|  2> %output
|  3>     printlevel normal
|  4> end
|  5> * xyz 0 1
|  6> C 5.1276563552 -0.4642044452 -1.286233643
|  7> C 4.4499297164 -0.5764836163 0.0645604497
|  8> O 3.466256069 0.4546500954 0.2717962741
|  9> P 2.0278264515 0.5026962527 -0.4079904592
| 10> S 1.9410623808 0.8124056341 -2.3366073367
| 11> O 1.3543258443 1.6683128759 0.4062610092
| 12> C 1.3413943379 1.7194359486 1.8537726935
| 13> C 2.3770544512 2.7031415144 2.356644531
| 14> S 1.198918384 -1.3409844868 0.265117491
| 15> C 0.1112189077 -1.7578560662 -1.1299594419
| 16> S -1.5939780646 -2.0518796789 -0.6146350418
| 17> P -2.058222419 -0.0755574582 0.022770631
| 18> S -1.4299068586 1.3610263747 -1.150787456
| 19> O -1.5447523927 0.0671880619 1.5039675301
| 20> C -1.9896080736 -0.8352176977 2.5595456828
| 21> C -0.8160644853 -1.1471584736 3.4639703682
| 22> O -3.6306539 -0.1541937312 0.2291171777
| 23> C -4.5339299974 -0.2263150801 -0.8936376993
| 24> C -5.9202813703 0.1274830663 -0.3954692507
| 25> H 4.4104924062 -0.6280500675 -2.0876955926
| 26> H 5.5579839343 0.5262514312 -1.4097786082
| 27> H 5.914134455 -1.2088738746 -1.3540954314
| 28> H 5.1616946113 -0.4190670642 0.8772997029
| 29> H 3.9678951877 -1.5509427961 0.1820359892
| 30> H 0.3266600824 2.0343487012 2.1077274891
| 31> H 1.5229758816 0.7144425895 2.2452749246
| 32> H 2.3108564938 2.7674070482 3.4381752223
| 33> H 3.3735640915 2.3748346542 2.0733342428
| 34> H 2.1965780686 3.6840322735 1.925293641
| 35> H 0.4592827075 -2.6895556037 -1.5687885001
| 36> H 0.1520564244 -0.9395643461 -1.8552062653
| 37> H -2.7874070623 -0.3178201289 3.0938391921
| 38> H -2.3889911778 -1.743233575 2.09992355
| 39> H -0.4183253984 -0.23250168 3.8937433713
| 40> H -1.1545963599 -1.8000872332 4.2620159369
| 41> H -0.0302776001 -1.6478219823 2.9036058577
| 42> H -4.1899399491 0.472974785 -1.6628387811
| 43> H -4.4986516811 -1.2435802736 -1.2923995486
| 44> H -5.9279394398 1.1393947087 -0.0002891236
| 45> H -6.6220985166 0.0597922745 -1.2200764075
| 46> H -6.2184129499 -0.5609002221 0.3897183199
| 47> *
| 48>
| 49>                          ****END OF INPUT****

CARTESIAN COORDINATES (ANGSTROEM)
---------------------------------
  C      5.127656   -0.464204   -1.286234
  C      4.449930   -0.576484    0.064560
  O      3.466256    0.454650    0.271796
  P      2.027826    0.502696   -0.407990
  S      1.941062    0.812406   -2.336607
  O      1.354326    1.668313    0.406261
  C      1.341394    1.719436    1.853773
  C      2.377054    2.703142    2.356645
  S      1.198918   -1.340984    0.265117
  C      0.111219   -1.757856   -1.129959
  S     -1.593978   -2.051880   -0.614635
  P     -2.058222   -0.075557    0.022771
  S     -1.429907    1.361026   -1.150787
  O     -1.544752    0.067188    1.503968
  C     -1.989608   -0.835218    2.559546
  C     -0.816064   -1.147158    3.463970
  O     -3.630654   -0.154194    0.229117
  C     -4.533930   -0.226315   -0.893638
  C     -5.920281    0.127483   -0.395469
  H      4.410492   -0.628050   -2.087696
  H      5.557984    0.526251   -1.409779
  H      5.914134   -1.208874   -1.354095
  H      5.161695   -0.419067    0.877300
  H      3.967895   -1.550943    0.182036
  H      0.326660    2.034349    2.107727
  H      1.522976    0.714443    2.245275
  H      2.310856    2.767407    3.438175
  H      3.373564    2.374835    2.073334
  H      2.196578    3.684032    1.925294
  H      0.459283   -2.689556   -1.568789
  H      0.152056   -0.939564   -1.855206
  H     -2.787407   -0.317820    3.093839
  H     -2.388991   -1.743234    2.099924
  H     -0.418325   -0.232502    3.893743
  H     -1.154596   -1.800087    4.262016
  H     -0.030278   -1.647822    2.903606
  H     -4.189940    0.472975   -1.662839
  H     -4.498652   -1.243580   -1.292400
  H     -5.927939    1.139395   -0.000289
  H     -6.622099    0.059792   -1.220076
  H     -6.218413   -0.560900    0.389718

 Total Charge           Charge          ....    0
 Multiplicity           Mult            ....    1
 Number of Electrons    NEL             ....  202
 Basis Dimension        Dim             ....  334

ORBITAL ENERGIES
----------------

  NO   OCC          E(Eh)            E(eV)
   0   2.0000     -88.042812     -2395.7667
   1   2.0000     -88.041512     -2395.7313
   2   2.0000     -87.977686     -2393.9946
   3   2.0000     -87.977175     -2393.9806
   4   2.0000     -76.421758     -2079.5418
   5   2.0000     -76.421186     -2079.5262
   6   2.0000     -18.792890      -511.3805
   7   2.0000     -18.792558      -511.3715
   8   2.0000     -18.791394      -511.3398
   9   2.0000     -18.781879      -511.0809
  10   2.0000      -9.958185      -270.9760
  11   2.0000      -9.953484      -270.8481
  12   2.0000      -9.953287      -270.8427
  13   2.0000      -9.952971      -270.8341
  14   2.0000      -9.947583      -270.6875
  15   2.0000      -9.890537      -269.1352
  16   2.0000      -9.889283      -269.1011
  17   2.0000      -9.880801      -268.8703
  18   2.0000      -9.878173      -268.7988
  19   2.0000      -7.688007      -209.2013
  20   2.0000      -7.686030      -209.1475
  21   2.0000      -7.622630      -207.4223
  22   2.0000      -7.622421      -207.4166
  23   2.0000      -6.419461      -174.6824
  24   2.0000      -6.418392      -174.6533
  25   2.0000      -5.715774      -155.5341
  26   2.0000      -5.713794      -155.4802
  27   2.0000      -5.712325      -155.4403
  28   2.0000      -5.710377      -155.3872
  29   2.0000      -5.705298      -155.2490
  30   2.0000      -5.703319      -155.1952
  31   2.0000      -5.651717      -153.7910
  32   2.0000      -5.651565      -153.7869
  33   2.0000      -5.643122      -153.5572
  34   2.0000      -5.642941      -153.5522
  35   2.0000      -5.642773      -153.5477
  36   2.0000      -5.642380      -153.5370
  37   2.0000      -4.642314      -126.3238
  38   2.0000      -4.641322      -126.2968
  39   2.0000      -4.641123      -126.2914
  40   2.0000      -4.640340      -126.2701
  41   2.0000      -4.639485      -126.2468
  42   2.0000      -4.638598      -126.2227
  43   2.0000      -0.989016       -26.9125
  44   2.0000      -0.983711       -26.7681
  45   2.0000      -0.944921       -25.7126
  46   2.0000      -0.938343       -25.5336
  47   2.0000      -0.761119       -20.7111
  48   2.0000      -0.720229       -19.5984
  49   2.0000      -0.710348       -19.3296
  50   2.0000      -0.693540       -18.8722
  51   2.0000      -0.686051       -18.6684
  52   2.0000      -0.674076       -18.3425
  53   2.0000      -0.645441       -17.5633
  54   2.0000      -0.631900       -17.1949
  55   2.0000      -0.586803       -15.9677
  56   2.0000      -0.581577       -15.8255
  57   2.0000      -0.573192       -15.5973
  58   2.0000      -0.567810       -15.4509
  59   2.0000      -0.567596       -15.4451
  60   2.0000      -0.513005       -13.9596
  61   2.0000      -0.498885       -13.5754
  62   2.0000      -0.483053       -13.1446
  63   2.0000      -0.472661       -12.8618
  64   2.0000      -0.450450       -12.2574
  65   2.0000      -0.447510       -12.1774
  66   2.0000      -0.438227       -11.9248
  67   2.0000      -0.437238       -11.8979
  68   2.0000      -0.428760       -11.6672
  69   2.0000      -0.418213       -11.3802
  70   2.0000      -0.405716       -11.0401
  71   2.0000      -0.400045       -10.8858
  72   2.0000      -0.393025       -10.6947
  73   2.0000      -0.381454       -10.3799
  74   2.0000      -0.377760       -10.2794
  75   2.0000      -0.366545        -9.9742
  76   2.0000      -0.359604        -9.7853
  77   2.0000      -0.355348        -9.6695
  78   2.0000      -0.353380        -9.6160
  79   2.0000      -0.352611        -9.5950
  80   2.0000      -0.348919        -9.4946
  81   2.0000      -0.343100        -9.3362
  82   2.0000      -0.339490        -9.2380
  83   2.0000      -0.335710        -9.1351
  84   2.0000      -0.332384        -9.0446
  85   2.0000      -0.316087        -8.6012
  86   2.0000      -0.313908        -8.5419
  87   2.0000      -0.303116        -8.2482
  88   2.0000      -0.299923        -8.1613
  89   2.0000      -0.292288        -7.9536
  90   2.0000      -0.283992        -7.7278
  91   2.0000      -0.275472        -7.4960
  92   2.0000      -0.269378        -7.3301
  93   2.0000      -0.260064        -7.0767
  94   2.0000      -0.256971        -6.9925
  95   2.0000      -0.235926        -6.4199
  96   2.0000      -0.221532        -6.0282
  97   2.0000      -0.208405        -5.6710
  98   2.0000      -0.197791        -5.3822
  99   2.0000      -0.188459        -5.1282
 100   2.0000      -0.179940        -4.8964
 101   0.0000      -0.039133        -1.0649
 102   0.0000      -0.030225        -0.8225
 103   0.0000      -0.005173        -0.1408
 104   0.0000       0.011037         0.3003
 105   0.0000       0.019375         0.5272

MULLIKEN ATOMIC CHARGES
-----------------------
   0 C :   -0.301547
   1 C :   -0.010025
   2 O :   -0.381033
   3 P :    0.606944
   4 S :   -0.286770
   5 O :   -0.337997
   6 C :   -0.022078
   7 C :   -0.282344
   8 S :   -0.132551
   9 C :   -0.344368
  10 S :   -0.116372
  11 P :    0.575636
  12 S :   -0.271182
  13 O :   -0.355512
  14 C :   -0.009644
  15 C :   -0.293367
  16 O :   -0.386345
  17 C :   -0.010263
  18 C :   -0.280757
  19 H :    0.128034
  20 H :    0.117994
  21 H :    0.105630
  22 H :    0.102851
  23 H :    0.103812
  24 H :    0.117978
  25 H :    0.098773
  26 H :    0.103802
  27 H :    0.116632
  28 H :    0.121975
  29 H :    0.179067
  30 H :    0.210521
  31 H :    0.110650
  32 H :    0.102993
  33 H :    0.118115
  34 H :    0.109898
  35 H :    0.131478
  36 H :    0.107305
  37 H :    0.103739
  38 H :    0.121950
  39 H :    0.113455
  40 H :    0.112920
Sum of atomic charges:    0.0000000

LOEWDIN ATOMIC CHARGES
----------------------
   0 C :   -0.367419
   1 C :   -0.118846
   2 O :   -0.246547
   3 P :    0.566456
   4 S :   -0.288075
   5 O :   -0.222181
   6 C :   -0.114630
   7 C :   -0.357852
   8 S :    0.061957
   9 C :   -0.479812
  10 S :    0.057290
  11 P :    0.553089
  12 S :   -0.282028
  13 O :   -0.236274
  14 C :   -0.112446
  15 C :   -0.356375
  16 O :   -0.254117
  17 C :   -0.119751
  18 C :   -0.350477
  19 H :    0.122244
  20 H :    0.128306
  21 H :    0.127648
  22 H :    0.117075
  23 H :    0.101996
  24 H :    0.120498
  25 H :    0.100952
  26 H :    0.126538
  27 H :    0.124918
  28 H :    0.129966
  29 H :    0.135546
  30 H :    0.126164
  31 H :    0.118118
  32 H :    0.104581
  33 H :    0.125362
  34 H :    0.130035
  35 H :    0.122164
  36 H :    0.110678
  37 H :    0.108769
  38 H :    0.129681
  39 H :    0.131591
  40 H :    0.125205

  Mayer bond orders larger than 0.100000
B(  0-C ,  1-C ) :   1.1646 B(  0-C , 19-H ) :   0.9302 B(  0-C , 20-H ) :   0.9472
B(  0-C , 21-H ) :   0.9372 B(  1-C ,  2-O ) :   0.9166 B(  1-C , 22-H ) :   0.9351
B(  1-C , 23-H ) :   0.9157 B(  2-O ,  3-P ) :   1.0674 B(  3-P ,  4-S ) :   1.6513
B(  3-P ,  5-O ) :   1.1460 B(  3-P ,  8-S ) :   0.9409 B(  4-S ,  8-S ) :   0.1154
B(  5-O ,  6-C ) :   0.8946 B(  6-C ,  7-C ) :   1.1590 B(  6-C , 24-H ) :   0.9275
B(  6-C , 25-H ) :   0.9131 B(  7-C , 26-H ) :   0.9409 B(  7-C , 27-H ) :   0.9428
B(  7-C , 28-H ) :   0.9468 B(  8-S ,  9-C ) :   0.9946 B(  9-C , 10-S ) :   1.0022
B(  9-C , 29-H ) :   0.9112 B(  9-C , 30-H ) :   0.8422 B( 10-S , 11-P ) :   0.9353
B( 10-S , 12-S ) :   0.1089 B( 11-P , 12-S ) :   1.6957 B( 11-P , 13-O ) :   1.1241
B( 11-P , 16-O ) :   1.0773 B( 13-O , 14-C ) :   0.8837 B( 14-C , 15-C ) :   1.1670
B( 14-C , 31-H ) :   0.9342 B( 14-C , 32-H ) :   0.9108 B( 15-C , 33-H ) :   0.9451
B( 15-C , 34-H ) :   0.9386 B( 15-C , 35-H ) :   0.9370 B( 16-O , 17-C ) :   0.9042
B( 17-C , 18-C ) :   1.1602 B( 17-C , 36-H ) :   0.9091 B( 17-C , 37-H ) :   0.9294
B( 18-C , 38-H ) :   0.9509 B( 18-C , 39-H ) :   0.9418 B( 18-C , 40-H ) :   0.9512

Dispersion correction           -0.066012091
FINAL SINGLE POINT ENERGY     -2929.517105205479

DIPOLE MOMENT
-------------

Method             : SCF
Type of density    : Electron Density
Multiplicity       :   1
Irrep              :   0
Energy             : -2929.6363856071193368 Eh
Relativity type    :
Basis              : AO
                                X                 Y                 Z
Electronic contribution:     -1.378430597       0.211471173     -14.776378068
Nuclear contribution   :      1.066982311      -1.449998455      16.478189466
                        -----------------------------------------
Total Dipole Moment    :     -0.311448286      -1.238527282       1.701811398
                        -----------------------------------------
Magnitude (a.u.)       :      2.127701083
Magnitude (Debye)      :      5.408186357

Rotational constants in cm-1:             0.012870             0.005086             0.004780
Rotational constants in MHz :           385.829657           152.461598           143.292277

                             ****ORCA TERMINATED NORMALLY****
TOTAL RUN TIME: 0 days 0 hours 0 minutes 22 seconds 89 msec
