                         Program Version 6.0.0  -   RELEASE  -
|  1> ! r2scan-3c def2/J RI DEFGRID2 scfconv6 printgap
|  2> %output
|  3>     printlevel normal
|  4> end
|  5> * xyz 0 1
|  6> C 3.7773439701 -1.4583888472 -2.5522997299
|  7> C 4.0675910852 -1.7401223872 -1.09219555
|  8> O 2.8767554559 -1.705483265 -0.2865886814
|  9> P 2.0769575195 -0.3636829716 0.0015868645
| 10> S 3.1815567101 1.2344654857 0.2877159361
| 11> O 1.1497226359 -0.8080046904 1.2057243145
| 12> C 1.4732799864 -0.5210243427 2.5788967451
| 13> C 2.6524575406 -1.3426327411 3.0553470725
| 14> S 0.6460581511 -0.2713099738 -1.5533634337
| 15> C 0.130474901 1.4381374 -1.2452821595
| 16> S -0.6195869796 1.6633048275 0.3870535419
| 17> P -2.3094914564 0.4208219643 0.0458119381
| 18> S -3.0532903751 0.4826133168 -1.7713735732
| 19> O -3.2617543582 0.7966517654 1.2556133793
| 20> C -3.6107386308 2.1336742003 1.6603155929
| 21> C -4.197338989 2.9551847855 0.5307083013
| 22> O -1.9090010886 -1.0301651528 0.5377543926
| 23> C -2.0293143125 -2.2244501134 -0.2657287499
| 24> C -0.9486162901 -3.2031581437 0.1445890579
| 25> H 3.4490758629 -0.4270256029 -2.6755385929
| 26> H 4.6804651924 -1.6114612428 -3.1343778195
| 27> H 2.9952067489 -2.1192700469 -2.9175307836
| 28> H 4.7759314943 -1.0068539258 -0.6934691608
| 29> H 4.4538713433 -2.749523068 -0.9448802743
| 30> H 1.6816218142 0.5502651143 2.6707625512
| 31> H 0.5577492003 -0.7648176672 3.1200228602
| 32> H 2.8123759082 -1.1644028531 4.1140495588
| 33> H 2.4666087025 -2.4002785212 2.8883127118
| 34> H 3.5484559302 -1.0514900031 2.5079584537
| 35> H -0.5961591947 1.6856856555 -2.0191280787
| 36> H 0.9972443644 2.0972802198 -1.2821255317
| 37> H -4.3383137661 1.976143152 2.4585906684
| 38> H -2.7154897226 2.614312537 2.0652188891
| 39> H -5.040806531 2.4351270709 0.082721698
| 40> H -4.5293986956 3.9134119748 0.9171065097
| 41> H -3.4475324203 3.1244725305 -0.2408469435
| 42> H -3.0241119746 -2.6373705364 -0.0813823012
| 43> H -1.9475209823 -1.9559798291 -1.3243335071
| 44> H -1.030364256 -3.4222068626 1.2051916422
| 45> H -1.0702411278 -4.1187656864 -0.4249860579
| 46> H 0.0372556619 -2.7890449707 -0.052376237
| 47> *
| 48>
| 49>                          ****END OF INPUT****

CARTESIAN COORDINATES (ANGSTROEM)
---------------------------------
  C      3.777344   -1.458389   -2.552300
  C      4.067591   -1.740122   -1.092196
  O      2.876755   -1.705483   -0.286589
  P      2.076958   -0.363683    0.001587
  S      3.181557    1.234465    0.287716
  O      1.149723   -0.808005    1.205724
  C      1.473280   -0.521024    2.578897
  C      2.652458   -1.342633    3.055347
  S      0.646058   -0.271310   -1.553363
  C      0.130475    1.438137   -1.245282
  S     -0.619587    1.663305    0.387054
  P     -2.309491    0.420822    0.045812
  S     -3.053290    0.482613   -1.771374
  O     -3.261754    0.796652    1.255613
  C     -3.610739    2.133674    1.660316
  C     -4.197339    2.955185    0.530708
  O     -1.909001   -1.030165    0.537754
  C     -2.029314   -2.224450   -0.265729
  C     -0.948616   -3.203158    0.144589
  H      3.449076   -0.427026   -2.675539
  H      4.680465   -1.611461   -3.134378
  H      2.995207   -2.119270   -2.917531
  H      4.775931   -1.006854   -0.693469
  H      4.453871   -2.749523   -0.944880
  H      1.681622    0.550265    2.670763
  H      0.557749   -0.764818    3.120023
  H      2.812376   -1.164403    4.114050
  H      2.466609   -2.400279    2.888313
  H      3.548456   -1.051490    2.507958
  H     -0.596159    1.685686   -2.019128
  H      0.997244    2.097280   -1.282126
  H     -4.338314    1.976143    2.458591
  H     -2.715490    2.614313    2.065219
  H     -5.040807    2.435127    0.082722
  H     -4.529399    3.913412    0.917107
  H     -3.447532    3.124473   -0.240847
  H     -3.024112   -2.637371   -0.081382
  H     -1.947521   -1.955980   -1.324334
  H     -1.030364   -3.422207    1.205192
  H     -1.070241   -4.118766   -0.424986
  H      0.037256   -2.789045   -0.052376

 Total Charge           Charge          ....    0
 Multiplicity           Mult            ....    1
 Number of Electrons    NEL             ....  202
 Basis Dimension        Dim             ....  539

ORBITAL ENERGIES
----------------

  NO   OCC          E(Eh)            E(eV)
   0   2.0000     -88.577354     -2410.3123
   1   2.0000     -88.575189     -2410.2534
   2   2.0000     -88.524693     -2408.8794
   3   2.0000     -88.516794     -2408.6644
   4   2.0000     -76.916252     -2092.9976
   5   2.0000     -76.912380     -2092.8923
   6   2.0000     -18.997125      -516.9381
   7   2.0000     -18.990316      -516.7528
   8   2.0000     -18.988244      -516.6964
   9   2.0000     -18.982938      -516.5520
  10   2.0000     -10.106629      -275.0153
  11   2.0000     -10.102558      -274.9046
  12   2.0000     -10.102212      -274.8952
  13   2.0000     -10.096209      -274.7318
  14   2.0000     -10.089423      -274.5471
  15   2.0000     -10.031524      -272.9716
  16   2.0000     -10.028798      -272.8975
  17   2.0000     -10.026268      -272.8286
  18   2.0000     -10.021959      -272.7114
  19   2.0000      -7.871776      -214.2019
  20   2.0000      -7.869550      -214.1413
  21   2.0000      -7.819407      -212.7769
  22   2.0000      -7.811694      -212.5670
  23   2.0000      -6.594884      -179.4559
  24   2.0000      -6.590517      -179.3371
  25   2.0000      -5.818597      -158.3321
  26   2.0000      -5.816386      -158.2719
  27   2.0000      -5.815714      -158.2536
  28   2.0000      -5.813358      -158.1895
  29   2.0000      -5.808854      -158.0669
  30   2.0000      -5.806753      -158.0098
  31   2.0000      -5.766979      -156.9275
  32   2.0000      -5.759693      -156.7292
  33   2.0000      -5.759490      -156.7237
  34   2.0000      -5.759360      -156.7202
  35   2.0000      -5.752010      -156.5201
  36   2.0000      -5.751631      -156.5098
  37   2.0000      -4.740224      -128.9881
  38   2.0000      -4.739756      -128.9753
  39   2.0000      -4.738795      -128.9492
  40   2.0000      -4.735962      -128.8721
  41   2.0000      -4.735609      -128.8625
  42   2.0000      -4.734184      -128.8237
  43   2.0000      -1.052531       -28.6408
  44   2.0000      -1.046422       -28.4746
  45   2.0000      -1.013194       -27.5704
  46   2.0000      -1.004449       -27.3325
  47   2.0000      -0.804218       -21.8839
  48   2.0000      -0.758443       -20.6383
  49   2.0000      -0.749337       -20.3905
  50   2.0000      -0.732614       -19.9354
  51   2.0000      -0.726735       -19.7755
  52   2.0000      -0.711381       -19.3577
  53   2.0000      -0.686123       -18.6704
  54   2.0000      -0.670026       -18.2323
  55   2.0000      -0.635299       -17.2874
  56   2.0000      -0.624235       -16.9863
  57   2.0000      -0.606808       -16.5121
  58   2.0000      -0.601578       -16.3698
  59   2.0000      -0.589630       -16.0447
  60   2.0000      -0.525473       -14.2988
  61   2.0000      -0.518571       -14.1110
  62   2.0000      -0.495129       -13.4731
  63   2.0000      -0.487526       -13.2662
  64   2.0000      -0.477536       -12.9944
  65   2.0000      -0.461122       -12.5478
  66   2.0000      -0.460184       -12.5223
  67   2.0000      -0.448756       -12.2113
  68   2.0000      -0.440913       -11.9979
  69   2.0000      -0.435526       -11.8513
  70   2.0000      -0.430518       -11.7150
  71   2.0000      -0.413739       -11.2584
  72   2.0000      -0.411647       -11.2015
  73   2.0000      -0.405568       -11.0361
  74   2.0000      -0.398631       -10.8473
  75   2.0000      -0.392797       -10.6886
  76   2.0000      -0.382907       -10.4194
  77   2.0000      -0.373607       -10.1664
  78   2.0000      -0.365232        -9.9385
  79   2.0000      -0.362769        -9.8715
  80   2.0000      -0.362003        -9.8506
  81   2.0000      -0.359704        -9.7880
  82   2.0000      -0.356367        -9.6972
  83   2.0000      -0.352117        -9.5816
  84   2.0000      -0.342887        -9.3304
  85   2.0000      -0.336491        -9.1564
  86   2.0000      -0.324211        -8.8222
  87   2.0000      -0.312965        -8.5162
  88   2.0000      -0.310170        -8.4402
  89   2.0000      -0.302028        -8.2186
  90   2.0000      -0.297734        -8.1018
  91   2.0000      -0.290629        -7.9084
  92   2.0000      -0.285380        -7.7656
  93   2.0000      -0.282437        -7.6855
  94   2.0000      -0.267911        -7.2902
  95   2.0000      -0.245265        -6.6740
  96   2.0000      -0.231002        -6.2859
  97   2.0000      -0.228555        -6.2193
  98   2.0000      -0.222139        -6.0447
  99   2.0000      -0.212655        -5.7866
 100   2.0000      -0.211036        -5.7426
 101   0.0000      -0.049879        -1.3573
 102   0.0000      -0.025996        -0.7074
 103   0.0000      -0.002942        -0.0801
 104   0.0000      -0.001728        -0.0470
 105   0.0000       0.009404         0.2559

MULLIKEN ATOMIC CHARGES
-----------------------
   0 C :   -0.454237
   1 C :   -0.150751
   2 O :   -0.306438
   3 P :    0.691696
   4 S :   -0.483921
   5 O :   -0.248752
   6 C :   -0.161589
   7 C :   -0.444981
   8 S :   -0.129887
   9 C :   -0.237740
  10 S :   -0.149313
  11 P :    0.674456
  12 S :   -0.464929
  13 O :   -0.301398
  14 C :   -0.149523
  15 C :   -0.425873
  16 O :   -0.277280
  17 C :   -0.103382
  18 C :   -0.466443
  19 H :    0.177975
  20 H :    0.149313
  21 H :    0.156448
  22 H :    0.171774
  23 H :    0.149316
  24 H :    0.172288
  25 H :    0.159496
  26 H :    0.147495
  27 H :    0.156245
  28 H :    0.166245
  29 H :    0.213028
  30 H :    0.212722
  31 H :    0.150352
  32 H :    0.150805
  33 H :    0.164301
  34 H :    0.146585
  35 H :    0.168848
  36 H :    0.147209
  37 H :    0.171036
  38 H :    0.147138
  39 H :    0.143156
  40 H :    0.168510
Sum of atomic charges:    0.0000000

LOEWDIN ATOMIC CHARGES
----------------------
   0 C :   -0.406425
   1 C :    0.020503
   2 O :   -0.661695
   3 P :    0.376712
   4 S :   -0.128040
   5 O :   -0.682995
   6 C :    0.017604
   7 C :   -0.398886
   8 S :    0.176638
   9 C :   -0.420006
  10 S :    0.162453
  11 P :    0.386555
  12 S :   -0.130913
  13 O :   -0.651928
  14 C :    0.022888
  15 C :   -0.406615
  16 O :   -0.653275
  17 C :    0.013979
  18 C :   -0.393066
  19 H :    0.165910
  20 H :    0.159926
  21 H :    0.160365
  22 H :    0.179796
  23 H :    0.180013
  24 H :    0.181122
  25 H :    0.182688
  26 H :    0.159443
  27 H :    0.160203
  28 H :    0.164095
  29 H :    0.192176
  30 H :    0.189675
  31 H :    0.181659
  32 H :    0.171498
  33 H :    0.165419
  34 H :    0.157866
  35 H :    0.165979
  36 H :    0.172126
  37 H :    0.182076
  38 H :    0.158790
  39 H :    0.157610
  40 H :    0.168074

  Mayer bond orders larger than 0.100000
B(  0-C ,  1-C ) :   0.9218 B(  0-C , 19-H ) :   0.9623 B(  0-C , 20-H ) :   0.9582
B(  0-C , 21-H ) :   0.9690 B(  1-C ,  2-O ) :   0.8131 B(  1-C , 22-H ) :   0.9666
B(  1-C , 23-H ) :   0.9580 B(  2-O ,  3-P ) :   1.0505 B(  3-P ,  4-S ) :   1.7645
B(  3-P ,  5-O ) :   1.1156 B(  3-P ,  8-S ) :   1.0790 B(  5-O ,  6-C ) :   0.7772
B(  6-C ,  7-C ) :   0.9168 B(  6-C , 24-H ) :   0.9591 B(  6-C , 25-H ) :   0.9637
B(  7-C , 26-H ) :   0.9631 B(  7-C , 27-H ) :   0.9746 B(  7-C , 28-H ) :   0.9609
B(  8-S ,  9-C ) :   0.8964 B(  9-C , 10-S ) :   0.9038 B(  9-C , 29-H ) :   0.9069
B(  9-C , 30-H ) :   0.9112 B( 10-S , 11-P ) :   1.0199 B( 11-P , 12-S ) :   1.7792
B( 11-P , 13-O ) :   1.1197 B( 11-P , 16-O ) :   1.1598 B( 13-O , 14-C ) :   0.8080
B( 14-C , 15-C ) :   0.9403 B( 14-C , 31-H ) :   0.9585 B( 14-C , 32-H ) :   0.9628
B( 15-C , 33-H ) :   0.9663 B( 15-C , 34-H ) :   0.9630 B( 15-C , 35-H ) :   0.9544
B( 16-O , 17-C ) :   0.7536 B( 17-C , 18-C ) :   0.9360 B( 17-C , 36-H ) :   0.9452
B( 17-C , 37-H ) :   0.9609 B( 18-C , 38-H ) :   0.9683 B( 18-C , 39-H ) :   0.9679
B( 18-C , 40-H ) :   0.9667

Dispersion correction           -0.022261007
FINAL SINGLE POINT ENERGY     -2932.461305115106

DIPOLE MOMENT
-------------

Method             : SCF
Type of density    : Electron Density
Multiplicity       :   1
Irrep              :   0
Energy             : -2932.4856373762536350 Eh
Relativity type    :
Basis              : AO
                                X                 Y                 Z
Electronic contribution:     -4.214416846       8.807258858      -5.210621192
Nuclear contribution   :      4.610690601      -9.396265473       5.927747452
                        -----------------------------------------
Total Dipole Moment    :      0.396273755      -0.589006615       0.717126261
                        -----------------------------------------
Magnitude (a.u.)       :      1.009074702
Magnitude (Debye)      :      2.564864060

Rotational constants in cm-1:             0.012735             0.005206             0.005047
Rotational constants in MHz :           381.772417           156.067018           151.317372

                             ****ORCA TERMINATED NORMALLY****
TOTAL RUN TIME: 0 days 0 hours 1 minutes 26 seconds 678 msec
