                         Program Version 6.0.0  -   RELEASE  -
|  1> ! r2scan-3c def2/J RI DEFGRID2 scfconv6 printgap
|  2> %output
|  3>     printlevel normal
|  4> end
|  5> %cpcm
|  6>     smd true
|  7>     smdsolvent "water"
|  8> end
|  9> * xyz 0 1
| 10> C 3.7773439701 -1.4583888472 -2.5522997299
| 11> C 4.0675910852 -1.7401223872 -1.09219555
| 12> O 2.8767554559 -1.705483265 -0.2865886814
| 13> P 2.0769575195 -0.3636829716 0.0015868645
| 14> S 3.1815567101 1.2344654857 0.2877159361
| 15> O 1.1497226359 -0.8080046904 1.2057243145
| 16> C 1.4732799864 -0.5210243427 2.5788967451
| 17> C 2.6524575406 -1.3426327411 3.0553470725
| 18> S 0.6460581511 -0.2713099738 -1.5533634337
| 19> C 0.130474901 1.4381374 -1.2452821595
| 20> S -0.6195869796 1.6633048275 0.3870535419
| 21> P -2.3094914564 0.4208219643 0.0458119381
| 22> S -3.0532903751 0.4826133168 -1.7713735732
| 23> O -3.2617543582 0.7966517654 1.2556133793
| 24> C -3.6107386308 2.1336742003 1.6603155929
| 25> C -4.197338989 2.9551847855 0.5307083013
| 26> O -1.9090010886 -1.0301651528 0.5377543926
| 27> C -2.0293143125 -2.2244501134 -0.2657287499
| 28> C -0.9486162901 -3.2031581437 0.1445890579
| 29> H 3.4490758629 -0.4270256029 -2.6755385929
| 30> H 4.6804651924 -1.6114612428 -3.1343778195
| 31> H 2.9952067489 -2.1192700469 -2.9175307836
| 32> H 4.7759314943 -1.0068539258 -0.6934691608
| 33> H 4.4538713433 -2.749523068 -0.9448802743
| 34> H 1.6816218142 0.5502651143 2.6707625512
| 35> H 0.5577492003 -0.7648176672 3.1200228602
| 36> H 2.8123759082 -1.1644028531 4.1140495588
| 37> H 2.4666087025 -2.4002785212 2.8883127118
| 38> H 3.5484559302 -1.0514900031 2.5079584537
| 39> H -0.5961591947 1.6856856555 -2.0191280787
| 40> H 0.9972443644 2.0972802198 -1.2821255317
| 41> H -4.3383137661 1.976143152 2.4585906684
| 42> H -2.7154897226 2.614312537 2.0652188891
| 43> H -5.040806531 2.4351270709 0.082721698
| 44> H -4.5293986956 3.9134119748 0.9171065097
| 45> H -3.4475324203 3.1244725305 -0.2408469435
| 46> H -3.0241119746 -2.6373705364 -0.0813823012
| 47> H -1.9475209823 -1.9559798291 -1.3243335071
| 48> H -1.030364256 -3.4222068626 1.2051916422
| 49> H -1.0702411278 -4.1187656864 -0.4249860579
| 50> H 0.0372556619 -2.7890449707 -0.052376237
| 51> *
| 52>
| 53>                          ****END OF INPUT****

CARTESIAN COORDINATES (ANGSTROEM)
---------------------------------
  C      3.777344   -1.458389   -2.552300
  C      4.067591   -1.740122   -1.092196
  O      2.876755   -1.705483   -0.286589
  P      2.076958   -0.363683    0.001587
  S      3.181557    1.234465    0.287716
  O      1.149723   -0.808005    1.205724
  C      1.473280   -0.521024    2.578897
  C      2.652458   -1.342633    3.055347
  S      0.646058   -0.271310   -1.553363
  C      0.130475    1.438137   -1.245282
  S     -0.619587    1.663305    0.387054
  P     -2.309491    0.420822    0.045812
  S     -3.053290    0.482613   -1.771374
  O     -3.261754    0.796652    1.255613
  C     -3.610739    2.133674    1.660316
  C     -4.197339    2.955185    0.530708
  O     -1.909001   -1.030165    0.537754
  C     -2.029314   -2.224450   -0.265729
  C     -0.948616   -3.203158    0.144589
  H      3.449076   -0.427026   -2.675539
  H      4.680465   -1.611461   -3.134378
  H      2.995207   -2.119270   -2.917531
  H      4.775931   -1.006854   -0.693469
  H      4.453871   -2.749523   -0.944880
  H      1.681622    0.550265    2.670763
  H      0.557749   -0.764818    3.120023
  H      2.812376   -1.164403    4.114050
  H      2.466609   -2.400279    2.888313
  H      3.548456   -1.051490    2.507958
  H     -0.596159    1.685686   -2.019128
  H      0.997244    2.097280   -1.282126
  H     -4.338314    1.976143    2.458591
  H     -2.715490    2.614313    2.065219
  H     -5.040807    2.435127    0.082722
  H     -4.529399    3.913412    0.917107
  H     -3.447532    3.124473   -0.240847
  H     -3.024112   -2.637371   -0.081382
  H     -1.947521   -1.955980   -1.324334
  H     -1.030364   -3.422207    1.205192
  H     -1.070241   -4.118766   -0.424986
  H      0.037256   -2.789045   -0.052376

 Total Charge           Charge          ....    0
 Multiplicity           Mult            ....    1
 Number of Electrons    NEL             ....  202
 Basis Dimension        Dim             ....  539

ORBITAL ENERGIES
----------------

  NO   OCC          E(Eh)            E(eV)
   0   2.0000     -88.579444     -2410.3692
   1   2.0000     -88.579205     -2410.3627
   2   2.0000     -88.529554     -2409.0116
   3   2.0000     -88.526351     -2408.9245
   4   2.0000     -76.919998     -2093.0996
   5   2.0000     -76.919497     -2093.0859
   6   2.0000     -18.996944      -516.9331
   7   2.0000     -18.995329      -516.8892
   8   2.0000     -18.991380      -516.7817
   9   2.0000     -18.990906      -516.7688
  10   2.0000     -10.105489      -274.9843
  11   2.0000     -10.093174      -274.6492
  12   2.0000     -10.090344      -274.5722
  13   2.0000     -10.088802      -274.5303
  14   2.0000     -10.087698      -274.5002
  15   2.0000     -10.018974      -272.6302
  16   2.0000     -10.018538      -272.6183
  17   2.0000     -10.018445      -272.6157
  18   2.0000     -10.017094      -272.5790
  19   2.0000      -7.873891      -214.2595
  20   2.0000      -7.873530      -214.2496
  21   2.0000      -7.824539      -212.9165
  22   2.0000      -7.821538      -212.8349
  23   2.0000      -6.598222      -179.5468
  24   2.0000      -6.598152      -179.5448
  25   2.0000      -5.820700      -158.3893
  26   2.0000      -5.820380      -158.3806
  27   2.0000      -5.817826      -158.3111
  28   2.0000      -5.817333      -158.2977
  29   2.0000      -5.810986      -158.1250
  30   2.0000      -5.810736      -158.1182
  31   2.0000      -5.772065      -157.0659
  32   2.0000      -5.769140      -156.9863
  33   2.0000      -5.764810      -156.8685
  34   2.0000      -5.764632      -156.8636
  35   2.0000      -5.761879      -156.7887
  36   2.0000      -5.761459      -156.7773
  37   2.0000      -4.743641      -129.0810
  38   2.0000      -4.743453      -129.0759
  39   2.0000      -4.743330      -129.0726
  40   2.0000      -4.743038      -129.0646
  41   2.0000      -4.742115      -129.0395
  42   2.0000      -4.741919      -129.0342
  43   2.0000      -1.053459       -28.6661
  44   2.0000      -1.052424       -28.6379
  45   2.0000      -1.013709       -27.5844
  46   2.0000      -1.010440       -27.4955
  47   2.0000      -0.805825       -21.9276
  48   2.0000      -0.756692       -20.5906
  49   2.0000      -0.744654       -20.2631
  50   2.0000      -0.723502       -19.6875
  51   2.0000      -0.721849       -19.6425
  52   2.0000      -0.711108       -19.3502
  53   2.0000      -0.689881       -18.7726
  54   2.0000      -0.675521       -18.3819
  55   2.0000      -0.633314       -17.2333
  56   2.0000      -0.623159       -16.9570
  57   2.0000      -0.599361       -16.3095
  58   2.0000      -0.599031       -16.3005
  59   2.0000      -0.588603       -16.0167
  60   2.0000      -0.524745       -14.2790
  61   2.0000      -0.514603       -14.0031
  62   2.0000      -0.491812       -13.3829
  63   2.0000      -0.486812       -13.2468
  64   2.0000      -0.477420       -12.9913
  65   2.0000      -0.458483       -12.4760
  66   2.0000      -0.455230       -12.3874
  67   2.0000      -0.444835       -12.1046
  68   2.0000      -0.440781       -11.9943
  69   2.0000      -0.435059       -11.8385
  70   2.0000      -0.425940       -11.5904
  71   2.0000      -0.413996       -11.2654
  72   2.0000      -0.407682       -11.0936
  73   2.0000      -0.403729       -10.9860
  74   2.0000      -0.399331       -10.8664
  75   2.0000      -0.390280       -10.6200
  76   2.0000      -0.381195       -10.3728
  77   2.0000      -0.366821        -9.9817
  78   2.0000      -0.361794        -9.8449
  79   2.0000      -0.357715        -9.7339
  80   2.0000      -0.354949        -9.6587
  81   2.0000      -0.353381        -9.6160
  82   2.0000      -0.350285        -9.5317
  83   2.0000      -0.348450        -9.4818
  84   2.0000      -0.340950        -9.2777
  85   2.0000      -0.334040        -9.0897
  86   2.0000      -0.322381        -8.7724
  87   2.0000      -0.309608        -8.4249
  88   2.0000      -0.305459        -8.3120
  89   2.0000      -0.303907        -8.2697
  90   2.0000      -0.298648        -8.1266
  91   2.0000      -0.289738        -7.8842
  92   2.0000      -0.286867        -7.8060
  93   2.0000      -0.280390        -7.6298
  94   2.0000      -0.271427        -7.3859
  95   2.0000      -0.248631        -6.7656
  96   2.0000      -0.236317        -6.4305
  97   2.0000      -0.235109        -6.3976
  98   2.0000      -0.228291        -6.2121
  99   2.0000      -0.220297        -5.9946
 100   2.0000      -0.219413        -5.9705
 101   0.0000      -0.054131        -1.4730
 102   0.0000      -0.031478        -0.8566
 103   0.0000      -0.007231        -0.1968
 104   0.0000      -0.005332        -0.1451
 105   0.0000       0.009151         0.2490

MULLIKEN ATOMIC CHARGES
-----------------------
   0 C :   -0.490754
   1 C :   -0.150859
   2 O :   -0.331868
   3 P :    0.728813
   4 S :   -0.526793
   5 O :   -0.278175
   6 C :   -0.155847
   7 C :   -0.485808
   8 S :   -0.138912
   9 C :   -0.248426
  10 S :   -0.152596
  11 P :    0.704290
  12 S :   -0.509197
  13 O :   -0.335112
  14 C :   -0.149180
  15 C :   -0.466199
  16 O :   -0.310957
  17 C :   -0.098446
  18 C :   -0.512538
  19 H :    0.173355
  20 H :    0.173597
  21 H :    0.170549
  22 H :    0.178144
  23 H :    0.176000
  24 H :    0.176048
  25 H :    0.180531
  26 H :    0.172327
  27 H :    0.170180
  28 H :    0.167311
  29 H :    0.231968
  30 H :    0.235315
  31 H :    0.177288
  32 H :    0.170813
  33 H :    0.169990
  34 H :    0.173443
  35 H :    0.166150
  36 H :    0.170568
  37 H :    0.172093
  38 H :    0.167215
  39 H :    0.169230
  40 H :    0.166448
Sum of atomic charges:    0.0000000

LOEWDIN ATOMIC CHARGES
----------------------
   0 C :   -0.409669
   1 C :    0.026344
   2 O :   -0.671604
   3 P :    0.382622
   4 S :   -0.153788
   5 O :   -0.699931
   6 C :    0.021154
   7 C :   -0.402011
   8 S :    0.173169
   9 C :   -0.413567
  10 S :    0.163890
  11 P :    0.389033
  12 S :   -0.160278
  13 O :   -0.668663
  14 C :    0.029364
  15 C :   -0.410039
  16 O :   -0.672794
  17 C :    0.016158
  18 C :   -0.396826
  19 H :    0.161676
  20 H :    0.168740
  21 H :    0.163757
  22 H :    0.181812
  23 H :    0.191389
  24 H :    0.182274
  25 H :    0.191008
  26 H :    0.168634
  27 H :    0.163895
  28 H :    0.162386
  29 H :    0.197984
  30 H :    0.196807
  31 H :    0.193163
  32 H :    0.179355
  33 H :    0.164319
  34 H :    0.168160
  35 H :    0.161879
  36 H :    0.180881
  37 H :    0.182632
  38 H :    0.163524
  39 H :    0.168061
  40 H :    0.165100

  Mayer bond orders larger than 0.100000
B(  0-C ,  1-C ) :   0.9085 B(  0-C , 19-H ) :   0.9636 B(  0-C , 20-H ) :   0.9530
B(  0-C , 21-H ) :   0.9661 B(  1-C ,  2-O ) :   0.8008 B(  1-C , 22-H ) :   0.9653
B(  1-C , 23-H ) :   0.9482 B(  2-O ,  3-P ) :   1.0596 B(  3-P ,  4-S ) :   1.7261
B(  3-P ,  5-O ) :   1.1216 B(  3-P ,  8-S ) :   1.0868 B(  5-O ,  6-C ) :   0.7655
B(  6-C ,  7-C ) :   0.9085 B(  6-C , 24-H ) :   0.9547 B(  6-C , 25-H ) :   0.9541
B(  7-C , 26-H ) :   0.9572 B(  7-C , 27-H ) :   0.9728 B(  7-C , 28-H ) :   0.9601
B(  8-S ,  9-C ) :   0.8865 B(  9-C , 10-S ) :   0.8923 B(  9-C , 29-H ) :   0.9022
B(  9-C , 30-H ) :   0.9048 B( 10-S , 11-P ) :   1.0397 B( 11-P , 12-S ) :   1.7469
B( 11-P , 13-O ) :   1.1251 B( 11-P , 16-O ) :   1.1545 B( 13-O , 14-C ) :   0.7987
B( 14-C , 15-C ) :   0.9214 B( 14-C , 31-H ) :   0.9486 B( 14-C , 32-H ) :   0.9572
B( 15-C , 33-H ) :   0.9673 B( 15-C , 34-H ) :   0.9567 B( 15-C , 35-H ) :   0.9569
B( 16-O , 17-C ) :   0.7467 B( 17-C , 18-C ) :   0.9265 B( 17-C , 36-H ) :   0.9364
B( 17-C , 37-H ) :   0.9572 B( 18-C , 38-H ) :   0.9662 B( 18-C , 39-H ) :   0.9607
B( 18-C , 40-H ) :   0.9669

Dispersion correction           -0.022261007
FINAL SINGLE POINT ENERGY     -2932.469310018415

DIPOLE MOMENT
-------------

Method             : SCF
Type of density    : Electron Density
Multiplicity       :   1
Irrep              :   0
Energy             : -2932.4936422795622093 Eh
Relativity type    :
Basis              : AO
                                X                 Y                 Z
Electronic contribution:     -4.057827801       8.721146901      -5.037135904
Nuclear contribution   :      4.610690601      -9.396265473       5.927747452
                        -----------------------------------------
Total Dipole Moment    :      0.552862801      -0.675118573       0.890611548
                        -----------------------------------------
Magnitude (a.u.)       :      1.246848544
Magnitude (Debye)      :      3.169237136

Rotational constants in cm-1:             0.012735             0.005206             0.005047
Rotational constants in MHz :           381.772417           156.067018           151.317372

                             ****ORCA TERMINATED NORMALLY****
TOTAL RUN TIME: 0 days 0 hours 1 minutes 52 seconds 566 msec
