                         Program Version 6.0.0  -   RELEASE  -
|  1> ! pbe def2-sv(p) def2/J RI DEFGRID1 loosescf d4 GCP(DFT/SV(P)) printgap
|  2> %output
|  3>     printlevel normal
|  4> end
|  5> * xyz 0 1
|  6> C 4.3602314499 0.6847199539 -2.1947700091
|  7> C 4.6634345888 0.1471251314 -0.8123449414
|  8> O 3.7035749901 0.5738912575 0.172784964
|  9> P 2.1340432545 0.3589593134 0.0801299272
| 10> S 1.0873452572 1.5876290095 -1.0403310026
| 11> O 1.7048463451 0.5654216871 1.5837470675
| 12> C 2.3782268662 0.0363564617 2.7564135581
| 13> C 1.9411457647 -1.3810678989 3.0686666927
| 14> S 1.9649707899 -1.6979313316 -0.4438399622
| 15> C 0.2134268751 -1.7060979234 -0.866032567
| 16> S -0.8454507591 -1.1921354297 0.5236630333
| 17> P -2.1122652062 0.2221575167 -0.436680127
| 18> S -2.0285444856 0.25219075 -2.3919463862
| 19> O -1.9152642491 1.635776491 0.2193335392
| 20> C -1.5350632053 1.9188897886 1.5869873077
| 21> C -2.4158596607 1.2240943441 2.6018569919
| 22> O -3.5486549046 -0.1804644649 0.1220633406
| 23> C -4.2227848707 -1.3674724607 -0.3357975049
| 24> C -5.6900940933 -1.239207536 0.0204102921
| 25> H 5.1514716826 0.3941663813 -2.8782212111
| 26> H 3.4142549657 0.2832033015 -2.5563820658
| 27> H 4.2824930443 1.7693546744 -2.1724498639
| 28> H 5.6097665415 0.5364563511 -0.4326694905
| 29> H 4.6837480981 -0.9459671896 -0.8177431308
| 30> H 3.4556914236 0.0997152898 2.5989403504
| 31> H 2.0791650491 0.7261951458 3.5472655767
| 32> H 0.8558527356 -1.4461799246 3.0751255946
| 33> H 2.327071012 -2.0794916945 2.330973823
| 34> H 2.3216227423 -1.6558309852 4.0473830226
| 35> H -0.0272987931 -2.7334474555 -1.1279535536
| 36> H 0.0217977043 -1.0304057032 -1.7049227014
| 37> H -0.4851105514 1.6360300318 1.7079169693
| 38> H -1.6246640278 3.0049074751 1.6452816948
| 39> H -2.2895746355 0.1443881668 2.5365396396
| 40> H -2.1344808294 1.554269871 3.597046007
| 41> H -3.4591885954 1.4686401472 2.4201885895
| 42> H -4.0786758881 -1.4548275222 -1.4183182559
| 43> H -3.7660255673 -2.2297086202 0.1582522733
| 44> H -5.804366866 -1.1342072824 1.0952090014
| 45> H -6.1155126366 -0.3661048807 -0.4664462975
| 46> H -6.2159977588 -2.1274897169 -0.3134763421
| 47> *
| 48>
| 49>                          ****END OF INPUT****

CARTESIAN COORDINATES (ANGSTROEM)
---------------------------------
  C      4.360231    0.684720   -2.194770
  C      4.663435    0.147125   -0.812345
  O      3.703575    0.573891    0.172785
  P      2.134043    0.358959    0.080130
  S      1.087345    1.587629   -1.040331
  O      1.704846    0.565422    1.583747
  C      2.378227    0.036356    2.756414
  C      1.941146   -1.381068    3.068667
  S      1.964971   -1.697931   -0.443840
  C      0.213427   -1.706098   -0.866033
  S     -0.845451   -1.192135    0.523663
  P     -2.112265    0.222158   -0.436680
  S     -2.028544    0.252191   -2.391946
  O     -1.915264    1.635776    0.219334
  C     -1.535063    1.918890    1.586987
  C     -2.415860    1.224094    2.601857
  O     -3.548655   -0.180464    0.122063
  C     -4.222785   -1.367472   -0.335798
  C     -5.690094   -1.239208    0.020410
  H      5.151472    0.394166   -2.878221
  H      3.414255    0.283203   -2.556382
  H      4.282493    1.769355   -2.172450
  H      5.609767    0.536456   -0.432669
  H      4.683748   -0.945967   -0.817743
  H      3.455691    0.099715    2.598940
  H      2.079165    0.726195    3.547266
  H      0.855853   -1.446180    3.075126
  H      2.327071   -2.079492    2.330974
  H      2.321623   -1.655831    4.047383
  H     -0.027299   -2.733447   -1.127954
  H      0.021798   -1.030406   -1.704923
  H     -0.485111    1.636030    1.707917
  H     -1.624664    3.004907    1.645282
  H     -2.289575    0.144388    2.536540
  H     -2.134481    1.554270    3.597046
  H     -3.459189    1.468640    2.420189
  H     -4.078676   -1.454828   -1.418318
  H     -3.766026   -2.229709    0.158252
  H     -5.804367   -1.134207    1.095209
  H     -6.115513   -0.366105   -0.466446
  H     -6.215998   -2.127490   -0.313476

 Total Charge           Charge          ....    0
 Multiplicity           Mult            ....    1
 Number of Electrons    NEL             ....  202
 Basis Dimension        Dim             ....  334

ORBITAL ENERGIES
----------------

  NO   OCC          E(Eh)            E(eV)
   0   2.0000     -88.047737     -2395.9007
   1   2.0000     -88.041006     -2395.7176
   2   2.0000     -87.977914     -2394.0008
   3   2.0000     -87.974424     -2393.9058
   4   2.0000     -76.426885     -2079.6813
   5   2.0000     -76.418689     -2079.4583
   6   2.0000     -18.797292      -511.5003
   7   2.0000     -18.792246      -511.3630
   8   2.0000     -18.782422      -511.0957
   9   2.0000     -18.782353      -511.0938
  10   2.0000      -9.962044      -271.0810
  11   2.0000      -9.958732      -270.9909
  12   2.0000      -9.953929      -270.8602
  13   2.0000      -9.945040      -270.6183
  14   2.0000      -9.944815      -270.6122
  15   2.0000      -9.887804      -269.0608
  16   2.0000      -9.884198      -268.9627
  17   2.0000      -9.883653      -268.9479
  18   2.0000      -9.883396      -268.9409
  19   2.0000      -7.692585      -209.3259
  20   2.0000      -7.685230      -209.1257
  21   2.0000      -7.622591      -207.4213
  22   2.0000      -7.619684      -207.3422
  23   2.0000      -6.423707      -174.7980
  24   2.0000      -6.415796      -174.5827
  25   2.0000      -5.720371      -155.6592
  26   2.0000      -5.716929      -155.5655
  27   2.0000      -5.713105      -155.4615
  28   2.0000      -5.709855      -155.3731
  29   2.0000      -5.709669      -155.3680
  30   2.0000      -5.702383      -155.1697
  31   2.0000      -5.651860      -153.7949
  32   2.0000      -5.648739      -153.7100
  33   2.0000      -5.643100      -153.5566
  34   2.0000      -5.642591      -153.5427
  35   2.0000      -5.640294      -153.4802
  36   2.0000      -5.639650      -153.4627
  37   2.0000      -4.646669      -126.4423
  38   2.0000      -4.645766      -126.4177
  39   2.0000      -4.643598      -126.3587
  40   2.0000      -4.638440      -126.2184
  41   2.0000      -4.637702      -126.1983
  42   2.0000      -4.636118      -126.1552
  43   2.0000      -0.990981       -26.9660
  44   2.0000      -0.978258       -26.6197
  45   2.0000      -0.946605       -25.7584
  46   2.0000      -0.935622       -25.4596
  47   2.0000      -0.762981       -20.7618
  48   2.0000      -0.720047       -19.5935
  49   2.0000      -0.710226       -19.3262
  50   2.0000      -0.692916       -18.8552
  51   2.0000      -0.686044       -18.6682
  52   2.0000      -0.676738       -18.4150
  53   2.0000      -0.647619       -17.6226
  54   2.0000      -0.629935       -17.1414
  55   2.0000      -0.591959       -16.1080
  56   2.0000      -0.587438       -15.9850
  57   2.0000      -0.582393       -15.8477
  58   2.0000      -0.566721       -15.4213
  59   2.0000      -0.559924       -15.2363
  60   2.0000      -0.505180       -13.7466
  61   2.0000      -0.496507       -13.5106
  62   2.0000      -0.474259       -12.9052
  63   2.0000      -0.467371       -12.7178
  64   2.0000      -0.451650       -12.2900
  65   2.0000      -0.448842       -12.2136
  66   2.0000      -0.443034       -12.0556
  67   2.0000      -0.432528       -11.7697
  68   2.0000      -0.428547       -11.6614
  69   2.0000      -0.421120       -11.4593
  70   2.0000      -0.412227       -11.2173
  71   2.0000      -0.404124       -10.9968
  72   2.0000      -0.398016       -10.8306
  73   2.0000      -0.386816       -10.5258
  74   2.0000      -0.375874       -10.2280
  75   2.0000      -0.360314        -9.8046
  76   2.0000      -0.357883        -9.7385
  77   2.0000      -0.356609        -9.7038
  78   2.0000      -0.353358        -9.6153
  79   2.0000      -0.350096        -9.5266
  80   2.0000      -0.347305        -9.4507
  81   2.0000      -0.345095        -9.3905
  82   2.0000      -0.344281        -9.3684
  83   2.0000      -0.340124        -9.2552
  84   2.0000      -0.332610        -9.0508
  85   2.0000      -0.321516        -8.7489
  86   2.0000      -0.307390        -8.3645
  87   2.0000      -0.299827        -8.1587
  88   2.0000      -0.293532        -7.9874
  89   2.0000      -0.291899        -7.9430
  90   2.0000      -0.281128        -7.6499
  91   2.0000      -0.279839        -7.6148
  92   2.0000      -0.267095        -7.2680
  93   2.0000      -0.262717        -7.1489
  94   2.0000      -0.252886        -6.8814
  95   2.0000      -0.235685        -6.4133
  96   2.0000      -0.219917        -5.9842
  97   2.0000      -0.205496        -5.5918
  98   2.0000      -0.193295        -5.2598
  99   2.0000      -0.191092        -5.1999
 100   2.0000      -0.179762        -4.8916
 101   0.0000      -0.045426        -1.2361
 102   0.0000      -0.031440        -0.8555
 103   0.0000      -0.009127        -0.2484
 104   0.0000       0.009190         0.2501
 105   0.0000       0.018110         0.4928

MULLIKEN ATOMIC CHARGES
-----------------------
   0 C :   -0.309112
   1 C :   -0.013481
   2 O :   -0.380129
   3 P :    0.600408
   4 S :   -0.281754
   5 O :   -0.351217
   6 C :   -0.005783
   7 C :   -0.313971
   8 S :   -0.132622
   9 C :   -0.325415
  10 S :   -0.143223
  11 P :    0.610432
  12 S :   -0.300484
  13 O :   -0.349725
  14 C :   -0.021765
  15 C :   -0.316446
  16 O :   -0.377449
  17 C :   -0.005547
  18 C :   -0.280063
  19 H :    0.111642
  20 H :    0.131229
  21 H :    0.128455
  22 H :    0.109508
  23 H :    0.113750
  24 H :    0.108496
  25 H :    0.107472
  26 H :    0.127804
  27 H :    0.124679
  28 H :    0.109566
  29 H :    0.177159
  30 H :    0.210706
  31 H :    0.139335
  32 H :    0.107767
  33 H :    0.119915
  34 H :    0.110154
  35 H :    0.123314
  36 H :    0.100990
  37 H :    0.092412
  38 H :    0.112334
  39 H :    0.121548
  40 H :    0.109110
Sum of atomic charges:    0.0000000

LOEWDIN ATOMIC CHARGES
----------------------
   0 C :   -0.368615
   1 C :   -0.115005
   2 O :   -0.244529
   3 P :    0.558644
   4 S :   -0.285755
   5 O :   -0.232198
   6 C :   -0.110433
   7 C :   -0.371087
   8 S :    0.067510
   9 C :   -0.478427
  10 S :    0.060009
  11 P :    0.572538
  12 S :   -0.300133
  13 O :   -0.223073
  14 C :   -0.117518
  15 C :   -0.367565
  16 O :   -0.249727
  17 C :   -0.125044
  18 C :   -0.350608
  19 H :    0.130377
  20 H :    0.123549
  21 H :    0.131787
  22 H :    0.121286
  23 H :    0.107560
  24 H :    0.112229
  25 H :    0.120032
  26 H :    0.125024
  27 H :    0.116799
  28 H :    0.129248
  29 H :    0.135039
  30 H :    0.126059
  31 H :    0.114018
  32 H :    0.123114
  33 H :    0.113824
  34 H :    0.129746
  35 H :    0.128451
  36 H :    0.105828
  37 H :    0.103820
  38 H :    0.124491
  39 H :    0.129378
  40 H :    0.129357

  Mayer bond orders larger than 0.100000
B(  0-C ,  1-C ) :   1.1663 B(  0-C , 19-H ) :   0.9348 B(  0-C , 20-H ) :   0.9316
B(  0-C , 21-H ) :   0.9431 B(  1-C ,  2-O ) :   0.9102 B(  1-C , 22-H ) :   0.9332
B(  1-C , 23-H ) :   0.9261 B(  2-O ,  3-P ) :   1.0851 B(  3-P ,  4-S ) :   1.6692
B(  3-P ,  5-O ) :   1.1069 B(  3-P ,  8-S ) :   0.9268 B(  4-S ,  8-S ) :   0.1089
B(  5-O ,  6-C ) :   0.8966 B(  6-C ,  7-C ) :   1.1681 B(  6-C , 24-H ) :   0.9225
B(  6-C , 25-H ) :   0.9361 B(  7-C , 26-H ) :   0.9417 B(  7-C , 27-H ) :   0.9345
B(  7-C , 28-H ) :   0.9370 B(  8-S ,  9-C ) :   1.0021 B(  9-C , 10-S ) :   0.9980
B(  9-C , 29-H ) :   0.9103 B(  9-C , 30-H ) :   0.8413 B( 10-S , 11-P ) :   0.9317
B( 10-S , 12-S ) :   0.1149 B( 11-P , 12-S ) :   1.6325 B( 11-P , 13-O ) :   1.1598
B( 11-P , 16-O ) :   1.0770 B( 12-S , 30-H ) :   0.1040 B( 13-O , 14-C ) :   0.8933
B( 14-C , 15-C ) :   1.1639 B( 14-C , 31-H ) :   0.9054 B( 14-C , 32-H ) :   0.9338
B( 15-C , 33-H ) :   0.9379 B( 15-C , 34-H ) :   0.9363 B( 15-C , 35-H ) :   0.9415
B( 16-O , 17-C ) :   0.9116 B( 17-C , 18-C ) :   1.1598 B( 17-C , 36-H ) :   0.9058
B( 17-C , 37-H ) :   0.9254 B( 18-C , 38-H ) :   0.9517 B( 18-C , 39-H ) :   0.9510
B( 18-C , 40-H ) :   0.9425

Dispersion correction           -0.067474907
FINAL SINGLE POINT ENERGY     -2929.512450734560

DIPOLE MOMENT
-------------

Method             : SCF
Type of density    : Electron Density
Multiplicity       :   1
Irrep              :   0
Energy             : -2929.6308064303325409 Eh
Relativity type    :
Basis              : AO
                                X                 Y                 Z
Electronic contribution:      2.621689133       4.554612545     -12.707653684
Nuclear contribution   :     -1.712238882      -5.691343468      14.398753652
                        -----------------------------------------
Total Dipole Moment    :      0.909450251      -1.136730923       1.691099968
                        -----------------------------------------
Magnitude (a.u.)       :      2.231384335
Magnitude (Debye)      :      5.671728240

Rotational constants in cm-1:             0.013186             0.005218             0.004788
Rotational constants in MHz :           395.300282           156.422729           143.544368

                             ****ORCA TERMINATED NORMALLY****
TOTAL RUN TIME: 0 days 0 hours 0 minutes 21 seconds 468 msec
