                         Program Version 6.0.0  -   RELEASE  -
|  1> ! pbe def2-sv(p) def2/J RI DEFGRID1 loosescf d4 GCP(DFT/SV(P)) printgap
|  2> %output
|  3>     printlevel normal
|  4> end
|  5> * xyz 0 1
|  6> C 0.8455074093 1.2819578323 -1.0092814759
|  7> C 1.4424772163 0.3105601291 0.0132076074
|  8> H 2.4583457888 0.0556153937 -0.3043694517
|  9> C 0.6253480596 -0.9999717834 0.0427925869
| 10> H 0.6024897372 -1.3546394201 1.084634958
| 11> C -0.8247589586 -0.7729189852 -0.4372769926
| 12> H -0.8556207457 -0.8935352249 -1.5253581392
| 13> C -1.2846250736 0.6520126724 -0.0993483149
| 14> H -2.3114713798 0.7995494348 -0.4642798271
| 15> O -0.5103432691 1.6325019659 -0.7303459418
| 16> O -1.2474198295 0.7902541614 1.2992816954
| 17> O -1.7122730829 -1.7259343067 0.0841854037
| 18> O 1.2867382446 -1.9362217625 -0.7742205103
| 19> O 1.5706406162 0.8856690576 1.2864701603
| 20> H 0.9086347637 0.829756312 -2.0053513068
| 21> H 1.3936052227 2.2250844366 -0.998418093
| 22> H -1.6930975137 1.6100146295 1.5614304085
| 23> H -1.8339613818 -1.558616528 1.0318971202
| 24> H 0.8008910831 -2.7739974202 -0.7576528631
| 25> H 0.6749629421 1.055426084 1.633379832
| 26> *
| 27>
| 28>                          ****END OF INPUT****

CARTESIAN COORDINATES (ANGSTROEM)
---------------------------------
  C      0.845507    1.281958   -1.009281
  C      1.442477    0.310560    0.013208
  H      2.458346    0.055615   -0.304369
  C      0.625348   -0.999972    0.042793
  H      0.602490   -1.354639    1.084635
  C     -0.824759   -0.772919   -0.437277
  H     -0.855621   -0.893535   -1.525358
  C     -1.284625    0.652013   -0.099348
  H     -2.311471    0.799549   -0.464280
  O     -0.510343    1.632502   -0.730346
  O     -1.247420    0.790254    1.299282
  O     -1.712273   -1.725934    0.084185
  O      1.286738   -1.936222   -0.774221
  O      1.570641    0.885669    1.286470
  H      0.908635    0.829756   -2.005351
  H      1.393605    2.225084   -0.998418
  H     -1.693098    1.610015    1.561430
  H     -1.833961   -1.558617    1.031897
  H      0.800891   -2.773997   -0.757653
  H      0.674963    1.055426    1.633380

 Total Charge           Charge          ....    0
 Multiplicity           Mult            ....    1
 Number of Electrons    NEL             ....   80
 Basis Dimension        Dim             ....  160

ORBITAL ENERGIES
----------------

  NO   OCC          E(Eh)            E(eV)
   0   2.0000     -18.794384      -511.4212
   1   2.0000     -18.770794      -510.7793
   2   2.0000     -18.759634      -510.4756
   3   2.0000     -18.752128      -510.2714
   4   2.0000     -18.733639      -509.7682
   5   2.0000      -9.996667      -272.0231
   6   2.0000      -9.947512      -270.6856
   7   2.0000      -9.939515      -270.4680
   8   2.0000      -9.936459      -270.3848
   9   2.0000      -9.933317      -270.2993
  10   2.0000      -0.994828       -27.0707
  11   2.0000      -0.941891       -25.6302
  12   2.0000      -0.932233       -25.3674
  13   2.0000      -0.922177       -25.0937
  14   2.0000      -0.910373       -24.7725
  15   2.0000      -0.697318       -18.9750
  16   2.0000      -0.681565       -18.5463
  17   2.0000      -0.593744       -16.1566
  18   2.0000      -0.586766       -15.9667
  19   2.0000      -0.544624       -14.8200
  20   2.0000      -0.496644       -13.5144
  21   2.0000      -0.487576       -13.2676
  22   2.0000      -0.467525       -12.7220
  23   2.0000      -0.460458       -12.5297
  24   2.0000      -0.429205       -11.6793
  25   2.0000      -0.410109       -11.1596
  26   2.0000      -0.398084       -10.8324
  27   2.0000      -0.379788       -10.3346
  28   2.0000      -0.376000       -10.2315
  29   2.0000      -0.355519        -9.6742
  30   2.0000      -0.350763        -9.5447
  31   2.0000      -0.308957        -8.4071
  32   2.0000      -0.298808        -8.1310
  33   2.0000      -0.289882        -7.8881
  34   2.0000      -0.276584        -7.5262
  35   2.0000      -0.267157        -7.2697
  36   2.0000      -0.243598        -6.6286
  37   2.0000      -0.233264        -6.3474
  38   2.0000      -0.211629        -5.7587
  39   2.0000      -0.203306        -5.5322
  40   0.0000       0.003806         0.1036
  41   0.0000       0.031741         0.8637
  42   0.0000       0.047899         1.3034
  43   0.0000       0.059682         1.6240
  44   0.0000       0.065600         1.7851

MULLIKEN ATOMIC CHARGES
-----------------------
   0 C :    0.051311
   1 C :    0.034084
   2 H :    0.085396
   3 C :    0.060530
   4 H :    0.055331
   5 C :    0.038642
   6 H :    0.080797
   7 C :    0.134948
   8 H :    0.077470
   9 O :   -0.314086
  10 O :   -0.416398
  11 O :   -0.424290
  12 O :   -0.418312
  13 O :   -0.438812
  14 H :    0.084334
  15 H :    0.097067
  16 H :    0.319364
  17 H :    0.301689
  18 H :    0.303007
  19 H :    0.287926
Sum of atomic charges:   -0.0000000

LOEWDIN ATOMIC CHARGES
----------------------
   0 C :   -0.118665
   1 C :   -0.077033
   2 H :    0.128000
   3 C :   -0.073180
   4 H :    0.103138
   5 C :   -0.092984
   6 H :    0.125552
   7 C :   -0.018384
   8 H :    0.104340
   9 O :   -0.159395
  10 O :   -0.311864
  11 O :   -0.315005
  12 O :   -0.321074
  13 O :   -0.327728
  14 H :    0.107900
  15 H :    0.120437
  16 H :    0.295245
  17 H :    0.282408
  18 H :    0.287491
  19 H :    0.260800

  Mayer bond orders larger than 0.100000
B(  0-C ,  1-C ) :   1.1049 B(  0-C ,  9-O ) :   0.9895 B(  0-C , 14-H ) :   0.9084
B(  0-C , 15-H ) :   0.9122 B(  1-C ,  2-H ) :   0.8797 B(  1-C ,  3-C ) :   0.9864
B(  1-C , 13-O ) :   1.0518 B(  3-C ,  4-H ) :   0.8805 B(  3-C ,  5-C ) :   1.0058
B(  3-C , 12-O ) :   1.0734 B(  5-C ,  6-H ) :   0.8560 B(  5-C ,  7-C ) :   1.0474
B(  5-C , 11-O ) :   1.0455 B(  7-C ,  8-H ) :   0.8983 B(  7-C ,  9-O ) :   1.1066
B(  7-C , 10-O ) :   1.0528 B( 10-O , 16-H ) :   0.8334 B( 10-O , 19-H ) :   0.1105
B( 11-O , 17-H ) :   0.8404 B( 12-O , 18-H ) :   0.8433 B( 13-O , 19-H ) :   0.8098

Dispersion correction           -0.019834817
FINAL SINGLE POINT ENERGY      -571.415265150609

DIPOLE MOMENT
-------------

Method             : SCF
Type of density    : Electron Density
Multiplicity       :   1
Irrep              :   0
Energy             :  -571.5251661519693016 Eh
Relativity type    :
Basis              : AO
                                X                 Y                 Z
Electronic contribution:     -1.084858474       0.114267502       0.952856797
Nuclear contribution   :      0.126750671      -0.010252332      -0.680816153
                        -----------------------------------------
Total Dipole Moment    :     -0.958107803       0.104015170       0.272040644
                        -----------------------------------------
Magnitude (a.u.)       :      1.001396939
Magnitude (Debye)      :      2.545348736

Rotational constants in cm-1:             0.051787             0.048962             0.035256
Rotational constants in MHz :          1552.541331          1467.852608          1056.948181

                             ****ORCA TERMINATED NORMALLY****
TOTAL RUN TIME: 0 days 0 hours 0 minutes 11 seconds 937 msec
