                         Program Version 6.0.0  -   RELEASE  -
|  1> ! pbe def2-sv(p) def2/J RI DEFGRID1 loosescf d4 GCP(DFT/SV(P)) printgap
|  2> %output
|  3>     printlevel normal
|  4> end
|  5> * xyz 0 1
|  6> C 3.0826332321 0.5984924286 3.1155190326
|  7> C 1.6798595052 0.2274599936 2.6848423381
|  8> O 1.467197996 0.4978931079 1.2804804773
|  9> P 2.1968225286 -0.3462618178 0.1598026872
| 10> S 2.6056805603 -2.2158734172 0.5985862912
| 11> O 3.4530968348 0.5662442496 -0.168445801
| 12> C 4.4848916883 0.135135795 -1.078665496
| 13> C 5.723558079 0.9645648347 -0.806101947
| 14> S 0.9286830523 -0.0396884913 -1.5047556396
| 15> C -0.1684552487 -1.4473076415 -1.1760611301
| 16> S -1.2078659287 -1.2044041267 0.2809077517
| 17> P -2.3880050259 0.3766190911 -0.5489276379
| 18> S -2.7563647755 0.2565053318 -2.4628636975
| 19> O -1.6204084912 1.7023297406 -0.1737262672
| 20> C -1.3492789217 2.106539481 1.1901212942
| 21> C -2.3579782391 3.1383956351 1.6503729688
| 22> O -3.657717141 0.4312330262 0.4057832442
| 23> C -4.8405506355 -0.354568652 0.1667681639
| 24> C -4.5858890904 -1.8414724985 0.3017831567
| 25> H 3.1771739951 0.4678234602 4.1889126827
| 26> H 3.8034176477 -0.0473894704 2.615451395
| 27> H 3.2958931862 1.631454312 2.8538784674
| 28> H 0.9261901389 0.8348189631 3.1872015755
| 29> H 1.4846882629 -0.834291492 2.8654857795
| 30> H 4.6713632026 -0.9318102759 -0.9148825579
| 31> H 4.1221181434 0.2812835868 -2.0997618416
| 32> H 6.5035672506 0.6779368935 -1.5037155787
| 33> H 5.4970939699 2.0192612371 -0.9322398924
| 34> H 6.0717127934 0.797323411 0.2091939322
| 35> H 0.4298954697 -2.3400173294 -0.9931348667
| 36> H -0.7989442427 -1.5592763739 -2.0580480428
| 37> H -1.3663938028 1.2200122524 1.83066857
| 38> H -0.338090595 2.5178037159 1.1581516288
| 39> H -2.0880875656 3.4811494708 2.6443725563
| 40> H -2.3614364153 3.9832754702 0.9672475545
| 41> H -3.3538953967 2.7044817847 1.677261564
| 42> H -5.54480689 0.0024883096 0.9195206393
| 43> H -5.2122563039 -0.1179293658 -0.8346530883
| 44> H -4.1061051174 -2.0609403436 1.2523592252
| 45> H -5.5307828181 -2.3720964692 0.2432792915
| 46> H -3.9401016525 -2.1841981958 -0.5052176759
| 47> *
| 48>
| 49>                          ****END OF INPUT****

CARTESIAN COORDINATES (ANGSTROEM)
---------------------------------
  C      3.082633    0.598492    3.115519
  C      1.679860    0.227460    2.684842
  O      1.467198    0.497893    1.280480
  P      2.196823   -0.346262    0.159803
  S      2.605681   -2.215873    0.598586
  O      3.453097    0.566244   -0.168446
  C      4.484892    0.135136   -1.078665
  C      5.723558    0.964565   -0.806102
  S      0.928683   -0.039688   -1.504756
  C     -0.168455   -1.447308   -1.176061
  S     -1.207866   -1.204404    0.280908
  P     -2.388005    0.376619   -0.548928
  S     -2.756365    0.256505   -2.462864
  O     -1.620408    1.702330   -0.173726
  C     -1.349279    2.106539    1.190121
  C     -2.357978    3.138396    1.650373
  O     -3.657717    0.431233    0.405783
  C     -4.840551   -0.354569    0.166768
  C     -4.585889   -1.841472    0.301783
  H      3.177174    0.467823    4.188913
  H      3.803418   -0.047389    2.615451
  H      3.295893    1.631454    2.853878
  H      0.926190    0.834819    3.187202
  H      1.484688   -0.834291    2.865486
  H      4.671363   -0.931810   -0.914883
  H      4.122118    0.281284   -2.099762
  H      6.503567    0.677937   -1.503716
  H      5.497094    2.019261   -0.932240
  H      6.071713    0.797323    0.209194
  H      0.429895   -2.340017   -0.993135
  H     -0.798944   -1.559276   -2.058048
  H     -1.366394    1.220012    1.830669
  H     -0.338091    2.517804    1.158152
  H     -2.088088    3.481149    2.644373
  H     -2.361436    3.983275    0.967248
  H     -3.353895    2.704482    1.677262
  H     -5.544807    0.002488    0.919521
  H     -5.212256   -0.117929   -0.834653
  H     -4.106105   -2.060940    1.252359
  H     -5.530783   -2.372096    0.243279
  H     -3.940102   -2.184198   -0.505218

 Total Charge           Charge          ....    0
 Multiplicity           Mult            ....    1
 Number of Electrons    NEL             ....  202
 Basis Dimension        Dim             ....  334

ORBITAL ENERGIES
----------------

  NO   OCC          E(Eh)            E(eV)
   0   2.0000     -88.039545     -2395.6778
   1   2.0000     -88.039506     -2395.6767
   2   2.0000     -87.990523     -2394.3438
   3   2.0000     -87.986031     -2394.2216
   4   2.0000     -76.427523     -2079.6986
   5   2.0000     -76.425629     -2079.6471
   6   2.0000     -18.796891      -511.4894
   7   2.0000     -18.796562      -511.4805
   8   2.0000     -18.794941      -511.4363
   9   2.0000     -18.788068      -511.2493
  10   2.0000      -9.955777      -270.9105
  11   2.0000      -9.955343      -270.8987
  12   2.0000      -9.955103      -270.8921
  13   2.0000      -9.951979      -270.8071
  14   2.0000      -9.950083      -270.7555
  15   2.0000      -9.890599      -269.1369
  16   2.0000      -9.887612      -269.0556
  17   2.0000      -9.884825      -268.9798
  18   2.0000      -9.884788      -268.9787
  19   2.0000      -7.684822      -209.1146
  20   2.0000      -7.684283      -209.1000
  21   2.0000      -7.635445      -207.7710
  22   2.0000      -7.631348      -207.6595
  23   2.0000      -6.425420      -174.8446
  24   2.0000      -6.423098      -174.7814
  25   2.0000      -5.712640      -155.4488
  26   2.0000      -5.712015      -155.4318
  27   2.0000      -5.709469      -155.3626
  28   2.0000      -5.708939      -155.3481
  29   2.0000      -5.701688      -155.1508
  30   2.0000      -5.701301      -155.1403
  31   2.0000      -5.664167      -154.1298
  32   2.0000      -5.660300      -154.0246
  33   2.0000      -5.656114      -153.9107
  34   2.0000      -5.655772      -153.9014
  35   2.0000      -5.651834      -153.7942
  36   2.0000      -5.651562      -153.7868
  37   2.0000      -4.647824      -126.4737
  38   2.0000      -4.647183      -126.4563
  39   2.0000      -4.646043      -126.4252
  40   2.0000      -4.645946      -126.4226
  41   2.0000      -4.644715      -126.3891
  42   2.0000      -4.643377      -126.3527
  43   2.0000      -0.990907       -26.9639
  44   2.0000      -0.988453       -26.8972
  45   2.0000      -0.950054       -25.8523
  46   2.0000      -0.944738       -25.7076
  47   2.0000      -0.762944       -20.7608
  48   2.0000      -0.722377       -19.6569
  49   2.0000      -0.710371       -19.3302
  50   2.0000      -0.692041       -18.8314
  51   2.0000      -0.690644       -18.7934
  52   2.0000      -0.674461       -18.3530
  53   2.0000      -0.650721       -17.7070
  54   2.0000      -0.638233       -17.3672
  55   2.0000      -0.602222       -16.3873
  56   2.0000      -0.593770       -16.1573
  57   2.0000      -0.573816       -15.6143
  58   2.0000      -0.568575       -15.4717
  59   2.0000      -0.560723       -15.2580
  60   2.0000      -0.507645       -13.8137
  61   2.0000      -0.498344       -13.5606
  62   2.0000      -0.481015       -13.0891
  63   2.0000      -0.474604       -12.9146
  64   2.0000      -0.458851       -12.4860
  65   2.0000      -0.449511       -12.2318
  66   2.0000      -0.441210       -12.0059
  67   2.0000      -0.436677       -11.8826
  68   2.0000      -0.426876       -11.6159
  69   2.0000      -0.419928       -11.4268
  70   2.0000      -0.408875       -11.1261
  71   2.0000      -0.398830       -10.8527
  72   2.0000      -0.391959       -10.6658
  73   2.0000      -0.383031       -10.4228
  74   2.0000      -0.378690       -10.3047
  75   2.0000      -0.374811       -10.1991
  76   2.0000      -0.368304       -10.0221
  77   2.0000      -0.360957        -9.8221
  78   2.0000      -0.359729        -9.7887
  79   2.0000      -0.353232        -9.6119
  80   2.0000      -0.350331        -9.5330
  81   2.0000      -0.347207        -9.4480
  82   2.0000      -0.344635        -9.3780
  83   2.0000      -0.342723        -9.3260
  84   2.0000      -0.335371        -9.1259
  85   2.0000      -0.322259        -8.7691
  86   2.0000      -0.311941        -8.4883
  87   2.0000      -0.303006        -8.2452
  88   2.0000      -0.297387        -8.0923
  89   2.0000      -0.293852        -7.9961
  90   2.0000      -0.288817        -7.8591
  91   2.0000      -0.279713        -7.6114
  92   2.0000      -0.268565        -7.3080
  93   2.0000      -0.264618        -7.2006
  94   2.0000      -0.258512        -7.0345
  95   2.0000      -0.233152        -6.3444
  96   2.0000      -0.217311        -5.9133
  97   2.0000      -0.214272        -5.8306
  98   2.0000      -0.205994        -5.6054
  99   2.0000      -0.201642        -5.4870
 100   2.0000      -0.200722        -5.4619
 101   0.0000      -0.042967        -1.1692
 102   0.0000      -0.022327        -0.6075
 103   0.0000      -0.000411        -0.0112
 104   0.0000       0.002132         0.0580
 105   0.0000       0.012573         0.3421

MULLIKEN ATOMIC CHARGES
-----------------------
   0 C :   -0.304402
   1 C :   -0.009115
   2 O :   -0.358917
   3 P :    0.612817
   4 S :   -0.340201
   5 O :   -0.376059
   6 C :   -0.012970
   7 C :   -0.282117
   8 S :   -0.063994
   9 C :   -0.376783
  10 S :   -0.090800
  11 P :    0.602110
  12 S :   -0.313892
  13 O :   -0.347795
  14 C :   -0.024514
  15 C :   -0.281293
  16 O :   -0.383363
  17 C :   -0.001051
  18 C :   -0.315899
  19 H :    0.112720
  20 H :    0.124662
  21 H :    0.116282
  22 H :    0.101976
  23 H :    0.115882
  24 H :    0.107557
  25 H :    0.106524
  26 H :    0.113760
  27 H :    0.118546
  28 H :    0.118733
  29 H :    0.193753
  30 H :    0.193630
  31 H :    0.104690
  32 H :    0.117855
  33 H :    0.105186
  34 H :    0.119688
  35 H :    0.117618
  36 H :    0.104506
  37 H :    0.114277
  38 H :    0.117629
  39 H :    0.114066
  40 H :    0.128700
Sum of atomic charges:   -0.0000000

LOEWDIN ATOMIC CHARGES
----------------------
   0 C :   -0.364943
   1 C :   -0.116926
   2 O :   -0.235258
   3 P :    0.571354
   4 S :   -0.324577
   5 O :   -0.246705
   6 C :   -0.119953
   7 C :   -0.350208
   8 S :    0.091618
   9 C :   -0.487882
  10 S :    0.074490
  11 P :    0.573368
  12 S :   -0.308417
  13 O :   -0.231104
  14 C :   -0.115644
  15 C :   -0.358434
  16 O :   -0.248623
  17 C :   -0.115955
  18 C :   -0.370743
  19 H :    0.130947
  20 H :    0.122500
  21 H :    0.126250
  22 H :    0.114128
  23 H :    0.112355
  24 H :    0.108792
  25 H :    0.112271
  26 H :    0.131803
  27 H :    0.127818
  28 H :    0.127491
  29 H :    0.128467
  30 H :    0.128595
  31 H :    0.102534
  32 H :    0.120420
  33 H :    0.127315
  34 H :    0.128892
  35 H :    0.125013
  36 H :    0.118183
  37 H :    0.113809
  38 H :    0.123386
  39 H :    0.131627
  40 H :    0.121948

  Mayer bond orders larger than 0.100000
B(  0-C ,  1-C ) :   1.1657 B(  0-C , 19-H ) :   0.9384 B(  0-C , 20-H ) :   0.9336
B(  0-C , 21-H ) :   0.9459 B(  1-C ,  2-O ) :   0.9011 B(  1-C , 22-H ) :   0.9297
B(  1-C , 23-H ) :   0.9158 B(  2-O ,  3-P ) :   1.1235 B(  3-P ,  4-S ) :   1.5942
B(  3-P ,  5-O ) :   1.1111 B(  3-P ,  8-S ) :   0.9734 B(  4-S ,  8-S ) :   0.1100
B(  5-O ,  6-C ) :   0.9014 B(  6-C ,  7-C ) :   1.1611 B(  6-C , 24-H ) :   0.9097
B(  6-C , 25-H ) :   0.9292 B(  7-C , 26-H ) :   0.9417 B(  7-C , 27-H ) :   0.9502
B(  7-C , 28-H ) :   0.9515 B(  8-S ,  9-C ) :   1.0045 B(  9-C , 10-S ) :   1.0061
B(  9-C , 29-H ) :   0.8744 B(  9-C , 30-H ) :   0.8758 B( 10-S , 11-P ) :   0.9431
B( 10-S , 12-S ) :   0.1092 B( 11-P , 12-S ) :   1.6339 B( 11-P , 13-O ) :   1.1441
B( 11-P , 16-O ) :   1.0799 B( 13-O , 14-C ) :   0.8926 B( 14-C , 15-C ) :   1.1560
B( 14-C , 31-H ) :   0.9115 B( 14-C , 32-H ) :   0.9300 B( 15-C , 33-H ) :   0.9409
B( 15-C , 34-H ) :   0.9466 B( 15-C , 35-H ) :   0.9426 B( 16-O , 17-C ) :   0.9048
B( 17-C , 18-C ) :   1.1667 B( 17-C , 36-H ) :   0.9341 B( 17-C , 37-H ) :   0.9190
B( 18-C , 38-H ) :   0.9435 B( 18-C , 39-H ) :   0.9367 B( 18-C , 40-H ) :   0.9345

Dispersion correction           -0.064826490
FINAL SINGLE POINT ENERGY     -2929.525341718344

DIPOLE MOMENT
-------------

Method             : SCF
Type of density    : Electron Density
Multiplicity       :   1
Irrep              :   0
Energy             : -2929.6456560913857174 Eh
Relativity type    :
Basis              : AO
                                X                 Y                 Z
Electronic contribution:     -4.983391257      -7.268737721     -14.865053811
Nuclear contribution   :      5.189880276       7.778920699      16.191374247
                        -----------------------------------------
Total Dipole Moment    :      0.206489019       0.510182978       1.326320436
                        -----------------------------------------
Magnitude (a.u.)       :      1.435984082
Magnitude (Debye)      :      3.649981469

Rotational constants in cm-1:             0.013198             0.004621             0.004383
Rotational constants in MHz :           395.656745           138.544767           131.386632

                             ****ORCA TERMINATED NORMALLY****
TOTAL RUN TIME: 0 days 0 hours 0 minutes 21 seconds 34 msec
