                         Program Version 6.0.0  -   RELEASE  -
|  1> ! pbe def2-sv(p) def2/J RI DEFGRID1 loosescf d4 GCP(DFT/SV(P)) printgap
|  2> %output
|  3>     printlevel normal
|  4> end
|  5> * xyz 0 1
|  6> C 2.3523029269 -2.8130858466 -1.4086503969
|  7> C 3.3487743801 -1.7072747538 -1.6871567977
|  8> O 3.5242110576 -0.8156609775 -0.5625042544
|  9> P 2.3956925113 0.0517179678 0.1333340309
| 10> S 3.1691521407 1.5312764651 1.1479985637
| 11> O 1.4829120161 -0.9370658914 1.0005529766
| 12> C 1.6739543281 -1.082840546 2.4200395743
| 13> C 2.9179419537 -1.8926777711 2.723055264
| 14> S 1.0749820873 0.5514890035 -1.4418589897
| 15> C 0.247888408 1.9066491059 -0.5719968259
| 16> S -0.8183421782 1.3450566207 0.7714943474
| 17> P -2.1983359575 0.273404873 -0.471398455
| 18> S -2.4654044618 0.9949181308 -2.2688453022
| 19> O -3.4613364838 0.1117436851 0.4786357302
| 20> C -4.113240764 1.1808498389 1.1895783
| 21> C -4.5317910171 2.3200991384 0.2845796216
| 22> O -1.6734070521 -1.2101441232 -0.5610810639
| 23> C -1.5392994747 -2.077923642 0.5904044812
| 24> C -2.6916620497 -3.0593259207 0.6450687618
| 25> H 2.6355146722 -3.3604234432 -0.5134262844
| 26> H 1.3560080376 -2.3950966685 -1.2746441382
| 27> H 2.3345149298 -3.4939000269 -2.254142585
| 28> H 3.0382848056 -1.1131389382 -2.5508478857
| 29> H 4.3530705581 -2.1011392634 -1.8517610919
| 30> H 1.742788122 -0.08653503 2.8682424537
| 31> H 0.7687540446 -1.5827846658 2.7666133869
| 32> H 3.7926142472 -1.3804082668 2.3220305155
| 33> H 3.0302273917 -1.9950978894 3.7976583348
| 34> H 2.8497770174 -2.879048397 2.2721788255
| 35> H -0.354199937 2.4226366921 -1.3199873996
| 36> H 0.9944916493 2.566284307 -0.1287637632
| 37> H -4.9787795986 0.6957374283 1.6443249367
| 38> H -3.4335048047 1.5363933152 1.9690103176
| 39> H -3.6545821404 2.8085587901 -0.137196319
| 40> H -5.1431339733 1.9494017722 -0.5347294036
| 41> H -5.099243886 3.0461450167 0.8578053393
| 42> H -0.5848360016 -2.588538028 0.4483488067
| 43> H -1.4960074908 -1.4638389978 1.4940799143
| 44> H -2.7353125907 -3.6313086886 -0.2775120359
| 45> H -2.5459229688 -3.7355602047 1.4815624011
| 46> H -3.6309027062 -2.5269571931 0.7703712888
| 47> *
| 48>
| 49>                          ****END OF INPUT****

CARTESIAN COORDINATES (ANGSTROEM)
---------------------------------
  C      2.352303   -2.813086   -1.408650
  C      3.348774   -1.707275   -1.687157
  O      3.524211   -0.815661   -0.562504
  P      2.395693    0.051718    0.133334
  S      3.169152    1.531276    1.147999
  O      1.482912   -0.937066    1.000553
  C      1.673954   -1.082841    2.420040
  C      2.917942   -1.892678    2.723055
  S      1.074982    0.551489   -1.441859
  C      0.247888    1.906649   -0.571997
  S     -0.818342    1.345057    0.771494
  P     -2.198336    0.273405   -0.471398
  S     -2.465404    0.994918   -2.268845
  O     -3.461336    0.111744    0.478636
  C     -4.113241    1.180850    1.189578
  C     -4.531791    2.320099    0.284580
  O     -1.673407   -1.210144   -0.561081
  C     -1.539299   -2.077924    0.590404
  C     -2.691662   -3.059326    0.645069
  H      2.635515   -3.360423   -0.513426
  H      1.356008   -2.395097   -1.274644
  H      2.334515   -3.493900   -2.254143
  H      3.038285   -1.113139   -2.550848
  H      4.353071   -2.101139   -1.851761
  H      1.742788   -0.086535    2.868242
  H      0.768754   -1.582785    2.766613
  H      3.792614   -1.380408    2.322031
  H      3.030227   -1.995098    3.797658
  H      2.849777   -2.879048    2.272179
  H     -0.354200    2.422637   -1.319987
  H      0.994492    2.566284   -0.128764
  H     -4.978780    0.695737    1.644325
  H     -3.433505    1.536393    1.969010
  H     -3.654582    2.808559   -0.137196
  H     -5.143134    1.949402   -0.534729
  H     -5.099244    3.046145    0.857805
  H     -0.584836   -2.588538    0.448349
  H     -1.496007   -1.463839    1.494080
  H     -2.735313   -3.631309   -0.277512
  H     -2.545923   -3.735560    1.481562
  H     -3.630903   -2.526957    0.770371

 Total Charge           Charge          ....    0
 Multiplicity           Mult            ....    1
 Number of Electrons    NEL             ....  202
 Basis Dimension        Dim             ....  334

ORBITAL ENERGIES
----------------

  NO   OCC          E(Eh)            E(eV)
   0   2.0000     -88.043838     -2395.7946
   1   2.0000     -88.042909     -2395.7694
   2   2.0000     -87.985110     -2394.1966
   3   2.0000     -87.984870     -2394.1900
   4   2.0000     -76.428519     -2079.7257
   5   2.0000     -76.425922     -2079.6551
   6   2.0000     -18.799615      -511.5635
   7   2.0000     -18.795668      -511.4561
   8   2.0000     -18.791462      -511.3417
   9   2.0000     -18.790672      -511.3202
  10   2.0000      -9.962502      -271.0935
  11   2.0000      -9.962359      -271.0896
  12   2.0000      -9.955707      -270.9086
  13   2.0000      -9.954150      -270.8662
  14   2.0000      -9.951921      -270.8055
  15   2.0000      -9.892902      -269.1995
  16   2.0000      -9.888006      -269.0663
  17   2.0000      -9.886725      -269.0315
  18   2.0000      -9.885655      -269.0023
  19   2.0000      -7.688531      -209.2156
  20   2.0000      -7.687849      -209.1970
  21   2.0000      -7.630426      -207.6344
  22   2.0000      -7.630142      -207.6267
  23   2.0000      -6.425552      -174.8482
  24   2.0000      -6.423750      -174.7991
  25   2.0000      -5.716216      -155.5462
  26   2.0000      -5.715677      -155.5315
  27   2.0000      -5.713101      -155.4614
  28   2.0000      -5.712507      -155.4452
  29   2.0000      -5.705718      -155.2605
  30   2.0000      -5.704723      -155.2334
  31   2.0000      -5.659516      -154.0033
  32   2.0000      -5.659161      -153.9936
  33   2.0000      -5.650937      -153.7698
  34   2.0000      -5.650918      -153.7693
  35   2.0000      -5.650498      -153.7579
  36   2.0000      -5.649952      -153.7430
  37   2.0000      -4.648496      -126.4920
  38   2.0000      -4.647513      -126.4653
  39   2.0000      -4.646596      -126.4403
  40   2.0000      -4.645564      -126.4122
  41   2.0000      -4.645281      -126.4045
  42   2.0000      -4.644167      -126.3742
  43   2.0000      -0.991870       -26.9901
  44   2.0000      -0.985335       -26.8123
  45   2.0000      -0.947588       -25.7852
  46   2.0000      -0.946890       -25.7662
  47   2.0000      -0.766290       -20.8518
  48   2.0000      -0.723001       -19.6739
  49   2.0000      -0.713496       -19.4152
  50   2.0000      -0.694994       -18.9117
  51   2.0000      -0.693927       -18.8827
  52   2.0000      -0.676229       -18.4011
  53   2.0000      -0.652032       -17.7427
  54   2.0000      -0.640382       -17.4257
  55   2.0000      -0.599029       -16.3004
  56   2.0000      -0.592457       -16.1216
  57   2.0000      -0.579487       -15.7687
  58   2.0000      -0.576207       -15.6794
  59   2.0000      -0.567226       -15.4350
  60   2.0000      -0.508188       -13.8285
  61   2.0000      -0.494653       -13.4602
  62   2.0000      -0.479134       -13.0379
  63   2.0000      -0.476947       -12.9784
  64   2.0000      -0.462014       -12.5720
  65   2.0000      -0.452858       -12.3229
  66   2.0000      -0.441601       -12.0166
  67   2.0000      -0.437196       -11.8967
  68   2.0000      -0.433922       -11.8076
  69   2.0000      -0.415792       -11.3143
  70   2.0000      -0.414268       -11.2728
  71   2.0000      -0.402835       -10.9617
  72   2.0000      -0.394539       -10.7360
  73   2.0000      -0.390024       -10.6131
  74   2.0000      -0.384409       -10.4603
  75   2.0000      -0.376830       -10.2541
  76   2.0000      -0.366025        -9.9600
  77   2.0000      -0.358896        -9.7661
  78   2.0000      -0.356259        -9.6943
  79   2.0000      -0.354517        -9.6469
  80   2.0000      -0.350450        -9.5362
  81   2.0000      -0.348568        -9.4850
  82   2.0000      -0.347189        -9.4475
  83   2.0000      -0.340713        -9.2713
  84   2.0000      -0.339619        -9.2415
  85   2.0000      -0.325446        -8.8558
  86   2.0000      -0.314333        -8.5534
  87   2.0000      -0.309262        -8.4155
  88   2.0000      -0.300330        -8.1724
  89   2.0000      -0.293350        -7.9825
  90   2.0000      -0.281555        -7.6615
  91   2.0000      -0.280777        -7.6403
  92   2.0000      -0.276683        -7.5289
  93   2.0000      -0.269605        -7.3363
  94   2.0000      -0.257790        -7.0148
  95   2.0000      -0.232378        -6.3233
  96   2.0000      -0.218246        -5.9388
  97   2.0000      -0.211828        -5.7641
  98   2.0000      -0.202621        -5.5136
  99   2.0000      -0.199884        -5.4391
 100   2.0000      -0.196598        -5.3497
 101   0.0000      -0.046133        -1.2553
 102   0.0000      -0.024519        -0.6672
 103   0.0000      -0.006773        -0.1843
 104   0.0000       0.003210         0.0874
 105   0.0000       0.007423         0.2020

MULLIKEN ATOMIC CHARGES
-----------------------
   0 C :   -0.340884
   1 C :   -0.018017
   2 O :   -0.372221
   3 P :    0.616619
   4 S :   -0.320125
   5 O :   -0.380167
   6 C :   -0.011906
   7 C :   -0.311328
   8 S :   -0.080669
   9 C :   -0.354667
  10 S :   -0.104604
  11 P :    0.597471
  12 S :   -0.307256
  13 O :   -0.381648
  14 C :   -0.009445
  15 C :   -0.309266
  16 O :   -0.346698
  17 C :   -0.033765
  18 C :   -0.279628
  19 H :    0.121396
  20 H :    0.154451
  21 H :    0.117380
  22 H :    0.124709
  23 H :    0.115633
  24 H :    0.115399
  25 H :    0.098164
  26 H :    0.130238
  27 H :    0.112185
  28 H :    0.113310
  29 H :    0.194808
  30 H :    0.193210
  31 H :    0.108400
  32 H :    0.113210
  33 H :    0.125800
  34 H :    0.127705
  35 H :    0.112474
  36 H :    0.124001
  37 H :    0.101605
  38 H :    0.119416
  39 H :    0.105953
  40 H :    0.118759
Sum of atomic charges:    0.0000000

LOEWDIN ATOMIC CHARGES
----------------------
   0 C :   -0.370965
   1 C :   -0.114490
   2 O :   -0.243310
   3 P :    0.572475
   4 S :   -0.312676
   5 O :   -0.250133
   6 C :   -0.123986
   7 C :   -0.364546
   8 S :    0.095473
   9 C :   -0.482597
  10 S :    0.064187
  11 P :    0.569559
  12 S :   -0.303542
  13 O :   -0.245362
  14 C :   -0.115210
  15 C :   -0.368759
  16 O :   -0.230468
  17 C :   -0.116315
  18 C :   -0.357209
  19 H :    0.125521
  20 H :    0.126110
  21 H :    0.133831
  22 H :    0.113373
  23 H :    0.124854
  24 H :    0.109465
  25 H :    0.111082
  26 H :    0.126306
  27 H :    0.130846
  28 H :    0.120882
  29 H :    0.130281
  30 H :    0.130171
  31 H :    0.120641
  32 H :    0.108358
  33 H :    0.121595
  34 H :    0.130825
  35 H :    0.130731
  36 H :    0.117979
  37 H :    0.102441
  38 H :    0.128925
  39 H :    0.127579
  40 H :    0.126081

  Mayer bond orders larger than 0.100000
B(  0-C ,  1-C ) :   1.1650 B(  0-C , 19-H ) :   0.9427 B(  0-C , 20-H ) :   0.9276
B(  0-C , 21-H ) :   0.9337 B(  1-C ,  2-O ) :   0.9062 B(  1-C , 22-H ) :   0.9204
B(  1-C , 23-H ) :   0.9345 B(  2-O ,  3-P ) :   1.1223 B(  3-P ,  4-S ) :   1.6232
B(  3-P ,  5-O ) :   1.0664 B(  3-P ,  8-S ) :   0.9622 B(  5-O ,  6-C ) :   0.9053
B(  6-C ,  7-C ) :   1.1638 B(  6-C , 24-H ) :   0.9088 B(  6-C , 25-H ) :   0.9274
B(  7-C , 26-H ) :   0.9346 B(  7-C , 27-H ) :   0.9395 B(  7-C , 28-H ) :   0.9443
B(  8-S ,  9-C ) :   1.0137 B(  9-C , 10-S ) :   1.0080 B(  9-C , 29-H ) :   0.8784
B(  9-C , 30-H ) :   0.8731 B( 10-S , 11-P ) :   0.9352 B( 10-S , 12-S ) :   0.1117
B( 11-P , 12-S ) :   1.6456 B( 11-P , 13-O ) :   1.0776 B( 11-P , 16-O ) :   1.1355
B( 13-O , 14-C ) :   0.9109 B( 14-C , 15-C ) :   1.1679 B( 14-C , 31-H ) :   0.9329
B( 14-C , 32-H ) :   0.9256 B( 15-C , 33-H ) :   0.9328 B( 15-C , 34-H ) :   0.9431
B( 15-C , 35-H ) :   0.9346 B( 16-O , 17-C ) :   0.8987 B( 17-C , 18-C ) :   1.1580
B( 17-C , 36-H ) :   0.9221 B( 17-C , 37-H ) :   0.9122 B( 18-C , 38-H ) :   0.9466
B( 18-C , 39-H ) :   0.9410 B( 18-C , 40-H ) :   0.9431

Dispersion correction           -0.067072813
FINAL SINGLE POINT ENERGY     -2929.517939907731

DIPOLE MOMENT
-------------

Method             : SCF
Type of density    : Electron Density
Multiplicity       :   1
Irrep              :   0
Energy             : -2929.6377527857107452 Eh
Relativity type    :
Basis              : AO
                                X                 Y                 Z
Electronic contribution:      5.949519924      17.166421680     -10.410404381
Nuclear contribution   :     -6.548428225     -18.575552073      11.475779493
                        -----------------------------------------
Total Dipole Moment    :     -0.598908301      -1.409130393       1.065375112
                        -----------------------------------------
Magnitude (a.u.)       :      1.865305269
Magnitude (Debye)      :      4.741229201

Rotational constants in cm-1:             0.012014             0.005263             0.005045
Rotational constants in MHz :           360.181821           157.776087           151.236718

                             ****ORCA TERMINATED NORMALLY****
TOTAL RUN TIME: 0 days 0 hours 0 minutes 22 seconds 147 msec
