                         Program Version 6.0.1  -  RELEASE   -
|  1> ! r2scan-3c def2/J RI DEFGRID2 scfconv6 printgap
|  2> %output
|  3>     printlevel normal
|  4> end
|  5> * xyz 0 1
|  6> C 5.3313402564 -2.2894836779 -0.5776792202
|  7> C 4.6061022274 -1.1943832892 0.1882827926
|  8> O 3.1788576366 -1.386241365 0.138858706
|  9> C 2.5185106725 -0.9051790019 -0.8919085887
| 10> O 3.0169548566 -0.2873842999 -1.8073340449
| 11> C 1.0375435202 -1.2310869451 -0.8010999969
| 12> C 0.2332770912 -0.0558324457 -1.3403904078
| 13> H 0.6398349082 0.2332863518 -2.3171152545
| 14> C 0.3017185346 1.1699942891 -0.4498763862
| 15> O -0.578803195 2.0067605532 -0.4044856911
| 16> O 1.4269478261 1.2337973999 0.2107478082
| 17> C 1.6205007579 2.3477295652 1.1082534595
| 18> C 3.0487856767 2.2981713723 1.6102181413
| 19> S -1.5165009715 -0.4637685287 -1.6640521387
| 20> P -2.3601116052 -0.0498152014 0.2077234769
| 21> S -1.2281679586 -0.1253647177 1.8172445142
| 22> O -3.1994009297 1.2697080819 -0.046522876
| 23> C -3.904338249 1.9243468046 1.0204491478
| 24> O -3.5633040637 -1.1057387114 0.2873552095
| 25> C -3.337578741 -2.4825056654 0.6107043111
| 26> H 5.0814746437 -2.2345374505 -1.6347026063
| 27> H 6.4022096968 -2.15907091 -0.4618789878
| 28> H 5.0454700808 -3.2654757195 -0.1955375888
| 29> H 4.8390697159 -0.2108197189 -0.2287679734
| 30> H 4.8484311923 -1.2257852983 1.2505043592
| 31> H 0.7835886499 -1.4557831251 0.2353408717
| 32> H 0.8425793259 -2.1094116488 -1.4191412192
| 33> H 1.4027006917 3.2713943914 0.5637836651
| 34> H 0.8976159608 2.2416979116 1.9238267601
| 35> H 3.7393194767 2.3752482203 0.7752225976
| 36> H 3.21590078 3.1248486676 2.2922237406
| 37> H 3.2237790452 1.3610968118 2.130256896
| 38> H -4.8298876874 1.3890054142 1.2293597546
| 39> H -4.1074709076 2.9298518016 0.6610259077
| 40> H -3.2832168144 1.9602908003 1.9176656998
| 41> H -2.9194196653 -3.0003413944 -0.2515307846
| 42> H -4.3133199392 -2.8879319046 0.8655520113
| 43> H -2.6581823715 -2.5594736901 1.4615222207
| 44> *
| 45>
| 46>                          ****END OF INPUT****

CARTESIAN COORDINATES (ANGSTROEM)
---------------------------------
  C      5.331340   -2.289484   -0.577679
  C      4.606102   -1.194383    0.188283
  O      3.178858   -1.386241    0.138859
  C      2.518511   -0.905179   -0.891909
  O      3.016955   -0.287384   -1.807334
  C      1.037544   -1.231087   -0.801100
  C      0.233277   -0.055832   -1.340390
  H      0.639835    0.233286   -2.317115
  C      0.301719    1.169994   -0.449876
  O     -0.578803    2.006761   -0.404486
  O      1.426948    1.233797    0.210748
  C      1.620501    2.347730    1.108253
  C      3.048786    2.298171    1.610218
  S     -1.516501   -0.463769   -1.664052
  P     -2.360112   -0.049815    0.207723
  S     -1.228168   -0.125365    1.817245
  O     -3.199401    1.269708   -0.046523
  C     -3.904338    1.924347    1.020449
  O     -3.563304   -1.105739    0.287355
  C     -3.337579   -2.482506    0.610704
  H      5.081475   -2.234537   -1.634703
  H      6.402210   -2.159071   -0.461879
  H      5.045470   -3.265476   -0.195538
  H      4.839070   -0.210820   -0.228768
  H      4.848431   -1.225785    1.250504
  H      0.783589   -1.455783    0.235341
  H      0.842579   -2.109412   -1.419141
  H      1.402701    3.271394    0.563784
  H      0.897616    2.241698    1.923827
  H      3.739319    2.375248    0.775223
  H      3.215901    3.124849    2.292224
  H      3.223779    1.361097    2.130257
  H     -4.829888    1.389005    1.229360
  H     -4.107471    2.929852    0.661026
  H     -3.283217    1.960291    1.917666
  H     -2.919420   -3.000341   -0.251531
  H     -4.313320   -2.887932    0.865552
  H     -2.658182   -2.559474    1.461522

 Total Charge           Charge          ....    0
 Multiplicity           Mult            ....    1
 Number of Electrons    NEL             ....  174
 Basis Dimension        Dim             ....  510

ORBITAL ENERGIES
----------------

  NO   OCC          E(Eh)            E(eV)
   0   2.0000     -88.577371     -2410.3128
   1   2.0000     -88.516078     -2408.6449
   2   2.0000     -76.912181     -2092.8868
   3   2.0000     -19.006472      -517.1924
   4   2.0000     -19.002610      -517.0873
   5   2.0000     -18.986154      -516.6395
   6   2.0000     -18.982615      -516.5432
   7   2.0000     -18.932697      -515.1849
   8   2.0000     -18.930221      -515.1175
   9   2.0000     -10.163658      -276.5672
  10   2.0000     -10.159623      -276.4574
  11   2.0000     -10.096956      -274.7521
  12   2.0000     -10.096133      -274.7297
  13   2.0000     -10.094234      -274.6781
  14   2.0000     -10.087633      -274.4984
  15   2.0000     -10.086088      -274.4564
  16   2.0000     -10.053331      -273.5650
  17   2.0000     -10.033681      -273.0303
  18   2.0000     -10.032506      -272.9984
  19   2.0000      -7.871652      -214.1985
  20   2.0000      -7.811165      -212.5526
  21   2.0000      -6.590323      -179.3318
  22   2.0000      -5.818844      -158.3388
  23   2.0000      -5.815456      -158.2466
  24   2.0000      -5.808503      -158.0574
  25   2.0000      -5.758823      -156.7055
  26   2.0000      -5.751713      -156.5121
  27   2.0000      -5.750828      -156.4880
  28   2.0000      -4.735852      -128.8691
  29   2.0000      -4.735195      -128.8512
  30   2.0000      -4.734171      -128.8233
  31   2.0000      -1.085546       -29.5392
  32   2.0000      -1.078466       -29.3466
  33   2.0000      -1.042761       -28.3750
  34   2.0000      -1.001497       -27.2521
  35   2.0000      -0.983870       -26.7725
  36   2.0000      -0.982527       -26.7359
  37   2.0000      -0.810283       -22.0489
  38   2.0000      -0.754374       -20.5276
  39   2.0000      -0.751662       -20.4538
  40   2.0000      -0.728778       -19.8311
  41   2.0000      -0.692570       -18.8458
  42   2.0000      -0.666186       -18.1278
  43   2.0000      -0.663817       -18.0634
  44   2.0000      -0.652369       -17.7519
  45   2.0000      -0.627479       -17.0746
  46   2.0000      -0.594823       -16.1859
  47   2.0000      -0.542178       -14.7534
  48   2.0000      -0.529888       -14.4190
  49   2.0000      -0.528906       -14.3923
  50   2.0000      -0.496830       -13.5194
  51   2.0000      -0.486241       -13.2313
  52   2.0000      -0.485126       -13.2009
  53   2.0000      -0.462581       -12.5875
  54   2.0000      -0.458625       -12.4798
  55   2.0000      -0.456749       -12.4288
  56   2.0000      -0.442078       -12.0296
  57   2.0000      -0.439949       -11.9716
  58   2.0000      -0.429907       -11.6984
  59   2.0000      -0.425592       -11.5810
  60   2.0000      -0.421038       -11.4570
  61   2.0000      -0.414677       -11.2839
  62   2.0000      -0.407562       -11.0903
  63   2.0000      -0.399574       -10.8730
  64   2.0000      -0.393886       -10.7182
  65   2.0000      -0.378849       -10.3090
  66   2.0000      -0.377200       -10.2641
  67   2.0000      -0.374372       -10.1872
  68   2.0000      -0.367963       -10.0128
  69   2.0000      -0.358086        -9.7440
  70   2.0000      -0.347464        -9.4550
  71   2.0000      -0.340462        -9.2645
  72   2.0000      -0.334070        -9.0905
  73   2.0000      -0.324442        -8.8285
  74   2.0000      -0.319489        -8.6937
  75   2.0000      -0.313986        -8.5440
  76   2.0000      -0.311278        -8.4703
  77   2.0000      -0.304009        -8.2725
  78   2.0000      -0.287371        -7.8198
  79   2.0000      -0.278479        -7.5778
  80   2.0000      -0.275650        -7.5008
  81   2.0000      -0.270755        -7.3676
  82   2.0000      -0.251225        -6.8362
  83   2.0000      -0.244291        -6.6475
  84   2.0000      -0.231627        -6.3029
  85   2.0000      -0.215612        -5.8671
  86   2.0000      -0.211341        -5.7509
  87   0.0000      -0.045642        -1.2420
  88   0.0000      -0.027038        -0.7357
  89   0.0000      -0.011401        -0.3102
  90   0.0000       0.008580         0.2335
  91   0.0000       0.019910         0.5418

MULLIKEN ATOMIC CHARGES
-----------------------
   0 C :   -0.480575
   1 C :   -0.131169
   2 O :   -0.159245
   3 C :    0.333334
   4 O :   -0.415087
   5 C :   -0.449569
   6 C :    0.077678
   7 H :    0.224453
   8 C :    0.165067
   9 O :   -0.376878
  10 O :   -0.052956
  11 C :   -0.143806
  12 C :   -0.463411
  13 S :   -0.118743
  14 P :    0.782293
  15 S :   -0.507629
  16 O :   -0.317339
  17 C :   -0.294092
  18 O :   -0.343280
  19 C :   -0.300304
  20 H :    0.174095
  21 H :    0.148463
  22 H :    0.154465
  23 H :    0.169085
  24 H :    0.150956
  25 H :    0.217946
  26 H :    0.186269
  27 H :    0.163538
  28 H :    0.172171
  29 H :    0.160432
  30 H :    0.149006
  31 H :    0.157433
  32 H :    0.156875
  33 H :    0.156076
  34 H :    0.172112
  35 H :    0.155315
  36 H :    0.151037
  37 H :    0.175981
Sum of atomic charges:   -0.0000000

LOEWDIN ATOMIC CHARGES
----------------------
   0 C :   -0.389059
   1 C :    0.026834
   2 O :   -0.575806
   3 C :    0.355390
   4 O :   -0.438796
   5 C :   -0.212099
   6 C :   -0.194024
   7 H :    0.218570
   8 C :    0.337239
   9 O :   -0.443515
  10 O :   -0.580427
  11 C :    0.040307
  12 C :   -0.385301
  13 S :    0.242680
  14 P :    0.404774
  15 S :   -0.104219
  16 O :   -0.648902
  17 C :   -0.047988
  18 O :   -0.679460
  19 C :   -0.063218
  20 H :    0.165734
  21 H :    0.159703
  22 H :    0.158186
  23 H :    0.188181
  24 H :    0.178994
  25 H :    0.201393
  26 H :    0.186649
  27 H :    0.183864
  28 H :    0.187029
  29 H :    0.161193
  30 H :    0.160663
  31 H :    0.161103
  32 H :    0.168247
  33 H :    0.179219
  34 H :    0.176919
  35 H :    0.167305
  36 H :    0.176536
  37 H :    0.176103

  Mayer bond orders larger than 0.100000
B(  0-C ,  1-C ) :   0.9351 B(  0-C , 20-H ) :   0.9722 B(  0-C , 21-H ) :   0.9647
B(  0-C , 22-H ) :   0.9739 B(  1-C ,  2-O ) :   0.8004 B(  1-C , 23-H ) :   0.9677
B(  1-C , 24-H ) :   0.9601 B(  2-O ,  3-C ) :   1.0880 B(  3-C ,  4-O ) :   1.8654
B(  3-C ,  5-C ) :   0.8602 B(  3-C , 10-O ) :   0.1108 B(  4-O ,  6-C ) :   0.1067
B(  5-C ,  6-C ) :   0.8944 B(  5-C , 25-H ) :   0.9782 B(  5-C , 26-H ) :   0.9451
B(  6-C ,  7-H ) :   0.8835 B(  6-C ,  8-C ) :   0.9426 B(  6-C , 13-S ) :   0.8354
B(  8-C ,  9-O ) :   1.7815 B(  8-C , 10-O ) :   1.1565 B( 10-O , 11-C ) :   0.7981
B( 11-C , 12-C ) :   0.9376 B( 11-C , 27-H ) :   0.9571 B( 11-C , 28-H ) :   0.9447
B( 12-C , 29-H ) :   0.9738 B( 12-C , 30-H ) :   0.9650 B( 12-C , 31-H ) :   0.9685
B( 13-S , 14-P ) :   1.1205 B( 14-P , 15-S ) :   1.6456 B( 14-P , 16-O ) :   1.2156
B( 14-P , 18-O ) :   1.0184 B( 16-O , 17-C ) :   0.8044 B( 17-C , 32-H ) :   0.9632
B( 17-C , 33-H ) :   0.9678 B( 17-C , 34-H ) :   0.9611 B( 18-O , 19-C ) :   0.8342
B( 19-C , 35-H ) :   0.9606 B( 19-C , 36-H ) :   0.9678 B( 19-C , 37-H ) :   0.9579

Dispersion correction           -0.017527947
FINAL SINGLE POINT ENERGY     -1981.451811568168

DIPOLE MOMENT
-------------

Method             : SCF
Type of density    : Electron Density
Multiplicity       :   1
Irrep              :   0
Energy             : -1981.4716472387153772 Eh
Relativity type    :
Basis              : AO
                                X                 Y                 Z
Electronic contribution:    -19.281178915       1.496086150      -7.327744000
Nuclear contribution   :     19.877371710      -1.997333076       8.039615711
                        -----------------------------------------
Total Dipole Moment    :      0.596192795      -0.501246926       0.711871710
                        -----------------------------------------
Magnitude (a.u.)       :      1.055204085
Magnitude (Debye)      :      2.682115634

Rotational constants in cm-1:             0.016671             0.006062             0.005377
Rotational constants in MHz :           499.781086           181.734683           161.194427

                             ****ORCA TERMINATED NORMALLY****
TOTAL RUN TIME: 0 days 0 hours 1 minutes 25 seconds 39 msec
