                         Program Version 6.0.1  -  RELEASE   -
|  1> ! r2scan-3c def2/J RI DEFGRID2 scfconv6 printgap
|  2> %output
|  3>     printlevel normal
|  4> end
|  5> %cpcm
|  6>     smd true
|  7>     smdsolvent "water"
|  8> end
|  9> * xyz 0 1
| 10> C 5.3313402564 -2.2894836779 -0.5776792202
| 11> C 4.6061022274 -1.1943832892 0.1882827926
| 12> O 3.1788576366 -1.386241365 0.138858706
| 13> C 2.5185106725 -0.9051790019 -0.8919085887
| 14> O 3.0169548566 -0.2873842999 -1.8073340449
| 15> C 1.0375435202 -1.2310869451 -0.8010999969
| 16> C 0.2332770912 -0.0558324457 -1.3403904078
| 17> H 0.6398349082 0.2332863518 -2.3171152545
| 18> C 0.3017185346 1.1699942891 -0.4498763862
| 19> O -0.578803195 2.0067605532 -0.4044856911
| 20> O 1.4269478261 1.2337973999 0.2107478082
| 21> C 1.6205007579 2.3477295652 1.1082534595
| 22> C 3.0487856767 2.2981713723 1.6102181413
| 23> S -1.5165009715 -0.4637685287 -1.6640521387
| 24> P -2.3601116052 -0.0498152014 0.2077234769
| 25> S -1.2281679586 -0.1253647177 1.8172445142
| 26> O -3.1994009297 1.2697080819 -0.046522876
| 27> C -3.904338249 1.9243468046 1.0204491478
| 28> O -3.5633040637 -1.1057387114 0.2873552095
| 29> C -3.337578741 -2.4825056654 0.6107043111
| 30> H 5.0814746437 -2.2345374505 -1.6347026063
| 31> H 6.4022096968 -2.15907091 -0.4618789878
| 32> H 5.0454700808 -3.2654757195 -0.1955375888
| 33> H 4.8390697159 -0.2108197189 -0.2287679734
| 34> H 4.8484311923 -1.2257852983 1.2505043592
| 35> H 0.7835886499 -1.4557831251 0.2353408717
| 36> H 0.8425793259 -2.1094116488 -1.4191412192
| 37> H 1.4027006917 3.2713943914 0.5637836651
| 38> H 0.8976159608 2.2416979116 1.9238267601
| 39> H 3.7393194767 2.3752482203 0.7752225976
| 40> H 3.21590078 3.1248486676 2.2922237406
| 41> H 3.2237790452 1.3610968118 2.130256896
| 42> H -4.8298876874 1.3890054142 1.2293597546
| 43> H -4.1074709076 2.9298518016 0.6610259077
| 44> H -3.2832168144 1.9602908003 1.9176656998
| 45> H -2.9194196653 -3.0003413944 -0.2515307846
| 46> H -4.3133199392 -2.8879319046 0.8655520113
| 47> H -2.6581823715 -2.5594736901 1.4615222207
| 48> *
| 49>
| 50>                          ****END OF INPUT****

CARTESIAN COORDINATES (ANGSTROEM)
---------------------------------
  C      5.331340   -2.289484   -0.577679
  C      4.606102   -1.194383    0.188283
  O      3.178858   -1.386241    0.138859
  C      2.518511   -0.905179   -0.891909
  O      3.016955   -0.287384   -1.807334
  C      1.037544   -1.231087   -0.801100
  C      0.233277   -0.055832   -1.340390
  H      0.639835    0.233286   -2.317115
  C      0.301719    1.169994   -0.449876
  O     -0.578803    2.006761   -0.404486
  O      1.426948    1.233797    0.210748
  C      1.620501    2.347730    1.108253
  C      3.048786    2.298171    1.610218
  S     -1.516501   -0.463769   -1.664052
  P     -2.360112   -0.049815    0.207723
  S     -1.228168   -0.125365    1.817245
  O     -3.199401    1.269708   -0.046523
  C     -3.904338    1.924347    1.020449
  O     -3.563304   -1.105739    0.287355
  C     -3.337579   -2.482506    0.610704
  H      5.081475   -2.234537   -1.634703
  H      6.402210   -2.159071   -0.461879
  H      5.045470   -3.265476   -0.195538
  H      4.839070   -0.210820   -0.228768
  H      4.848431   -1.225785    1.250504
  H      0.783589   -1.455783    0.235341
  H      0.842579   -2.109412   -1.419141
  H      1.402701    3.271394    0.563784
  H      0.897616    2.241698    1.923827
  H      3.739319    2.375248    0.775223
  H      3.215901    3.124849    2.292224
  H      3.223779    1.361097    2.130257
  H     -4.829888    1.389005    1.229360
  H     -4.107471    2.929852    0.661026
  H     -3.283217    1.960291    1.917666
  H     -2.919420   -3.000341   -0.251531
  H     -4.313320   -2.887932    0.865552
  H     -2.658182   -2.559474    1.461522

 Total Charge           Charge          ....    0
 Multiplicity           Mult            ....    1
 Number of Electrons    NEL             ....  174
 Basis Dimension        Dim             ....  510

ORBITAL ENERGIES
----------------

  NO   OCC          E(Eh)            E(eV)
   0   2.0000     -88.586132     -2410.5512
   1   2.0000     -88.526991     -2408.9419
   2   2.0000     -76.921960     -2093.1530
   3   2.0000     -19.015105      -517.4273
   4   2.0000     -19.007668      -517.2249
   5   2.0000     -18.994431      -516.8647
   6   2.0000     -18.992780      -516.8198
   7   2.0000     -18.948257      -515.6083
   8   2.0000     -18.946432      -515.5586
   9   2.0000     -10.177997      -276.9574
  10   2.0000     -10.170261      -276.7469
  11   2.0000     -10.101521      -274.8764
  12   2.0000     -10.089383      -274.5461
  13   2.0000     -10.085704      -274.4460
  14   2.0000     -10.082982      -274.3719
  15   2.0000     -10.080135      -274.2944
  16   2.0000     -10.053723      -273.5757
  17   2.0000     -10.020774      -272.6791
  18   2.0000     -10.019194      -272.6361
  19   2.0000      -7.880407      -214.4368
  20   2.0000      -7.822234      -212.8538
  21   2.0000      -6.600248      -179.6019
  22   2.0000      -5.827581      -158.5765
  23   2.0000      -5.824188      -158.4842
  24   2.0000      -5.817304      -158.2969
  25   2.0000      -5.769870      -157.0061
  26   2.0000      -5.762749      -156.8124
  27   2.0000      -5.761917      -156.7897
  28   2.0000      -4.745725      -129.1377
  29   2.0000      -4.745158      -129.1223
  30   2.0000      -4.744099      -129.0935
  31   2.0000      -1.095469       -29.8092
  32   2.0000      -1.085287       -29.5322
  33   2.0000      -1.051914       -28.6240
  34   2.0000      -1.009845       -27.4793
  35   2.0000      -0.999418       -27.1955
  36   2.0000      -0.994963       -27.0743
  37   2.0000      -0.815530       -22.1917
  38   2.0000      -0.753120       -20.4934
  39   2.0000      -0.747564       -20.3423
  40   2.0000      -0.728889       -19.8341
  41   2.0000      -0.693878       -18.8814
  42   2.0000      -0.670969       -18.2580
  43   2.0000      -0.664209       -18.0740
  44   2.0000      -0.652808       -17.7638
  45   2.0000      -0.622724       -16.9452
  46   2.0000      -0.593593       -16.1525
  47   2.0000      -0.543039       -14.7768
  48   2.0000      -0.532958       -14.5025
  49   2.0000      -0.526151       -14.3173
  50   2.0000      -0.502290       -13.6680
  51   2.0000      -0.489736       -13.3264
  52   2.0000      -0.489566       -13.3218
  53   2.0000      -0.469929       -12.7874
  54   2.0000      -0.465102       -12.6561
  55   2.0000      -0.462659       -12.5896
  56   2.0000      -0.447144       -12.1674
  57   2.0000      -0.445217       -12.1150
  58   2.0000      -0.439069       -11.9477
  59   2.0000      -0.426141       -11.5959
  60   2.0000      -0.420113       -11.4318
  61   2.0000      -0.413504       -11.2520
  62   2.0000      -0.410637       -11.1740
  63   2.0000      -0.399316       -10.8659
  64   2.0000      -0.391833       -10.6623
  65   2.0000      -0.381277       -10.3751
  66   2.0000      -0.374614       -10.1938
  67   2.0000      -0.369210       -10.0467
  68   2.0000      -0.362606        -9.8670
  69   2.0000      -0.354783        -9.6541
  70   2.0000      -0.344838        -9.3835
  71   2.0000      -0.340805        -9.2738
  72   2.0000      -0.334114        -9.0917
  73   2.0000      -0.326518        -8.8850
  74   2.0000      -0.320942        -8.7333
  75   2.0000      -0.318316        -8.6618
  76   2.0000      -0.312209        -8.4956
  77   2.0000      -0.307283        -8.3616
  78   2.0000      -0.294114        -8.0032
  79   2.0000      -0.285957        -7.7813
  80   2.0000      -0.280937        -7.6447
  81   2.0000      -0.279118        -7.5952
  82   2.0000      -0.263731        -7.1765
  83   2.0000      -0.260808        -7.0969
  84   2.0000      -0.243963        -6.6386
  85   2.0000      -0.226785        -6.1711
  86   2.0000      -0.223185        -6.0732
  87   0.0000      -0.054881        -1.4934
  88   0.0000      -0.038062        -1.0357
  89   0.0000      -0.020668        -0.5624
  90   0.0000       0.001127         0.0307
  91   0.0000       0.011215         0.3052

MULLIKEN ATOMIC CHARGES
-----------------------
   0 C :   -0.506192
   1 C :   -0.132916
   2 O :   -0.180602
   3 C :    0.367748
   4 O :   -0.485283
   5 C :   -0.459652
   6 C :    0.072384
   7 H :    0.256860
   8 C :    0.191708
   9 O :   -0.436888
  10 O :   -0.071820
  11 C :   -0.139959
  12 C :   -0.505302
  13 S :   -0.134316
  14 P :    0.793654
  15 S :   -0.528148
  16 O :   -0.363318
  17 C :   -0.307435
  18 O :   -0.376887
  19 C :   -0.307273
  20 H :    0.170861
  21 H :    0.172180
  22 H :    0.167799
  23 H :    0.175591
  24 H :    0.178631
  25 H :    0.222100
  26 H :    0.223819
  27 H :    0.178007
  28 H :    0.179672
  29 H :    0.172722
  30 H :    0.172367
  31 H :    0.169118
  32 H :    0.180825
  33 H :    0.180899
  34 H :    0.178212
  35 H :    0.175391
  36 H :    0.178549
  37 H :    0.176894
Sum of atomic charges:    0.0000000

LOEWDIN ATOMIC CHARGES
----------------------
   0 C :   -0.391354
   1 C :    0.033040
   2 O :   -0.580153
   3 C :    0.364096
   4 O :   -0.485193
   5 C :   -0.205533
   6 C :   -0.189969
   7 H :    0.230009
   8 C :    0.342473
   9 O :   -0.493493
  10 O :   -0.582098
  11 C :    0.043736
  12 C :   -0.385298
  13 S :    0.240635
  14 P :    0.401965
  15 S :   -0.116832
  16 O :   -0.678749
  17 C :   -0.044809
  18 O :   -0.693963
  19 C :   -0.056887
  20 H :    0.163172
  21 H :    0.168546
  22 H :    0.162842
  23 H :    0.190956
  24 H :    0.190995
  25 H :    0.201941
  26 H :    0.202885
  27 H :    0.189375
  28 H :    0.189080
  29 H :    0.164804
  30 H :    0.169967
  31 H :    0.164612
  32 H :    0.178833
  33 H :    0.189201
  34 H :    0.179563
  35 H :    0.175910
  36 H :    0.188160
  37 H :    0.177534

  Mayer bond orders larger than 0.100000
B(  0-C ,  1-C ) :   0.9329 B(  0-C , 20-H ) :   0.9695 B(  0-C , 21-H ) :   0.9595
B(  0-C , 22-H ) :   0.9699 B(  1-C ,  2-O ) :   0.7831 B(  1-C , 23-H ) :   0.9614
B(  1-C , 24-H ) :   0.9499 B(  2-O ,  3-C ) :   1.1035 B(  3-C ,  4-O ) :   1.8081
B(  3-C ,  5-C ) :   0.8795 B(  3-C , 10-O ) :   0.1071 B(  5-C ,  6-C ) :   0.8747
B(  5-C , 25-H ) :   0.9815 B(  5-C , 26-H ) :   0.9227 B(  6-C ,  7-H ) :   0.8801
B(  6-C ,  8-C ) :   0.9393 B(  6-C , 13-S ) :   0.8170 B(  8-C ,  9-O ) :   1.7394
B(  8-C , 10-O ) :   1.1782 B( 10-O , 11-C ) :   0.7833 B( 11-C , 12-C ) :   0.9411
B( 11-C , 27-H ) :   0.9494 B( 11-C , 28-H ) :   0.9347 B( 12-C , 29-H ) :   0.9718
B( 12-C , 30-H ) :   0.9585 B( 12-C , 31-H ) :   0.9647 B( 13-S , 14-P ) :   1.1357
B( 14-P , 15-S ) :   1.6370 B( 14-P , 16-O ) :   1.1975 B( 14-P , 18-O ) :   1.0232
B( 16-O , 17-C ) :   0.7953 B( 17-C , 32-H ) :   0.9539 B( 17-C , 33-H ) :   0.9575
B( 17-C , 34-H ) :   0.9540 B( 18-O , 19-C ) :   0.8263 B( 19-C , 35-H ) :   0.9525
B( 19-C , 36-H ) :   0.9578 B( 19-C , 37-H ) :   0.9541

Dispersion correction           -0.017527947
FINAL SINGLE POINT ENERGY     -1981.466102881391

DIPOLE MOMENT
-------------

Method             : SCF
Type of density    : Electron Density
Multiplicity       :   1
Irrep              :   0
Energy             : -1981.4859385519384887 Eh
Relativity type    :
Basis              : AO
                                X                 Y                 Z
Electronic contribution:    -18.982932105       1.015911014      -7.036114854
Nuclear contribution   :     19.877371710      -1.997333076       8.039615711
                        -----------------------------------------
Total Dipole Moment    :      0.894439605      -0.981422062       1.003500857
                        -----------------------------------------
Magnitude (a.u.)       :      1.664399423
Magnitude (Debye)      :      4.230567126

Rotational constants in cm-1:             0.016671             0.006062             0.005377
Rotational constants in MHz :           499.781086           181.734683           161.194427

                             ****ORCA TERMINATED NORMALLY****
TOTAL RUN TIME: 0 days 0 hours 1 minutes 51 seconds 916 msec
