                         Program Version 6.0.0  -   RELEASE  -
|  1> ! r2scan-3c def2/J RI DEFGRID2 scfconv6 printgap
|  2> %output
|  3>     printlevel normal
|  4> end
|  5> * xyz 0 1
|  6> C 1.1730775664 -0.1550062752 -3.1892715416
|  7> C 2.3033607406 0.4305808543 -2.366043444
|  8> O 2.7688986827 -0.5320221144 -1.4060492186
|  9> P 2.5340205024 -0.4328024737 0.1538969212
| 10> S 2.7059760647 1.3708174904 0.9166060325
| 11> O 3.656849684 -1.4878206496 0.5152037123
| 12> C 3.7181663544 -2.233645019 1.7436802456
| 13> C 3.8911677967 -1.34222282 2.9573324313
| 14> S 0.7139585102 -1.4560285451 0.5738909666
| 15> C -0.0124268003 -0.3255490542 1.8149949486
| 16> S -1.8051986655 -0.2408371778 1.6707921443
| 17> P -1.9076252541 0.5813896726 -0.2939337496
| 18> S -0.575431606 1.9516694333 -0.7141714963
| 19> O -3.4233937965 1.0455316565 -0.3782791368
| 20> C -3.8964119215 2.1867485502 0.3666415099
| 21> C -5.2580624539 2.5644959757 -0.1798828247
| 22> O -1.8538518572 -0.6284312122 -1.2985043478
| 23> C -2.7538154753 -1.7650619066 -1.2313920653
| 24> C -3.9065073543 -1.5894390714 -2.197489083
| 25> H 0.9081179061 0.5454685002 -3.9747343853
| 26> H 1.4856505761 -1.0975810923 -3.6292605396
| 27> H 0.2972261817 -0.3265701613 -2.566481783
| 28> H 1.98771417 1.3446702797 -1.8503649438
| 29> H 3.170484858 0.6543464842 -2.9909324398
| 30> H 2.8106069528 -2.8391861218 1.8287664434
| 31> H 4.5821328728 -2.8854379806 1.6031203666
| 32> H 3.0247935543 -0.6931036667 3.0772214221
| 33> H 4.0027683806 -1.9574329367 3.8443577477
| 34> H 4.7706933557 -0.7138944924 2.840685606
| 35> H 0.4249630713 0.6674788002 1.6712571588
| 36> H 0.1887952777 -0.7083819236 2.8124851712
| 37> H -3.9517445108 1.9066222928 1.4219886204
| 38> H -3.1751104118 3.0022205136 0.2497949431
| 39> H -5.635334959 3.421587599 0.3680359756
| 40> H -5.1803628573 2.8191231168 -1.2331558609
| 41> H -5.9481482037 1.733624725 -0.0661704506
| 42> H -2.1303374526 -2.6203195967 -1.4981613734
| 43> H -3.1088547827 -1.8747431319 -0.2031269928
| 44> H -4.5297196387 -2.4777454377 -2.16951542
| 45> H -4.501221704 -0.7235927399 -1.9194838406
| 46> H -3.5299137363 -1.4465241823 -3.2065107271
| 47> *
| 48>
| 49>                          ****END OF INPUT****

CARTESIAN COORDINATES (ANGSTROEM)
---------------------------------
  C      1.173078   -0.155006   -3.189272
  C      2.303361    0.430581   -2.366043
  O      2.768899   -0.532022   -1.406049
  P      2.534021   -0.432802    0.153897
  S      2.705976    1.370817    0.916606
  O      3.656850   -1.487821    0.515204
  C      3.718166   -2.233645    1.743680
  C      3.891168   -1.342223    2.957332
  S      0.713959   -1.456029    0.573891
  C     -0.012427   -0.325549    1.814995
  S     -1.805199   -0.240837    1.670792
  P     -1.907625    0.581390   -0.293934
  S     -0.575432    1.951669   -0.714171
  O     -3.423394    1.045532   -0.378279
  C     -3.896412    2.186749    0.366642
  C     -5.258062    2.564496   -0.179883
  O     -1.853852   -0.628431   -1.298504
  C     -2.753815   -1.765062   -1.231392
  C     -3.906507   -1.589439   -2.197489
  H      0.908118    0.545469   -3.974734
  H      1.485651   -1.097581   -3.629261
  H      0.297226   -0.326570   -2.566482
  H      1.987714    1.344670   -1.850365
  H      3.170485    0.654346   -2.990932
  H      2.810607   -2.839186    1.828766
  H      4.582133   -2.885438    1.603120
  H      3.024794   -0.693104    3.077221
  H      4.002768   -1.957433    3.844358
  H      4.770693   -0.713894    2.840686
  H      0.424963    0.667479    1.671257
  H      0.188795   -0.708382    2.812485
  H     -3.951745    1.906622    1.421989
  H     -3.175110    3.002221    0.249795
  H     -5.635335    3.421588    0.368036
  H     -5.180363    2.819123   -1.233156
  H     -5.948148    1.733625   -0.066170
  H     -2.130337   -2.620320   -1.498161
  H     -3.108855   -1.874743   -0.203127
  H     -4.529720   -2.477745   -2.169515
  H     -4.501222   -0.723593   -1.919484
  H     -3.529914   -1.446524   -3.206511

 Total Charge           Charge          ....    0
 Multiplicity           Mult            ....    1
 Number of Electrons    NEL             ....  202
 Basis Dimension        Dim             ....  539

ORBITAL ENERGIES
----------------

  NO   OCC          E(Eh)            E(eV)
   0   2.0000     -88.580733     -2410.4043
   1   2.0000     -88.574250     -2410.2279
   2   2.0000     -88.517848     -2408.6931
   3   2.0000     -88.512841     -2408.5568
   4   2.0000     -76.916003     -2092.9909
   5   2.0000     -76.908074     -2092.7751
   6   2.0000     -18.998284      -516.9696
   7   2.0000     -18.996159      -516.9118
   8   2.0000     -18.983263      -516.5609
   9   2.0000     -18.980817      -516.4943
  10   2.0000     -10.105883      -274.9951
  11   2.0000     -10.105444      -274.9831
  12   2.0000     -10.103837      -274.9394
  13   2.0000     -10.096948      -274.7519
  14   2.0000     -10.082441      -274.3572
  15   2.0000     -10.038055      -273.1494
  16   2.0000     -10.034738      -273.0591
  17   2.0000     -10.025663      -272.8122
  18   2.0000     -10.011352      -272.4227
  19   2.0000      -7.875090      -214.2921
  20   2.0000      -7.868364      -214.1091
  21   2.0000      -7.812519      -212.5895
  22   2.0000      -7.807566      -212.4547
  23   2.0000      -6.594497      -179.4454
  24   2.0000      -6.586244      -179.2208
  25   2.0000      -5.821950      -158.4233
  26   2.0000      -5.818724      -158.3355
  27   2.0000      -5.815102      -158.2370
  28   2.0000      -5.812439      -158.1645
  29   2.0000      -5.812229      -158.1588
  30   2.0000      -5.805658      -157.9800
  31   2.0000      -5.760321      -156.7463
  32   2.0000      -5.755280      -156.6091
  33   2.0000      -5.752643      -156.5374
  34   2.0000      -5.752536      -156.5345
  35   2.0000      -5.747841      -156.4067
  36   2.0000      -5.747525      -156.3981
  37   2.0000      -4.740289      -128.9898
  38   2.0000      -4.739614      -128.9715
  39   2.0000      -4.737760      -128.9210
  40   2.0000      -4.731625      -128.7541
  41   2.0000      -4.731479      -128.7501
  42   2.0000      -4.729823      -128.7050
  43   2.0000      -1.056585       -28.7512
  44   2.0000      -1.044406       -28.4197
  45   2.0000      -1.016144       -27.6507
  46   2.0000      -1.000700       -27.2304
  47   2.0000      -0.800336       -21.7783
  48   2.0000      -0.760785       -20.7020
  49   2.0000      -0.748834       -20.3768
  50   2.0000      -0.741252       -20.1705
  51   2.0000      -0.720375       -19.6024
  52   2.0000      -0.709329       -19.3018
  53   2.0000      -0.684090       -18.6150
  54   2.0000      -0.663611       -18.0578
  55   2.0000      -0.624177       -16.9847
  56   2.0000      -0.621612       -16.9149
  57   2.0000      -0.608552       -16.5595
  58   2.0000      -0.601034       -16.3550
  59   2.0000      -0.588912       -16.0251
  60   2.0000      -0.536931       -14.6106
  61   2.0000      -0.517197       -14.0737
  62   2.0000      -0.505508       -13.7556
  63   2.0000      -0.482690       -13.1347
  64   2.0000      -0.469193       -12.7674
  65   2.0000      -0.466124       -12.6839
  66   2.0000      -0.464076       -12.6282
  67   2.0000      -0.452337       -12.3087
  68   2.0000      -0.436305       -11.8725
  69   2.0000      -0.430788       -11.7223
  70   2.0000      -0.426758       -11.6127
  71   2.0000      -0.424073       -11.5396
  72   2.0000      -0.410733       -11.1766
  73   2.0000      -0.401943       -10.9374
  74   2.0000      -0.394454       -10.7336
  75   2.0000      -0.386028       -10.5044
  76   2.0000      -0.377947       -10.2845
  77   2.0000      -0.373794       -10.1715
  78   2.0000      -0.371176       -10.1002
  79   2.0000      -0.364636        -9.9223
  80   2.0000      -0.361836        -9.8461
  81   2.0000      -0.358796        -9.7633
  82   2.0000      -0.356078        -9.6894
  83   2.0000      -0.348843        -9.4925
  84   2.0000      -0.336832        -9.1657
  85   2.0000      -0.334106        -9.0915
  86   2.0000      -0.323906        -8.8139
  87   2.0000      -0.320289        -8.7155
  88   2.0000      -0.312281        -8.4976
  89   2.0000      -0.305746        -8.3198
  90   2.0000      -0.294442        -8.0122
  91   2.0000      -0.292153        -7.9499
  92   2.0000      -0.279723        -7.6117
  93   2.0000      -0.278749        -7.5851
  94   2.0000      -0.268962        -7.3188
  95   2.0000      -0.248416        -6.7597
  96   2.0000      -0.235666        -6.4128
  97   2.0000      -0.223451        -6.0804
  98   2.0000      -0.216004        -5.8778
  99   2.0000      -0.208184        -5.6650
 100   2.0000      -0.199004        -5.4152
 101   0.0000      -0.046409        -1.2629
 102   0.0000      -0.034737        -0.9452
 103   0.0000      -0.009197        -0.2503
 104   0.0000       0.010211         0.2779
 105   0.0000       0.014447         0.3931

MULLIKEN ATOMIC CHARGES
-----------------------
   0 C :   -0.445034
   1 C :   -0.139464
   2 O :   -0.295202
   3 P :    0.669609
   4 S :   -0.434414
   5 O :   -0.276925
   6 C :   -0.152591
   7 C :   -0.421620
   8 S :   -0.176699
   9 C :   -0.224018
  10 S :   -0.182221
  11 P :    0.663065
  12 S :   -0.414954
  13 O :   -0.285430
  14 C :   -0.154794
  15 C :   -0.441282
  16 O :   -0.271440
  17 C :   -0.107764
  18 C :   -0.458383
  19 H :    0.143268
  20 H :    0.143971
  21 H :    0.179609
  22 H :    0.173092
  23 H :    0.144666
  24 H :    0.159790
  25 H :    0.150178
  26 H :    0.156384
  27 H :    0.145552
  28 H :    0.162393
  29 H :    0.229557
  30 H :    0.185989
  31 H :    0.150579
  32 H :    0.172875
  33 H :    0.148938
  34 H :    0.160231
  35 H :    0.150629
  36 H :    0.160581
  37 H :    0.160478
  38 H :    0.147092
  39 H :    0.166274
  40 H :    0.157437
Sum of atomic charges:   -0.0000000

LOEWDIN ATOMIC CHARGES
----------------------
   0 C :   -0.404014
   1 C :    0.021170
   2 O :   -0.646104
   3 P :    0.384898
   4 S :   -0.118881
   5 O :   -0.650835
   6 C :    0.019903
   7 C :   -0.405070
   8 S :    0.138657
   9 C :   -0.420921
  10 S :    0.123307
  11 P :    0.372984
  12 S :   -0.080006
  13 O :   -0.676051
  14 C :    0.020208
  15 C :   -0.385732
  16 O :   -0.668714
  17 C :    0.021137
  18 C :   -0.392291
  19 H :    0.160498
  20 H :    0.154814
  21 H :    0.175074
  22 H :    0.184211
  23 H :    0.174732
  24 H :    0.172488
  25 H :    0.181223
  26 H :    0.161398
  27 H :    0.156651
  28 H :    0.165347
  29 H :    0.202016
  30 H :    0.175777
  31 H :    0.172103
  32 H :    0.182197
  33 H :    0.161261
  34 H :    0.162379
  35 H :    0.158219
  36 H :    0.182111
  37 H :    0.176593
  38 H :    0.159068
  39 H :    0.166522
  40 H :    0.161674

  Mayer bond orders larger than 0.100000
B(  0-C ,  1-C ) :   0.9529 B(  0-C , 19-H ) :   0.9661 B(  0-C , 20-H ) :   0.9737
B(  0-C , 21-H ) :   0.9514 B(  1-C ,  2-O ) :   0.7640 B(  1-C , 22-H ) :   0.9563
B(  1-C , 23-H ) :   0.9641 B(  2-O ,  3-P ) :   1.1602 B(  3-P ,  4-S ) :   1.7819
B(  3-P ,  5-O ) :   1.1308 B(  3-P ,  8-S ) :   1.0175 B(  5-O ,  6-C ) :   0.8131
B(  6-C ,  7-C ) :   0.9388 B(  6-C , 24-H ) :   0.9652 B(  6-C , 25-H ) :   0.9606
B(  7-C , 26-H ) :   0.9553 B(  7-C , 27-H ) :   0.9657 B(  7-C , 28-H ) :   0.9659
B(  8-S ,  9-C ) :   0.8930 B(  9-C , 10-S ) :   0.9346 B(  9-C , 29-H ) :   0.8982
B(  9-C , 30-H ) :   0.9146 B( 10-S , 11-P ) :   0.9839 B( 11-P , 12-S ) :   1.8478
B( 11-P , 13-O ) :   1.0599 B( 11-P , 16-O ) :   1.1289 B( 13-O , 14-C ) :   0.7889
B( 14-C , 15-C ) :   0.9558 B( 14-C , 31-H ) :   0.9417 B( 14-C , 32-H ) :   0.9493
B( 15-C , 33-H ) :   0.9629 B( 15-C , 34-H ) :   0.9711 B( 15-C , 35-H ) :   0.9719
B( 16-O , 17-C ) :   0.7383 B( 17-C , 18-C ) :   0.9402 B( 17-C , 36-H ) :   0.9603
B( 17-C , 37-H ) :   0.9640 B( 18-C , 38-H ) :   0.9657 B( 18-C , 39-H ) :   0.9665
B( 18-C , 40-H ) :   0.9713

Dispersion correction           -0.021589221
FINAL SINGLE POINT ENERGY     -2932.458564128342

DIPOLE MOMENT
-------------

Method             : SCF
Type of density    : Electron Density
Multiplicity       :   1
Irrep              :   0
Energy             : -2932.4835659027849033 Eh
Relativity type    :
Basis              : AO
                                X                 Y                 Z
Electronic contribution:     12.123715787       3.034585183       5.531748226
Nuclear contribution   :    -13.741693868      -4.208961262      -5.228294891
                        -----------------------------------------
Total Dipole Moment    :     -1.617978082      -1.174376079       0.303453335
                        -----------------------------------------
Magnitude (a.u.)       :      2.022151373
Magnitude (Debye)      :      5.139900315

Rotational constants in cm-1:             0.012931             0.004779             0.004611
Rotational constants in MHz :           387.660046           143.270414           138.243227

                             ****ORCA TERMINATED NORMALLY****
TOTAL RUN TIME: 0 days 0 hours 1 minutes 18 seconds 919 msec
