                         Program Version 6.0.0  -   RELEASE  -
|  1> ! r2scan-3c def2/J RI DEFGRID2 scfconv6 printgap
|  2> %output
|  3>     printlevel normal
|  4> end
|  5> %cpcm
|  6>     smd true
|  7>     smdsolvent "water"
|  8> end
|  9> * xyz 0 1
| 10> C 1.1730775664 -0.1550062752 -3.1892715416
| 11> C 2.3033607406 0.4305808543 -2.366043444
| 12> O 2.7688986827 -0.5320221144 -1.4060492186
| 13> P 2.5340205024 -0.4328024737 0.1538969212
| 14> S 2.7059760647 1.3708174904 0.9166060325
| 15> O 3.656849684 -1.4878206496 0.5152037123
| 16> C 3.7181663544 -2.233645019 1.7436802456
| 17> C 3.8911677967 -1.34222282 2.9573324313
| 18> S 0.7139585102 -1.4560285451 0.5738909666
| 19> C -0.0124268003 -0.3255490542 1.8149949486
| 20> S -1.8051986655 -0.2408371778 1.6707921443
| 21> P -1.9076252541 0.5813896726 -0.2939337496
| 22> S -0.575431606 1.9516694333 -0.7141714963
| 23> O -3.4233937965 1.0455316565 -0.3782791368
| 24> C -3.8964119215 2.1867485502 0.3666415099
| 25> C -5.2580624539 2.5644959757 -0.1798828247
| 26> O -1.8538518572 -0.6284312122 -1.2985043478
| 27> C -2.7538154753 -1.7650619066 -1.2313920653
| 28> C -3.9065073543 -1.5894390714 -2.197489083
| 29> H 0.9081179061 0.5454685002 -3.9747343853
| 30> H 1.4856505761 -1.0975810923 -3.6292605396
| 31> H 0.2972261817 -0.3265701613 -2.566481783
| 32> H 1.98771417 1.3446702797 -1.8503649438
| 33> H 3.170484858 0.6543464842 -2.9909324398
| 34> H 2.8106069528 -2.8391861218 1.8287664434
| 35> H 4.5821328728 -2.8854379806 1.6031203666
| 36> H 3.0247935543 -0.6931036667 3.0772214221
| 37> H 4.0027683806 -1.9574329367 3.8443577477
| 38> H 4.7706933557 -0.7138944924 2.840685606
| 39> H 0.4249630713 0.6674788002 1.6712571588
| 40> H 0.1887952777 -0.7083819236 2.8124851712
| 41> H -3.9517445108 1.9066222928 1.4219886204
| 42> H -3.1751104118 3.0022205136 0.2497949431
| 43> H -5.635334959 3.421587599 0.3680359756
| 44> H -5.1803628573 2.8191231168 -1.2331558609
| 45> H -5.9481482037 1.733624725 -0.0661704506
| 46> H -2.1303374526 -2.6203195967 -1.4981613734
| 47> H -3.1088547827 -1.8747431319 -0.2031269928
| 48> H -4.5297196387 -2.4777454377 -2.16951542
| 49> H -4.501221704 -0.7235927399 -1.9194838406
| 50> H -3.5299137363 -1.4465241823 -3.2065107271
| 51> *
| 52>
| 53>                          ****END OF INPUT****

CARTESIAN COORDINATES (ANGSTROEM)
---------------------------------
  C      1.173078   -0.155006   -3.189272
  C      2.303361    0.430581   -2.366043
  O      2.768899   -0.532022   -1.406049
  P      2.534021   -0.432802    0.153897
  S      2.705976    1.370817    0.916606
  O      3.656850   -1.487821    0.515204
  C      3.718166   -2.233645    1.743680
  C      3.891168   -1.342223    2.957332
  S      0.713959   -1.456029    0.573891
  C     -0.012427   -0.325549    1.814995
  S     -1.805199   -0.240837    1.670792
  P     -1.907625    0.581390   -0.293934
  S     -0.575432    1.951669   -0.714171
  O     -3.423394    1.045532   -0.378279
  C     -3.896412    2.186749    0.366642
  C     -5.258062    2.564496   -0.179883
  O     -1.853852   -0.628431   -1.298504
  C     -2.753815   -1.765062   -1.231392
  C     -3.906507   -1.589439   -2.197489
  H      0.908118    0.545469   -3.974734
  H      1.485651   -1.097581   -3.629261
  H      0.297226   -0.326570   -2.566482
  H      1.987714    1.344670   -1.850365
  H      3.170485    0.654346   -2.990932
  H      2.810607   -2.839186    1.828766
  H      4.582133   -2.885438    1.603120
  H      3.024794   -0.693104    3.077221
  H      4.002768   -1.957433    3.844358
  H      4.770693   -0.713894    2.840686
  H      0.424963    0.667479    1.671257
  H      0.188795   -0.708382    2.812485
  H     -3.951745    1.906622    1.421989
  H     -3.175110    3.002221    0.249795
  H     -5.635335    3.421588    0.368036
  H     -5.180363    2.819123   -1.233156
  H     -5.948148    1.733625   -0.066170
  H     -2.130337   -2.620320   -1.498161
  H     -3.108855   -1.874743   -0.203127
  H     -4.529720   -2.477745   -2.169515
  H     -4.501222   -0.723593   -1.919484
  H     -3.529914   -1.446524   -3.206511

 Total Charge           Charge          ....    0
 Multiplicity           Mult            ....    1
 Number of Electrons    NEL             ....  202
 Basis Dimension        Dim             ....  539

ORBITAL ENERGIES
----------------

  NO   OCC          E(Eh)            E(eV)
   0   2.0000     -88.581436     -2410.4234
   1   2.0000     -88.578964     -2410.3561
   2   2.0000     -88.525950     -2408.9136
   3   2.0000     -88.525539     -2408.9024
   4   2.0000     -76.918983     -2093.0719
   5   2.0000     -76.918895     -2093.0696
   6   2.0000     -18.996124      -516.9108
   7   2.0000     -18.995786      -516.9016
   8   2.0000     -18.993240      -516.8323
   9   2.0000     -18.991984      -516.7982
  10   2.0000     -10.103495      -274.9301
  11   2.0000     -10.092543      -274.6320
  12   2.0000     -10.091292      -274.5980
  13   2.0000     -10.090255      -274.5698
  14   2.0000     -10.086616      -274.4708
  15   2.0000     -10.020064      -272.6598
  16   2.0000     -10.018679      -272.6221
  17   2.0000     -10.017917      -272.6014
  18   2.0000     -10.013994      -272.4946
  19   2.0000      -7.875708      -214.3089
  20   2.0000      -7.873000      -214.2352
  21   2.0000      -7.821008      -212.8205
  22   2.0000      -7.820584      -212.8089
  23   2.0000      -6.597516      -179.5275
  24   2.0000      -6.597171      -179.5181
  25   2.0000      -5.822581      -158.4405
  26   2.0000      -5.819775      -158.3641
  27   2.0000      -5.819372      -158.3532
  28   2.0000      -5.816898      -158.2858
  29   2.0000      -5.813028      -158.1805
  30   2.0000      -5.810244      -158.1048
  31   2.0000      -5.768628      -156.9724
  32   2.0000      -5.768258      -156.9623
  33   2.0000      -5.761307      -156.7731
  34   2.0000      -5.760975      -156.7641
  35   2.0000      -5.760727      -156.7574
  36   2.0000      -5.760637      -156.7549
  37   2.0000      -4.743240      -129.0701
  38   2.0000      -4.742604      -129.0528
  39   2.0000      -4.742472      -129.0492
  40   2.0000      -4.742464      -129.0490
  41   2.0000      -4.740921      -129.0070
  42   2.0000      -4.740787      -129.0034
  43   2.0000      -1.055115       -28.7111
  44   2.0000      -1.054855       -28.7041
  45   2.0000      -1.013981       -27.5918
  46   2.0000      -1.010404       -27.4945
  47   2.0000      -0.800914       -21.7940
  48   2.0000      -0.756306       -20.5801
  49   2.0000      -0.747250       -20.3337
  50   2.0000      -0.727770       -19.8036
  51   2.0000      -0.718805       -19.5597
  52   2.0000      -0.711646       -19.3649
  53   2.0000      -0.687698       -18.7132
  54   2.0000      -0.670853       -18.2548
  55   2.0000      -0.626962       -17.0605
  56   2.0000      -0.616354       -16.7718
  57   2.0000      -0.601573       -16.3696
  58   2.0000      -0.594884       -16.1876
  59   2.0000      -0.590508       -16.0685
  60   2.0000      -0.531485       -14.4624
  61   2.0000      -0.519546       -14.1376
  62   2.0000      -0.498507       -13.5651
  63   2.0000      -0.486932       -13.2501
  64   2.0000      -0.471199       -12.8220
  65   2.0000      -0.462091       -12.5741
  66   2.0000      -0.458763       -12.4836
  67   2.0000      -0.444525       -12.0962
  68   2.0000      -0.435854       -11.8602
  69   2.0000      -0.434068       -11.8116
  70   2.0000      -0.429737       -11.6937
  71   2.0000      -0.418491       -11.3877
  72   2.0000      -0.403417       -10.9775
  73   2.0000      -0.399292       -10.8653
  74   2.0000      -0.392036       -10.6678
  75   2.0000      -0.386053       -10.5050
  76   2.0000      -0.375472       -10.2171
  77   2.0000      -0.366222        -9.9654
  78   2.0000      -0.361067        -9.8251
  79   2.0000      -0.359877        -9.7928
  80   2.0000      -0.356150        -9.6913
  81   2.0000      -0.353202        -9.6111
  82   2.0000      -0.350246        -9.5307
  83   2.0000      -0.346774        -9.4362
  84   2.0000      -0.340177        -9.2567
  85   2.0000      -0.327074        -8.9001
  86   2.0000      -0.326218        -8.8768
  87   2.0000      -0.314596        -8.5606
  88   2.0000      -0.306504        -8.3404
  89   2.0000      -0.305356        -8.3092
  90   2.0000      -0.298191        -8.1142
  91   2.0000      -0.290147        -7.8953
  92   2.0000      -0.284248        -7.7348
  93   2.0000      -0.277991        -7.5645
  94   2.0000      -0.275454        -7.4955
  95   2.0000      -0.251232        -6.8364
  96   2.0000      -0.242265        -6.5924
  97   2.0000      -0.234459        -6.3799
  98   2.0000      -0.224010        -6.0956
  99   2.0000      -0.218553        -5.9471
 100   2.0000      -0.210853        -5.7376
 101   0.0000      -0.049433        -1.3451
 102   0.0000      -0.041605        -1.1321
 103   0.0000      -0.012609        -0.3431
 104   0.0000       0.003612         0.0983
 105   0.0000       0.013596         0.3700

MULLIKEN ATOMIC CHARGES
-----------------------
   0 C :   -0.491299
   1 C :   -0.128720
   2 O :   -0.323764
   3 P :    0.695363
   4 S :   -0.489763
   5 O :   -0.317849
   6 C :   -0.141137
   7 C :   -0.467321
   8 S :   -0.173165
   9 C :   -0.218005
  10 S :   -0.178091
  11 P :    0.678396
  12 S :   -0.474254
  13 O :   -0.303391
  14 C :   -0.144907
  15 C :   -0.481417
  16 O :   -0.297625
  17 C :   -0.093201
  18 C :   -0.500162
  19 H :    0.167678
  20 H :    0.162005
  21 H :    0.171000
  22 H :    0.168664
  23 H :    0.170141
  24 H :    0.173459
  25 H :    0.174906
  26 H :    0.164044
  27 H :    0.172024
  28 H :    0.167881
  29 H :    0.219065
  30 H :    0.231760
  31 H :    0.168857
  32 H :    0.173300
  33 H :    0.169846
  34 H :    0.167004
  35 H :    0.166323
  36 H :    0.180747
  37 H :    0.173087
  38 H :    0.171348
  39 H :    0.169677
  40 H :    0.167494
Sum of atomic charges:   -0.0000000

LOEWDIN ATOMIC CHARGES
----------------------
   0 C :   -0.408478
   1 C :    0.022453
   2 O :   -0.665262
   3 P :    0.387443
   4 S :   -0.157815
   5 O :   -0.672246
   6 C :    0.026983
   7 C :   -0.407784
   8 S :    0.147665
   9 C :   -0.412803
  10 S :    0.134459
  11 P :    0.375846
  12 S :   -0.124076
  13 O :   -0.682246
  14 C :    0.024439
  15 C :   -0.388907
  16 O :   -0.683988
  17 C :    0.028435
  18 C :   -0.395116
  19 H :    0.168161
  20 H :    0.160998
  21 H :    0.169851
  22 H :    0.182831
  23 H :    0.184706
  24 H :    0.179430
  25 H :    0.191673
  26 H :    0.161646
  27 H :    0.167667
  28 H :    0.163363
  29 H :    0.198626
  30 H :    0.193536
  31 H :    0.179606
  32 H :    0.181764
  33 H :    0.169239
  34 H :    0.163516
  35 H :    0.163239
  36 H :    0.190459
  37 H :    0.182443
  38 H :    0.168958
  39 H :    0.165775
  40 H :    0.163511

  Mayer bond orders larger than 0.100000
B(  0-C ,  1-C ) :   0.9404 B(  0-C , 19-H ) :   0.9633 B(  0-C , 20-H ) :   0.9696
B(  0-C , 21-H ) :   0.9570 B(  1-C ,  2-O ) :   0.7561 B(  1-C , 22-H ) :   0.9541
B(  1-C , 23-H ) :   0.9547 B(  2-O ,  3-P ) :   1.1515 B(  3-P ,  4-S ) :   1.7437
B(  3-P ,  5-O ) :   1.1346 B(  3-P ,  8-S ) :   1.0507 B(  5-O ,  6-C ) :   0.8055
B(  6-C ,  7-C ) :   0.9233 B(  6-C , 24-H ) :   0.9574 B(  6-C , 25-H ) :   0.9518
B(  7-C , 26-H ) :   0.9546 B(  7-C , 27-H ) :   0.9580 B(  7-C , 28-H ) :   0.9688
B(  8-S ,  9-C ) :   0.8859 B(  9-C , 10-S ) :   0.9279 B(  9-C , 29-H ) :   0.9032
B(  9-C , 30-H ) :   0.8991 B( 10-S , 11-P ) :   1.0014 B( 11-P , 12-S ) :   1.8112
B( 11-P , 13-O ) :   1.0707 B( 11-P , 16-O ) :   1.1377 B( 13-O , 14-C ) :   0.7806
B( 14-C , 15-C ) :   0.9548 B( 14-C , 31-H ) :   0.9330 B( 14-C , 32-H ) :   0.9468
B( 15-C , 33-H ) :   0.9576 B( 15-C , 34-H ) :   0.9690 B( 15-C , 35-H ) :   0.9684
B( 16-O , 17-C ) :   0.7288 B( 17-C , 18-C ) :   0.9312 B( 17-C , 36-H ) :   0.9509
B( 17-C , 37-H ) :   0.9551 B( 18-C , 38-H ) :   0.9592 B( 18-C , 39-H ) :   0.9663
B( 18-C , 40-H ) :   0.9702

Dispersion correction           -0.021589221
FINAL SINGLE POINT ENERGY     -2932.468130411194

DIPOLE MOMENT
-------------

Method             : SCF
Type of density    : Electron Density
Multiplicity       :   1
Irrep              :   0
Energy             : -2932.4931321856365685 Eh
Relativity type    :
Basis              : AO
                                X                 Y                 Z
Electronic contribution:     11.531854194       2.361958951       5.959355888
Nuclear contribution   :    -13.741693868      -4.208961262      -5.228294891
                        -----------------------------------------
Total Dipole Moment    :     -2.209839674      -1.847002310       0.731060997
                        -----------------------------------------
Magnitude (a.u.)       :      2.971406923
Magnitude (Debye)      :      7.552716174

Rotational constants in cm-1:             0.012931             0.004779             0.004611
Rotational constants in MHz :           387.660046           143.270414           138.243227

                             ****ORCA TERMINATED NORMALLY****
TOTAL RUN TIME: 0 days 0 hours 1 minutes 48 seconds 439 msec
