                         Program Version 6.0.0  -   RELEASE  -
|  1> ! pbe def2-sv(p) def2/J RI DEFGRID1 loosescf d4 GCP(DFT/SV(P)) printgap
|  2> %output
|  3>     printlevel normal
|  4> end
|  5> * xyz 0 1
|  6> C 2.4193400755 0.4014909028 3.3804789492
|  7> C 1.7270322798 0.657159531 2.0559400965
|  8> O 2.5835170022 0.2035228326 0.9952321109
|  9> P 2.147306057 -0.7047598321 -0.2367152405
| 10> S 0.570478349 -1.8338175693 0.0920921447
| 11> O 3.507450559 -1.4108237744 -0.6230870198
| 12> C 4.425101301 -1.9726810274 0.3406642612
| 13> C 3.8169618004 -3.1340440949 1.099858669
| 14> S 2.064075427 0.5353374788 -1.9426669455
| 15> C 0.2818505525 0.8392564494 -2.0009864407
| 16> S -0.3263034378 1.7490806906 -0.5357168064
| 17> P -2.0485196823 0.6030348355 -0.0773500654
| 18> S -2.6302215267 -0.7408805206 -1.3861435619
| 19> O -3.1518910621 1.6968691093 0.2661305311
| 20> C -4.0418176851 2.2407813995 -0.7218883377
| 21> C -3.3113060339 3.0621898922 -1.7649898935
| 22> O -1.6666878 0.120430657 1.3807433196
| 23> C -2.2941707556 -1.0152217532 2.0097559418
| 24> C -3.7734291579 -0.7941073308 2.2415458635
| 25> H 1.8038631995 0.7954956579 4.1824985506
| 26> H 2.5633358243 -0.6652895899 3.5324087485
| 27> H 3.3866715971 0.8953760951 3.3949000636
| 28> H 1.5509098369 1.7233061712 1.8941886255
| 29> H 0.7721500602 0.1240244602 1.9981149547
| 30> H 5.270532716 -2.2918620306 -0.2707923035
| 31> H 4.7374395064 -1.1784580146 1.0221387143
| 32> H 2.9591686261 -2.7944066839 1.67952315
| 33> H 3.4774589422 -3.9016163058 0.4083100979
| 34> H 4.5576368834 -3.5561408296 1.7717468192
| 35> H -0.26188786 -0.1070846804 -2.0702075077
| 36> H 0.1181720261 1.450335734 -2.8850050045
| 37> H -4.5781984085 1.4124313737 -1.1958310386
| 38> H -4.7352670932 2.8506266949 -0.1414251716
| 39> H -4.0353152878 3.5516835787 -2.4084303733
| 40> H -2.6854276368 3.8115561374 -1.2870588291
| 41> H -2.6829350941 2.4121053098 -2.373037348
| 42> H -2.1177590848 -1.8947829782 1.3813772447
| 43> H -1.7486573322 -1.1255798201 2.9480599018
| 44> H -3.9315844482 0.1284433351 2.7940192435
| 45> H -4.2926279196 -0.7277883593 1.2859860457
| 46> H -4.1770278152 -1.6301607512 2.8040078156
| 47> *
| 48>
| 49>                          ****END OF INPUT****

CARTESIAN COORDINATES (ANGSTROEM)
---------------------------------
  C      2.419340    0.401491    3.380479
  C      1.727032    0.657160    2.055940
  O      2.583517    0.203523    0.995232
  P      2.147306   -0.704760   -0.236715
  S      0.570478   -1.833818    0.092092
  O      3.507451   -1.410824   -0.623087
  C      4.425101   -1.972681    0.340664
  C      3.816962   -3.134044    1.099859
  S      2.064075    0.535337   -1.942667
  C      0.281851    0.839256   -2.000986
  S     -0.326303    1.749081   -0.535717
  P     -2.048520    0.603035   -0.077350
  S     -2.630222   -0.740881   -1.386144
  O     -3.151891    1.696869    0.266131
  C     -4.041818    2.240781   -0.721888
  C     -3.311306    3.062190   -1.764990
  O     -1.666688    0.120431    1.380743
  C     -2.294171   -1.015222    2.009756
  C     -3.773429   -0.794107    2.241546
  H      1.803863    0.795496    4.182499
  H      2.563336   -0.665290    3.532409
  H      3.386672    0.895376    3.394900
  H      1.550910    1.723306    1.894189
  H      0.772150    0.124024    1.998115
  H      5.270533   -2.291862   -0.270792
  H      4.737440   -1.178458    1.022139
  H      2.959169   -2.794407    1.679523
  H      3.477459   -3.901616    0.408310
  H      4.557637   -3.556141    1.771747
  H     -0.261888   -0.107085   -2.070208
  H      0.118172    1.450336   -2.885005
  H     -4.578198    1.412431   -1.195831
  H     -4.735267    2.850627   -0.141425
  H     -4.035315    3.551684   -2.408430
  H     -2.685428    3.811556   -1.287059
  H     -2.682935    2.412105   -2.373037
  H     -2.117759   -1.894783    1.381377
  H     -1.748657   -1.125580    2.948060
  H     -3.931584    0.128443    2.794019
  H     -4.292628   -0.727788    1.285986
  H     -4.177028   -1.630161    2.804008

 Total Charge           Charge          ....    0
 Multiplicity           Mult            ....    1
 Number of Electrons    NEL             ....  202
 Basis Dimension        Dim             ....  334

ORBITAL ENERGIES
----------------

  NO   OCC          E(Eh)            E(eV)
   0   2.0000     -88.041715     -2395.7368
   1   2.0000     -88.038335     -2395.6449
   2   2.0000     -87.988616     -2394.2920
   3   2.0000     -87.981244     -2394.0914
   4   2.0000     -76.425993     -2079.6570
   5   2.0000     -76.423821     -2079.5979
   6   2.0000     -18.789890      -511.2989
   7   2.0000     -18.789638      -511.2920
   8   2.0000     -18.789080      -511.2769
   9   2.0000     -18.788346      -511.2569
  10   2.0000      -9.955381      -270.8997
  11   2.0000      -9.951416      -270.7918
  12   2.0000      -9.951110      -270.7835
  13   2.0000      -9.949150      -270.7301
  14   2.0000      -9.944802      -270.6118
  15   2.0000      -9.886123      -269.0151
  16   2.0000      -9.884033      -268.9582
  17   2.0000      -9.883998      -268.9573
  18   2.0000      -9.881737      -268.8957
  19   2.0000      -7.686222      -209.1527
  20   2.0000      -7.683995      -209.0921
  21   2.0000      -7.633492      -207.7179
  22   2.0000      -7.625854      -207.5100
  23   2.0000      -6.423308      -174.7871
  24   2.0000      -6.420986      -174.7239
  25   2.0000      -5.714083      -155.4881
  26   2.0000      -5.712032      -155.4323
  27   2.0000      -5.710931      -155.4023
  28   2.0000      -5.708403      -155.3336
  29   2.0000      -5.703055      -155.1880
  30   2.0000      -5.700843      -155.1278
  31   2.0000      -5.662384      -154.0813
  32   2.0000      -5.654707      -153.8724
  33   2.0000      -5.654288      -153.8610
  34   2.0000      -5.653519      -153.8401
  35   2.0000      -5.646606      -153.6520
  36   2.0000      -5.645988      -153.6351
  37   2.0000      -4.645520      -126.4110
  38   2.0000      -4.644972      -126.3961
  39   2.0000      -4.644226      -126.3758
  40   2.0000      -4.643868      -126.3661
  41   2.0000      -4.642544      -126.3300
  42   2.0000      -4.641430      -126.2997
  43   2.0000      -0.985492       -26.8166
  44   2.0000      -0.985025       -26.8039
  45   2.0000      -0.943239       -25.6668
  46   2.0000      -0.940961       -25.6049
  47   2.0000      -0.759537       -20.6680
  48   2.0000      -0.721458       -19.6319
  49   2.0000      -0.707155       -19.2427
  50   2.0000      -0.688279       -18.7290
  51   2.0000      -0.685677       -18.6582
  52   2.0000      -0.672264       -18.2932
  53   2.0000      -0.650598       -17.7037
  54   2.0000      -0.634349       -17.2615
  55   2.0000      -0.602417       -16.3926
  56   2.0000      -0.589491       -16.0409
  57   2.0000      -0.573344       -15.6015
  58   2.0000      -0.571058       -15.5393
  59   2.0000      -0.557917       -15.1817
  60   2.0000      -0.499327       -13.5874
  61   2.0000      -0.489319       -13.3150
  62   2.0000      -0.474137       -12.9019
  63   2.0000      -0.470100       -12.7921
  64   2.0000      -0.448677       -12.2091
  65   2.0000      -0.448238       -12.1972
  66   2.0000      -0.438937       -11.9441
  67   2.0000      -0.432547       -11.7702
  68   2.0000      -0.425865       -11.5884
  69   2.0000      -0.417092       -11.3496
  70   2.0000      -0.410895       -11.1810
  71   2.0000      -0.394168       -10.7259
  72   2.0000      -0.391387       -10.6502
  73   2.0000      -0.385674       -10.4947
  74   2.0000      -0.380736       -10.3603
  75   2.0000      -0.378229       -10.2921
  76   2.0000      -0.368545       -10.0286
  77   2.0000      -0.353596        -9.6218
  78   2.0000      -0.351214        -9.5570
  79   2.0000      -0.347256        -9.4493
  80   2.0000      -0.346134        -9.4188
  81   2.0000      -0.341769        -9.3000
  82   2.0000      -0.339733        -9.2446
  83   2.0000      -0.338578        -9.2132
  84   2.0000      -0.335231        -9.1221
  85   2.0000      -0.315933        -8.5970
  86   2.0000      -0.311180        -8.4676
  87   2.0000      -0.295254        -8.0343
  88   2.0000      -0.293258        -7.9800
  89   2.0000      -0.290106        -7.8942
  90   2.0000      -0.282164        -7.6781
  91   2.0000      -0.273726        -7.4485
  92   2.0000      -0.270252        -7.3539
  93   2.0000      -0.264360        -7.1936
  94   2.0000      -0.256508        -6.9799
  95   2.0000      -0.232045        -6.3143
  96   2.0000      -0.219151        -5.9634
  97   2.0000      -0.214343        -5.8326
  98   2.0000      -0.202276        -5.5042
  99   2.0000      -0.195591        -5.3223
 100   2.0000      -0.188534        -5.1303
 101   0.0000      -0.040797        -1.1101
 102   0.0000      -0.034325        -0.9340
 103   0.0000      -0.006293        -0.1712
 104   0.0000       0.015763         0.4289
 105   0.0000       0.019490         0.5303

MULLIKEN ATOMIC CHARGES
-----------------------
   0 C :   -0.286535
   1 C :   -0.035616
   2 O :   -0.385868
   3 P :    0.638390
   4 S :   -0.327890
   5 O :   -0.377641
   6 C :   -0.002874
   7 C :   -0.319439
   8 S :   -0.087312
   9 C :   -0.359770
  10 S :   -0.107843
  11 P :    0.620365
  12 S :   -0.313580
  13 O :   -0.371168
  14 C :   -0.001254
  15 C :   -0.312739
  16 O :   -0.363640
  17 C :   -0.002394
  18 C :   -0.302373
  19 H :    0.110067
  20 H :    0.114678
  21 H :    0.113590
  22 H :    0.105393
  23 H :    0.136766
  24 H :    0.109144
  25 H :    0.109578
  26 H :    0.131664
  27 H :    0.125830
  28 H :    0.109315
  29 H :    0.215087
  30 H :    0.180475
  31 H :    0.109004
  32 H :    0.104091
  33 H :    0.112269
  34 H :    0.119998
  35 H :    0.119358
  36 H :    0.122159
  37 H :    0.101132
  38 H :    0.114631
  39 H :    0.123460
  40 H :    0.111490
Sum of atomic charges:   -0.0000000

LOEWDIN ATOMIC CHARGES
----------------------
   0 C :   -0.354372
   1 C :   -0.127233
   2 O :   -0.246557
   3 P :    0.563467
   4 S :   -0.304370
   5 O :   -0.245426
   6 C :   -0.109877
   7 C :   -0.366802
   8 S :    0.087582
   9 C :   -0.480214
  10 S :    0.081610
  11 P :    0.577454
  12 S :   -0.300480
  13 O :   -0.246208
  14 C :   -0.119179
  15 C :   -0.369206
  16 O :   -0.235801
  17 C :   -0.114992
  18 C :   -0.366455
  19 H :    0.130044
  20 H :    0.122829
  21 H :    0.124133
  22 H :    0.110388
  23 H :    0.109046
  24 H :    0.121492
  25 H :    0.112204
  26 H :    0.120108
  27 H :    0.131412
  28 H :    0.128732
  29 H :    0.125203
  30 H :    0.133506
  31 H :    0.109416
  32 H :    0.118281
  33 H :    0.130193
  34 H :    0.124652
  35 H :    0.118928
  36 H :    0.112193
  37 H :    0.116571
  38 H :    0.125496
  39 H :    0.121795
  40 H :    0.130436

  Mayer bond orders larger than 0.100000
B(  0-C ,  1-C ) :   1.1543 B(  0-C , 19-H ) :   0.9420 B(  0-C , 20-H ) :   0.9473
B(  0-C , 21-H ) :   0.9490 B(  1-C ,  2-O ) :   0.9000 B(  1-C , 22-H ) :   0.9296
B(  1-C , 23-H ) :   0.8957 B(  2-O ,  3-P ) :   1.0824 B(  3-P ,  4-S ) :   1.6331
B(  3-P ,  5-O ) :   1.1253 B(  3-P ,  8-S ) :   0.9517 B(  4-S ,  8-S ) :   0.1126
B(  5-O ,  6-C ) :   0.9096 B(  6-C ,  7-C ) :   1.1657 B(  6-C , 24-H ) :   0.9350
B(  6-C , 25-H ) :   0.9271 B(  7-C , 26-H ) :   0.9310 B(  7-C , 27-H ) :   0.9445
B(  7-C , 28-H ) :   0.9366 B(  8-S ,  9-C ) :   1.0121 B(  9-C , 10-S ) :   0.9827
B(  9-C , 29-H ) :   0.8493 B(  9-C , 30-H ) :   0.9095 B( 10-S , 11-P ) :   0.9485
B( 10-S , 12-S ) :   0.1175 B( 11-P , 12-S ) :   1.5910 B( 11-P , 13-O ) :   1.1007
B( 11-P , 16-O ) :   1.1291 B( 13-O , 14-C ) :   0.9155 B( 14-C , 15-C ) :   1.1661
B( 14-C , 31-H ) :   0.9162 B( 14-C , 32-H ) :   0.9341 B( 15-C , 33-H ) :   0.9377
B( 15-C , 34-H ) :   0.9426 B( 15-C , 35-H ) :   0.9374 B( 16-O , 17-C ) :   0.8989
B( 17-C , 18-C ) :   1.1640 B( 17-C , 36-H ) :   0.9177 B( 17-C , 37-H ) :   0.9346
B( 18-C , 38-H ) :   0.9447 B( 18-C , 39-H ) :   0.9343 B( 18-C , 40-H ) :   0.9383

Dispersion correction           -0.067117330
FINAL SINGLE POINT ENERGY     -2929.521051827234

DIPOLE MOMENT
-------------

Method             : SCF
Type of density    : Electron Density
Multiplicity       :   1
Irrep              :   0
Energy             : -2929.6395381383986205 Eh
Relativity type    :
Basis              : AO
                                X                 Y                 Z
Electronic contribution:      3.977672083       1.177792820     -16.640852661
Nuclear contribution   :     -3.859086444      -0.565077288      17.743526891
                        -----------------------------------------
Total Dipole Moment    :      0.118585639       0.612715532       1.102674231
                        -----------------------------------------
Magnitude (a.u.)       :      1.267033281
Magnitude (Debye)      :      3.220542660

Rotational constants in cm-1:             0.012763             0.005235             0.004711
Rotational constants in MHz :           382.620389           156.939131           141.232270

                             ****ORCA TERMINATED NORMALLY****
TOTAL RUN TIME: 0 days 0 hours 0 minutes 21 seconds 300 msec
