                         Program Version 6.0.0  -   RELEASE  -
|  1> ! wb97x-v def2-tzvp def2/J RIJCOSX DEFGRID2 scfconv7 GCP(DFT/TZ) printgap
|  2> %output
|  3>     printlevel normal
|  4> end
|  5> * xyz 0 1
|  6> C 1.4996535085117249 0.3319719110205792 -0.4849691255595027
|  7> C 0.8197245629937073 -0.2550126463679429 0.4968426887071223
|  8> C -0.6682475793072965 -0.3816763031594739 0.5744731322220038
|  9> O -1.3725036625127671 0.17130429493221516 -0.5389762921630464
| 10> H 2.583509407244696 0.3872998470351005 -0.45492364976877436
| 11> H 1.003226358212799 0.7724463417560639 -1.345478862510726
| 12> H 1.349023094542464 -0.686980462764196 1.3460730845565518
| 13> H -1.0173827702269362 0.06720478748966957 1.5180737170132168
| 14> H -0.9422768844914069 -1.4432453175706463 0.6163026416201021
| 15> H -1.1786464442622988 1.117750467431307 -0.5663427933716015
| 16> *
| 17>
| 18>                          ****END OF INPUT****

CARTESIAN COORDINATES (ANGSTROEM)
---------------------------------
  C      1.499654    0.331972   -0.484969
  C      0.819725   -0.255013    0.496843
  C     -0.668248   -0.381676    0.574473
  O     -1.372504    0.171304   -0.538976
  H      2.583509    0.387300   -0.454924
  H      1.003226    0.772446   -1.345479
  H      1.349023   -0.686980    1.346073
  H     -1.017383    0.067205    1.518074
  H     -0.942277   -1.443245    0.616303
  H     -1.178646    1.117750   -0.566343

 Total Charge           Charge          ....    0
 Multiplicity           Mult            ....    1
 Number of Electrons    NEL             ....   32
 Basis Dimension        Dim             ....  160

ORBITAL ENERGIES
----------------

  NO   OCC          E(Eh)            E(eV)
   0   2.0000     -21.676069      -589.8358
   1   2.0000     -12.101338      -329.2941
   2   2.0000     -12.057023      -328.0883
   3   2.0000     -12.044091      -327.7364
   4   2.0000      -1.677064       -45.6352
   5   2.0000      -1.313138       -35.7323
   6   2.0000      -1.209737       -32.9186
   7   2.0000      -1.076217       -29.2854
   8   2.0000      -1.002040       -27.2669
   9   2.0000      -0.961247       -26.1569
  10   2.0000      -0.944821       -25.7099
  11   2.0000      -0.890162       -24.2225
  12   2.0000      -0.859757       -23.3952
  13   2.0000      -0.826991       -22.5036
  14   2.0000      -0.789172       -21.4745
  15   2.0000      -0.655787       -17.8449
  16   0.0000      -0.197527        -5.3750
  17   0.0000      -0.145455        -3.9580
  18   0.0000      -0.044821        -1.2196
  19   0.0000      -0.015249        -0.4149
  20   0.0000       0.007828         0.2130

MULLIKEN ATOMIC CHARGES
-----------------------
   0 C :   -0.286034
   1 C :   -0.148111
   2 C :    0.021509
   3 O :   -0.449418
   4 H :    0.122666
   5 H :    0.118353
   6 H :    0.111926
   7 H :    0.097964
   8 H :    0.109298
   9 H :    0.301849
Sum of atomic charges:   -0.0000000

LOEWDIN ATOMIC CHARGES
----------------------
   0 C :   -0.219086
   1 C :   -0.214778
   2 C :   -0.328689
   3 O :   -0.043692
   4 H :    0.120823
   5 H :    0.118314
   6 H :    0.140699
   7 H :    0.121733
   8 H :    0.134519
   9 H :    0.170157

  Mayer bond orders larger than 0.100000
B(  0-C ,  1-C ) :   1.9659 B(  0-C ,  4-H ) :   0.9707 B(  0-C ,  5-H ) :   0.9625
B(  1-C ,  2-C ) :   0.9740 B(  1-C ,  6-H ) :   0.9512 B(  2-C ,  3-O ) :   1.0396
B(  2-C ,  7-H ) :   0.9744 B(  2-C ,  8-H ) :   0.9580 B(  3-O ,  9-H ) :   0.8991

FINAL SINGLE POINT ENERGY      -193.125976482203

DIPOLE MOMENT
-------------

Method             : SCF
Type of density    : Electron Density
Multiplicity       :   1
Irrep              :   0
Energy             :  -193.1319039187030171 Eh
Relativity type    :
Basis              : AO
                                X                 Y                 Z
Electronic contribution:     -1.382466509       0.009429085      -0.614511222
Nuclear contribution   :      1.696651319       0.272069138       1.081371604
                        -----------------------------------------
Total Dipole Moment    :      0.314184810       0.281498223       0.466860381
                        -----------------------------------------
Magnitude (a.u.)       :      0.629215353
Magnitude (Debye)      :      1.599338326

Rotational constants in cm-1:             0.561659             0.196374             0.151153
Rotational constants in MHz :         16838.106491          5887.138589          4531.449770

                             ****ORCA TERMINATED NORMALLY****
TOTAL RUN TIME: 0 days 0 hours 0 minutes 29 seconds 758 msec
