                         Program Version 6.0.0  -   RELEASE  -
|  1> ! wb97x-v def2-tzvp def2/J RIJCOSX DEFGRID2 scfconv7 GCP(DFT/TZ) printgap
|  2> %output
|  3>     printlevel normal
|  4> end
|  5> %cpcm
|  6>     smd true
|  7>     smdsolvent "water"
|  8> end
|  9> * xyz 0 1
| 10> C 1.4996535085117249 0.3319719110205792 -0.4849691255595027
| 11> C 0.8197245629937073 -0.2550126463679429 0.4968426887071223
| 12> C -0.6682475793072965 -0.3816763031594739 0.5744731322220038
| 13> O -1.3725036625127671 0.17130429493221516 -0.5389762921630464
| 14> H 2.583509407244696 0.3872998470351005 -0.45492364976877436
| 15> H 1.003226358212799 0.7724463417560639 -1.345478862510726
| 16> H 1.349023094542464 -0.686980462764196 1.3460730845565518
| 17> H -1.0173827702269362 0.06720478748966957 1.5180737170132168
| 18> H -0.9422768844914069 -1.4432453175706463 0.6163026416201021
| 19> H -1.1786464442622988 1.117750467431307 -0.5663427933716015
| 20> *
| 21>
| 22>                          ****END OF INPUT****

CARTESIAN COORDINATES (ANGSTROEM)
---------------------------------
  C      1.499654    0.331972   -0.484969
  C      0.819725   -0.255013    0.496843
  C     -0.668248   -0.381676    0.574473
  O     -1.372504    0.171304   -0.538976
  H      2.583509    0.387300   -0.454924
  H      1.003226    0.772446   -1.345479
  H      1.349023   -0.686980    1.346073
  H     -1.017383    0.067205    1.518074
  H     -0.942277   -1.443245    0.616303
  H     -1.178646    1.117750   -0.566343

 Total Charge           Charge          ....    0
 Multiplicity           Mult            ....    1
 Number of Electrons    NEL             ....   32
 Basis Dimension        Dim             ....  160

ORBITAL ENERGIES
----------------

  NO   OCC          E(Eh)            E(eV)
   0   2.0000     -21.676854      -589.8572
   1   2.0000     -12.092625      -329.0570
   2   2.0000     -12.050208      -327.9028
   3   2.0000     -12.035697      -327.5080
   4   2.0000      -1.678040       -45.6618
   5   2.0000      -1.306726       -35.5578
   6   2.0000      -1.204278       -32.7701
   7   2.0000      -1.072757       -29.1912
   8   2.0000      -1.000449       -27.2236
   9   2.0000      -0.959348       -26.1052
  10   2.0000      -0.943250       -25.6671
  11   2.0000      -0.884494       -24.0683
  12   2.0000      -0.853334       -23.2204
  13   2.0000      -0.820688       -22.3320
  14   2.0000      -0.781342       -21.2614
  15   2.0000      -0.650332       -17.6964
  16   0.0000      -0.191507        -5.2112
  17   0.0000      -0.138440        -3.7671
  18   0.0000      -0.021999        -0.5986
  19   0.0000      -0.003565        -0.0970
  20   0.0000       0.021716         0.5909

MULLIKEN ATOMIC CHARGES
-----------------------
   0 C :   -0.375957
   1 C :   -0.180541
   2 C :    0.021896
   3 O :   -0.553036
   4 H :    0.159879
   5 H :    0.152270
   6 H :    0.153673
   7 H :    0.125302
   8 H :    0.132947
   9 H :    0.363566
Sum of atomic charges:   -0.0000000

LOEWDIN ATOMIC CHARGES
----------------------
   0 C :   -0.238790
   1 C :   -0.216361
   2 C :   -0.325240
   3 O :   -0.083883
   4 H :    0.126638
   5 H :    0.123390
   6 H :    0.150671
   7 H :    0.131796
   8 H :    0.139584
   9 H :    0.192195

  Mayer bond orders larger than 0.100000
B(  0-C ,  1-C ) :   1.9392 B(  0-C ,  4-H ) :   0.9671 B(  0-C ,  5-H ) :   0.9614
B(  1-C ,  2-C ) :   0.9824 B(  1-C ,  6-H ) :   0.9503 B(  2-C ,  3-O ) :   1.0047
B(  2-C ,  7-H ) :   0.9724 B(  2-C ,  8-H ) :   0.9533 B(  3-O ,  9-H ) :   0.8623

FINAL SINGLE POINT ENERGY      -193.134064230559

DIPOLE MOMENT
-------------

Method             : SCF
Type of density    : Electron Density
Multiplicity       :   1
Irrep              :   0
Energy             :  -193.1399916670593484 Eh
Relativity type    :
Basis              : AO
                                X                 Y                 Z
Electronic contribution:     -1.304785338       0.116047435      -0.406892804
Nuclear contribution   :      1.696651319       0.272069138       1.081371604
                        -----------------------------------------
Total Dipole Moment    :      0.391865981       0.388116573       0.674478800
                        -----------------------------------------
Magnitude (a.u.)       :      0.871272101
Magnitude (Debye)      :      2.214597683

Rotational constants in cm-1:             0.561659             0.196374             0.151153
Rotational constants in MHz :         16838.106491          5887.138589          4531.449770

                             ****ORCA TERMINATED NORMALLY****
TOTAL RUN TIME: 0 days 0 hours 0 minutes 29 seconds 698 msec
