                         Program Version 6.0.0  -   RELEASE  -
|  1> ! pbe def2-sv(p) def2/J RI DEFGRID1 loosescf d4 GCP(DFT/SV(P)) printgap
|  2> %output
|  3>     printlevel normal
|  4> end
|  5> * xyz 0 1
|  6> C 4.3768837432 -0.7942939154 -1.6319557568
|  7> C 4.5029068298 0.5349601047 -0.9156982566
|  8> O 3.6475004276 0.6217330379 0.2349864441
|  9> P 2.0576623403 0.6124077994 0.1250935364
| 10> S 1.3492643686 1.6017726546 -1.4122545016
| 11> O 1.6489058786 1.236540109 1.5162577251
| 12> C 2.4377316628 1.134171831 2.7309666224
| 13> C 2.6416792481 -0.2974913927 3.1804371118
| 14> S 1.5191871001 -1.4507190698 0.2298775875
| 15> C 0.402069629 -1.6210318809 -1.189531306
| 16> S -1.2895089278 -2.0455600093 -0.6968875317
| 17> P -2.0292094648 -0.0628656352 -0.4725044618
| 18> S -2.0283478593 1.0260945683 -2.0972515661
| 19> O -1.2159406224 0.5586064285 0.7304338316
| 20> C -1.3576354717 0.0489388624 2.0855847258
| 21> C -2.3409356948 0.8887237381 2.8718699781
| 22> O -3.4621536253 -0.3152505804 0.1591229757
| 23> C -4.5385485865 -0.8381983312 -0.6472743188
| 24> C -5.8377889581 -0.581165348 0.0883867808
| 25> H 4.5011357759 -1.6175940865 -0.9332198538
| 26> H 3.3966014087 -0.869233372 -2.101272276
| 27> H 5.1374029263 -0.8575832976 -2.4035749499
| 28> H 4.2557326482 1.3587745223 -1.5924863718
| 29> H 5.5035397793 0.6774046184 -0.5050876207
| 30> H 3.3964618291 1.6247506365 2.5543742565
| 31> H 1.8557381631 1.70852417 3.4536496101
| 32> H 3.2049434667 -0.2963580304 4.1085638561
| 33> H 1.6901958102 -0.7971552997 3.3427413635
| 34> H 3.1999186612 -0.8515217391 2.4279433808
| 35> H 0.760674143 -2.4438239458 -1.8017057049
| 36> H 0.3897915044 -0.6796601695 -1.7493320557
| 37> H -1.6691807112 -0.9980540075 2.039060021
| 38> H -0.3538818255 0.1203509791 2.5055148102
| 39> H -2.3646363204 0.5362028732 3.8983709596
| 40> H -2.0333385356 1.9310716338 2.8543516092
| 41> H -3.3349396728 0.810097357 2.4401899704
| 42> H -4.5180476296 -0.3368352875 -1.6204687943
| 43> H -4.3634390427 -1.9075257404 -0.7919555765
| 44> H -5.9839660548 0.4865301184 0.2267121394
| 45> H -6.660211483 -0.9809528713 -0.4954068473
| 46> H -5.8174982975 -1.0657578046 1.060160024
| 47> *
| 48>
| 49>                          ****END OF INPUT****

CARTESIAN COORDINATES (ANGSTROEM)
---------------------------------
  C      4.376884   -0.794294   -1.631956
  C      4.502907    0.534960   -0.915698
  O      3.647500    0.621733    0.234986
  P      2.057662    0.612408    0.125094
  S      1.349264    1.601773   -1.412255
  O      1.648906    1.236540    1.516258
  C      2.437732    1.134172    2.730967
  C      2.641679   -0.297491    3.180437
  S      1.519187   -1.450719    0.229878
  C      0.402070   -1.621032   -1.189531
  S     -1.289509   -2.045560   -0.696888
  P     -2.029209   -0.062866   -0.472504
  S     -2.028348    1.026095   -2.097252
  O     -1.215941    0.558606    0.730434
  C     -1.357635    0.048939    2.085585
  C     -2.340936    0.888724    2.871870
  O     -3.462154   -0.315251    0.159123
  C     -4.538549   -0.838198   -0.647274
  C     -5.837789   -0.581165    0.088387
  H      4.501136   -1.617594   -0.933220
  H      3.396601   -0.869233   -2.101272
  H      5.137403   -0.857583   -2.403575
  H      4.255733    1.358775   -1.592486
  H      5.503540    0.677405   -0.505088
  H      3.396462    1.624751    2.554374
  H      1.855738    1.708524    3.453650
  H      3.204943   -0.296358    4.108564
  H      1.690196   -0.797155    3.342741
  H      3.199919   -0.851522    2.427943
  H      0.760674   -2.443824   -1.801706
  H      0.389792   -0.679660   -1.749332
  H     -1.669181   -0.998054    2.039060
  H     -0.353882    0.120351    2.505515
  H     -2.364636    0.536203    3.898371
  H     -2.033339    1.931072    2.854352
  H     -3.334940    0.810097    2.440190
  H     -4.518048   -0.336835   -1.620469
  H     -4.363439   -1.907526   -0.791956
  H     -5.983966    0.486530    0.226712
  H     -6.660211   -0.980953   -0.495407
  H     -5.817498   -1.065758    1.060160

 Total Charge           Charge          ....    0
 Multiplicity           Mult            ....    1
 Number of Electrons    NEL             ....  202
 Basis Dimension        Dim             ....  334

ORBITAL ENERGIES
----------------

  NO   OCC          E(Eh)            E(eV)
   0   2.0000     -88.040509     -2395.7040
   1   2.0000     -88.035498     -2395.5677
   2   2.0000     -87.980493     -2394.0709
   3   2.0000     -87.971935     -2393.8380
   4   2.0000     -76.424347     -2079.6122
   5   2.0000     -76.418087     -2079.4419
   6   2.0000     -18.792588      -511.3723
   7   2.0000     -18.792232      -511.3626
   8   2.0000     -18.792107      -511.3592
   9   2.0000     -18.787069      -511.2221
  10   2.0000      -9.961400      -271.0635
  11   2.0000      -9.953293      -270.8429
  12   2.0000      -9.952558      -270.8229
  13   2.0000      -9.951905      -270.8051
  14   2.0000      -9.948440      -270.7108
  15   2.0000      -9.895525      -269.2709
  16   2.0000      -9.888768      -269.0870
  17   2.0000      -9.884976      -268.9839
  18   2.0000      -9.881714      -268.8951
  19   2.0000      -7.685163      -209.1239
  20   2.0000      -7.680976      -209.0100
  21   2.0000      -7.625446      -207.4989
  22   2.0000      -7.617210      -207.2748
  23   2.0000      -6.421627      -174.7414
  24   2.0000      -6.415877      -174.5849
  25   2.0000      -5.713051      -155.4600
  26   2.0000      -5.709600      -155.3661
  27   2.0000      -5.708691      -155.3414
  28   2.0000      -5.705474      -155.2538
  29   2.0000      -5.702274      -155.1668
  30   2.0000      -5.698084      -155.0527
  31   2.0000      -5.654520      -153.8673
  32   2.0000      -5.646342      -153.6448
  33   2.0000      -5.645884      -153.6323
  34   2.0000      -5.645621      -153.6252
  35   2.0000      -5.637719      -153.4101
  36   2.0000      -5.637252      -153.3974
  37   2.0000      -4.644618      -126.3865
  38   2.0000      -4.643052      -126.3439
  39   2.0000      -4.642009      -126.3155
  40   2.0000      -4.638954      -126.2324
  41   2.0000      -4.637696      -126.1981
  42   2.0000      -4.635724      -126.1445
  43   2.0000      -0.989018       -26.9125
  44   2.0000      -0.985674       -26.8216
  45   2.0000      -0.944216       -25.6934
  46   2.0000      -0.941426       -25.6175
  47   2.0000      -0.757702       -20.6181
  48   2.0000      -0.719365       -19.5749
  49   2.0000      -0.710463       -19.3327
  50   2.0000      -0.693320       -18.8662
  51   2.0000      -0.690135       -18.7795
  52   2.0000      -0.675511       -18.3816
  53   2.0000      -0.646215       -17.5844
  54   2.0000      -0.627384       -17.0720
  55   2.0000      -0.597874       -16.2690
  56   2.0000      -0.583492       -15.8776
  57   2.0000      -0.581934       -15.8352
  58   2.0000      -0.567092       -15.4314
  59   2.0000      -0.560498       -15.2519
  60   2.0000      -0.505515       -13.7558
  61   2.0000      -0.496607       -13.5134
  62   2.0000      -0.477312       -12.9883
  63   2.0000      -0.471321       -12.8253
  64   2.0000      -0.456542       -12.4231
  65   2.0000      -0.448632       -12.2079
  66   2.0000      -0.442858       -12.0508
  67   2.0000      -0.436876       -11.8880
  68   2.0000      -0.429877       -11.6975
  69   2.0000      -0.423712       -11.5298
  70   2.0000      -0.405352       -11.0302
  71   2.0000      -0.403254       -10.9731
  72   2.0000      -0.389287       -10.5930
  73   2.0000      -0.383889       -10.4461
  74   2.0000      -0.379443       -10.3252
  75   2.0000      -0.369210       -10.0467
  76   2.0000      -0.362475        -9.8634
  77   2.0000      -0.361421        -9.8348
  78   2.0000      -0.355214        -9.6659
  79   2.0000      -0.352220        -9.5844
  80   2.0000      -0.350757        -9.5446
  81   2.0000      -0.345015        -9.3883
  82   2.0000      -0.341638        -9.2964
  83   2.0000      -0.340225        -9.2580
  84   2.0000      -0.332413        -9.0454
  85   2.0000      -0.314840        -8.5672
  86   2.0000      -0.312142        -8.4938
  87   2.0000      -0.299539        -8.1509
  88   2.0000      -0.297937        -8.1073
  89   2.0000      -0.295198        -8.0327
  90   2.0000      -0.290768        -7.9122
  91   2.0000      -0.274877        -7.4798
  92   2.0000      -0.268378        -7.3029
  93   2.0000      -0.259130        -7.0513
  94   2.0000      -0.253363        -6.8944
  95   2.0000      -0.232588        -6.3290
  96   2.0000      -0.215706        -5.8697
  97   2.0000      -0.212948        -5.7946
  98   2.0000      -0.200521        -5.4565
  99   2.0000      -0.182257        -4.9595
 100   2.0000      -0.177983        -4.8432
 101   0.0000      -0.036560        -0.9948
 102   0.0000      -0.029537        -0.8037
 103   0.0000      -0.017902        -0.4871
 104   0.0000       0.010371         0.2822
 105   0.0000       0.017499         0.4762

MULLIKEN ATOMIC CHARGES
-----------------------
   0 C :   -0.316431
   1 C :    0.003828
   2 O :   -0.388847
   3 P :    0.608364
   4 S :   -0.267476
   5 O :   -0.368550
   6 C :    0.010456
   7 C :   -0.340755
   8 S :   -0.123670
   9 C :   -0.348852
  10 S :   -0.106523
  11 P :    0.592062
  12 S :   -0.287923
  13 O :   -0.352866
  14 C :   -0.029767
  15 C :   -0.290867
  16 O :   -0.386865
  17 C :   -0.014114
  18 C :   -0.283529
  19 H :    0.117093
  20 H :    0.123321
  21 H :    0.113403
  22 H :    0.113199
  23 H :    0.101696
  24 H :    0.114149
  25 H :    0.110282
  26 H :    0.117704
  27 H :    0.132390
  28 H :    0.132234
  29 H :    0.183020
  30 H :    0.201431
  31 H :    0.098612
  32 H :    0.121045
  33 H :    0.103558
  34 H :    0.121476
  35 H :    0.122416
  36 H :    0.107708
  37 H :    0.104684
  38 H :    0.124264
  39 H :    0.113559
  40 H :    0.115084
Sum of atomic charges:   -0.0000000

LOEWDIN ATOMIC CHARGES
----------------------
   0 C :   -0.370300
   1 C :   -0.117443
   2 O :   -0.252110
   3 P :    0.569079
   4 S :   -0.269324
   5 O :   -0.234612
   6 C :   -0.110060
   7 C :   -0.371344
   8 S :    0.064224
   9 C :   -0.481567
  10 S :    0.051262
  11 P :    0.567699
  12 S :   -0.302212
  13 O :   -0.230898
  14 C :   -0.121277
  15 C :   -0.359074
  16 O :   -0.249191
  17 C :   -0.120981
  18 C :   -0.350977
  19 H :    0.122862
  20 H :    0.120331
  21 H :    0.130933
  22 H :    0.112436
  23 H :    0.117106
  24 H :    0.117082
  25 H :    0.121597
  26 H :    0.134223
  27 H :    0.125385
  28 H :    0.120164
  29 H :    0.136657
  30 H :    0.125248
  31 H :    0.103844
  32 H :    0.112953
  33 H :    0.126879
  34 H :    0.129589
  35 H :    0.125128
  36 H :    0.110318
  37 H :    0.109299
  38 H :    0.130062
  39 H :    0.131722
  40 H :    0.125288

  Mayer bond orders larger than 0.100000
B(  0-C ,  1-C ) :   1.1661 B(  0-C , 19-H ) :   0.9428 B(  0-C , 20-H ) :   0.9368
B(  0-C , 21-H ) :   0.9372 B(  1-C ,  2-O ) :   0.9116 B(  1-C , 22-H ) :   0.9158
B(  1-C , 23-H ) :   0.9343 B(  2-O ,  3-P ) :   1.0533 B(  3-P ,  4-S ) :   1.6588
B(  3-P ,  5-O ) :   1.1151 B(  3-P ,  8-S ) :   0.9377 B(  4-S ,  8-S ) :   0.1202
B(  5-O ,  6-C ) :   0.8938 B(  6-C ,  7-C ) :   1.1690 B(  6-C , 24-H ) :   0.9261
B(  6-C , 25-H ) :   0.9327 B(  7-C , 26-H ) :   0.9346 B(  7-C , 27-H ) :   0.9428
B(  7-C , 28-H ) :   0.9286 B(  8-S ,  9-C ) :   0.9989 B(  9-C , 10-S ) :   1.0049
B(  9-C , 29-H ) :   0.9105 B(  9-C , 30-H ) :   0.8362 B( 10-S , 11-P ) :   0.9497
B( 10-S , 12-S ) :   0.1080 B( 11-P , 12-S ) :   1.6872 B( 11-P , 13-O ) :   1.1294
B( 11-P , 16-O ) :   1.0640 B( 13-O , 14-C ) :   0.8929 B( 14-C , 15-C ) :   1.1645
B( 14-C , 31-H ) :   0.9132 B( 14-C , 32-H ) :   0.9093 B( 15-C , 33-H ) :   0.9400
B( 15-C , 34-H ) :   0.9455 B( 15-C , 35-H ) :   0.9420 B( 16-O , 17-C ) :   0.9068
B( 17-C , 18-C ) :   1.1603 B( 17-C , 36-H ) :   0.9058 B( 17-C , 37-H ) :   0.9295
B( 18-C , 38-H ) :   0.9505 B( 18-C , 39-H ) :   0.9417 B( 18-C , 40-H ) :   0.9507

Dispersion correction           -0.066991620
FINAL SINGLE POINT ENERGY     -2929.510202408443

DIPOLE MOMENT
-------------

Method             : SCF
Type of density    : Electron Density
Multiplicity       :   1
Irrep              :   0
Energy             : -2929.6309669681568266 Eh
Relativity type    :
Basis              : AO
                                X                 Y                 Z
Electronic contribution:      0.432943655       3.509716844     -14.730219473
Nuclear contribution   :      0.177807504      -4.608070530      16.335800189
                        -----------------------------------------
Total Dipole Moment    :      0.610751159      -1.098353686       1.605580715
                        -----------------------------------------
Magnitude (a.u.)       :      2.038942675
Magnitude (Debye)      :      5.182580414

Rotational constants in cm-1:             0.013243             0.005216             0.004691
Rotational constants in MHz :           397.016827           156.370524           140.632241

                             ****ORCA TERMINATED NORMALLY****
TOTAL RUN TIME: 0 days 0 hours 0 minutes 21 seconds 446 msec
