                         Program Version 6.0.0  -   RELEASE  -
|  1> ! pbe def2-sv(p) def2/J RI DEFGRID1 loosescf d4 GCP(DFT/SV(P)) printgap
|  2> %output
|  3>     printlevel normal
|  4> end
|  5> * xyz 0 1
|  6> C 0.8462424027 1.2965944342 -0.9892573296
|  7> C 1.4335393025 0.306945443 0.0230866607
|  8> H 2.4446987619 0.0444523335 -0.3039315054
|  9> C 0.6050701196 -0.9957825828 0.0450639078
| 10> H 0.5389005242 -1.3459305329 1.084812337
| 11> C -0.8309357217 -0.7569329755 -0.4565134982
| 12> H -0.8259988832 -0.8143845873 -1.5562384036
| 13> C -1.2871446799 0.6613606182 -0.0798040289
| 14> H -2.3182661462 0.8274217119 -0.4269066118
| 15> O -0.520043375 1.6330061081 -0.7396395202
| 16> O -1.2195742405 0.8113161865 1.3111100715
| 17> O -1.6461810236 -1.7568969172 0.093385638
| 18> O 1.266895274 -1.9427560494 -0.7570889596
| 19> O 1.5783756558 0.8705377417 1.2994074383
| 20> H 0.9341050909 0.8677552956 -1.9938142479
| 21> H 1.3901893378 2.241497308 -0.9456603231
| 22> H -1.6653935885 1.6306658563 1.5765886386
| 23> H -2.5572937083 -1.6644121074 -0.2199887002
| 24> H 0.8155522641 -2.7957984 -0.6776072347
| 25> H 0.686335465 1.0132997725 1.6679774641
| 26> *
| 27>
| 28>                          ****END OF INPUT****

CARTESIAN COORDINATES (ANGSTROEM)
---------------------------------
  C      0.846242    1.296594   -0.989257
  C      1.433539    0.306945    0.023087
  H      2.444699    0.044452   -0.303932
  C      0.605070   -0.995783    0.045064
  H      0.538901   -1.345931    1.084812
  C     -0.830936   -0.756933   -0.456513
  H     -0.825999   -0.814385   -1.556238
  C     -1.287145    0.661361   -0.079804
  H     -2.318266    0.827422   -0.426907
  O     -0.520043    1.633006   -0.739640
  O     -1.219574    0.811316    1.311110
  O     -1.646181   -1.756897    0.093386
  O      1.266895   -1.942756   -0.757089
  O      1.578376    0.870538    1.299407
  H      0.934105    0.867755   -1.993814
  H      1.390189    2.241497   -0.945660
  H     -1.665394    1.630666    1.576589
  H     -2.557294   -1.664412   -0.219989
  H      0.815552   -2.795798   -0.677607
  H      0.686335    1.013300    1.667977

 Total Charge           Charge          ....    0
 Multiplicity           Mult            ....    1
 Number of Electrons    NEL             ....   80
 Basis Dimension        Dim             ....  160

ORBITAL ENERGIES
----------------

  NO   OCC          E(Eh)            E(eV)
   0   2.0000     -18.783147      -511.1154
   1   2.0000     -18.767228      -510.6822
   2   2.0000     -18.762816      -510.5622
   3   2.0000     -18.748553      -510.1741
   4   2.0000     -18.727858      -509.6109
   5   2.0000      -9.995403      -271.9887
   6   2.0000      -9.947043      -270.6728
   7   2.0000      -9.936922      -270.3974
   8   2.0000      -9.933442      -270.3027
   9   2.0000      -9.929989      -270.2087
  10   2.0000      -0.988437       -26.8967
  11   2.0000      -0.942643       -25.6506
  12   2.0000      -0.926755       -25.2183
  13   2.0000      -0.919012       -25.0076
  14   2.0000      -0.905547       -24.6412
  15   2.0000      -0.697631       -18.9835
  16   2.0000      -0.678406       -18.4604
  17   2.0000      -0.589549       -16.0424
  18   2.0000      -0.584387       -15.9020
  19   2.0000      -0.529750       -14.4152
  20   2.0000      -0.505645       -13.7593
  21   2.0000      -0.485508       -13.2114
  22   2.0000      -0.464826       -12.6486
  23   2.0000      -0.456298       -12.4165
  24   2.0000      -0.426344       -11.6014
  25   2.0000      -0.405416       -11.0319
  26   2.0000      -0.394002       -10.7213
  27   2.0000      -0.385370       -10.4865
  28   2.0000      -0.364457        -9.9174
  29   2.0000      -0.348726        -9.4893
  30   2.0000      -0.346417        -9.4265
  31   2.0000      -0.319794        -8.7020
  32   2.0000      -0.291017        -7.9190
  33   2.0000      -0.279425        -7.6035
  34   2.0000      -0.272863        -7.4250
  35   2.0000      -0.254303        -6.9199
  36   2.0000      -0.243785        -6.6337
  37   2.0000      -0.224114        -6.0985
  38   2.0000      -0.214510        -5.8371
  39   2.0000      -0.200429        -5.4540
  40   0.0000       0.005307         0.1444
  41   0.0000       0.021592         0.5875
  42   0.0000       0.043197         1.1754
  43   0.0000       0.054979         1.4960
  44   0.0000       0.077685         2.1139

MULLIKEN ATOMIC CHARGES
-----------------------
   0 C :    0.053787
   1 C :    0.040589
   2 H :    0.084558
   3 C :    0.040660
   4 H :    0.079415
   5 C :    0.051613
   6 H :    0.066416
   7 C :    0.124413
   8 H :    0.055055
   9 O :   -0.318774
  10 O :   -0.393098
  11 O :   -0.410006
  12 O :   -0.418807
  13 O :   -0.441357
  14 H :    0.080886
  15 H :    0.095199
  16 H :    0.314656
  17 H :    0.300705
  18 H :    0.303452
  19 H :    0.290638
Sum of atomic charges:   -0.0000000

LOEWDIN ATOMIC CHARGES
----------------------
   0 C :   -0.119643
   1 C :   -0.075188
   2 H :    0.128078
   3 C :   -0.064301
   4 H :    0.114254
   5 C :   -0.093781
   6 H :    0.108475
   7 C :   -0.018823
   8 H :    0.094025
   9 O :   -0.164065
  10 O :   -0.301332
  11 O :   -0.314432
  12 O :   -0.320513
  13 O :   -0.329008
  14 H :    0.106411
  15 H :    0.119426
  16 H :    0.292847
  17 H :    0.287090
  18 H :    0.288164
  19 H :    0.262316

  Mayer bond orders larger than 0.100000
B(  0-C ,  1-C ) :   1.1049 B(  0-C ,  9-O ) :   0.9872 B(  0-C , 14-H ) :   0.9083
B(  0-C , 15-H ) :   0.9110 B(  1-C ,  2-H ) :   0.8817 B(  1-C ,  3-C ) :   0.9992
B(  1-C , 13-O ) :   1.0533 B(  3-C ,  4-H ) :   0.8829 B(  3-C ,  5-C ) :   1.0325
B(  3-C , 12-O ) :   1.0760 B(  5-C ,  6-H ) :   0.8576 B(  5-C ,  7-C ) :   1.0297
B(  5-C , 11-O ) :   1.0811 B(  7-C ,  8-H ) :   0.8964 B(  7-C ,  9-O ) :   1.1016
B(  7-C , 10-O ) :   1.0922 B( 10-O , 16-H ) :   0.8354 B( 10-O , 19-H ) :   0.1123
B( 11-O , 17-H ) :   0.8462 B( 12-O , 18-H ) :   0.8452 B( 13-O , 19-H ) :   0.8083

Dispersion correction           -0.019787741
FINAL SINGLE POINT ENERGY      -571.411023013464

DIPOLE MOMENT
-------------

Method             : SCF
Type of density    : Electron Density
Multiplicity       :   1
Irrep              :   0
Energy             :  -571.5201439883857120 Eh
Relativity type    :
Basis              : AO
                                X                 Y                 Z
Electronic contribution:     -0.918718024      -0.008841308       1.328632943
Nuclear contribution   :     -0.530728715      -0.001416217      -1.665914578
                        -----------------------------------------
Total Dipole Moment    :     -1.449446740      -0.010257525      -0.337281635
                        -----------------------------------------
Magnitude (a.u.)       :      1.488206964
Magnitude (Debye)      :      3.782721486

Rotational constants in cm-1:             0.052265             0.048544             0.035237
Rotational constants in MHz :          1566.872086          1455.322026          1056.378335

                             ****ORCA TERMINATED NORMALLY****
TOTAL RUN TIME: 0 days 0 hours 0 minutes 11 seconds 352 msec
