                         Program Version 6.0.0  -   RELEASE  -
|  1> ! pbe def2-sv(p) def2/J RI DEFGRID1 loosescf d4 GCP(DFT/SV(P)) printgap
|  2> %output
|  3>     printlevel normal
|  4> end
|  5> * xyz 0 1
|  6> C 4.6332138133 -1.5702921583 -0.4952952982
|  7> C 4.5927571391 -0.0742897341 -0.2604016828
|  8> O 3.4170798455 0.3268514043 0.4634078791
|  9> P 1.9656183224 0.312457194 -0.1900788987
| 10> S 1.9538743832 0.7940843512 -2.0972314088
| 11> O 1.1619908749 1.1746910232 0.8685429903
| 12> C 1.5503908995 2.4754502295 1.3547262109
| 13> C 1.7307414692 3.4846215007 0.2402912466
| 14> S 1.2015653074 -1.5955760313 0.2527596781
| 15> C -0.031960546 -1.7839552885 -1.0769021524
| 16> S -1.7242172446 -1.9334844171 -0.4625401178
| 17> P -2.0273008653 0.0671375151 0.1918789949
| 18> S -1.3993593732 1.4794277111 -1.0063764687
| 19> O -1.4147167447 0.1739756934 1.6420391194
| 20> C -1.877437245 -0.616050992 2.7724400512
| 21> C -0.8787433659 -1.702467877 3.1167676172
| 22> O -3.5882126253 0.0985175223 0.5046513374
| 23> C -4.5779533991 0.4226361175 -0.4875727901
| 24> C -4.6739236309 -0.6270575178 -1.5755757505
| 25> H 4.4886688807 -2.1040471708 0.4404050635
| 26> H 3.8458191998 -1.8582035105 -1.1899605561
| 27> H 5.5941789286 -1.8393855562 -0.9216066039
| 28> H 4.6122984215 0.4645232276 -1.2133449211
| 29> H 5.4161655835 0.2579619431 0.3733542377
| 30> H 0.723908503 2.7535845935 2.011651677
| 31> H 2.4695667075 2.3596475125 1.9341637422
| 32> H 1.9202161667 4.4652436303 0.6651521552
| 33> H 2.5700365576 3.2010654437 -0.3940332358
| 34> H 0.8339028768 3.5257266855 -0.3761376193
| 35> H 0.1770274673 -2.7138389721 -1.5992525184
| 36> H 0.0497602788 -0.9265008528 -1.7509821735
| 37> H -1.9712826462 0.1067066642 3.5846157806
| 38> H -2.8579043361 -1.0330749165 2.5371633249
| 39> H 0.1102968123 -1.2726372188 3.2524285158
| 40> H -1.1895991952 -2.1839698928 4.0385336775
| 41> H -0.8255498036 -2.4478876556 2.3270625455
| 42> H -5.502809936 0.4936039149 0.0867899722
| 43> H -4.3291151487 1.3987174133 -0.9154747798
| 44> H -4.7922062918 -1.6159595074 -1.1400382768
| 45> H -5.5270513378 -0.4060606666 -2.2089193866
| 46> H -3.7721420512 -0.6166090192 -2.1855859075
| 47> *
| 48>
| 49>                          ****END OF INPUT****

CARTESIAN COORDINATES (ANGSTROEM)
---------------------------------
  C      4.633214   -1.570292   -0.495295
  C      4.592757   -0.074290   -0.260402
  O      3.417080    0.326851    0.463408
  P      1.965618    0.312457   -0.190079
  S      1.953874    0.794084   -2.097231
  O      1.161991    1.174691    0.868543
  C      1.550391    2.475450    1.354726
  C      1.730741    3.484622    0.240291
  S      1.201565   -1.595576    0.252760
  C     -0.031961   -1.783955   -1.076902
  S     -1.724217   -1.933484   -0.462540
  P     -2.027301    0.067138    0.191879
  S     -1.399359    1.479428   -1.006376
  O     -1.414717    0.173976    1.642039
  C     -1.877437   -0.616051    2.772440
  C     -0.878743   -1.702468    3.116768
  O     -3.588213    0.098518    0.504651
  C     -4.577953    0.422636   -0.487573
  C     -4.673924   -0.627058   -1.575576
  H      4.488669   -2.104047    0.440405
  H      3.845819   -1.858204   -1.189961
  H      5.594179   -1.839386   -0.921607
  H      4.612298    0.464523   -1.213345
  H      5.416166    0.257962    0.373354
  H      0.723909    2.753585    2.011652
  H      2.469567    2.359648    1.934164
  H      1.920216    4.465244    0.665152
  H      2.570037    3.201065   -0.394033
  H      0.833903    3.525727   -0.376138
  H      0.177027   -2.713839   -1.599253
  H      0.049760   -0.926501   -1.750982
  H     -1.971283    0.106707    3.584616
  H     -2.857904   -1.033075    2.537163
  H      0.110297   -1.272637    3.252429
  H     -1.189599   -2.183970    4.038534
  H     -0.825550   -2.447888    2.327063
  H     -5.502810    0.493604    0.086790
  H     -4.329115    1.398717   -0.915475
  H     -4.792206   -1.615960   -1.140038
  H     -5.527051   -0.406061   -2.208919
  H     -3.772142   -0.616609   -2.185586

 Total Charge           Charge          ....    0
 Multiplicity           Mult            ....    1
 Number of Electrons    NEL             ....  202
 Basis Dimension        Dim             ....  334

ORBITAL ENERGIES
----------------

  NO   OCC          E(Eh)            E(eV)
   0   2.0000     -88.041682     -2395.7360
   1   2.0000     -88.038385     -2395.6462
   2   2.0000     -87.979649     -2394.0479
   3   2.0000     -87.979381     -2394.0407
   4   2.0000     -76.422278     -2079.5559
   5   2.0000     -76.421031     -2079.5220
   6   2.0000     -18.791864      -511.3526
   7   2.0000     -18.791096      -511.3317
   8   2.0000     -18.785262      -511.1730
   9   2.0000     -18.777678      -510.9666
  10   2.0000      -9.952756      -270.8283
  11   2.0000      -9.952393      -270.8184
  12   2.0000      -9.951664      -270.7985
  13   2.0000      -9.948638      -270.7162
  14   2.0000      -9.944750      -270.6104
  15   2.0000      -9.882665      -268.9210
  16   2.0000      -9.881113      -268.8788
  17   2.0000      -9.879652      -268.8390
  18   2.0000      -9.871618      -268.6204
  19   2.0000      -7.686696      -209.1656
  20   2.0000      -7.683531      -209.0795
  21   2.0000      -7.624654      -207.4774
  22   2.0000      -7.624290      -207.4675
  23   2.0000      -6.419658      -174.6878
  24   2.0000      -6.418180      -174.6476
  25   2.0000      -5.714500      -155.4994
  26   2.0000      -5.711410      -155.4154
  27   2.0000      -5.711097      -155.4068
  28   2.0000      -5.708041      -155.3237
  29   2.0000      -5.703849      -155.2096
  30   2.0000      -5.700397      -155.1157
  31   2.0000      -5.653653      -153.8437
  32   2.0000      -5.653187      -153.8310
  33   2.0000      -5.645128      -153.6117
  34   2.0000      -5.645086      -153.6106
  35   2.0000      -5.644835      -153.6038
  36   2.0000      -5.644311      -153.5895
  37   2.0000      -4.642580      -126.3310
  38   2.0000      -4.641346      -126.2974
  39   2.0000      -4.641000      -126.2880
  40   2.0000      -4.639891      -126.2578
  41   2.0000      -4.639679      -126.2521
  42   2.0000      -4.638727      -126.2262
  43   2.0000      -0.984538       -26.7906
  44   2.0000      -0.981295       -26.7024
  45   2.0000      -0.940094       -25.5813
  46   2.0000      -0.935949       -25.4685
  47   2.0000      -0.759997       -20.6806
  48   2.0000      -0.716980       -19.5100
  49   2.0000      -0.705415       -19.1953
  50   2.0000      -0.686764       -18.6878
  51   2.0000      -0.683016       -18.5858
  52   2.0000      -0.671328       -18.2678
  53   2.0000      -0.648218       -17.6389
  54   2.0000      -0.629881       -17.1399
  55   2.0000      -0.596141       -16.2218
  56   2.0000      -0.586682       -15.9644
  57   2.0000      -0.572586       -15.5808
  58   2.0000      -0.570363       -15.5204
  59   2.0000      -0.556239       -15.1360
  60   2.0000      -0.498841       -13.5742
  61   2.0000      -0.489981       -13.3331
  62   2.0000      -0.469528       -12.7765
  63   2.0000      -0.463684       -12.6175
  64   2.0000      -0.448980       -12.2174
  65   2.0000      -0.445303       -12.1173
  66   2.0000      -0.440222       -11.9790
  67   2.0000      -0.428923       -11.6716
  68   2.0000      -0.424816       -11.5598
  69   2.0000      -0.413868       -11.2619
  70   2.0000      -0.410470       -11.1695
  71   2.0000      -0.403117       -10.9694
  72   2.0000      -0.390132       -10.6160
  73   2.0000      -0.381505       -10.3813
  74   2.0000      -0.373566       -10.1653
  75   2.0000      -0.366558        -9.9745
  76   2.0000      -0.364670        -9.9232
  77   2.0000      -0.353191        -9.6108
  78   2.0000      -0.350076        -9.5261
  79   2.0000      -0.348231        -9.4759
  80   2.0000      -0.341045        -9.2803
  81   2.0000      -0.338362        -9.2073
  82   2.0000      -0.336318        -9.1517
  83   2.0000      -0.332997        -9.0613
  84   2.0000      -0.326430        -8.8826
  85   2.0000      -0.312666        -8.5081
  86   2.0000      -0.310051        -8.4369
  87   2.0000      -0.298433        -8.1208
  88   2.0000      -0.291487        -7.9318
  89   2.0000      -0.290818        -7.9136
  90   2.0000      -0.276648        -7.5280
  91   2.0000      -0.270950        -7.3729
  92   2.0000      -0.264126        -7.1872
  93   2.0000      -0.259227        -7.0539
  94   2.0000      -0.255589        -6.9549
  95   2.0000      -0.231753        -6.3063
  96   2.0000      -0.218894        -5.9564
  97   2.0000      -0.211488        -5.7549
  98   2.0000      -0.197978        -5.3873
  99   2.0000      -0.189501        -5.1566
 100   2.0000      -0.182270        -4.9598
 101   0.0000      -0.038306        -1.0423
 102   0.0000      -0.029982        -0.8158
 103   0.0000      -0.008964        -0.2439
 104   0.0000       0.013244         0.3604
 105   0.0000       0.017932         0.4880

MULLIKEN ATOMIC CHARGES
-----------------------
   0 C :   -0.308506
   1 C :   -0.004322
   2 O :   -0.383187
   3 P :    0.624192
   4 S :   -0.314311
   5 O :   -0.353029
   6 C :    0.010557
   7 C :   -0.323307
   8 S :   -0.094406
   9 C :   -0.351760
  10 S :   -0.111500
  11 P :    0.601967
  12 S :   -0.290477
  13 O :   -0.348832
  14 C :   -0.018898
  15 C :   -0.280502
  16 O :   -0.385204
  17 C :    0.001252
  18 C :   -0.318722
  19 H :    0.114612
  20 H :    0.122148
  21 H :    0.111053
  22 H :    0.110129
  23 H :    0.101088
  24 H :    0.103614
  25 H :    0.101110
  26 H :    0.104444
  27 H :    0.121305
  28 H :    0.138190
  29 H :    0.180879
  30 H :    0.207587
  31 H :    0.106922
  32 H :    0.106972
  33 H :    0.119991
  34 H :    0.103923
  35 H :    0.120597
  36 H :    0.102800
  37 H :    0.111396
  38 H :    0.115989
  39 H :    0.113426
  40 H :    0.130817
Sum of atomic charges:    0.0000000

LOEWDIN ATOMIC CHARGES
----------------------
   0 C :   -0.368397
   1 C :   -0.121905
   2 O :   -0.248045
   3 P :    0.571370
   4 S :   -0.305585
   5 O :   -0.232253
   6 C :   -0.108272
   7 C :   -0.370260
   8 S :    0.092556
   9 C :   -0.480211
  10 S :    0.072938
  11 P :    0.565226
  12 S :   -0.290303
  13 O :   -0.233318
  14 C :   -0.110735
  15 C :   -0.363203
  16 O :   -0.251229
  17 C :   -0.117161
  18 C :   -0.371589
  19 H :    0.123446
  20 H :    0.120347
  21 H :    0.129948
  22 H :    0.108996
  23 H :    0.116321
  24 H :    0.119820
  25 H :    0.109149
  26 H :    0.126392
  27 H :    0.118877
  28 H :    0.130582
  29 H :    0.137045
  30 H :    0.126365
  31 H :    0.120147
  32 H :    0.109725
  33 H :    0.125956
  34 H :    0.126367
  35 H :    0.114660
  36 H :    0.117567
  37 H :    0.112075
  38 H :    0.122347
  39 H :    0.131345
  40 H :    0.122899

  Mayer bond orders larger than 0.100000
B(  0-C ,  1-C ) :   1.1676 B(  0-C , 19-H ) :   0.9455 B(  0-C , 20-H ) :   0.9362
B(  0-C , 21-H ) :   0.9385 B(  1-C ,  2-O ) :   0.9112 B(  1-C , 22-H ) :   0.9112
B(  1-C , 23-H ) :   0.9332 B(  2-O ,  3-P ) :   1.0815 B(  3-P ,  4-S ) :   1.5993
B(  3-P ,  5-O ) :   1.1396 B(  3-P ,  8-S ) :   0.9647 B(  4-S ,  8-S ) :   0.1187
B(  5-O ,  6-C ) :   0.9078 B(  6-C ,  7-C ) :   1.1666 B(  6-C , 24-H ) :   0.9320
B(  6-C , 25-H ) :   0.9324 B(  7-C , 26-H ) :   0.9359 B(  7-C , 27-H ) :   0.9361
B(  7-C , 28-H ) :   0.9391 B(  8-S ,  9-C ) :   0.9981 B(  9-C , 10-S ) :   1.0056
B(  9-C , 29-H ) :   0.9113 B(  9-C , 30-H ) :   0.8472 B( 10-S , 11-P ) :   0.9353
B( 10-S , 12-S ) :   0.1063 B( 11-P , 12-S ) :   1.6529 B( 11-P , 13-O ) :   1.1396
B( 11-P , 16-O ) :   1.0769 B( 13-O , 14-C ) :   0.8950 B( 14-C , 15-C ) :   1.1675
B( 14-C , 31-H ) :   0.9355 B( 14-C , 32-H ) :   0.9179 B( 15-C , 33-H ) :   0.9433
B( 15-C , 34-H ) :   0.9371 B( 15-C , 35-H ) :   0.9331 B( 16-O , 17-C ) :   0.9077
B( 17-C , 18-C ) :   1.1671 B( 17-C , 36-H ) :   0.9343 B( 17-C , 37-H ) :   0.9161
B( 18-C , 38-H ) :   0.9436 B( 18-C , 39-H ) :   0.9372 B( 18-C , 40-H ) :   0.9345

Dispersion correction           -0.068855328
FINAL SINGLE POINT ENERGY     -2929.515471733843

DIPOLE MOMENT
-------------

Method             : SCF
Type of density    : Electron Density
Multiplicity       :   1
Irrep              :   0
Energy             : -2929.6325671036915992 Eh
Relativity type    :
Basis              : AO
                                X                 Y                 Z
Electronic contribution:     -2.134437003      -0.276020319      -5.912434090
Nuclear contribution   :      1.965711185      -0.268477371       7.047001861
                        -----------------------------------------
Total Dipole Moment    :     -0.168725818      -0.544497689       1.134567771
                        -----------------------------------------
Magnitude (a.u.)       :      1.269720506
Magnitude (Debye)      :      3.227373042

Rotational constants in cm-1:             0.012578             0.005542             0.005273
Rotational constants in MHz :           377.091991           166.147382           158.091157

                             ****ORCA TERMINATED NORMALLY****
TOTAL RUN TIME: 0 days 0 hours 0 minutes 21 seconds 765 msec
