                         Program Version 6.0.1  -  RELEASE   -
|  1> ! pbe def2-sv(p) def2/J RI DEFGRID1 loosescf d4 GCP(DFT/SV(P)) printgap
|  2> %output
|  3>     printlevel normal
|  4> end
|  5> * xyz 0 1
|  6> C 1.8990736635 -3.2768647257 0.2861158565
|  7> C 2.8347602796 -2.8436702772 -0.8315486072
|  8> O 2.2193348432 -1.8001425035 -1.6094192185
|  9> C 2.4366131752 -0.5482521988 -1.2736332798
| 10> O 3.2007515726 -0.1832122004 -0.4051622933
| 11> C 1.5674197871 0.402052227 -2.0767298471
| 12> C 0.3303437252 0.7240114539 -1.2306639521
| 13> H -0.2336133252 1.5469020913 -1.6746991233
| 14> C 0.7646082589 1.1002458649 0.1770614852
| 15> O 0.6298321761 0.3515567613 1.1250819267
| 16> O 1.301314671 2.2869962486 0.201350884
| 17> C 1.8480515727 2.7838864331 1.4400521852
| 18> C 3.3657929462 2.7476629148 1.3803250547
| 19> S -0.7580869962 -0.7351973285 -1.1124023523
| 20> P -2.0312337088 -0.0203710624 0.4263017766
| 21> S -2.1179523411 1.9239123507 0.6426385667
| 22> O -3.4305319012 -0.6791167251 0.0055200813
| 23> C -4.1373338968 -0.2415935757 -1.1606172276
| 24> O -1.7696465152 -0.8019338633 1.7713561542
| 25> C -1.7694409416 -2.2426114115 1.8330210615
| 26> H 1.685122789 -2.4319905287 0.9398975125
| 27> H 0.9665606109 -3.6424212893 -0.1355348851
| 28> H 2.3662605903 -4.064050758 0.8680899727
| 29> H 3.0126375948 -3.6530324034 -1.5394943845
| 30> H 3.7804248805 -2.4696441901 -0.4288415087
| 31> H 1.2638063679 -0.0696266277 -3.0098019918
| 32> H 2.1146551329 1.3267738072 -2.2589300058
| 33> H 1.4693979779 3.8035737992 1.5283058526
| 34> H 1.4638594078 2.1690603834 2.2586788071
| 35> H 3.7699194333 3.0798135388 2.3305706815
| 36> H 3.7027325635 1.7326422082 1.1799415585
| 37> H 3.7242444 3.3978270438 0.5879342997
| 38> H -5.1212683427 -0.6982561431 -1.0932929053
| 39> H -3.6159779677 -0.5775884736 -2.0566107388
| 40> H -4.2204783058 0.8462558595 -1.1608622829
| 41> H -1.3506098734 -2.4854570067 2.806017721
| 42> H -1.1479036199 -2.6502494373 1.0357544383
| 43> H -2.7894309683 -2.6108227699 1.740627527
| 44> *
| 45>
| 46>                          ****END OF INPUT****

CARTESIAN COORDINATES (ANGSTROEM)
---------------------------------
  C      1.899074   -3.276865    0.286116
  C      2.834760   -2.843670   -0.831549
  O      2.219335   -1.800143   -1.609419
  C      2.436613   -0.548252   -1.273633
  O      3.200752   -0.183212   -0.405162
  C      1.567420    0.402052   -2.076730
  C      0.330344    0.724011   -1.230664
  H     -0.233613    1.546902   -1.674699
  C      0.764608    1.100246    0.177061
  O      0.629832    0.351557    1.125082
  O      1.301315    2.286996    0.201351
  C      1.848052    2.783886    1.440052
  C      3.365793    2.747663    1.380325
  S     -0.758087   -0.735197   -1.112402
  P     -2.031234   -0.020371    0.426302
  S     -2.117952    1.923912    0.642639
  O     -3.430532   -0.679117    0.005520
  C     -4.137334   -0.241594   -1.160617
  O     -1.769647   -0.801934    1.771356
  C     -1.769441   -2.242611    1.833021
  H      1.685123   -2.431991    0.939898
  H      0.966561   -3.642421   -0.135535
  H      2.366261   -4.064051    0.868090
  H      3.012638   -3.653032   -1.539494
  H      3.780425   -2.469644   -0.428842
  H      1.263806   -0.069627   -3.009802
  H      2.114655    1.326774   -2.258930
  H      1.469398    3.803574    1.528306
  H      1.463859    2.169060    2.258679
  H      3.769919    3.079814    2.330571
  H      3.702733    1.732642    1.179942
  H      3.724244    3.397827    0.587934
  H     -5.121268   -0.698256   -1.093293
  H     -3.615978   -0.577588   -2.056611
  H     -4.220478    0.846256   -1.160862
  H     -1.350610   -2.485457    2.806018
  H     -1.147904   -2.650249    1.035754
  H     -2.789431   -2.610823    1.740628

 Total Charge           Charge          ....    0
 Multiplicity           Mult            ....    1
 Number of Electrons    NEL             ....  174
 Basis Dimension        Dim             ....  316

ORBITAL ENERGIES
----------------

  NO   OCC          E(Eh)            E(eV)
   0   2.0000     -88.038265     -2395.6430
   1   2.0000     -87.977728     -2393.9957
   2   2.0000     -76.421551     -2079.5361
   3   2.0000     -18.808674      -511.8100
   4   2.0000     -18.803602      -511.6720
   5   2.0000     -18.787426      -511.2319
   6   2.0000     -18.786106      -511.1959
   7   2.0000     -18.745121      -510.0807
   8   2.0000     -18.732931      -509.7490
   9   2.0000     -10.016287      -272.5570
  10   2.0000     -10.012987      -272.4672
  11   2.0000      -9.950264      -270.7604
  12   2.0000      -9.949064      -270.7278
  13   2.0000      -9.945673      -270.6355
  14   2.0000      -9.941436      -270.5202
  15   2.0000      -9.939228      -270.4601
  16   2.0000      -9.919524      -269.9240
  17   2.0000      -9.886254      -269.0186
  18   2.0000      -9.875359      -268.7222
  19   2.0000      -7.683074      -209.0671
  20   2.0000      -7.622967      -207.4315
  21   2.0000      -6.418339      -174.6519
  22   2.0000      -5.710860      -155.4004
  23   2.0000      -5.707631      -155.3125
  24   2.0000      -5.700104      -155.1077
  25   2.0000      -5.652117      -153.8019
  26   2.0000      -5.643430      -153.5655
  27   2.0000      -5.642994      -153.5537
  28   2.0000      -4.641098      -126.2907
  29   2.0000      -4.640274      -126.2683
  30   2.0000      -4.638631      -126.2236
  31   2.0000      -1.017905       -27.6986
  32   2.0000      -1.011308       -27.5191
  33   2.0000      -0.981831       -26.7170
  34   2.0000      -0.936800       -25.4916
  35   2.0000      -0.922378       -25.0992
  36   2.0000      -0.915117       -24.9016
  37   2.0000      -0.768424       -20.9099
  38   2.0000      -0.713162       -19.4061
  39   2.0000      -0.702462       -19.1150
  40   2.0000      -0.689873       -18.7724
  41   2.0000      -0.658660       -17.9231
  42   2.0000      -0.633326       -17.2337
  43   2.0000      -0.619029       -16.8446
  44   2.0000      -0.614902       -16.7323
  45   2.0000      -0.593435       -16.1482
  46   2.0000      -0.559568       -15.2266
  47   2.0000      -0.510635       -13.8951
  48   2.0000      -0.505091       -13.7442
  49   2.0000      -0.493243       -13.4218
  50   2.0000      -0.484362       -13.1802
  51   2.0000      -0.470709       -12.8086
  52   2.0000      -0.464433       -12.6379
  53   2.0000      -0.449953       -12.2438
  54   2.0000      -0.430436       -11.7127
  55   2.0000      -0.427055       -11.6208
  56   2.0000      -0.422741       -11.5034
  57   2.0000      -0.418724       -11.3940
  58   2.0000      -0.411445       -11.1960
  59   2.0000      -0.410517       -11.1707
  60   2.0000      -0.401609       -10.9283
  61   2.0000      -0.398824       -10.8526
  62   2.0000      -0.390552       -10.6274
  63   2.0000      -0.379769       -10.3340
  64   2.0000      -0.377346       -10.2681
  65   2.0000      -0.373765       -10.1707
  66   2.0000      -0.356966        -9.7135
  67   2.0000      -0.350111        -9.5270
  68   2.0000      -0.341913        -9.3039
  69   2.0000      -0.334959        -9.1147
  70   2.0000      -0.332061        -9.0358
  71   2.0000      -0.327883        -8.9222
  72   2.0000      -0.327207        -8.9037
  73   2.0000      -0.312169        -8.4946
  74   2.0000      -0.298799        -8.1307
  75   2.0000      -0.297734        -8.1018
  76   2.0000      -0.292265        -7.9529
  77   2.0000      -0.287542        -7.8244
  78   2.0000      -0.269031        -7.3207
  79   2.0000      -0.264845        -7.2068
  80   2.0000      -0.256394        -6.9768
  81   2.0000      -0.253629        -6.9016
  82   2.0000      -0.233704        -6.3594
  83   2.0000      -0.225611        -6.1392
  84   2.0000      -0.216344        -5.8870
  85   2.0000      -0.196968        -5.3598
  86   2.0000      -0.194628        -5.2961
  87   0.0000      -0.038693        -1.0529
  88   0.0000      -0.032235        -0.8772
  89   0.0000      -0.018553        -0.5049
  90   0.0000       0.005558         0.1512
  91   0.0000       0.022777         0.6198

MULLIKEN ATOMIC CHARGES
-----------------------
   0 C :   -0.323446
   1 C :   -0.018500
   2 O :   -0.216448
   3 C :    0.096035
   4 O :   -0.200230
   5 C :   -0.026631
   6 C :   -0.306686
   7 H :    0.150800
   8 C :    0.178412
   9 O :   -0.193166
  10 O :   -0.216652
  11 C :   -0.016460
  12 C :   -0.306333
  13 S :   -0.101617
  14 P :    0.618168
  15 S :   -0.321887
  16 O :   -0.393355
  17 C :   -0.099787
  18 O :   -0.348593
  19 C :   -0.111014
  20 H :    0.145504
  21 H :    0.123213
  22 H :    0.109913
  23 H :    0.104240
  24 H :    0.112487
  25 H :    0.120512
  26 H :    0.126453
  27 H :    0.106347
  28 H :    0.119672
  29 H :    0.107180
  30 H :    0.142615
  31 H :    0.106404
  32 H :    0.123389
  33 H :    0.111935
  34 H :    0.116975
  35 H :    0.132625
  36 H :    0.125221
  37 H :    0.122707
Sum of atomic charges:   -0.0000000

LOEWDIN ATOMIC CHARGES
----------------------
   0 C :   -0.359183
   1 C :   -0.110036
   2 O :   -0.049621
   3 C :    0.030316
   4 O :   -0.161052
   5 C :   -0.238133
   6 C :   -0.259546
   7 H :    0.139527
   8 C :   -0.007049
   9 O :   -0.171516
  10 O :   -0.035558
  11 C :   -0.104968
  12 C :   -0.358648
  13 S :    0.094706
  14 P :    0.584195
  15 S :   -0.308816
  16 O :   -0.263797
  17 C :   -0.218074
  18 O :   -0.227312
  19 C :   -0.206607
  20 H :    0.135513
  21 H :    0.121920
  22 H :    0.128660
  23 H :    0.118161
  24 H :    0.121004
  25 H :    0.136749
  26 H :    0.148530
  27 H :    0.118792
  28 H :    0.124639
  29 H :    0.127699
  30 H :    0.135175
  31 H :    0.121901
  32 H :    0.121468
  33 H :    0.106666
  34 H :    0.111039
  35 H :    0.127204
  36 H :    0.109996
  37 H :    0.116053

  Mayer bond orders larger than 0.100000
B(  0-C ,  1-C ) :   1.1757 B(  0-C , 20-H ) :   0.9364 B(  0-C , 21-H ) :   0.9401
B(  0-C , 22-H ) :   0.9407 B(  1-C ,  2-O ) :   0.9086 B(  1-C , 23-H ) :   0.9368
B(  1-C , 24-H ) :   0.9109 B(  2-O ,  3-C ) :   1.2484 B(  3-C ,  4-O ) :   1.9778
B(  3-C ,  5-C ) :   1.0001 B(  5-C ,  6-C ) :   1.0610 B(  5-C , 25-H ) :   0.9014
B(  5-C , 26-H ) :   0.8856 B(  6-C ,  7-H ) :   0.8721 B(  6-C ,  8-C ) :   0.8630
B(  6-C , 13-S ) :   1.0284 B(  8-C ,  9-O ) :   1.9865 B(  8-C , 10-O ) :   1.2701
B( 10-O , 11-C ) :   0.8967 B( 11-C , 12-C ) :   1.1748 B( 11-C , 27-H ) :   0.9364
B( 11-C , 28-H ) :   0.9081 B( 12-C , 29-H ) :   0.9434 B( 12-C , 30-H ) :   0.9325
B( 12-C , 31-H ) :   0.9504 B( 13-S , 14-P ) :   0.9536 B( 13-S , 15-S ) :   0.1107
B( 14-P , 15-S ) :   1.6164 B( 14-P , 16-O ) :   1.0602 B( 14-P , 18-O ) :   1.1424
B( 16-O , 17-C ) :   0.9354 B( 17-C , 32-H ) :   0.9586 B( 17-C , 33-H ) :   0.9459
B( 17-C , 34-H ) :   0.9351 B( 18-O , 19-C ) :   0.9184 B( 19-C , 35-H ) :   0.9595
B( 19-C , 36-H ) :   0.9330 B( 19-C , 37-H ) :   0.9481

Dispersion correction           -0.054196254
FINAL SINGLE POINT ENERGY     -1979.015856488839

DIPOLE MOMENT
-------------

Method             : SCF
Type of density    : Electron Density
Multiplicity       :   1
Irrep              :   0
Energy             : -1979.1450447174297551 Eh
Relativity type    :
Basis              : AO
                                X                 Y                 Z
Electronic contribution:    -11.849844443       5.909673550      -2.268405524
Nuclear contribution   :     12.100130922      -7.018090451       1.447998407
                        -----------------------------------------
Total Dipole Moment    :      0.250286479      -1.108416900      -0.820407117
                        -----------------------------------------
Magnitude (a.u.)       :      1.401534582
Magnitude (Debye)      :      3.562417797

Rotational constants in cm-1:             0.012660             0.008382             0.006469
Rotational constants in MHz :           379.522647           251.299042           193.928861

                             ****ORCA TERMINATED NORMALLY****
TOTAL RUN TIME: 0 days 0 hours 0 minutes 34 seconds 496 msec
