                         Program Version 6.0.0  -   RELEASE  -
|  1> ! r2scan-3c def2/J RI DEFGRID2 scfconv6 printgap
|  2> %output
|  3>     printlevel normal
|  4> end
|  5> * xyz 0 1
|  6> C 4.6388417623 -1.4921486092 -0.7339425186
|  7> C 4.6496644008 -0.083357196 -0.1763476963
|  8> O 3.4537855302 0.2211426722 0.5613801243
|  9> P 2.0311107874 0.376364866 -0.1354377025
| 10> S 2.0875857239 1.2354494788 -1.9012468766
| 11> O 1.2115355063 1.0963595177 1.0139839212
| 12> C 1.166512632 2.5282261596 1.1564838917
| 13> C 2.5151873943 3.1116075197 1.5190606419
| 14> S 1.2425766682 -1.565791856 -0.0109041386
| 15> C 0.0789989965 -1.5617209503 -1.4181552397
| 16> S -1.6231086678 -1.8865985314 -0.9158473692
| 17> P -2.0044962015 -0.040934113 0.0703447792
| 18> S -1.4038201429 1.5296138638 -0.9347783517
| 19> O -1.4152041155 -0.0782275302 1.5282358269
| 20> C -1.8922196518 -0.9228326127 2.6109626316
| 21> C -1.1727938996 -2.255907804 2.6412087964
| 22> O -3.5669450823 -0.1198540597 0.3374740845
| 23> C -4.5131355643 -0.0364583354 -0.7491656967
| 24> C -5.8765483962 0.2539573311 -0.1559636444
| 25> H 4.4178164805 -2.208871371 0.0528170134
| 26> H 3.8813501283 -1.5777701206 -1.511726182
| 27> H 5.6103442212 -1.7138394157 -1.1638489944
| 28> H 4.7506549267 0.6473171207 -0.985420918
| 29> H 5.4483080197 0.0555493465 0.5535182264
| 30> H 0.792031164 2.9564723025 0.2202065774
| 31> H 0.4267538231 2.6848976784 1.9433851473
| 32> H 3.2074188195 2.9906174392 0.6866938503
| 33> H 2.4002717032 4.1701463728 1.7306158248
| 34> H 2.9194949008 2.606038684 2.392179846
| 35> H 0.3554566825 -2.3728138584 -2.0865171469
| 36> H 0.1402664869 -0.5937448672 -1.9232436238
| 37> H -1.6730568427 -0.335269174 3.5039753535
| 38> H -2.97021445 -1.0501954232 2.5058104286
| 39> H -0.0965472539 -2.102639928 2.6551001433
| 40> H -1.468478428 -2.791032995 3.5382171863
| 41> H -1.4270466415 -2.8561682183 1.7712999035
| 42> H -4.1919688725 0.7591585735 -1.4292778793
| 43> H -4.5016954987 -0.9903836316 -1.2825400042
| 44> H -5.8562246798 1.1968042373 0.3834936262
| 45> H -6.6054892468 0.3157270441 -0.9571525773
| 46> H -6.161284516 -0.5393257048 0.5288617952
| 47> *
| 48>
| 49>                          ****END OF INPUT****

CARTESIAN COORDINATES (ANGSTROEM)
---------------------------------
  C      4.638842   -1.492149   -0.733943
  C      4.649664   -0.083357   -0.176348
  O      3.453786    0.221143    0.561380
  P      2.031111    0.376365   -0.135438
  S      2.087586    1.235449   -1.901247
  O      1.211536    1.096360    1.013984
  C      1.166513    2.528226    1.156484
  C      2.515187    3.111608    1.519061
  S      1.242577   -1.565792   -0.010904
  C      0.078999   -1.561721   -1.418155
  S     -1.623109   -1.886599   -0.915847
  P     -2.004496   -0.040934    0.070345
  S     -1.403820    1.529614   -0.934778
  O     -1.415204   -0.078228    1.528236
  C     -1.892220   -0.922833    2.610963
  C     -1.172794   -2.255908    2.641209
  O     -3.566945   -0.119854    0.337474
  C     -4.513136   -0.036458   -0.749166
  C     -5.876548    0.253957   -0.155964
  H      4.417816   -2.208871    0.052817
  H      3.881350   -1.577770   -1.511726
  H      5.610344   -1.713839   -1.163849
  H      4.750655    0.647317   -0.985421
  H      5.448308    0.055549    0.553518
  H      0.792031    2.956472    0.220207
  H      0.426754    2.684898    1.943385
  H      3.207419    2.990617    0.686694
  H      2.400272    4.170146    1.730616
  H      2.919495    2.606039    2.392180
  H      0.355457   -2.372814   -2.086517
  H      0.140266   -0.593745   -1.923244
  H     -1.673057   -0.335269    3.503975
  H     -2.970214   -1.050195    2.505810
  H     -0.096547   -2.102640    2.655100
  H     -1.468478   -2.791033    3.538217
  H     -1.427047   -2.856168    1.771300
  H     -4.191969    0.759159   -1.429278
  H     -4.501695   -0.990384   -1.282540
  H     -5.856225    1.196804    0.383494
  H     -6.605489    0.315727   -0.957153
  H     -6.161285   -0.539326    0.528862

 Total Charge           Charge          ....    0
 Multiplicity           Mult            ....    1
 Number of Electrons    NEL             ....  202
 Basis Dimension        Dim             ....  539

ORBITAL ENERGIES
----------------

  NO   OCC          E(Eh)            E(eV)
   0   2.0000     -88.574770     -2410.2420
   1   2.0000     -88.570621     -2410.1291
   2   2.0000     -88.513039     -2408.5623
   3   2.0000     -88.511348     -2408.5162
   4   2.0000     -76.911136     -2092.8584
   5   2.0000     -76.906636     -2092.7360
   6   2.0000     -18.993687      -516.8445
   7   2.0000     -18.989225      -516.7231
   8   2.0000     -18.984980      -516.6076
   9   2.0000     -18.976857      -516.3865
  10   2.0000     -10.104932      -274.9692
  11   2.0000     -10.101266      -274.8694
  12   2.0000     -10.100383      -274.8454
  13   2.0000     -10.092966      -274.6436
  14   2.0000     -10.083206      -274.3780
  15   2.0000     -10.035021      -273.0668
  16   2.0000     -10.026781      -272.8426
  17   2.0000     -10.024279      -272.7745
  18   2.0000     -10.019271      -272.6382
  19   2.0000      -7.869347      -214.1358
  20   2.0000      -7.865476      -214.0305
  21   2.0000      -7.807702      -212.4584
  22   2.0000      -7.806190      -212.4172
  23   2.0000      -6.589511      -179.3097
  24   2.0000      -6.585055      -179.1885
  25   2.0000      -5.816160      -158.2658
  26   2.0000      -5.813062      -158.1815
  27   2.0000      -5.812300      -158.1607
  28   2.0000      -5.809356      -158.0806
  29   2.0000      -5.806625      -158.0063
  30   2.0000      -5.802496      -157.8940
  31   2.0000      -5.755344      -156.6109
  32   2.0000      -5.753989      -156.5740
  33   2.0000      -5.748209      -156.4167
  34   2.0000      -5.747506      -156.3976
  35   2.0000      -5.746443      -156.3687
  36   2.0000      -5.746061      -156.3583
  37   2.0000      -4.735473      -128.8588
  38   2.0000      -4.734494      -128.8321
  39   2.0000      -4.732769      -128.7852
  40   2.0000      -4.730362      -128.7197
  41   2.0000      -4.729854      -128.7059
  42   2.0000      -4.729102      -128.6854
  43   2.0000      -1.051007       -28.5993
  44   2.0000      -1.040782       -28.3211
  45   2.0000      -1.009080       -27.4585
  46   2.0000      -1.000493       -27.2248
  47   2.0000      -0.798287       -21.7225
  48   2.0000      -0.757526       -20.6133
  49   2.0000      -0.745074       -20.2745
  50   2.0000      -0.736007       -20.0278
  51   2.0000      -0.724186       -19.7061
  52   2.0000      -0.707859       -19.2618
  53   2.0000      -0.681376       -18.5412
  54   2.0000      -0.660539       -17.9742
  55   2.0000      -0.627554       -17.0766
  56   2.0000      -0.616943       -16.7879
  57   2.0000      -0.607266       -16.5246
  58   2.0000      -0.597428       -16.2568
  59   2.0000      -0.590310       -16.0632
  60   2.0000      -0.532714       -14.4959
  61   2.0000      -0.509719       -13.8702
  62   2.0000      -0.495537       -13.4843
  63   2.0000      -0.482917       -13.1408
  64   2.0000      -0.466476       -12.6934
  65   2.0000      -0.464396       -12.6369
  66   2.0000      -0.455615       -12.3979
  67   2.0000      -0.450633       -12.2624
  68   2.0000      -0.450382       -12.2555
  69   2.0000      -0.431570       -11.7436
  70   2.0000      -0.424185       -11.5427
  71   2.0000      -0.407182       -11.0800
  72   2.0000      -0.401922       -10.9368
  73   2.0000      -0.398247       -10.8368
  74   2.0000      -0.394232       -10.7276
  75   2.0000      -0.390828       -10.6350
  76   2.0000      -0.383128       -10.4254
  77   2.0000      -0.369291       -10.0489
  78   2.0000      -0.364597        -9.9212
  79   2.0000      -0.363840        -9.9006
  80   2.0000      -0.357898        -9.7389
  81   2.0000      -0.356007        -9.6874
  82   2.0000      -0.352988        -9.6053
  83   2.0000      -0.347570        -9.4579
  84   2.0000      -0.344325        -9.3695
  85   2.0000      -0.331301        -9.0151
  86   2.0000      -0.321499        -8.7484
  87   2.0000      -0.317581        -8.6418
  88   2.0000      -0.309130        -8.4119
  89   2.0000      -0.303549        -8.2600
  90   2.0000      -0.289166        -7.8686
  91   2.0000      -0.284918        -7.7530
  92   2.0000      -0.276908        -7.5350
  93   2.0000      -0.276259        -7.5174
  94   2.0000      -0.269732        -7.3398
  95   2.0000      -0.245576        -6.6825
  96   2.0000      -0.229374        -6.2416
  97   2.0000      -0.225790        -6.1441
  98   2.0000      -0.213509        -5.8099
  99   2.0000      -0.202670        -5.5149
 100   2.0000      -0.196663        -5.3515
 101   0.0000      -0.042326        -1.1517
 102   0.0000      -0.030928        -0.8416
 103   0.0000      -0.005185        -0.1411
 104   0.0000       0.015775         0.4293
 105   0.0000       0.017825         0.4850

MULLIKEN ATOMIC CHARGES
-----------------------
   0 C :   -0.447380
   1 C :   -0.156912
   2 O :   -0.298936
   3 P :    0.650812
   4 S :   -0.464665
   5 O :   -0.270395
   6 C :   -0.154480
   7 C :   -0.449237
   8 S :   -0.122768
   9 C :   -0.220168
  10 S :   -0.179078
  11 P :    0.721125
  12 S :   -0.425794
  13 O :   -0.251733
  14 C :   -0.147072
  15 C :   -0.443578
  16 O :   -0.323970
  17 C :   -0.161402
  18 C :   -0.440971
  19 H :    0.153546
  20 H :    0.174215
  21 H :    0.146095
  22 H :    0.173054
  23 H :    0.146549
  24 H :    0.182418
  25 H :    0.154598
  26 H :    0.165132
  27 H :    0.145558
  28 H :    0.154274
  29 H :    0.195296
  30 H :    0.219599
  31 H :    0.151221
  32 H :    0.162828
  33 H :    0.169894
  34 H :    0.143285
  35 H :    0.168199
  36 H :    0.174134
  37 H :    0.149074
  38 H :    0.159529
  39 H :    0.148011
  40 H :    0.150093
Sum of atomic charges:    0.0000000

LOEWDIN ATOMIC CHARGES
----------------------
   0 C :   -0.408471
   1 C :    0.017205
   2 O :   -0.668847
   3 P :    0.371734
   4 S :   -0.127349
   5 O :   -0.669984
   6 C :    0.011905
   7 C :   -0.401072
   8 S :    0.173497
   9 C :   -0.412794
  10 S :    0.120420
  11 P :    0.379622
  12 S :   -0.074860
  13 O :   -0.642553
  14 C :    0.033989
  15 C :   -0.408328
  16 O :   -0.681991
  17 C :    0.019920
  18 C :   -0.385809
  19 H :    0.159806
  20 H :    0.164268
  21 H :    0.157920
  22 H :    0.179759
  23 H :    0.178394
  24 H :    0.184569
  25 H :    0.182593
  26 H :    0.163806
  27 H :    0.158304
  28 H :    0.160165
  29 H :    0.179762
  30 H :    0.203063
  31 H :    0.181341
  32 H :    0.179315
  33 H :    0.166080
  34 H :    0.156726
  35 H :    0.162805
  36 H :    0.182485
  37 H :    0.171512
  38 H :    0.162276
  39 H :    0.160722
  40 H :    0.158093

  Mayer bond orders larger than 0.100000
B(  0-C ,  1-C ) :   0.9208 B(  0-C , 19-H ) :   0.9679 B(  0-C , 20-H ) :   0.9660
B(  0-C , 21-H ) :   0.9595 B(  1-C ,  2-O ) :   0.8237 B(  1-C , 22-H ) :   0.9670
B(  1-C , 23-H ) :   0.9591 B(  2-O ,  3-P ) :   1.0505 B(  3-P ,  4-S ) :   1.7551
B(  3-P ,  5-O ) :   1.1691 B(  3-P ,  8-S ) :   1.1233 B(  5-O ,  6-C ) :   0.8068
B(  6-C ,  7-C ) :   0.9081 B(  6-C , 24-H ) :   0.9636 B(  6-C , 25-H ) :   0.9633
B(  7-C , 26-H ) :   0.9633 B(  7-C , 27-H ) :   0.9613 B(  7-C , 28-H ) :   0.9732
B(  8-S ,  9-C ) :   0.8955 B(  9-C , 10-S ) :   0.9200 B(  9-C , 29-H ) :   0.9133
B(  9-C , 30-H ) :   0.9052 B( 10-S , 11-P ) :   0.9690 B( 11-P , 12-S ) :   1.8217
B( 11-P , 13-O ) :   1.1306 B( 11-P , 16-O ) :   1.0694 B( 13-O , 14-C ) :   0.7619
B( 14-C , 15-C ) :   0.9369 B( 14-C , 31-H ) :   0.9633 B( 14-C , 32-H ) :   0.9718
B( 15-C , 33-H ) :   0.9672 B( 15-C , 34-H ) :   0.9624 B( 15-C , 35-H ) :   0.9578
B( 16-O , 17-C ) :   0.7887 B( 17-C , 18-C ) :   0.9560 B( 17-C , 36-H ) :   0.9491
B( 17-C , 37-H ) :   0.9414 B( 18-C , 38-H ) :   0.9711 B( 18-C , 39-H ) :   0.9637
B( 18-C , 40-H ) :   0.9718

Dispersion correction           -0.022103366
FINAL SINGLE POINT ENERGY     -2932.456537663333

DIPOLE MOMENT
-------------

Method             : SCF
Type of density    : Electron Density
Multiplicity       :   1
Irrep              :   0
Energy             : -2932.4810221974667002 Eh
Relativity type    :
Basis              : AO
                                X                 Y                 Z
Electronic contribution:      0.131943732       0.040725221      -9.579393215
Nuclear contribution   :     -0.601878815      -0.966230537      10.656565204
                        -----------------------------------------
Total Dipole Moment    :     -0.469935084      -0.925505316       1.077171989
                        -----------------------------------------
Magnitude (a.u.)       :      1.495893902
Magnitude (Debye)      :      3.802260128

Rotational constants in cm-1:             0.013174             0.005172             0.004896
Rotational constants in MHz :           394.944585           155.044400           146.776461

                             ****ORCA TERMINATED NORMALLY****
TOTAL RUN TIME: 0 days 0 hours 1 minutes 25 seconds 187 msec
