                         Program Version 6.0.0  -   RELEASE  -
|  1> ! r2scan-3c def2/J RI DEFGRID2 scfconv6 printgap
|  2> %output
|  3>     printlevel normal
|  4> end
|  5> %cpcm
|  6>     smd true
|  7>     smdsolvent "water"
|  8> end
|  9> * xyz 0 1
| 10> C 4.6388417623 -1.4921486092 -0.7339425186
| 11> C 4.6496644008 -0.083357196 -0.1763476963
| 12> O 3.4537855302 0.2211426722 0.5613801243
| 13> P 2.0311107874 0.376364866 -0.1354377025
| 14> S 2.0875857239 1.2354494788 -1.9012468766
| 15> O 1.2115355063 1.0963595177 1.0139839212
| 16> C 1.166512632 2.5282261596 1.1564838917
| 17> C 2.5151873943 3.1116075197 1.5190606419
| 18> S 1.2425766682 -1.565791856 -0.0109041386
| 19> C 0.0789989965 -1.5617209503 -1.4181552397
| 20> S -1.6231086678 -1.8865985314 -0.9158473692
| 21> P -2.0044962015 -0.040934113 0.0703447792
| 22> S -1.4038201429 1.5296138638 -0.9347783517
| 23> O -1.4152041155 -0.0782275302 1.5282358269
| 24> C -1.8922196518 -0.9228326127 2.6109626316
| 25> C -1.1727938996 -2.255907804 2.6412087964
| 26> O -3.5669450823 -0.1198540597 0.3374740845
| 27> C -4.5131355643 -0.0364583354 -0.7491656967
| 28> C -5.8765483962 0.2539573311 -0.1559636444
| 29> H 4.4178164805 -2.208871371 0.0528170134
| 30> H 3.8813501283 -1.5777701206 -1.511726182
| 31> H 5.6103442212 -1.7138394157 -1.1638489944
| 32> H 4.7506549267 0.6473171207 -0.985420918
| 33> H 5.4483080197 0.0555493465 0.5535182264
| 34> H 0.792031164 2.9564723025 0.2202065774
| 35> H 0.4267538231 2.6848976784 1.9433851473
| 36> H 3.2074188195 2.9906174392 0.6866938503
| 37> H 2.4002717032 4.1701463728 1.7306158248
| 38> H 2.9194949008 2.606038684 2.392179846
| 39> H 0.3554566825 -2.3728138584 -2.0865171469
| 40> H 0.1402664869 -0.5937448672 -1.9232436238
| 41> H -1.6730568427 -0.335269174 3.5039753535
| 42> H -2.97021445 -1.0501954232 2.5058104286
| 43> H -0.0965472539 -2.102639928 2.6551001433
| 44> H -1.468478428 -2.791032995 3.5382171863
| 45> H -1.4270466415 -2.8561682183 1.7712999035
| 46> H -4.1919688725 0.7591585735 -1.4292778793
| 47> H -4.5016954987 -0.9903836316 -1.2825400042
| 48> H -5.8562246798 1.1968042373 0.3834936262
| 49> H -6.6054892468 0.3157270441 -0.9571525773
| 50> H -6.161284516 -0.5393257048 0.5288617952
| 51> *
| 52>
| 53>                          ****END OF INPUT****

CARTESIAN COORDINATES (ANGSTROEM)
---------------------------------
  C      4.638842   -1.492149   -0.733943
  C      4.649664   -0.083357   -0.176348
  O      3.453786    0.221143    0.561380
  P      2.031111    0.376365   -0.135438
  S      2.087586    1.235449   -1.901247
  O      1.211536    1.096360    1.013984
  C      1.166513    2.528226    1.156484
  C      2.515187    3.111608    1.519061
  S      1.242577   -1.565792   -0.010904
  C      0.078999   -1.561721   -1.418155
  S     -1.623109   -1.886599   -0.915847
  P     -2.004496   -0.040934    0.070345
  S     -1.403820    1.529614   -0.934778
  O     -1.415204   -0.078228    1.528236
  C     -1.892220   -0.922833    2.610963
  C     -1.172794   -2.255908    2.641209
  O     -3.566945   -0.119854    0.337474
  C     -4.513136   -0.036458   -0.749166
  C     -5.876548    0.253957   -0.155964
  H      4.417816   -2.208871    0.052817
  H      3.881350   -1.577770   -1.511726
  H      5.610344   -1.713839   -1.163849
  H      4.750655    0.647317   -0.985421
  H      5.448308    0.055549    0.553518
  H      0.792031    2.956472    0.220207
  H      0.426754    2.684898    1.943385
  H      3.207419    2.990617    0.686694
  H      2.400272    4.170146    1.730616
  H      2.919495    2.606039    2.392180
  H      0.355457   -2.372814   -2.086517
  H      0.140266   -0.593745   -1.923244
  H     -1.673057   -0.335269    3.503975
  H     -2.970214   -1.050195    2.505810
  H     -0.096547   -2.102640    2.655100
  H     -1.468478   -2.791033    3.538217
  H     -1.427047   -2.856168    1.771300
  H     -4.191969    0.759159   -1.429278
  H     -4.501695   -0.990384   -1.282540
  H     -5.856225    1.196804    0.383494
  H     -6.605489    0.315727   -0.957153
  H     -6.161285   -0.539326    0.528862

 Total Charge           Charge          ....    0
 Multiplicity           Mult            ....    1
 Number of Electrons    NEL             ....  202
 Basis Dimension        Dim             ....  539

ORBITAL ENERGIES
----------------

  NO   OCC          E(Eh)            E(eV)
   0   2.0000     -88.578088     -2410.3323
   1   2.0000     -88.575821     -2410.2706
   2   2.0000     -88.524659     -2408.8784
   3   2.0000     -88.522095     -2408.8087
   4   2.0000     -76.917580     -2093.0338
   5   2.0000     -76.916256     -2092.9977
   6   2.0000     -18.994846      -516.8760
   7   2.0000     -18.993682      -516.8444
   8   2.0000     -18.991593      -516.7875
   9   2.0000     -18.987692      -516.6814
  10   2.0000     -10.104730      -274.9637
  11   2.0000     -10.091343      -274.5994
  12   2.0000     -10.090846      -274.5859
  13   2.0000     -10.087635      -274.4985
  14   2.0000     -10.085456      -274.4392
  15   2.0000     -10.019828      -272.6534
  16   2.0000     -10.017126      -272.5799
  17   2.0000     -10.017072      -272.5784
  18   2.0000     -10.016386      -272.5597
  19   2.0000      -7.872587      -214.2240
  20   2.0000      -7.870604      -214.1700
  21   2.0000      -7.819654      -212.7836
  22   2.0000      -7.817303      -212.7196
  23   2.0000      -6.595996      -179.4862
  24   2.0000      -6.594734      -179.4518
  25   2.0000      -5.819411      -158.3542
  26   2.0000      -5.817450      -158.3009
  27   2.0000      -5.816317      -158.2700
  28   2.0000      -5.814492      -158.2204
  29   2.0000      -5.809851      -158.0941
  30   2.0000      -5.807612      -158.0332
  31   2.0000      -5.767227      -156.9342
  32   2.0000      -5.764978      -156.8730
  33   2.0000      -5.760151      -156.7417
  34   2.0000      -5.759474      -156.7233
  35   2.0000      -5.757511      -156.6699
  36   2.0000      -5.757271      -156.6633
  37   2.0000      -4.741900      -129.0336
  38   2.0000      -4.740942      -129.0076
  39   2.0000      -4.740022      -128.9825
  40   2.0000      -4.739532      -128.9692
  41   2.0000      -4.739391      -128.9654
  42   2.0000      -4.738827      -128.9500
  43   2.0000      -1.053475       -28.6665
  44   2.0000      -1.048927       -28.5427
  45   2.0000      -1.011300       -27.5189
  46   2.0000      -1.008526       -27.4434
  47   2.0000      -0.800871       -21.7928
  48   2.0000      -0.755500       -20.5582
  49   2.0000      -0.743828       -20.2406
  50   2.0000      -0.726352       -19.7651
  51   2.0000      -0.721814       -19.6415
  52   2.0000      -0.709580       -19.3087
  53   2.0000      -0.687152       -18.6984
  54   2.0000      -0.668484       -18.1904
  55   2.0000      -0.630733       -17.1631
  56   2.0000      -0.614338       -16.7170
  57   2.0000      -0.599512       -16.3135
  58   2.0000      -0.597320       -16.2539
  59   2.0000      -0.590482       -16.0678
  60   2.0000      -0.529226       -14.4010
  61   2.0000      -0.511959       -13.9311
  62   2.0000      -0.491587       -13.3768
  63   2.0000      -0.486027       -13.2255
  64   2.0000      -0.468705       -12.7541
  65   2.0000      -0.464079       -12.6282
  66   2.0000      -0.454474       -12.3669
  67   2.0000      -0.451260       -12.2794
  68   2.0000      -0.443800       -12.0764
  69   2.0000      -0.433474       -11.7954
  70   2.0000      -0.421928       -11.4812
  71   2.0000      -0.405500       -11.0342
  72   2.0000      -0.402505       -10.9527
  73   2.0000      -0.400095       -10.8871
  74   2.0000      -0.393053       -10.6955
  75   2.0000      -0.387890       -10.5550
  76   2.0000      -0.380344       -10.3497
  77   2.0000      -0.363656        -9.8956
  78   2.0000      -0.362102        -9.8533
  79   2.0000      -0.356020        -9.6878
  80   2.0000      -0.352698        -9.5974
  81   2.0000      -0.352297        -9.5865
  82   2.0000      -0.350710        -9.5433
  83   2.0000      -0.345317        -9.3966
  84   2.0000      -0.343299        -9.3416
  85   2.0000      -0.328008        -8.9256
  86   2.0000      -0.321932        -8.7602
  87   2.0000      -0.316656        -8.6166
  88   2.0000      -0.305122        -8.3028
  89   2.0000      -0.303029        -8.2458
  90   2.0000      -0.293733        -7.9929
  91   2.0000      -0.286765        -7.8033
  92   2.0000      -0.282413        -7.6849
  93   2.0000      -0.278391        -7.5754
  94   2.0000      -0.273174        -7.4335
  95   2.0000      -0.249796        -6.7973
  96   2.0000      -0.238299        -6.4844
  97   2.0000      -0.236602        -6.4383
  98   2.0000      -0.224489        -6.1086
  99   2.0000      -0.212286        -5.7766
 100   2.0000      -0.208816        -5.6822
 101   0.0000      -0.046883        -1.2757
 102   0.0000      -0.038263        -1.0412
 103   0.0000      -0.009595        -0.2611
 104   0.0000       0.010465         0.2848
 105   0.0000       0.013600         0.3701

MULLIKEN ATOMIC CHARGES
-----------------------
   0 C :   -0.481200
   1 C :   -0.157413
   2 O :   -0.326410
   3 P :    0.690693
   4 S :   -0.521607
   5 O :   -0.300477
   6 C :   -0.153787
   7 C :   -0.492462
   8 S :   -0.119877
   9 C :   -0.219916
  10 S :   -0.175287
  11 P :    0.732589
  12 S :   -0.483197
  13 O :   -0.284088
  14 C :   -0.138361
  15 C :   -0.475782
  16 O :   -0.343373
  17 C :   -0.150931
  18 C :   -0.482028
  19 H :    0.166065
  20 H :    0.172195
  21 H :    0.170975
  22 H :    0.177078
  23 H :    0.173479
  24 H :    0.181242
  25 H :    0.176894
  26 H :    0.168415
  27 H :    0.170649
  28 H :    0.168919
  29 H :    0.236806
  30 H :    0.211829
  31 H :    0.175903
  32 H :    0.178690
  33 H :    0.168922
  34 H :    0.168594
  35 H :    0.171043
  36 H :    0.174015
  37 H :    0.168719
  38 H :    0.166589
  39 H :    0.169820
  40 H :    0.166072
Sum of atomic charges:    0.0000000

LOEWDIN ATOMIC CHARGES
----------------------
   0 C :   -0.410909
   1 C :    0.022750
   2 O :   -0.681167
   3 P :    0.376687
   4 S :   -0.162086
   5 O :   -0.689794
   6 C :    0.012356
   7 C :   -0.403224
   8 S :    0.178273
   9 C :   -0.407289
  10 S :    0.130542
  11 P :    0.381519
  12 S :   -0.117596
  13 O :   -0.662926
  14 C :    0.040997
  15 C :   -0.409127
  16 O :   -0.688618
  17 C :    0.024228
  18 C :   -0.388986
  19 H :    0.163100
  20 H :    0.161118
  21 H :    0.167065
  22 H :    0.181055
  23 H :    0.189794
  24 H :    0.183177
  25 H :    0.190230
  26 H :    0.162866
  27 H :    0.167871
  28 H :    0.164075
  29 H :    0.196286
  30 H :    0.199716
  31 H :    0.191414
  32 H :    0.186870
  33 H :    0.164107
  34 H :    0.166724
  35 H :    0.161858
  36 H :    0.181862
  37 H :    0.179428
  38 H :    0.163423
  39 H :    0.169203
  40 H :    0.163128

  Mayer bond orders larger than 0.100000
B(  0-C ,  1-C ) :   0.9096 B(  0-C , 19-H ) :   0.9653 B(  0-C , 20-H ) :   0.9662
B(  0-C , 21-H ) :   0.9543 B(  1-C ,  2-O ) :   0.8106 B(  1-C , 22-H ) :   0.9653
B(  1-C , 23-H ) :   0.9493 B(  2-O ,  3-P ) :   1.0599 B(  3-P ,  4-S ) :   1.6985
B(  3-P ,  5-O ) :   1.1663 B(  3-P ,  8-S ) :   1.1506 B(  5-O ,  6-C ) :   0.7911
B(  6-C ,  7-C ) :   0.9057 B(  6-C , 24-H ) :   0.9603 B(  6-C , 25-H ) :   0.9516
B(  7-C , 26-H ) :   0.9623 B(  7-C , 27-H ) :   0.9546 B(  7-C , 28-H ) :   0.9714
B(  8-S ,  9-C ) :   0.8880 B(  9-C , 10-S ) :   0.9130 B(  9-C , 29-H ) :   0.8975
B(  9-C , 30-H ) :   0.9098 B( 10-S , 11-P ) :   0.9922 B( 11-P , 12-S ) :   1.7903
B( 11-P , 13-O ) :   1.1343 B( 11-P , 16-O ) :   1.0788 B( 13-O , 14-C ) :   0.7513
B( 14-C , 15-C ) :   0.9285 B( 14-C , 31-H ) :   0.9542 B( 14-C , 32-H ) :   0.9617
B( 15-C , 33-H ) :   0.9667 B( 15-C , 34-H ) :   0.9571 B( 15-C , 35-H ) :   0.9592
B( 16-O , 17-C ) :   0.7801 B( 17-C , 18-C ) :   0.9548 B( 17-C , 36-H ) :   0.9459
B( 17-C , 37-H ) :   0.9327 B( 18-C , 38-H ) :   0.9690 B( 18-C , 39-H ) :   0.9580
B( 18-C , 40-H ) :   0.9685

Dispersion correction           -0.022103366
FINAL SINGLE POINT ENERGY     -2932.466013476417

DIPOLE MOMENT
-------------

Method             : SCF
Type of density    : Electron Density
Multiplicity       :   1
Irrep              :   0
Energy             : -2932.4904980105511640 Eh
Relativity type    :
Basis              : AO
                                X                 Y                 Z
Electronic contribution:      0.037927198      -0.545527885      -9.294720673
Nuclear contribution   :     -0.601878815      -0.966230537      10.656565204
                        -----------------------------------------
Total Dipole Moment    :     -0.563951617      -1.511758422       1.361844532
                        -----------------------------------------
Magnitude (a.u.)       :      2.111415516
Magnitude (Debye)      :      5.366791737

Rotational constants in cm-1:             0.013174             0.005172             0.004896
Rotational constants in MHz :           394.944585           155.044400           146.776461

                             ****ORCA TERMINATED NORMALLY****
TOTAL RUN TIME: 0 days 0 hours 1 minutes 52 seconds 89 msec
