                         Program Version 6.0.1  -  RELEASE   -
|  1> ! pbe def2-sv(p) def2/J RI DEFGRID1 loosescf d4 GCP(DFT/SV(P)) printgap
|  2> %output
|  3>     printlevel normal
|  4> end
|  5> * xyz 0 1
|  6> C 3.0829239803 -4.7022038246 -0.8951370653
|  7> C 3.5269175883 -3.5347374777 -1.7621120091
|  8> O 3.4569069757 -2.2959153994 -1.0287938981
|  9> C 2.3161273378 -1.6346854342 -1.0199244663
| 10> O 1.3162992589 -1.9753601537 -1.6127055462
| 11> C 2.4214728714 -0.3799231478 -0.1763927317
| 12> C 1.0762984482 0.3191233823 -0.085027138
| 13> H 0.6135318099 0.3464908857 -1.0837000785
| 14> C 1.1793092406 1.7606653981 0.3756407458
| 15> O 2.1342235475 2.4621306977 0.1366712302
| 16> O 0.0992505714 2.1395286725 1.026710296
| 17> C -0.0128718106 3.5138147393 1.4503149878
| 18> C -0.8040672325 4.3194063292 0.4347772768
| 19> S -0.0716829512 -0.6204379546 0.973955827
| 20> P -1.8787500934 0.214856568 0.2275310711
| 21> S -1.8089715163 1.1228301036 -1.505140239
| 22> O -2.865520403 -1.0499690721 0.2644907899
| 23> C -2.7021433818 -2.1282298385 -0.6607131514
| 24> O -2.5206762838 1.10828818 1.3586252569
| 25> C -2.720893104 0.6203088888 2.7000114413
| 26> H 3.6822787688 -4.7448244234 0.0099429205
| 27> H 2.0364314907 -4.5879174939 -0.622246926
| 28> H 3.2039460937 -5.6268795369 -1.4496040296
| 29> H 2.8970773193 -3.4500352454 -2.6522582036
| 30> H 4.5756703755 -3.6247938516 -2.0451948339
| 31> H 3.1454859167 0.2985256983 -0.6344130523
| 32> H 2.7947468905 -0.651762095 0.8118528577
| 33> H -0.5304085364 3.467187774 2.4088472054
| 34> H 0.9964684837 3.9153903174 1.5743303815
| 35> H -0.942422483 5.3297027358 0.8045368484
| 36> H -0.2740999041 4.3553065318 -0.5146350545
| 37> H -1.7751689048 3.8582395442 0.2691533792
| 38> H -2.7721580476 -1.7577641556 -1.6844921808
| 39> H -3.51091187 -2.8223096628 -0.448482841
| 40> H -1.73350848 -2.6081735279 -0.5155384153
| 41> H -3.0798785922 1.4775627136 3.2634582703
| 42> H -1.7777753568 0.2544478827 3.1062189498
| 43> H -3.4605171175 -0.1778521269 2.6973591491
| 44> *
| 45>
| 46>                          ****END OF INPUT****

CARTESIAN COORDINATES (ANGSTROEM)
---------------------------------
  C      3.082924   -4.702204   -0.895137
  C      3.526918   -3.534737   -1.762112
  O      3.456907   -2.295915   -1.028794
  C      2.316127   -1.634685   -1.019924
  O      1.316299   -1.975360   -1.612706
  C      2.421473   -0.379923   -0.176393
  C      1.076298    0.319123   -0.085027
  H      0.613532    0.346491   -1.083700
  C      1.179309    1.760665    0.375641
  O      2.134224    2.462131    0.136671
  O      0.099251    2.139529    1.026710
  C     -0.012872    3.513815    1.450315
  C     -0.804067    4.319406    0.434777
  S     -0.071683   -0.620438    0.973956
  P     -1.878750    0.214857    0.227531
  S     -1.808972    1.122830   -1.505140
  O     -2.865520   -1.049969    0.264491
  C     -2.702143   -2.128230   -0.660713
  O     -2.520676    1.108288    1.358625
  C     -2.720893    0.620309    2.700011
  H      3.682279   -4.744824    0.009943
  H      2.036431   -4.587917   -0.622247
  H      3.203946   -5.626880   -1.449604
  H      2.897077   -3.450035   -2.652258
  H      4.575670   -3.624794   -2.045195
  H      3.145486    0.298526   -0.634413
  H      2.794747   -0.651762    0.811853
  H     -0.530409    3.467188    2.408847
  H      0.996468    3.915390    1.574330
  H     -0.942422    5.329703    0.804537
  H     -0.274100    4.355307   -0.514635
  H     -1.775169    3.858240    0.269153
  H     -2.772158   -1.757764   -1.684492
  H     -3.510912   -2.822310   -0.448483
  H     -1.733508   -2.608174   -0.515538
  H     -3.079879    1.477563    3.263458
  H     -1.777775    0.254448    3.106219
  H     -3.460517   -0.177852    2.697359

 Total Charge           Charge          ....    0
 Multiplicity           Mult            ....    1
 Number of Electrons    NEL             ....  174
 Basis Dimension        Dim             ....  316

ORBITAL ENERGIES
----------------

  NO   OCC          E(Eh)            E(eV)
   0   2.0000     -88.037789     -2395.6300
   1   2.0000     -87.982468     -2394.1247
   2   2.0000     -76.423762     -2079.5963
   3   2.0000     -18.807289      -511.7723
   4   2.0000     -18.805125      -511.7135
   5   2.0000     -18.794664      -511.4288
   6   2.0000     -18.788930      -511.2728
   7   2.0000     -18.743919      -510.0480
   8   2.0000     -18.739247      -509.9208
   9   2.0000     -10.014228      -272.5010
  10   2.0000     -10.014092      -272.4973
  11   2.0000      -9.951892      -270.8047
  12   2.0000      -9.951587      -270.7965
  13   2.0000      -9.946117      -270.6476
  14   2.0000      -9.939942      -270.4796
  15   2.0000      -9.938396      -270.4375
  16   2.0000      -9.913508      -269.7603
  17   2.0000      -9.891018      -269.1483
  18   2.0000      -9.877523      -268.7811
  19   2.0000      -7.682478      -209.0509
  20   2.0000      -7.627559      -207.5564
  21   2.0000      -6.420935      -174.7225
  22   2.0000      -5.710191      -155.3822
  23   2.0000      -5.707289      -155.3032
  24   2.0000      -5.699389      -155.0883
  25   2.0000      -5.656686      -153.9263
  26   2.0000      -5.648079      -153.6920
  27   2.0000      -5.647563      -153.6780
  28   2.0000      -4.643646      -126.3600
  29   2.0000      -4.642782      -126.3365
  30   2.0000      -4.641272      -126.2954
  31   2.0000      -1.014609       -27.6089
  32   2.0000      -1.013767       -27.5860
  33   2.0000      -0.986195       -26.8357
  34   2.0000      -0.941530       -25.6203
  35   2.0000      -0.920622       -25.0514
  36   2.0000      -0.919751       -25.0277
  37   2.0000      -0.763855       -20.7856
  38   2.0000      -0.716447       -19.4955
  39   2.0000      -0.699881       -19.0447
  40   2.0000      -0.693913       -18.8823
  41   2.0000      -0.659152       -17.9364
  42   2.0000      -0.634275       -17.2595
  43   2.0000      -0.621345       -16.9077
  44   2.0000      -0.615560       -16.7502
  45   2.0000      -0.599040       -16.3007
  46   2.0000      -0.560099       -15.2411
  47   2.0000      -0.514069       -13.9885
  48   2.0000      -0.503237       -13.6938
  49   2.0000      -0.497154       -13.5282
  50   2.0000      -0.477660       -12.9978
  51   2.0000      -0.473050       -12.8724
  52   2.0000      -0.464765       -12.6469
  53   2.0000      -0.447219       -12.1694
  54   2.0000      -0.435624       -11.8539
  55   2.0000      -0.431162       -11.7325
  56   2.0000      -0.427280       -11.6269
  57   2.0000      -0.419753       -11.4220
  58   2.0000      -0.412286       -11.2189
  59   2.0000      -0.409639       -11.1468
  60   2.0000      -0.401462       -10.9243
  61   2.0000      -0.398891       -10.8544
  62   2.0000      -0.396766       -10.7966
  63   2.0000      -0.381037       -10.3685
  64   2.0000      -0.379888       -10.3373
  65   2.0000      -0.363247        -9.8845
  66   2.0000      -0.359666        -9.7870
  67   2.0000      -0.352665        -9.5965
  68   2.0000      -0.344789        -9.3822
  69   2.0000      -0.337436        -9.1821
  70   2.0000      -0.333165        -9.0659
  71   2.0000      -0.331015        -9.0074
  72   2.0000      -0.323920        -8.8143
  73   2.0000      -0.311978        -8.4893
  74   2.0000      -0.307982        -8.3806
  75   2.0000      -0.297908        -8.1065
  76   2.0000      -0.295408        -8.0385
  77   2.0000      -0.289781        -7.8853
  78   2.0000      -0.270196        -7.3524
  79   2.0000      -0.266152        -7.2424
  80   2.0000      -0.262599        -7.1457
  81   2.0000      -0.256841        -6.9890
  82   2.0000      -0.244858        -6.6629
  83   2.0000      -0.227589        -6.1930
  84   2.0000      -0.208542        -5.6747
  85   2.0000      -0.202422        -5.5082
  86   2.0000      -0.196576        -5.3491
  87   0.0000      -0.040922        -1.1135
  88   0.0000      -0.028544        -0.7767
  89   0.0000      -0.020196        -0.5496
  90   0.0000       0.012012         0.3269
  91   0.0000       0.018603         0.5062

MULLIKEN ATOMIC CHARGES
-----------------------
   0 C :   -0.304357
   1 C :   -0.012478
   2 O :   -0.231919
   3 C :    0.137798
   4 O :   -0.199032
   5 C :   -0.119816
   6 C :   -0.349775
   7 H :    0.173808
   8 C :    0.246775
   9 O :   -0.196179
  10 O :   -0.226518
  11 C :   -0.014109
  12 C :   -0.297292
  13 S :   -0.105817
  14 P :    0.629712
  15 S :   -0.312870
  16 O :   -0.392294
  17 C :   -0.103028
  18 O :   -0.363102
  19 C :   -0.109240
  20 H :    0.115197
  21 H :    0.125852
  22 H :    0.114601
  23 H :    0.111224
  24 H :    0.105411
  25 H :    0.144195
  26 H :    0.121365
  27 H :    0.098453
  28 H :    0.110554
  29 H :    0.106325
  30 H :    0.121855
  31 H :    0.131486
  32 H :    0.122001
  33 H :    0.120443
  34 H :    0.123072
  35 H :    0.129552
  36 H :    0.121015
  37 H :    0.127131
Sum of atomic charges:   -0.0000000

LOEWDIN ATOMIC CHARGES
----------------------
   0 C :   -0.355659
   1 C :   -0.109936
   2 O :   -0.061322
   3 C :    0.034226
   4 O :   -0.162239
   5 C :   -0.251162
   6 C :   -0.278158
   7 H :    0.145812
   8 C :    0.023469
   9 O :   -0.158756
  10 O :   -0.055501
  11 C :   -0.108004
  12 C :   -0.355672
  13 S :    0.093166
  14 P :    0.582602
  15 S :   -0.300409
  16 O :   -0.262955
  17 C :   -0.217572
  18 O :   -0.238204
  19 C :   -0.211257
  20 H :    0.125374
  21 H :    0.130110
  22 H :    0.131403
  23 H :    0.121008
  24 H :    0.119067
  25 H :    0.159454
  26 H :    0.142009
  27 H :    0.115371
  28 H :    0.119838
  29 H :    0.127204
  30 H :    0.130206
  31 H :    0.128918
  32 H :    0.114700
  33 H :    0.119835
  34 H :    0.111260
  35 H :    0.124519
  36 H :    0.109663
  37 H :    0.117594

  Mayer bond orders larger than 0.100000
B(  0-C ,  1-C ) :   1.1749 B(  0-C , 20-H ) :   0.9489 B(  0-C , 21-H ) :   0.9465
B(  0-C , 22-H ) :   0.9441 B(  1-C ,  2-O ) :   0.9131 B(  1-C , 23-H ) :   0.9138
B(  1-C , 24-H ) :   0.9372 B(  2-O ,  3-C ) :   1.2408 B(  3-C ,  4-O ) :   2.0300
B(  3-C ,  5-C ) :   1.0003 B(  5-C ,  6-C ) :   1.0924 B(  5-C , 25-H ) :   0.8676
B(  5-C , 26-H ) :   0.8984 B(  6-C ,  7-H ) :   0.8159 B(  6-C ,  8-C ) :   0.8831
B(  6-C , 13-S ) :   1.0095 B(  8-C ,  9-O ) :   2.0640 B(  8-C , 10-O ) :   1.2519
B( 10-O , 11-C ) :   0.9012 B( 11-C , 12-C ) :   1.1821 B( 11-C , 27-H ) :   0.9346
B( 11-C , 28-H ) :   0.9111 B( 12-C , 29-H ) :   0.9423 B( 12-C , 30-H ) :   0.9457
B( 12-C , 31-H ) :   0.9405 B( 13-S , 14-P ) :   0.9539 B( 13-S , 15-S ) :   0.1153
B( 14-P , 15-S ) :   1.6340 B( 14-P , 16-O ) :   1.0695 B( 14-P , 18-O ) :   1.1203
B( 16-O , 17-C ) :   0.9303 B( 17-C , 32-H ) :   0.9409 B( 17-C , 33-H ) :   0.9580
B( 17-C , 34-H ) :   0.9404 B( 18-O , 19-C ) :   0.9189 B( 19-C , 35-H ) :   0.9590
B( 19-C , 36-H ) :   0.9370 B( 19-C , 37-H ) :   0.9479

Dispersion correction           -0.051515997
FINAL SINGLE POINT ENERGY     -1979.024575233005

DIPOLE MOMENT
-------------

Method             : SCF
Type of density    : Electron Density
Multiplicity       :   1
Irrep              :   0
Energy             : -1979.1550485553798353 Eh
Relativity type    :
Basis              : AO
                                X                 Y                 Z
Electronic contribution:     -5.421977849       5.475101236      -1.697919701
Nuclear contribution   :      5.593100824      -6.532910623       2.905624791
                        -----------------------------------------
Total Dipole Moment    :      0.171122975      -1.057809387       1.207705090
                        -----------------------------------------
Magnitude (a.u.)       :      1.614557325
Magnitude (Debye)      :      4.103878579

Rotational constants in cm-1:             0.013601             0.006672             0.005305
Rotational constants in MHz :           407.742499           200.032352           159.038458

                             ****ORCA TERMINATED NORMALLY****
TOTAL RUN TIME: 0 days 0 hours 0 minutes 39 seconds 223 msec
