                         Program Version 6.0.0  -   RELEASE  -
|  1> ! r2scan-3c def2/J RI DEFGRID2 scfconv6 printgap
|  2> %output
|  3>     printlevel normal
|  4> end
|  5> * xyz 0 1
|  6> C 4.5611826093 -1.574509372 -0.5531933016
|  7> C 4.5769484094 -0.1026530705 -0.1937658797
|  8> O 3.3924679852 0.2993143461 0.5146098587
|  9> P 1.9573537271 0.352836717 -0.1710634954
| 10> S 1.9744203497 0.9580146976 -2.0401486915
| 11> O 1.152558189 1.2233145701 0.8787887356
| 12> C 1.1009368071 2.6601668519 0.8195721286
| 13> C 2.446233644 3.2929948508 1.1035061156
| 14> S 1.1784624899 -1.5573216345 0.2298297923
| 15> C -0.0056877058 -1.742437647 -1.1477965519
| 16> S -1.7028529843 -1.9982261339 -0.5865387761
| 17> P -2.0844965003 -0.025494315 0.1056112184
| 18> S -1.5264875388 1.4259166395 -1.0815776574
| 19> O -1.4203950473 0.0673619355 1.5320449932
| 20> C -1.7621529114 -0.8425928559 2.6125034113
| 21> C -0.5814351605 -0.9139304356 3.5576860691
| 22> O -3.6310364082 -0.0538820433 0.4742457001
| 23> C -4.6725708546 0.2232964411 -0.4797359609
| 24> C -4.7527245287 -0.8255365212 -1.5695660457
| 25> H 4.3546582648 -2.1770129289 0.3276578095
| 26> H 3.7918581468 -1.7662455984 -1.2998499895
| 27> H 5.5263648496 -1.8525037999 -0.9642073565
| 28> H 4.663274894 0.5104299233 -1.0967668394
| 29> H 5.3869083269 0.1350052583 0.4971561355
| 30> H 0.7296425889 2.9531246165 -0.1687502608
| 31> H 0.3565596458 2.9225606273 1.5733659331
| 32> H 2.8478404968 2.9144653406 2.0398498607
| 33> H 3.1428166344 3.06041886 0.2990085804
| 34> H 2.3273697976 4.3702223824 1.1661629584
| 35> H 0.2633021523 -2.6364421844 -1.7041360517
| 36> H 0.0497732673 -0.8519576424 -1.7801144679
| 37> H -2.6513370728 -0.4429244902 3.1031889279
| 38> H -1.9931681318 -1.8232037947 2.185873715
| 39> H 0.288861951 -1.3143777899 3.043588023
| 40> H -0.3400592883 0.0780389764 3.928868867
| 41> H -0.8342572818 -1.56052446 4.391718839
| 42> H -5.5781276674 0.2431006886 0.1283311932
| 43> H -4.4905283721 1.2129050612 -0.9098859433
| 44> H -3.8732754404 -0.7682218643 -2.2089860123
| 45> H -4.8070877332 -1.820508672 -1.1351378717
| 46> H -5.6365145513 -0.6455241794 -2.1731718125
| 47> *
| 48>
| 49>                          ****END OF INPUT****

CARTESIAN COORDINATES (ANGSTROEM)
---------------------------------
  C      4.561183   -1.574509   -0.553193
  C      4.576948   -0.102653   -0.193766
  O      3.392468    0.299314    0.514610
  P      1.957354    0.352837   -0.171063
  S      1.974420    0.958015   -2.040149
  O      1.152558    1.223315    0.878789
  C      1.100937    2.660167    0.819572
  C      2.446234    3.292995    1.103506
  S      1.178462   -1.557322    0.229830
  C     -0.005688   -1.742438   -1.147797
  S     -1.702853   -1.998226   -0.586539
  P     -2.084497   -0.025494    0.105611
  S     -1.526488    1.425917   -1.081578
  O     -1.420395    0.067362    1.532045
  C     -1.762153   -0.842593    2.612503
  C     -0.581435   -0.913930    3.557686
  O     -3.631036   -0.053882    0.474246
  C     -4.672571    0.223296   -0.479736
  C     -4.752725   -0.825537   -1.569566
  H      4.354658   -2.177013    0.327658
  H      3.791858   -1.766246   -1.299850
  H      5.526365   -1.852504   -0.964207
  H      4.663275    0.510430   -1.096767
  H      5.386908    0.135005    0.497156
  H      0.729643    2.953125   -0.168750
  H      0.356560    2.922561    1.573366
  H      2.847840    2.914465    2.039850
  H      3.142817    3.060419    0.299009
  H      2.327370    4.370222    1.166163
  H      0.263302   -2.636442   -1.704136
  H      0.049773   -0.851958   -1.780114
  H     -2.651337   -0.442924    3.103189
  H     -1.993168   -1.823204    2.185874
  H      0.288862   -1.314378    3.043588
  H     -0.340059    0.078039    3.928869
  H     -0.834257   -1.560524    4.391719
  H     -5.578128    0.243101    0.128331
  H     -4.490528    1.212905   -0.909886
  H     -3.873275   -0.768222   -2.208986
  H     -4.807088   -1.820509   -1.135138
  H     -5.636515   -0.645524   -2.173172

 Total Charge           Charge          ....    0
 Multiplicity           Mult            ....    1
 Number of Electrons    NEL             ....  202
 Basis Dimension        Dim             ....  539

ORBITAL ENERGIES
----------------

  NO   OCC          E(Eh)            E(eV)
   0   2.0000     -88.575377     -2410.2585
   1   2.0000     -88.571817     -2410.1617
   2   2.0000     -88.514866     -2408.6120
   3   2.0000     -88.514450     -2408.6006
   4   2.0000     -76.910754     -2092.8480
   5   2.0000     -76.907898     -2092.7703
   6   2.0000     -18.992204      -516.8041
   7   2.0000     -18.986383      -516.6457
   8   2.0000     -18.986287      -516.6431
   9   2.0000     -18.978437      -516.4295
  10   2.0000     -10.105753      -274.9915
  11   2.0000     -10.099072      -274.8097
  12   2.0000     -10.097726      -274.7731
  13   2.0000     -10.094087      -274.6741
  14   2.0000     -10.084266      -274.4068
  15   2.0000     -10.028946      -272.9015
  16   2.0000     -10.027241      -272.8551
  17   2.0000     -10.025153      -272.7983
  18   2.0000     -10.020234      -272.6644
  19   2.0000      -7.869955      -214.1524
  20   2.0000      -7.866643      -214.0622
  21   2.0000      -7.809640      -212.5111
  22   2.0000      -7.809109      -212.4966
  23   2.0000      -6.589227      -179.3020
  24   2.0000      -6.586342      -179.2235
  25   2.0000      -5.816826      -158.2839
  26   2.0000      -5.813595      -158.1960
  27   2.0000      -5.813457      -158.1922
  28   2.0000      -5.810548      -158.1130
  29   2.0000      -5.807230      -158.0228
  30   2.0000      -5.803660      -157.9256
  31   2.0000      -5.757408      -156.6670
  32   2.0000      -5.756761      -156.6494
  33   2.0000      -5.749776      -156.4594
  34   2.0000      -5.749672      -156.4565
  35   2.0000      -5.749614      -156.4549
  36   2.0000      -5.748908      -156.4357
  37   2.0000      -4.735110      -128.8489
  38   2.0000      -4.734167      -128.8232
  39   2.0000      -4.732605      -128.7807
  40   2.0000      -4.731636      -128.7544
  41   2.0000      -4.731143      -128.7409
  42   2.0000      -4.730395      -128.7206
  43   2.0000      -1.048899       -28.5420
  44   2.0000      -1.042303       -28.3625
  45   2.0000      -1.007095       -27.4044
  46   2.0000      -1.002082       -27.2681
  47   2.0000      -0.798727       -21.7345
  48   2.0000      -0.755667       -20.5627
  49   2.0000      -0.745436       -20.2844
  50   2.0000      -0.732351       -19.9283
  51   2.0000      -0.725217       -19.7342
  52   2.0000      -0.709261       -19.3000
  53   2.0000      -0.683543       -18.6002
  54   2.0000      -0.662476       -18.0269
  55   2.0000      -0.630638       -17.1605
  56   2.0000      -0.619717       -16.8634
  57   2.0000      -0.601726       -16.3738
  58   2.0000      -0.598412       -16.2836
  59   2.0000      -0.589608       -16.0441
  60   2.0000      -0.527798       -14.3621
  61   2.0000      -0.510925       -13.9030
  62   2.0000      -0.492418       -13.3994
  63   2.0000      -0.484156       -13.1746
  64   2.0000      -0.468324       -12.7437
  65   2.0000      -0.463221       -12.6049
  66   2.0000      -0.454333       -12.3630
  67   2.0000      -0.451964       -12.2986
  68   2.0000      -0.447228       -12.1697
  69   2.0000      -0.431307       -11.7365
  70   2.0000      -0.428635       -11.6637
  71   2.0000      -0.405944       -11.0463
  72   2.0000      -0.403022       -10.9668
  73   2.0000      -0.400046       -10.8858
  74   2.0000      -0.393638       -10.7114
  75   2.0000      -0.392862       -10.6903
  76   2.0000      -0.378586       -10.3019
  77   2.0000      -0.370366       -10.0782
  78   2.0000      -0.365751        -9.9526
  79   2.0000      -0.364722        -9.9246
  80   2.0000      -0.357153        -9.7186
  81   2.0000      -0.355490        -9.6734
  82   2.0000      -0.351147        -9.5552
  83   2.0000      -0.349578        -9.5125
  84   2.0000      -0.345322        -9.3967
  85   2.0000      -0.325887        -8.8678
  86   2.0000      -0.318890        -8.6774
  87   2.0000      -0.315685        -8.5902
  88   2.0000      -0.308256        -8.3881
  89   2.0000      -0.304446        -8.2844
  90   2.0000      -0.289413        -7.8753
  91   2.0000      -0.281647        -7.6640
  92   2.0000      -0.278497        -7.5783
  93   2.0000      -0.276556        -7.5255
  94   2.0000      -0.270716        -7.3666
  95   2.0000      -0.247650        -6.7389
  96   2.0000      -0.229970        -6.2578
  97   2.0000      -0.227727        -6.1968
  98   2.0000      -0.216258        -5.8847
  99   2.0000      -0.205940        -5.6039
 100   2.0000      -0.199105        -5.4179
 101   0.0000      -0.041128        -1.1192
 102   0.0000      -0.030185        -0.8214
 103   0.0000      -0.009714        -0.2643
 104   0.0000       0.014962         0.4071
 105   0.0000       0.020571         0.5598

MULLIKEN ATOMIC CHARGES
-----------------------
   0 C :   -0.445182
   1 C :   -0.157282
   2 O :   -0.299340
   3 P :    0.648308
   4 S :   -0.462468
   5 O :   -0.256506
   6 C :   -0.162670
   7 C :   -0.448065
   8 S :   -0.128136
   9 C :   -0.228657
  10 S :   -0.153769
  11 P :    0.652380
  12 S :   -0.416030
  13 O :   -0.258223
  14 C :   -0.106648
  15 C :   -0.455945
  16 O :   -0.299227
  17 C :   -0.161894
  18 C :   -0.459506
  19 H :    0.153415
  20 H :    0.173886
  21 H :    0.146314
  22 H :    0.172808
  23 H :    0.146868
  24 H :    0.181913
  25 H :    0.157129
  26 H :    0.154662
  27 H :    0.164159
  28 H :    0.145821
  29 H :    0.197124
  30 H :    0.218602
  31 H :    0.154385
  32 H :    0.156408
  33 H :    0.169409
  34 H :    0.154606
  35 H :    0.142692
  36 H :    0.147110
  37 H :    0.175066
  38 H :    0.183696
  39 H :    0.153875
  40 H :    0.148914
Sum of atomic charges:   -0.0000000

LOEWDIN ATOMIC CHARGES
----------------------
   0 C :   -0.408354
   1 C :    0.017591
   2 O :   -0.668138
   3 P :    0.372808
   4 S :   -0.126424
   5 O :   -0.667119
   6 C :    0.012043
   7 C :   -0.400500
   8 S :    0.170119
   9 C :   -0.413903
  10 S :    0.126885
  11 P :    0.377816
  12 S :   -0.071558
  13 O :   -0.653936
  14 C :    0.021971
  15 C :   -0.390987
  16 O :   -0.665915
  17 C :    0.021732
  18 C :   -0.409187
  19 H :    0.159860
  20 H :    0.164271
  21 H :    0.158033
  22 H :    0.179727
  23 H :    0.178596
  24 H :    0.184481
  25 H :    0.183074
  26 H :    0.160285
  27 H :    0.163551
  28 H :    0.158464
  29 H :    0.180350
  30 H :    0.202582
  31 H :    0.174500
  32 H :    0.175889
  33 H :    0.165870
  34 H :    0.161632
  35 H :    0.157618
  36 H :    0.179306
  37 H :    0.180587
  38 H :    0.167268
  39 H :    0.159313
  40 H :    0.159796

  Mayer bond orders larger than 0.100000
B(  0-C ,  1-C ) :   0.9214 B(  0-C , 19-H ) :   0.9678 B(  0-C , 20-H ) :   0.9658
B(  0-C , 21-H ) :   0.9595 B(  1-C ,  2-O ) :   0.8224 B(  1-C , 22-H ) :   0.9672
B(  1-C , 23-H ) :   0.9593 B(  2-O ,  3-P ) :   1.0518 B(  3-P ,  4-S ) :   1.7571
B(  3-P ,  5-O ) :   1.1560 B(  3-P ,  8-S ) :   1.1286 B(  5-O ,  6-C ) :   0.8004
B(  6-C ,  7-C ) :   0.9076 B(  6-C , 24-H ) :   0.9615 B(  6-C , 25-H ) :   0.9644
B(  7-C , 26-H ) :   0.9740 B(  7-C , 27-H ) :   0.9632 B(  7-C , 28-H ) :   0.9616
B(  8-S ,  9-C ) :   0.8879 B(  9-C , 10-S ) :   0.9122 B(  9-C , 29-H ) :   0.9133
B(  9-C , 30-H ) :   0.9062 B( 10-S , 11-P ) :   1.0150 B( 11-P , 12-S ) :   1.8363
B( 11-P , 13-O ) :   1.1311 B( 11-P , 16-O ) :   1.0421 B( 13-O , 14-C ) :   0.7477
B( 14-C , 15-C ) :   0.9575 B( 14-C , 31-H ) :   0.9451 B( 14-C , 32-H ) :   0.9528
B( 15-C , 33-H ) :   0.9642 B( 15-C , 34-H ) :   0.9704 B( 15-C , 35-H ) :   0.9652
B( 16-O , 17-C ) :   0.8252 B( 17-C , 18-C ) :   0.9140 B( 17-C , 36-H ) :   0.9607
B( 17-C , 37-H ) :   0.9693 B( 18-C , 38-H ) :   0.9627 B( 18-C , 39-H ) :   0.9680
B( 18-C , 40-H ) :   0.9569

Dispersion correction           -0.022441491
FINAL SINGLE POINT ENERGY     -2932.459663632977

DIPOLE MOMENT
-------------

Method             : SCF
Type of density    : Electron Density
Multiplicity       :   1
Irrep              :   0
Energy             : -2932.4838581347512445 Eh
Relativity type    :
Basis              : AO
                                X                 Y                 Z
Electronic contribution:     -3.702195934      -1.179860168      -7.829615514
Nuclear contribution   :      3.415254700       0.459203471       8.881762032
                        -----------------------------------------
Total Dipole Moment    :     -0.286941234      -0.720656697       1.052146518
                        -----------------------------------------
Magnitude (a.u.)       :      1.307170090
Magnitude (Debye)      :      3.322562319

Rotational constants in cm-1:             0.012594             0.005360             0.005264
Rotational constants in MHz :           377.567852           160.684117           157.803167

                             ****ORCA TERMINATED NORMALLY****
TOTAL RUN TIME: 0 days 0 hours 1 minutes 23 seconds 316 msec
