                         Program Version 6.0.0  -   RELEASE  -
|  1> ! r2scan-3c def2/J RI DEFGRID2 scfconv6 printgap
|  2> %output
|  3>     printlevel normal
|  4> end
|  5> %cpcm
|  6>     smd true
|  7>     smdsolvent "water"
|  8> end
|  9> * xyz 0 1
| 10> C 4.5611826093 -1.574509372 -0.5531933016
| 11> C 4.5769484094 -0.1026530705 -0.1937658797
| 12> O 3.3924679852 0.2993143461 0.5146098587
| 13> P 1.9573537271 0.352836717 -0.1710634954
| 14> S 1.9744203497 0.9580146976 -2.0401486915
| 15> O 1.152558189 1.2233145701 0.8787887356
| 16> C 1.1009368071 2.6601668519 0.8195721286
| 17> C 2.446233644 3.2929948508 1.1035061156
| 18> S 1.1784624899 -1.5573216345 0.2298297923
| 19> C -0.0056877058 -1.742437647 -1.1477965519
| 20> S -1.7028529843 -1.9982261339 -0.5865387761
| 21> P -2.0844965003 -0.025494315 0.1056112184
| 22> S -1.5264875388 1.4259166395 -1.0815776574
| 23> O -1.4203950473 0.0673619355 1.5320449932
| 24> C -1.7621529114 -0.8425928559 2.6125034113
| 25> C -0.5814351605 -0.9139304356 3.5576860691
| 26> O -3.6310364082 -0.0538820433 0.4742457001
| 27> C -4.6725708546 0.2232964411 -0.4797359609
| 28> C -4.7527245287 -0.8255365212 -1.5695660457
| 29> H 4.3546582648 -2.1770129289 0.3276578095
| 30> H 3.7918581468 -1.7662455984 -1.2998499895
| 31> H 5.5263648496 -1.8525037999 -0.9642073565
| 32> H 4.663274894 0.5104299233 -1.0967668394
| 33> H 5.3869083269 0.1350052583 0.4971561355
| 34> H 0.7296425889 2.9531246165 -0.1687502608
| 35> H 0.3565596458 2.9225606273 1.5733659331
| 36> H 2.8478404968 2.9144653406 2.0398498607
| 37> H 3.1428166344 3.06041886 0.2990085804
| 38> H 2.3273697976 4.3702223824 1.1661629584
| 39> H 0.2633021523 -2.6364421844 -1.7041360517
| 40> H 0.0497732673 -0.8519576424 -1.7801144679
| 41> H -2.6513370728 -0.4429244902 3.1031889279
| 42> H -1.9931681318 -1.8232037947 2.185873715
| 43> H 0.288861951 -1.3143777899 3.043588023
| 44> H -0.3400592883 0.0780389764 3.928868867
| 45> H -0.8342572818 -1.56052446 4.391718839
| 46> H -5.5781276674 0.2431006886 0.1283311932
| 47> H -4.4905283721 1.2129050612 -0.9098859433
| 48> H -3.8732754404 -0.7682218643 -2.2089860123
| 49> H -4.8070877332 -1.820508672 -1.1351378717
| 50> H -5.6365145513 -0.6455241794 -2.1731718125
| 51> *
| 52>
| 53>                          ****END OF INPUT****

CARTESIAN COORDINATES (ANGSTROEM)
---------------------------------
  C      4.561183   -1.574509   -0.553193
  C      4.576948   -0.102653   -0.193766
  O      3.392468    0.299314    0.514610
  P      1.957354    0.352837   -0.171063
  S      1.974420    0.958015   -2.040149
  O      1.152558    1.223315    0.878789
  C      1.100937    2.660167    0.819572
  C      2.446234    3.292995    1.103506
  S      1.178462   -1.557322    0.229830
  C     -0.005688   -1.742438   -1.147797
  S     -1.702853   -1.998226   -0.586539
  P     -2.084497   -0.025494    0.105611
  S     -1.526488    1.425917   -1.081578
  O     -1.420395    0.067362    1.532045
  C     -1.762153   -0.842593    2.612503
  C     -0.581435   -0.913930    3.557686
  O     -3.631036   -0.053882    0.474246
  C     -4.672571    0.223296   -0.479736
  C     -4.752725   -0.825537   -1.569566
  H      4.354658   -2.177013    0.327658
  H      3.791858   -1.766246   -1.299850
  H      5.526365   -1.852504   -0.964207
  H      4.663275    0.510430   -1.096767
  H      5.386908    0.135005    0.497156
  H      0.729643    2.953125   -0.168750
  H      0.356560    2.922561    1.573366
  H      2.847840    2.914465    2.039850
  H      3.142817    3.060419    0.299009
  H      2.327370    4.370222    1.166163
  H      0.263302   -2.636442   -1.704136
  H      0.049773   -0.851958   -1.780114
  H     -2.651337   -0.442924    3.103189
  H     -1.993168   -1.823204    2.185874
  H      0.288862   -1.314378    3.043588
  H     -0.340059    0.078039    3.928869
  H     -0.834257   -1.560524    4.391719
  H     -5.578128    0.243101    0.128331
  H     -4.490528    1.212905   -0.909886
  H     -3.873275   -0.768222   -2.208986
  H     -4.807088   -1.820509   -1.135138
  H     -5.636515   -0.645524   -2.173172

 Total Charge           Charge          ....    0
 Multiplicity           Mult            ....    1
 Number of Electrons    NEL             ....  202
 Basis Dimension        Dim             ....  539

ORBITAL ENERGIES
----------------

  NO   OCC          E(Eh)            E(eV)
   0   2.0000     -88.578146     -2410.3339
   1   2.0000     -88.576027     -2410.2762
   2   2.0000     -88.525132     -2408.8913
   3   2.0000     -88.524667     -2408.8787
   4   2.0000     -76.917115     -2093.0211
   5   2.0000     -76.916585     -2093.0067
   6   2.0000     -18.994438      -516.8649
   7   2.0000     -18.992071      -516.8005
   8   2.0000     -18.991588      -516.7874
   9   2.0000     -18.988317      -516.6984
  10   2.0000     -10.104653      -274.9616
  11   2.0000     -10.090657      -274.5807
  12   2.0000     -10.090031      -274.5637
  13   2.0000     -10.087916      -274.5062
  14   2.0000     -10.085743      -274.4470
  15   2.0000     -10.018705      -272.6228
  16   2.0000     -10.018504      -272.6173
  17   2.0000     -10.017249      -272.5832
  18   2.0000     -10.017175      -272.5812
  19   2.0000      -7.872639      -214.2254
  20   2.0000      -7.870788      -214.1750
  21   2.0000      -7.820120      -212.7963
  22   2.0000      -7.819777      -212.7869
  23   2.0000      -6.595635      -179.4763
  24   2.0000      -6.595084      -179.4614
  25   2.0000      -5.819533      -158.3576
  26   2.0000      -5.817625      -158.3056
  27   2.0000      -5.816298      -158.2695
  28   2.0000      -5.814701      -158.2261
  29   2.0000      -5.809888      -158.0951
  30   2.0000      -5.807789      -158.0380
  31   2.0000      -5.767705      -156.9472
  32   2.0000      -5.767443      -156.9401
  33   2.0000      -5.760615      -156.7543
  34   2.0000      -5.759957      -156.7364
  35   2.0000      -5.759935      -156.7358
  36   2.0000      -5.759801      -156.7322
  37   2.0000      -4.741480      -129.0222
  38   2.0000      -4.740537      -128.9966
  39   2.0000      -4.740360      -128.9918
  40   2.0000      -4.739887      -128.9789
  41   2.0000      -4.739180      -128.9596
  42   2.0000      -4.739120      -128.9580
  43   2.0000      -1.052441       -28.6384
  44   2.0000      -1.049481       -28.5578
  45   2.0000      -1.010587       -27.4995
  46   2.0000      -1.008898       -27.4535
  47   2.0000      -0.800562       -21.7844
  48   2.0000      -0.755227       -20.5508
  49   2.0000      -0.743725       -20.2378
  50   2.0000      -0.724845       -19.7240
  51   2.0000      -0.722047       -19.6479
  52   2.0000      -0.710463       -19.3327
  53   2.0000      -0.688997       -18.7486
  54   2.0000      -0.669940       -18.2300
  55   2.0000      -0.632645       -17.2151
  56   2.0000      -0.617570       -16.8049
  57   2.0000      -0.598306       -16.2807
  58   2.0000      -0.597245       -16.2519
  59   2.0000      -0.588921       -16.0254
  60   2.0000      -0.525596       -14.3022
  61   2.0000      -0.512371       -13.9423
  62   2.0000      -0.490182       -13.3385
  63   2.0000      -0.486075       -13.2268
  64   2.0000      -0.470117       -12.7925
  65   2.0000      -0.465487       -12.6665
  66   2.0000      -0.451710       -12.2917
  67   2.0000      -0.449800       -12.2397
  68   2.0000      -0.444649       -12.0995
  69   2.0000      -0.431110       -11.7311
  70   2.0000      -0.425594       -11.5810
  71   2.0000      -0.406019       -11.0484
  72   2.0000      -0.404145       -10.9973
  73   2.0000      -0.401907       -10.9364
  74   2.0000      -0.394475       -10.7342
  75   2.0000      -0.390125       -10.6159
  76   2.0000      -0.376863       -10.2550
  77   2.0000      -0.366586        -9.9753
  78   2.0000      -0.363490        -9.8911
  79   2.0000      -0.357468        -9.7272
  80   2.0000      -0.355140        -9.6639
  81   2.0000      -0.352178        -9.5833
  82   2.0000      -0.348213        -9.4754
  83   2.0000      -0.345895        -9.4123
  84   2.0000      -0.344356        -9.3704
  85   2.0000      -0.324391        -8.8271
  86   2.0000      -0.319514        -8.6944
  87   2.0000      -0.315250        -8.5784
  88   2.0000      -0.304918        -8.2972
  89   2.0000      -0.302958        -8.2439
  90   2.0000      -0.294719        -8.0197
  91   2.0000      -0.284718        -7.7476
  92   2.0000      -0.281844        -7.6694
  93   2.0000      -0.277991        -7.5645
  94   2.0000      -0.274022        -7.4565
  95   2.0000      -0.251245        -6.8367
  96   2.0000      -0.239158        -6.5078
  97   2.0000      -0.236543        -6.4366
  98   2.0000      -0.226601        -6.1661
  99   2.0000      -0.214190        -5.8284
 100   2.0000      -0.210241        -5.7210
 101   0.0000      -0.045707        -1.2438
 102   0.0000      -0.036317        -0.9882
 103   0.0000      -0.013395        -0.3645
 104   0.0000       0.009442         0.2569
 105   0.0000       0.015060         0.4098

MULLIKEN ATOMIC CHARGES
-----------------------
   0 C :   -0.479687
   1 C :   -0.157187
   2 O :   -0.326692
   3 P :    0.686696
   4 S :   -0.518798
   5 O :   -0.285936
   6 C :   -0.161111
   7 C :   -0.491905
   8 S :   -0.124584
   9 C :   -0.228521
  10 S :   -0.151644
  11 P :    0.665087
  12 S :   -0.468065
  13 O :   -0.289146
  14 C :   -0.094214
  15 C :   -0.508663
  16 O :   -0.321704
  17 C :   -0.156974
  18 C :   -0.493820
  19 H :    0.165946
  20 H :    0.172052
  21 H :    0.171062
  22 H :    0.176770
  23 H :    0.173692
  24 H :    0.181078
  25 H :    0.178168
  26 H :    0.169341
  27 H :    0.168164
  28 H :    0.170741
  29 H :    0.238620
  30 H :    0.211355
  31 H :    0.175689
  32 H :    0.170968
  33 H :    0.170417
  34 H :    0.169748
  35 H :    0.170018
  36 H :    0.174869
  37 H :    0.178752
  38 H :    0.176231
  39 H :    0.169699
  40 H :    0.173484
Sum of atomic charges:    0.0000000

LOEWDIN ATOMIC CHARGES
----------------------
   0 C :   -0.410891
   1 C :    0.023090
   2 O :   -0.680311
   3 P :    0.377857
   4 S :   -0.160877
   5 O :   -0.686719
   6 C :    0.012502
   7 C :   -0.402871
   8 S :    0.175402
   9 C :   -0.407994
  10 S :    0.136062
  11 P :    0.379853
  12 S :   -0.108901
  13 O :   -0.675378
  14 C :    0.028187
  15 C :   -0.395682
  16 O :   -0.674247
  17 C :    0.026835
  18 C :   -0.411633
  19 H :    0.163106
  20 H :    0.161166
  21 H :    0.167108
  22 H :    0.181023
  23 H :    0.189951
  24 H :    0.183256
  25 H :    0.190225
  26 H :    0.164170
  27 H :    0.162878
  28 H :    0.167951
  29 H :    0.196961
  30 H :    0.199506
  31 H :    0.183851
  32 H :    0.181598
  33 H :    0.163123
  34 H :    0.164142
  35 H :    0.168742
  36 H :    0.191116
  37 H :    0.181313
  38 H :    0.162094
  39 H :    0.163682
  40 H :    0.168756

  Mayer bond orders larger than 0.100000
B(  0-C ,  1-C ) :   0.9101 B(  0-C , 19-H ) :   0.9653 B(  0-C , 20-H ) :   0.9660
B(  0-C , 21-H ) :   0.9544 B(  1-C ,  2-O ) :   0.8095 B(  1-C , 22-H ) :   0.9654
B(  1-C , 23-H ) :   0.9495 B(  2-O ,  3-P ) :   1.0612 B(  3-P ,  4-S ) :   1.7018
B(  3-P ,  5-O ) :   1.1549 B(  3-P ,  8-S ) :   1.1543 B(  5-O ,  6-C ) :   0.7852
B(  6-C ,  7-C ) :   0.9052 B(  6-C , 24-H ) :   0.9582 B(  6-C , 25-H ) :   0.9529
B(  7-C , 26-H ) :   0.9721 B(  7-C , 27-H ) :   0.9620 B(  7-C , 28-H ) :   0.9549
B(  8-S ,  9-C ) :   0.8807 B(  9-C , 10-S ) :   0.9058 B(  9-C , 29-H ) :   0.8970
B(  9-C , 30-H ) :   0.9108 B( 10-S , 11-P ) :   1.0334 B( 11-P , 12-S ) :   1.8104
B( 11-P , 13-O ) :   1.1329 B( 11-P , 16-O ) :   1.0510 B( 13-O , 14-C ) :   0.7404
B( 14-C , 15-C ) :   0.9401 B( 14-C , 31-H ) :   0.9350 B( 14-C , 32-H ) :   0.9461
B( 15-C , 33-H ) :   0.9661 B( 15-C , 34-H ) :   0.9688 B( 15-C , 35-H ) :   0.9582
B( 16-O , 17-C ) :   0.8138 B( 17-C , 18-C ) :   0.9023 B( 17-C , 36-H ) :   0.9504
B( 17-C , 37-H ) :   0.9676 B( 18-C , 38-H ) :   0.9648 B( 18-C , 39-H ) :   0.9647
B( 18-C , 40-H ) :   0.9516

Dispersion correction           -0.022441491
FINAL SINGLE POINT ENERGY     -2932.468427065647

DIPOLE MOMENT
-------------

Method             : SCF
Type of density    : Electron Density
Multiplicity       :   1
Irrep              :   0
Energy             : -2932.4926215674204286 Eh
Relativity type    :
Basis              : AO
                                X                 Y                 Z
Electronic contribution:     -3.812006160      -1.687037162      -7.512907613
Nuclear contribution   :      3.415254700       0.459203471       8.881762032
                        -----------------------------------------
Total Dipole Moment    :     -0.396751460      -1.227833691       1.368854420
                        -----------------------------------------
Magnitude (a.u.)       :      1.881156483
Magnitude (Debye)      :      4.781519787

Rotational constants in cm-1:             0.012594             0.005360             0.005264
Rotational constants in MHz :           377.567852           160.684117           157.803167

                             ****ORCA TERMINATED NORMALLY****
TOTAL RUN TIME: 0 days 0 hours 1 minutes 50 seconds 666 msec
