                         Program Version 6.0.0  -   RELEASE  -
|  1> ! pbe def2-sv(p) def2/J RI DEFGRID1 loosescf d4 GCP(DFT/SV(P)) printgap
|  2> %output
|  3>     printlevel normal
|  4> end
|  5> * xyz 0 1
|  6> C 2.9865433568 0.7062274996 -2.3502424624
|  7> C 2.1101140875 -0.5272271595 -2.3076181035
|  8> O 1.2752347607 -0.5696054679 -1.1309295138
|  9> P 1.8003214791 -0.5125367462 0.3567371833
| 10> S 2.4303593754 1.1721369205 1.1536027961
| 11> O 2.904449842 -1.6572941035 0.3280989603
| 12> C 3.7977835955 -1.8936444455 1.4337297562
| 13> C 5.0645454084 -2.5246981164 0.8914523049
| 14> S 0.2035867658 -1.4083382041 1.3963951705
| 15> C -0.6067925411 0.0593476246 2.1101443488
| 16> S -2.3065224292 0.2618485343 1.5420546028
| 17> P -1.8946048287 0.7743605286 -0.4836928386
| 18> S -0.467275736 2.0791706357 -0.7800313497
| 19> O -3.3408181311 1.1254654674 -1.0428708362
| 20> C -4.2878768257 2.0139713945 -0.4193940468
| 21> C -3.7121752591 3.3860506276 -0.139844007
| 22> O -1.587904713 -0.5623689152 -1.2585096726
| 23> C -2.4954323525 -1.6969235967 -1.2658043978
| 24> C -1.6859633708 -2.9427199827 -1.5589199918
| 25> H 2.3758748574 1.6018889488 -2.2458131496
| 26> H 3.7062624407 0.6854673016 -1.5324467154
| 27> H 3.5199983878 0.741956333 -3.294795397
| 28> H 2.7099481986 -1.4398791418 -2.3303011336
| 29> H 1.3876088862 -0.5295133348 -3.1259676434
| 30> H 4.0036018646 -0.9369642432 1.9260684735
| 31> H 3.2902298263 -2.5582405475 2.1370123397
| 32> H 4.8259997164 -3.4472308279 0.370144755
| 33> H 5.5578168447 -1.84571064 0.2013071103
| 34> H 5.7337096842 -2.7409055839 1.7176408917
| 35> H -0.0144074168 0.9427210756 1.8528725191
| 36> H -0.6630420929 -0.0751927688 3.1872636091
| 37> H -5.1042194572 2.0634345875 -1.1421058768
| 38> H -4.6353050394 1.5445774135 0.5049333376
| 39> H -3.3106074203 3.822972576 -1.0512222264
| 40> H -4.4904595335 4.0301059159 0.2564460013
| 41> H -2.905343828 3.3147140478 0.5884212793
| 42> H -2.9858421779 -1.7615357659 -0.2897616856
| 43> H -3.2446977435 -1.5097269628 -2.0370314164
| 44> H -2.3527518963 -3.7981373759 -1.5940070851
| 45> H -1.1770443037 -2.8412712738 -2.5131663411
| 46> H -0.9427809541 -3.0988990904 -0.7808098162
| 47> *
| 48>
| 49>                          ****END OF INPUT****

CARTESIAN COORDINATES (ANGSTROEM)
---------------------------------
  C      2.986543    0.706227   -2.350242
  C      2.110114   -0.527227   -2.307618
  O      1.275235   -0.569605   -1.130930
  P      1.800321   -0.512537    0.356737
  S      2.430359    1.172137    1.153603
  O      2.904450   -1.657294    0.328099
  C      3.797784   -1.893644    1.433730
  C      5.064545   -2.524698    0.891452
  S      0.203587   -1.408338    1.396395
  C     -0.606793    0.059348    2.110144
  S     -2.306522    0.261849    1.542055
  P     -1.894605    0.774361   -0.483693
  S     -0.467276    2.079171   -0.780031
  O     -3.340818    1.125465   -1.042871
  C     -4.287877    2.013971   -0.419394
  C     -3.712175    3.386051   -0.139844
  O     -1.587905   -0.562369   -1.258510
  C     -2.495432   -1.696924   -1.265804
  C     -1.685963   -2.942720   -1.558920
  H      2.375875    1.601889   -2.245813
  H      3.706262    0.685467   -1.532447
  H      3.519998    0.741956   -3.294795
  H      2.709948   -1.439879   -2.330301
  H      1.387609   -0.529513   -3.125968
  H      4.003602   -0.936964    1.926068
  H      3.290230   -2.558241    2.137012
  H      4.826000   -3.447231    0.370145
  H      5.557817   -1.845711    0.201307
  H      5.733710   -2.740906    1.717641
  H     -0.014407    0.942721    1.852873
  H     -0.663042   -0.075193    3.187264
  H     -5.104219    2.063435   -1.142106
  H     -4.635305    1.544577    0.504933
  H     -3.310607    3.822973   -1.051222
  H     -4.490460    4.030106    0.256446
  H     -2.905344    3.314714    0.588421
  H     -2.985842   -1.761536   -0.289762
  H     -3.244698   -1.509727   -2.037031
  H     -2.352752   -3.798137   -1.594007
  H     -1.177044   -2.841271   -2.513166
  H     -0.942781   -3.098899   -0.780810

 Total Charge           Charge          ....    0
 Multiplicity           Mult            ....    1
 Number of Electrons    NEL             ....  202
 Basis Dimension        Dim             ....  334

ORBITAL ENERGIES
----------------

  NO   OCC          E(Eh)            E(eV)
   0   2.0000     -88.043230     -2395.7781
   1   2.0000     -88.039108     -2395.6659
   2   2.0000     -87.978292     -2394.0110
   3   2.0000     -87.974522     -2393.9084
   4   2.0000     -76.421132     -2079.5247
   5   2.0000     -76.420169     -2079.4985
   6   2.0000     -18.791206      -511.3347
   7   2.0000     -18.790518      -511.3160
   8   2.0000     -18.783398      -511.1222
   9   2.0000     -18.779620      -511.0195
  10   2.0000      -9.956940      -270.9421
  11   2.0000      -9.953059      -270.8365
  12   2.0000      -9.948956      -270.7249
  13   2.0000      -9.948934      -270.7243
  14   2.0000      -9.946684      -270.6630
  15   2.0000      -9.887378      -269.0492
  16   2.0000      -9.881646      -268.8932
  17   2.0000      -9.880311      -268.8569
  18   2.0000      -9.873233      -268.6643
  19   2.0000      -7.688242      -209.2077
  20   2.0000      -7.684334      -209.1014
  21   2.0000      -7.623260      -207.4395
  22   2.0000      -7.619627      -207.3406
  23   2.0000      -6.418368      -174.6527
  24   2.0000      -6.417333      -174.6245
  25   2.0000      -5.715970      -155.5395
  26   2.0000      -5.712493      -155.4448
  27   2.0000      -5.712172      -155.4361
  28   2.0000      -5.708818      -155.3448
  29   2.0000      -5.705642      -155.2584
  30   2.0000      -5.701294      -155.1401
  31   2.0000      -5.652169      -153.8034
  32   2.0000      -5.648691      -153.7087
  33   2.0000      -5.644048      -153.5823
  34   2.0000      -5.643253      -153.5607
  35   2.0000      -5.640175      -153.4770
  36   2.0000      -5.639671      -153.4633
  37   2.0000      -4.641199      -126.2934
  38   2.0000      -4.640157      -126.2651
  39   2.0000      -4.639943      -126.2593
  40   2.0000      -4.639494      -126.2470
  41   2.0000      -4.638798      -126.2281
  42   2.0000      -4.637238      -126.1857
  43   2.0000      -0.983751       -26.7692
  44   2.0000      -0.982199       -26.7270
  45   2.0000      -0.939219       -25.5574
  46   2.0000      -0.937077       -25.4992
  47   2.0000      -0.761038       -20.7089
  48   2.0000      -0.718483       -19.5509
  49   2.0000      -0.708241       -19.2722
  50   2.0000      -0.686683       -18.6856
  51   2.0000      -0.685154       -18.6440
  52   2.0000      -0.671481       -18.2719
  53   2.0000      -0.646097       -17.5812
  54   2.0000      -0.629675       -17.1343
  55   2.0000      -0.590375       -16.0649
  56   2.0000      -0.583756       -15.8848
  57   2.0000      -0.568369       -15.4661
  58   2.0000      -0.566196       -15.4070
  59   2.0000      -0.562784       -15.3141
  60   2.0000      -0.504662       -13.7325
  61   2.0000      -0.498933       -13.5767
  62   2.0000      -0.470860       -12.8127
  63   2.0000      -0.466697       -12.6995
  64   2.0000      -0.450591       -12.2612
  65   2.0000      -0.446376       -12.1465
  66   2.0000      -0.435165       -11.8414
  67   2.0000      -0.430647       -11.7185
  68   2.0000      -0.428321       -11.6552
  69   2.0000      -0.412582       -11.2269
  70   2.0000      -0.405732       -11.0405
  71   2.0000      -0.403897       -10.9906
  72   2.0000      -0.393867       -10.7177
  73   2.0000      -0.383562       -10.4372
  74   2.0000      -0.379483       -10.3263
  75   2.0000      -0.365465        -9.9448
  76   2.0000      -0.356219        -9.6932
  77   2.0000      -0.352126        -9.5818
  78   2.0000      -0.347067        -9.4442
  79   2.0000      -0.344631        -9.3779
  80   2.0000      -0.341768        -9.3000
  81   2.0000      -0.337530        -9.1847
  82   2.0000      -0.335891        -9.1401
  83   2.0000      -0.333659        -9.0793
  84   2.0000      -0.329495        -8.9660
  85   2.0000      -0.316862        -8.6223
  86   2.0000      -0.311326        -8.4716
  87   2.0000      -0.297006        -8.0819
  88   2.0000      -0.293921        -7.9980
  89   2.0000      -0.292966        -7.9720
  90   2.0000      -0.276126        -7.5138
  91   2.0000      -0.270617        -7.3639
  92   2.0000      -0.268241        -7.2992
  93   2.0000      -0.259288        -7.0556
  94   2.0000      -0.254065        -6.9135
  95   2.0000      -0.236423        -6.4334
  96   2.0000      -0.220767        -6.0074
  97   2.0000      -0.209385        -5.6977
  98   2.0000      -0.194187        -5.2841
  99   2.0000      -0.186917        -5.0863
 100   2.0000      -0.178585        -4.8596
 101   0.0000      -0.037710        -1.0261
 102   0.0000      -0.028987        -0.7888
 103   0.0000      -0.008825        -0.2401
 104   0.0000       0.013953         0.3797
 105   0.0000       0.021018         0.5719

MULLIKEN ATOMIC CHARGES
-----------------------
   0 C :   -0.322357
   1 C :    0.007624
   2 O :   -0.348115
   3 P :    0.629783
   4 S :   -0.314436
   5 O :   -0.389565
   6 C :   -0.006132
   7 C :   -0.284799
   8 S :   -0.105189
   9 C :   -0.349024
  10 S :   -0.122272
  11 P :    0.585160
  12 S :   -0.285267
  13 O :   -0.383860
  14 C :   -0.012462
  15 C :   -0.307369
  16 O :   -0.344894
  17 C :   -0.008601
  18 C :   -0.280511
  19 H :    0.137908
  20 H :    0.121809
  21 H :    0.105528
  22 H :    0.102247
  23 H :    0.106877
  24 H :    0.105293
  25 H :    0.098818
  26 H :    0.114718
  27 H :    0.117839
  28 H :    0.112075
  29 H :    0.210112
  30 H :    0.180983
  31 H :    0.107900
  32 H :    0.112113
  33 H :    0.126499
  34 H :    0.109391
  35 H :    0.127666
  36 H :    0.096454
  37 H :    0.104420
  38 H :    0.104439
  39 H :    0.114453
  40 H :    0.124743
Sum of atomic charges:   -0.0000000

LOEWDIN ATOMIC CHARGES
----------------------
   0 C :   -0.369592
   1 C :   -0.107320
   2 O :   -0.226778
   3 P :    0.570458
   4 S :   -0.303965
   5 O :   -0.252450
   6 C :   -0.122669
   7 C :   -0.351520
   8 S :    0.076252
   9 C :   -0.479354
  10 S :    0.061721
  11 P :    0.559023
  12 S :   -0.291060
  13 O :   -0.250181
  14 C :   -0.114834
  15 C :   -0.369289
  16 O :   -0.229552
  17 C :   -0.117197
  18 C :   -0.352779
  19 H :    0.132584
  20 H :    0.118561
  21 H :    0.126934
  22 H :    0.109377
  23 H :    0.120929
  24 H :    0.106029
  25 H :    0.110197
  26 H :    0.125481
  27 H :    0.126858
  28 H :    0.130913
  29 H :    0.126729
  30 H :    0.136883
  31 H :    0.120630
  32 H :    0.107023
  33 H :    0.130538
  34 H :    0.129070
  35 H :    0.122336
  36 H :    0.100759
  37 H :    0.113499
  38 H :    0.127155
  39 H :    0.126194
  40 H :    0.122406

  Mayer bond orders larger than 0.100000
B(  0-C ,  1-C ) :   1.1675 B(  0-C , 19-H ) :   0.9402 B(  0-C , 20-H ) :   0.9345
B(  0-C , 21-H ) :   0.9356 B(  1-C ,  2-O ) :   0.9048 B(  1-C , 22-H ) :   0.9318
B(  1-C , 23-H ) :   0.9315 B(  2-O ,  3-P ) :   1.1504 B(  3-P ,  4-S ) :   1.6101
B(  3-P ,  5-O ) :   1.0780 B(  3-P ,  8-S ) :   0.9577 B(  4-S ,  8-S ) :   0.1205
B(  5-O ,  6-C ) :   0.9063 B(  6-C ,  7-C ) :   1.1594 B(  6-C , 24-H ) :   0.9019
B(  6-C , 25-H ) :   0.9308 B(  7-C , 26-H ) :   0.9508 B(  7-C , 27-H ) :   0.9514
B(  7-C , 28-H ) :   0.9422 B(  8-S ,  9-C ) :   0.9969 B(  9-C , 10-S ) :   1.0018
B(  9-C , 29-H ) :   0.8435 B(  9-C , 30-H ) :   0.9116 B( 10-S , 11-P ) :   0.9312
B( 10-S , 12-S ) :   0.1066 B( 11-P , 12-S ) :   1.6728 B( 11-P , 13-O ) :   1.0757
B( 11-P , 16-O ) :   1.1383 B( 13-O , 14-C ) :   0.9177 B( 14-C , 15-C ) :   1.1664
B( 14-C , 31-H ) :   0.9337 B( 14-C , 32-H ) :   0.9264 B( 15-C , 33-H ) :   0.9430
B( 15-C , 34-H ) :   0.9348 B( 15-C , 35-H ) :   0.9320 B( 16-O , 17-C ) :   0.8903
B( 17-C , 18-C ) :   1.1653 B( 17-C , 36-H ) :   0.9094 B( 17-C , 37-H ) :   0.9321
B( 18-C , 38-H ) :   0.9409 B( 18-C , 39-H ) :   0.9494 B( 18-C , 40-H ) :   0.9429

Dispersion correction           -0.067332936
FINAL SINGLE POINT ENERGY     -2929.514470473584

DIPOLE MOMENT
-------------

Method             : SCF
Type of density    : Electron Density
Multiplicity       :   1
Irrep              :   0
Energy             : -2929.6323405866774010 Eh
Relativity type    :
Basis              : AO
                                X                 Y                 Z
Electronic contribution:     -5.649317304       6.410896193       8.521189364
Nuclear contribution   :      5.035012175      -7.670433395      -8.655200488
                        -----------------------------------------
Total Dipole Moment    :     -0.614305130      -1.259537202      -0.134011124
                        -----------------------------------------
Magnitude (a.u.)       :      1.407751305
Magnitude (Debye)      :      3.578219451

Rotational constants in cm-1:             0.013076             0.005214             0.005073
Rotational constants in MHz :           392.011066           156.321440           152.086821

                             ****ORCA TERMINATED NORMALLY****
TOTAL RUN TIME: 0 days 0 hours 0 minutes 21 seconds 538 msec
