                         Program Version 6.0.0  -   RELEASE  -
|  1> ! pbe def2-sv(p) def2/J RI DEFGRID1 loosescf d4 GCP(DFT/SV(P)) printgap
|  2> %output
|  3>     printlevel normal
|  4> end
|  5> * xyz 0 1
|  6> C 3.6543878315 2.4789963799 1.7672107157
|  7> C 2.2242919833 1.9818156599 1.7817410082
|  8> O 1.9115477504 1.2759385117 0.5673453314
|  9> P 2.4672131604 -0.1769766731 0.2666213153
| 10> S 2.8354465285 -1.243558332 1.8768106534
| 11> O 3.6886759961 0.1646854913 -0.6878417972
| 12> C 4.2828105815 -0.7299264523 -1.6461603212
| 13> C 4.6609739973 -2.0691498331 -1.0478953154
| 14> S 0.996644856 -0.9396219792 -1.0493303787
| 15> C -0.1080864135 -1.5628800108 0.2432460504
| 16> S -0.9620667269 -0.2405440923 1.1518647794
| 17> P -2.6119739276 0.0251129486 -0.1502378371
| 18> S -2.6032794789 -0.9116756596 -1.8762323157
| 19> O -2.840021385 1.5971163845 -0.2411660267
| 20> C -2.279312542 2.4041707661 -1.2892157888
| 21> C -0.7958451844 2.6392335961 -1.0908007877
| 22> O -3.7484030108 -0.4109097234 0.8625658085
| 23> C -5.0754532159 -0.7721114906 0.4260333444
| 24> C -5.8380909544 0.4146504814 -0.1248479615
| 25> H 3.8489847728 3.0548617215 2.6663827102
| 26> H 4.3341352184 1.628027939 1.734052221
| 27> H 3.8271495274 3.0984738131 0.891456232
| 28> H 1.5062062751 2.8020233516 1.8085083644
| 29> H 2.0516301581 1.3130778824 2.6315382586
| 30> H 3.5770437747 -0.8603008212 -2.4713823494
| 31> H 5.1626404233 -0.1852811329 -1.9935943068
| 32> H 3.7670099486 -2.6052477733 -0.7314529254
| 33> H 5.1827617831 -2.6621482931 -1.7921384974
| 34> H 5.3041326099 -1.9310706639 -0.1818826168
| 35> H 0.480083348 -2.1146432443 0.9769491593
| 36> H -0.8357191232 -2.2025544971 -0.2524198576
| 37> H -2.4668100115 1.9099341624 -2.2484339828
| 38> H -2.8425055175 3.3370406937 -1.2348916334
| 39> H -0.2443884914 1.7074338346 -1.2098370689
| 40> H -0.4399875189 3.3498083455 -1.829792522
| 41> H -0.6070086701 3.0297532017 -0.094015197
| 42> H -4.9873529622 -1.5589819315 -0.3299316619
| 43> H -5.543730606 -1.1720952214 1.3263273128
| 44> H -5.3798196565 0.7529200705 -1.0530230896
| 45> H -6.8637462466 0.1205471813 -0.3248190624
| 46> H -5.8279737878 1.2320567712 0.5913323728
| 47> *
| 48>
| 49>                          ****END OF INPUT****

CARTESIAN COORDINATES (ANGSTROEM)
---------------------------------
  C      3.654388    2.478996    1.767211
  C      2.224292    1.981816    1.781741
  O      1.911548    1.275939    0.567345
  P      2.467213   -0.176977    0.266621
  S      2.835447   -1.243558    1.876811
  O      3.688676    0.164685   -0.687842
  C      4.282811   -0.729926   -1.646160
  C      4.660974   -2.069150   -1.047895
  S      0.996645   -0.939622   -1.049330
  C     -0.108086   -1.562880    0.243246
  S     -0.962067   -0.240544    1.151865
  P     -2.611974    0.025113   -0.150238
  S     -2.603279   -0.911676   -1.876232
  O     -2.840021    1.597116   -0.241166
  C     -2.279313    2.404171   -1.289216
  C     -0.795845    2.639234   -1.090801
  O     -3.748403   -0.410910    0.862566
  C     -5.075453   -0.772111    0.426033
  C     -5.838091    0.414650   -0.124848
  H      3.848985    3.054862    2.666383
  H      4.334135    1.628028    1.734052
  H      3.827150    3.098474    0.891456
  H      1.506206    2.802023    1.808508
  H      2.051630    1.313078    2.631538
  H      3.577044   -0.860301   -2.471382
  H      5.162640   -0.185281   -1.993594
  H      3.767010   -2.605248   -0.731453
  H      5.182762   -2.662148   -1.792138
  H      5.304133   -1.931071   -0.181883
  H      0.480083   -2.114643    0.976949
  H     -0.835719   -2.202554   -0.252420
  H     -2.466810    1.909934   -2.248434
  H     -2.842506    3.337041   -1.234892
  H     -0.244388    1.707434   -1.209837
  H     -0.439988    3.349808   -1.829793
  H     -0.607009    3.029753   -0.094015
  H     -4.987353   -1.558982   -0.329932
  H     -5.543731   -1.172095    1.326327
  H     -5.379820    0.752920   -1.053023
  H     -6.863746    0.120547   -0.324819
  H     -5.827974    1.232057    0.591332

 Total Charge           Charge          ....    0
 Multiplicity           Mult            ....    1
 Number of Electrons    NEL             ....  202
 Basis Dimension        Dim             ....  334

ORBITAL ENERGIES
----------------

  NO   OCC          E(Eh)            E(eV)
   0   2.0000     -88.044801     -2395.8208
   1   2.0000     -88.040233     -2395.6965
   2   2.0000     -87.993072     -2394.4132
   3   2.0000     -87.988153     -2394.2794
   4   2.0000     -76.427548     -2079.6993
   5   2.0000     -76.426723     -2079.6769
   6   2.0000     -18.794941      -511.4363
   7   2.0000     -18.792603      -511.3727
   8   2.0000     -18.789180      -511.2796
   9   2.0000     -18.788474      -511.2604
  10   2.0000      -9.959898      -271.0226
  11   2.0000      -9.953636      -270.8522
  12   2.0000      -9.951924      -270.8056
  13   2.0000      -9.949932      -270.7514
  14   2.0000      -9.948274      -270.7063
  15   2.0000      -9.884556      -268.9724
  16   2.0000      -9.884452      -268.9696
  17   2.0000      -9.881712      -268.8951
  18   2.0000      -9.877313      -268.7754
  19   2.0000      -7.689447      -209.2405
  20   2.0000      -7.685491      -209.1328
  21   2.0000      -7.637940      -207.8389
  22   2.0000      -7.633044      -207.7057
  23   2.0000      -6.424953      -174.8319
  24   2.0000      -6.424611      -174.8226
  25   2.0000      -5.717140      -155.5713
  26   2.0000      -5.714006      -155.4860
  27   2.0000      -5.713366      -155.4686
  28   2.0000      -5.710200      -155.3824
  29   2.0000      -5.706590      -155.2842
  30   2.0000      -5.702199      -155.1647
  31   2.0000      -5.666667      -154.1978
  32   2.0000      -5.661890      -154.0679
  33   2.0000      -5.658649      -153.9797
  34   2.0000      -5.658241      -153.9686
  35   2.0000      -5.653739      -153.8461
  36   2.0000      -5.653232      -153.8323
  37   2.0000      -4.647421      -126.4628
  38   2.0000      -4.646860      -126.4475
  39   2.0000      -4.646850      -126.4472
  40   2.0000      -4.646331      -126.4331
  41   2.0000      -4.645391      -126.4075
  42   2.0000      -4.645363      -126.4067
  43   2.0000      -0.987697       -26.8766
  44   2.0000      -0.986319       -26.8391
  45   2.0000      -0.946374       -25.7521
  46   2.0000      -0.945273       -25.7222
  47   2.0000      -0.763904       -20.7869
  48   2.0000      -0.721980       -19.6461
  49   2.0000      -0.708116       -19.2688
  50   2.0000      -0.687504       -18.7079
  51   2.0000      -0.685276       -18.6473
  52   2.0000      -0.674219       -18.3464
  53   2.0000      -0.652965       -17.7681
  54   2.0000      -0.640959       -17.4414
  55   2.0000      -0.603242       -16.4151
  56   2.0000      -0.596131       -16.2215
  57   2.0000      -0.574188       -15.6245
  58   2.0000      -0.570703       -15.5296
  59   2.0000      -0.559773       -15.2322
  60   2.0000      -0.497127       -13.5275
  61   2.0000      -0.491519       -13.3749
  62   2.0000      -0.473923       -12.8961
  63   2.0000      -0.470378       -12.7996
  64   2.0000      -0.460667       -12.5354
  65   2.0000      -0.445603       -12.1255
  66   2.0000      -0.437842       -11.9143
  67   2.0000      -0.436232       -11.8705
  68   2.0000      -0.430488       -11.7142
  69   2.0000      -0.417964       -11.3734
  70   2.0000      -0.406144       -11.0517
  71   2.0000      -0.394099       -10.7240
  72   2.0000      -0.392599       -10.6832
  73   2.0000      -0.390057       -10.6140
  74   2.0000      -0.385374       -10.4866
  75   2.0000      -0.376134       -10.2351
  76   2.0000      -0.371864       -10.1189
  77   2.0000      -0.353102        -9.6084
  78   2.0000      -0.349625        -9.5138
  79   2.0000      -0.348241        -9.4761
  80   2.0000      -0.347648        -9.4600
  81   2.0000      -0.345148        -9.3920
  82   2.0000      -0.342620        -9.3232
  83   2.0000      -0.339180        -9.2295
  84   2.0000      -0.333580        -9.0772
  85   2.0000      -0.319456        -8.6929
  86   2.0000      -0.311048        -8.4640
  87   2.0000      -0.299042        -8.1373
  88   2.0000      -0.293365        -7.9829
  89   2.0000      -0.286653        -7.8002
  90   2.0000      -0.284827        -7.7505
  91   2.0000      -0.275201        -7.4886
  92   2.0000      -0.273528        -7.4431
  93   2.0000      -0.266999        -7.2654
  94   2.0000      -0.258484        -7.0337
  95   2.0000      -0.231994        -6.3129
  96   2.0000      -0.218826        -5.9546
  97   2.0000      -0.213851        -5.8192
  98   2.0000      -0.208230        -5.6662
  99   2.0000      -0.203545        -5.5387
 100   2.0000      -0.202193        -5.5019
 101   0.0000      -0.044220        -1.2033
 102   0.0000      -0.029349        -0.7986
 103   0.0000      -0.007395        -0.2012
 104   0.0000       0.002952         0.0803
 105   0.0000       0.014902         0.4055

MULLIKEN ATOMIC CHARGES
-----------------------
   0 C :   -0.301634
   1 C :   -0.011853
   2 O :   -0.352369
   3 P :    0.609644
   4 S :   -0.333457
   5 O :   -0.373185
   6 C :   -0.011504
   7 C :   -0.311332
   8 S :   -0.078651
   9 C :   -0.361138
  10 S :   -0.068898
  11 P :    0.615274
  12 S :   -0.337361
  13 O :   -0.371418
  14 C :   -0.006786
  15 C :   -0.330113
  16 O :   -0.366015
  17 C :   -0.002705
  18 C :   -0.307441
  19 H :    0.110841
  20 H :    0.122429
  21 H :    0.114415
  22 H :    0.107035
  23 H :    0.113760
  24 H :    0.116092
  25 H :    0.110202
  26 H :    0.125829
  27 H :    0.112717
  28 H :    0.126634
  29 H :    0.195616
  30 H :    0.190892
  31 H :    0.109362
  32 H :    0.102091
  33 H :    0.149480
  34 H :    0.106822
  35 H :    0.116389
  36 H :    0.110400
  37 H :    0.107166
  38 H :    0.122208
  39 H :    0.111931
  40 H :    0.118632
Sum of atomic charges:    0.0000000

LOEWDIN ATOMIC CHARGES
----------------------
   0 C :   -0.363069
   1 C :   -0.120654
   2 O :   -0.233560
   3 P :    0.572562
   4 S :   -0.317993
   5 O :   -0.243736
   6 C :   -0.113230
   7 C :   -0.369781
   8 S :    0.095497
   9 C :   -0.482173
  10 S :    0.095309
  11 P :    0.573341
  12 S :   -0.318222
  13 O :   -0.243041
  14 C :   -0.120212
  15 C :   -0.369412
  16 O :   -0.244552
  17 C :   -0.115717
  18 C :   -0.364521
  19 H :    0.129744
  20 H :    0.122995
  21 H :    0.125402
  22 H :    0.116742
  23 H :    0.108835
  24 H :    0.110954
  25 H :    0.122005
  26 H :    0.121280
  27 H :    0.130657
  28 H :    0.129721
  29 H :    0.128988
  30 H :    0.129899
  31 H :    0.108399
  32 H :    0.116864
  33 H :    0.117420
  34 H :    0.128986
  35 H :    0.123186
  36 H :    0.110692
  37 H :    0.120022
  38 H :    0.122794
  39 H :    0.130247
  40 H :    0.127332

  Mayer bond orders larger than 0.100000
B(  0-C ,  1-C ) :   1.1630 B(  0-C , 19-H ) :   0.9401 B(  0-C , 20-H ) :   0.9365
B(  0-C , 21-H ) :   0.9468 B(  1-C ,  2-O ) :   0.9068 B(  1-C , 22-H ) :   0.9297
B(  1-C , 23-H ) :   0.9112 B(  2-O ,  3-P ) :   1.1294 B(  3-P ,  4-S ) :   1.5920
B(  3-P ,  5-O ) :   1.1140 B(  3-P ,  8-S ) :   0.9524 B(  4-S ,  8-S ) :   0.1075
B(  5-O ,  6-C ) :   0.9127 B(  6-C ,  7-C ) :   1.1641 B(  6-C , 24-H ) :   0.9282
B(  6-C , 25-H ) :   0.9342 B(  7-C , 26-H ) :   0.9330 B(  7-C , 27-H ) :   0.9349
B(  7-C , 28-H ) :   0.9426 B(  8-S ,  9-C ) :   1.0070 B(  9-C , 10-S ) :   1.0090
B(  9-C , 29-H ) :   0.8702 B(  9-C , 30-H ) :   0.8804 B( 10-S , 11-P ) :   0.9616
B( 10-S , 12-S ) :   0.1137 B( 11-P , 12-S ) :   1.5903 B( 11-P , 13-O ) :   1.1081
B( 11-P , 16-O ) :   1.1344 B( 13-O , 14-C ) :   0.9091 B( 14-C , 15-C ) :   1.1619
B( 14-C , 31-H ) :   0.9133 B( 14-C , 32-H ) :   0.9332 B( 15-C , 33-H ) :   0.9250
B( 15-C , 34-H ) :   0.9378 B( 15-C , 35-H ) :   0.9428 B( 16-O , 17-C ) :   0.9119
B( 17-C , 18-C ) :   1.1630 B( 17-C , 36-H ) :   0.9183 B( 17-C , 37-H ) :   0.9353
B( 18-C , 38-H ) :   0.9387 B( 18-C , 39-H ) :   0.9384 B( 18-C , 40-H ) :   0.9460

Dispersion correction           -0.064997002
FINAL SINGLE POINT ENERGY     -2929.523599037516

DIPOLE MOMENT
-------------

Method             : SCF
Type of density    : Electron Density
Multiplicity       :   1
Irrep              :   0
Energy             : -2929.6433062578562385 Eh
Relativity type    :
Basis              : AO
                                X                 Y                 Z
Electronic contribution:     -2.978164265     -10.741424889       2.609515091
Nuclear contribution   :      2.924069073      11.570144623      -3.027653786
                        -----------------------------------------
Total Dipole Moment    :     -0.054095192       0.828719734      -0.418138695
                        -----------------------------------------
Magnitude (a.u.)       :      0.929807859
Magnitude (Debye)      :      2.363383757

Rotational constants in cm-1:             0.014467             0.004306             0.004097
Rotational constants in MHz :           433.703458           129.079988           122.836204

                             ****ORCA TERMINATED NORMALLY****
TOTAL RUN TIME: 0 days 0 hours 0 minutes 20 seconds 961 msec
