                         Program Version 6.0.0  -   RELEASE  -
|  1> ! pbe def2-sv(p) def2/J RI DEFGRID1 loosescf d4 GCP(DFT/SV(P)) printgap
|  2> %output
|  3>     printlevel normal
|  4> end
|  5> * xyz 0 1
|  6> C 3.7285617629 -1.7751757426 -2.35791844
|  7> C 4.2013006817 -1.1136340507 -1.0786296982
|  8> O 3.1287102874 -0.9140773783 -0.1468515013
|  9> P 1.977797835 0.1692802003 -0.3854461799
| 10> S 2.6004753872 1.8212774239 -1.2300295414
| 11> O 1.3709562828 0.2337309261 1.0770151112
| 12> C 1.7589084311 1.2501685422 2.0215453301
| 13> C 3.213257631 1.1249461051 2.4196425883
| 14> S 0.4599584918 -0.9159026649 -1.3834576421
| 15> C -0.004637002 -2.0431522394 -0.0444134617
| 16> S -1.2097242662 -1.3528609978 1.1488828516
| 17> P -2.0309650814 0.3142549545 0.106946627
| 18> S -0.9859377726 1.9692069347 -0.0768129046
| 19> O -3.3834435536 0.5264051168 0.9197358504
| 20> C -3.4721462469 1.3741304149 2.0776249307
| 21> C -2.704962504 0.8098921049 3.2553247342
| 22> O -2.5534884397 -0.1968966517 -1.2900112434
| 23> C -3.7059279652 -1.0521195002 -1.5097430966
| 24> C -3.3323802159 -2.5202780257 -1.4673824026
| 25> H 3.2162880522 -2.7082083842 -2.138769684
| 26> H 3.0420160894 -1.1122117442 -2.8846316784
| 27> H 4.5835381946 -1.9736601019 -2.9960994877
| 28> H 4.6537063959 -0.1407934051 -1.2968311184
| 29> H 4.9095296772 -1.7417004249 -0.5365078462
| 30> H 1.5500343528 2.2294435888 1.5782832863
| 31> H 1.0903712845 1.0831533583 2.8680693795
| 32> H 3.4161577231 0.1235072124 2.7899524656
| 33> H 3.8489564093 1.3212842783 1.5568228992
| 34> H 3.435422757 1.852228233 3.194046871
| 35> H 0.8812954439 -2.3194163103 0.52388222
| 36> H -0.4545371821 -2.9100598963 -0.522467162
| 37> H -3.0931954028 2.3655044718 1.8089945361
| 38> H -4.5428411229 1.4272824451 2.2795700933
| 39> H -3.0165729517 -0.21160205 3.4575844775
| 40> H -1.6385007868 0.8140750656 3.0331952916
| 41> H -2.8850851591 1.4258640741 4.1303622053
| 42> H -4.4692808907 -0.8102516852 -0.7689226516
| 43> H -4.047067248 -0.7594390434 -2.5041061126
| 44> H -3.0668220788 -2.8212071643 -0.4571197672
| 45> H -4.1859593827 -3.1059551513 -1.794548653
| 46> H -2.4958417589 -2.7074721648 -2.1362601023
| 47> *
| 48>
| 49>                          ****END OF INPUT****

CARTESIAN COORDINATES (ANGSTROEM)
---------------------------------
  C      3.728562   -1.775176   -2.357918
  C      4.201301   -1.113634   -1.078630
  O      3.128710   -0.914077   -0.146852
  P      1.977798    0.169280   -0.385446
  S      2.600475    1.821277   -1.230030
  O      1.370956    0.233731    1.077015
  C      1.758908    1.250169    2.021545
  C      3.213258    1.124946    2.419643
  S      0.459958   -0.915903   -1.383458
  C     -0.004637   -2.043152   -0.044413
  S     -1.209724   -1.352861    1.148883
  P     -2.030965    0.314255    0.106947
  S     -0.985938    1.969207   -0.076813
  O     -3.383444    0.526405    0.919736
  C     -3.472146    1.374130    2.077625
  C     -2.704963    0.809892    3.255325
  O     -2.553488   -0.196897   -1.290011
  C     -3.705928   -1.052120   -1.509743
  C     -3.332380   -2.520278   -1.467382
  H      3.216288   -2.708208   -2.138770
  H      3.042016   -1.112212   -2.884632
  H      4.583538   -1.973660   -2.996099
  H      4.653706   -0.140793   -1.296831
  H      4.909530   -1.741700   -0.536508
  H      1.550034    2.229444    1.578283
  H      1.090371    1.083153    2.868069
  H      3.416158    0.123507    2.789952
  H      3.848956    1.321284    1.556823
  H      3.435423    1.852228    3.194047
  H      0.881295   -2.319416    0.523882
  H     -0.454537   -2.910060   -0.522467
  H     -3.093195    2.365504    1.808995
  H     -4.542841    1.427282    2.279570
  H     -3.016573   -0.211602    3.457584
  H     -1.638501    0.814075    3.033195
  H     -2.885085    1.425864    4.130362
  H     -4.469281   -0.810252   -0.768923
  H     -4.047067   -0.759439   -2.504106
  H     -3.066822   -2.821207   -0.457120
  H     -4.185959   -3.105955   -1.794549
  H     -2.495842   -2.707472   -2.136260

 Total Charge           Charge          ....    0
 Multiplicity           Mult            ....    1
 Number of Electrons    NEL             ....  202
 Basis Dimension        Dim             ....  334

ORBITAL ENERGIES
----------------

  NO   OCC          E(Eh)            E(eV)
   0   2.0000     -88.042785     -2395.7660
   1   2.0000     -88.037793     -2395.6301
   2   2.0000     -87.983128     -2394.1426
   3   2.0000     -87.973464     -2393.8797
   4   2.0000     -76.423269     -2079.5829
   5   2.0000     -76.421888     -2079.5453
   6   2.0000     -18.790125      -511.3053
   7   2.0000     -18.788532      -511.2619
   8   2.0000     -18.785070      -511.1677
   9   2.0000     -18.783055      -511.1129
  10   2.0000      -9.960081      -271.0276
  11   2.0000      -9.956478      -270.9295
  12   2.0000      -9.951382      -270.7909
  13   2.0000      -9.947461      -270.6842
  14   2.0000      -9.944164      -270.5945
  15   2.0000      -9.890984      -269.1474
  16   2.0000      -9.885752      -269.0050
  17   2.0000      -9.881443      -268.8877
  18   2.0000      -9.877657      -268.7847
  19   2.0000      -7.687442      -209.1859
  20   2.0000      -7.682400      -209.0487
  21   2.0000      -7.628188      -207.5736
  22   2.0000      -7.618343      -207.3057
  23   2.0000      -6.419959      -174.6960
  24   2.0000      -6.419147      -174.6739
  25   2.0000      -5.715731      -155.5330
  26   2.0000      -5.711824      -155.4266
  27   2.0000      -5.710485      -155.3902
  28   2.0000      -5.706919      -155.2932
  29   2.0000      -5.704070      -155.2156
  30   2.0000      -5.699236      -155.0841
  31   2.0000      -5.657224      -153.9409
  32   2.0000      -5.648972      -153.7163
  33   2.0000      -5.648102      -153.6927
  34   2.0000      -5.647600      -153.6790
  35   2.0000      -5.638855      -153.4410
  36   2.0000      -5.638288      -153.4256
  37   2.0000      -4.643286      -126.3502
  38   2.0000      -4.641664      -126.3061
  39   2.0000      -4.641449      -126.3002
  40   2.0000      -4.641106      -126.2909
  41   2.0000      -4.639908      -126.2583
  42   2.0000      -4.639740      -126.2537
  43   2.0000      -0.984951       -26.8019
  44   2.0000      -0.980807       -26.6891
  45   2.0000      -0.941712       -25.6253
  46   2.0000      -0.938464       -25.5369
  47   2.0000      -0.761304       -20.7161
  48   2.0000      -0.717216       -19.5164
  49   2.0000      -0.706629       -19.2284
  50   2.0000      -0.690758       -18.7965
  51   2.0000      -0.681452       -18.5432
  52   2.0000      -0.671961       -18.2850
  53   2.0000      -0.651486       -17.7278
  54   2.0000      -0.633078       -17.2269
  55   2.0000      -0.595263       -16.1979
  56   2.0000      -0.587406       -15.9841
  57   2.0000      -0.580067       -15.7844
  58   2.0000      -0.566231       -15.4079
  59   2.0000      -0.564111       -15.3502
  60   2.0000      -0.498584       -13.5672
  61   2.0000      -0.488403       -13.2901
  62   2.0000      -0.471366       -12.8265
  63   2.0000      -0.467074       -12.7097
  64   2.0000      -0.455212       -12.3870
  65   2.0000      -0.446567       -12.1517
  66   2.0000      -0.437222       -11.8974
  67   2.0000      -0.431377       -11.7384
  68   2.0000      -0.426825       -11.6145
  69   2.0000      -0.419073       -11.4036
  70   2.0000      -0.412008       -11.2113
  71   2.0000      -0.397738       -10.8230
  72   2.0000      -0.390178       -10.6173
  73   2.0000      -0.387973       -10.5573
  74   2.0000      -0.377024       -10.2593
  75   2.0000      -0.370395       -10.0790
  76   2.0000      -0.366338        -9.9686
  77   2.0000      -0.360069        -9.7980
  78   2.0000      -0.355825        -9.6825
  79   2.0000      -0.351824        -9.5736
  80   2.0000      -0.345519        -9.4021
  81   2.0000      -0.343499        -9.3471
  82   2.0000      -0.339940        -9.2502
  83   2.0000      -0.334094        -9.0912
  84   2.0000      -0.326007        -8.8711
  85   2.0000      -0.320772        -8.7287
  86   2.0000      -0.314501        -8.5580
  87   2.0000      -0.301203        -8.1962
  88   2.0000      -0.291498        -7.9321
  89   2.0000      -0.288782        -7.8582
  90   2.0000      -0.282673        -7.6919
  91   2.0000      -0.267379        -7.2758
  92   2.0000      -0.266718        -7.2578
  93   2.0000      -0.258901        -7.0451
  94   2.0000      -0.256182        -6.9711
  95   2.0000      -0.225812        -6.1447
  96   2.0000      -0.219270        -5.9666
  97   2.0000      -0.205427        -5.5899
  98   2.0000      -0.197430        -5.3723
  99   2.0000      -0.186630        -5.0785
 100   2.0000      -0.181349        -4.9348
 101   0.0000      -0.052129        -1.4185
 102   0.0000      -0.026444        -0.7196
 103   0.0000      -0.013419        -0.3652
 104   0.0000      -0.004516        -0.1229
 105   0.0000       0.026147         0.7115

MULLIKEN ATOMIC CHARGES
-----------------------
   0 C :   -0.305489
   1 C :   -0.006728
   2 O :   -0.377488
   3 P :    0.621382
   4 S :   -0.302199
   5 O :   -0.374080
   6 C :   -0.012998
   7 C :   -0.300743
   8 S :   -0.079192
   9 C :   -0.309903
  10 S :   -0.129244
  11 P :    0.619641
  12 S :   -0.300979
  13 O :   -0.386793
  14 C :    0.004071
  15 C :   -0.341380
  16 O :   -0.363149
  17 C :   -0.003519
  18 C :   -0.322870
  19 H :    0.108576
  20 H :    0.125033
  21 H :    0.110905
  22 H :    0.109064
  23 H :    0.100981
  24 H :    0.119700
  25 H :    0.111723
  26 H :    0.110303
  27 H :    0.122609
  28 H :    0.109263
  29 H :    0.185139
  30 H :    0.177158
  31 H :    0.111898
  32 H :    0.102418
  33 H :    0.119058
  34 H :    0.144807
  35 H :    0.114677
  36 H :    0.114725
  37 H :    0.112671
  38 H :    0.127101
  39 H :    0.113126
  40 H :    0.120727
Sum of atomic charges:    0.0000000

LOEWDIN ATOMIC CHARGES
----------------------
   0 C :   -0.367253
   1 C :   -0.123336
   2 O :   -0.252840
   3 P :    0.576205
   4 S :   -0.303393
   5 O :   -0.237997
   6 C :   -0.116746
   7 C :   -0.367153
   8 S :    0.113950
   9 C :   -0.468625
  10 S :    0.060052
  11 P :    0.561015
  12 S :   -0.297157
  13 O :   -0.250965
  14 C :   -0.118651
  15 C :   -0.373852
  16 O :   -0.239133
  17 C :   -0.108382
  18 C :   -0.367857
  19 H :    0.120985
  20 H :    0.120496
  21 H :    0.129534
  22 H :    0.108319
  23 H :    0.116265
  24 H :    0.112499
  25 H :    0.116134
  26 H :    0.123615
  27 H :    0.121215
  28 H :    0.129430
  29 H :    0.133322
  30 H :    0.129913
  31 H :    0.111250
  32 H :    0.117367
  33 H :    0.123747
  34 H :    0.121792
  35 H :    0.132022
  36 H :    0.115106
  37 H :    0.123255
  38 H :    0.119299
  39 H :    0.131569
  40 H :    0.124984

  Mayer bond orders larger than 0.100000
B(  0-C ,  1-C ) :   1.1650 B(  0-C , 19-H ) :   0.9461 B(  0-C , 20-H ) :   0.9368
B(  0-C , 21-H ) :   0.9389 B(  1-C ,  2-O ) :   0.9196 B(  1-C , 22-H ) :   0.9121
B(  1-C , 23-H ) :   0.9340 B(  2-O ,  3-P ) :   1.0634 B(  3-P ,  4-S ) :   1.6377
B(  3-P ,  5-O ) :   1.1138 B(  3-P ,  8-S ) :   0.9486 B(  5-O ,  6-C ) :   0.8986
B(  6-C ,  7-C ) :   1.1616 B(  6-C , 24-H ) :   0.9173 B(  6-C , 25-H ) :   0.9285
B(  7-C , 26-H ) :   0.9448 B(  7-C , 27-H ) :   0.9325 B(  7-C , 28-H ) :   0.9388
B(  8-S ,  9-C ) :   1.0186 B(  9-C , 10-S ) :   0.9659 B(  9-C , 29-H ) :   0.9016
B(  9-C , 30-H ) :   0.9044 B( 10-S , 11-P ) :   0.9591 B( 10-S , 12-S ) :   0.1158
B( 11-P , 12-S ) :   1.6321 B( 11-P , 13-O ) :   1.0651 B( 11-P , 16-O ) :   1.1133
B( 13-O , 14-C ) :   0.9093 B( 14-C , 15-C ) :   1.1656 B( 14-C , 31-H ) :   0.9122
B( 14-C , 32-H ) :   0.9331 B( 15-C , 33-H ) :   0.9417 B( 15-C , 34-H ) :   0.9271
B( 15-C , 35-H ) :   0.9370 B( 16-O , 17-C ) :   0.9022 B( 17-C , 18-C ) :   1.1670
B( 17-C , 36-H ) :   0.9189 B( 17-C , 37-H ) :   0.9352 B( 18-C , 38-H ) :   0.9308
B( 18-C , 39-H ) :   0.9364 B( 18-C , 40-H ) :   0.9428

Dispersion correction           -0.069501782
FINAL SINGLE POINT ENERGY     -2929.506485402375

DIPOLE MOMENT
-------------

Method             : SCF
Type of density    : Electron Density
Multiplicity       :   1
Irrep              :   0
Energy             : -2929.6230730262254838 Eh
Relativity type    :
Basis              : AO
                                X                 Y                 Z
Electronic contribution:     -1.258861014       8.853515658      -8.060612802
Nuclear contribution   :      0.687564407     -10.500618857       8.918390993
                        -----------------------------------------
Total Dipole Moment    :     -0.571296607      -1.647103199       0.857778190
                        -----------------------------------------
Magnitude (a.u.)       :      1.942964792
Magnitude (Debye)      :      4.938624023

Rotational constants in cm-1:             0.012124             0.005948             0.005030
Rotational constants in MHz :           363.461535           178.306564           150.783028

                             ****ORCA TERMINATED NORMALLY****
TOTAL RUN TIME: 0 days 0 hours 0 minutes 21 seconds 644 msec
