                         Program Version 6.0.0  -   RELEASE  -
|  1> ! pbe def2-sv(p) def2/J RI DEFGRID1 loosescf d4 GCP(DFT/SV(P)) printgap
|  2> %output
|  3>     printlevel normal
|  4> end
|  5> * xyz 0 1
|  6> C -3.5499417696 -6.34603e-05 1.645e-07
|  7> C -2.8569233553 -1.1989620265 -7.0683e-05
|  8> C -1.4716929892 -1.2058453664 5.41763e-05
|  9> C -0.7970277143 1.55624e-05 1.52505e-05
| 10> C -1.4717253101 1.2058827148 2.77186e-05
| 11> C -2.8570417677 1.1989503 -2.54533e-05
| 12> I 1.3361722749 2.0363e-06 -2.7585e-06
| 13> H -4.6284739881 -0.0001430545 -6.9608e-06
| 14> H -3.389660958 -2.1368018983 8.65589e-05
| 15> H -0.9304360826 -2.1389845953 0.0001456731
| 16> H -0.9304433557 2.1390430837 -0.0001861045
| 17> H -3.3900082309 2.1368955239 0.0002941631
| 18> *
| 19>
| 20>                          ****END OF INPUT****

CARTESIAN COORDINATES (ANGSTROEM)
---------------------------------
  C     -3.549942   -0.000063    0.000000
  C     -2.856923   -1.198962   -0.000071
  C     -1.471693   -1.205845    0.000054
  C     -0.797028    0.000016    0.000015
  C     -1.471725    1.205883    0.000028
  C     -2.857042    1.198950   -0.000025
  I      1.336172    0.000002   -0.000003
  H     -4.628474   -0.000143   -0.000007
  H     -3.389661   -2.136802    0.000087
  H     -0.930436   -2.138985    0.000146
  H     -0.930443    2.139043   -0.000186
  H     -3.390008    2.136896    0.000294

 Total Charge           Charge          ....    0
 Multiplicity           Mult            ....    1
 Number of Electrons    NEL             ....   66
 Basis Dimension        Dim             ....  120

ORBITAL ENERGIES
----------------

  NO   OCC          E(Eh)            E(eV)
   0   2.0000      -9.946783      -270.6657
   1   2.0000      -9.909695      -269.6565
   2   2.0000      -9.909678      -269.6560
   3   2.0000      -9.907105      -269.5860
   4   2.0000      -9.907059      -269.5848
   5   2.0000      -9.903664      -269.4924
   6   2.0000      -6.605515      -179.7452
   7   2.0000      -4.677770      -127.2886
   8   2.0000      -4.660382      -126.8154
   9   2.0000      -4.659998      -126.8050
  10   2.0000      -1.813898       -49.3587
  11   2.0000      -1.809111       -49.2284
  12   2.0000      -1.808925       -49.2234
  13   2.0000      -1.794959       -48.8433
  14   2.0000      -1.794943       -48.8429
  15   2.0000      -0.794282       -21.6135
  16   2.0000      -0.698040       -18.9946
  17   2.0000      -0.686741       -18.6872
  18   2.0000      -0.627327       -17.0704
  19   2.0000      -0.557693       -15.1756
  20   2.0000      -0.539909       -14.6917
  21   2.0000      -0.477388       -12.9904
  22   2.0000      -0.421244       -11.4626
  23   2.0000      -0.411349       -11.1934
  24   2.0000      -0.391472       -10.6525
  25   2.0000      -0.369192       -10.0462
  26   2.0000      -0.352600        -9.5947
  27   2.0000      -0.319037        -8.6814
  28   2.0000      -0.302799        -8.2396
  29   2.0000      -0.266551        -7.2532
  30   2.0000      -0.244457        -6.6520
  31   2.0000      -0.229620        -6.2483
  32   2.0000      -0.212565        -5.7842
  33   0.0000      -0.061819        -1.6822
  34   0.0000      -0.048950        -1.3320
  35   0.0000      -0.048834        -1.3288
  36   0.0000       0.045506         1.2383
  37   0.0000       0.073869         2.0101

MULLIKEN ATOMIC CHARGES
-----------------------
   0 C :   -0.042401
   1 C :   -0.051880
   2 C :   -0.073216
   3 C :   -0.059370
   4 C :   -0.073266
   5 C :   -0.051931
   6 I :    0.031269
   7 H :    0.060441
   8 H :    0.064201
   9 H :    0.065916
  10 H :    0.065939
  11 H :    0.064297
Sum of atomic charges:   -0.0000000

LOEWDIN ATOMIC CHARGES
----------------------
   0 C :   -0.121767
   1 C :   -0.113948
   2 C :   -0.132635
   3 C :   -0.158196
   4 C :   -0.132634
   5 C :   -0.113925
   6 I :    0.124648
   7 H :    0.127369
   8 H :    0.129150
   9 H :    0.131395
  10 H :    0.131395
  11 H :    0.129147

  Mayer bond orders larger than 0.100000
B(  0-C ,  1-C ) :   1.3818 B(  0-C ,  5-C ) :   1.3819 B(  0-C ,  7-H ) :   0.9655
B(  1-C ,  2-C ) :   1.3916 B(  1-C ,  8-H ) :   0.9626 B(  2-C ,  3-C ) :   1.4012
B(  2-C ,  9-H ) :   0.9617 B(  3-C ,  4-C ) :   1.4012 B(  3-C ,  6-I ) :   1.0004
B(  4-C ,  5-C ) :   1.3915 B(  4-C , 10-H ) :   0.9617 B(  5-C , 11-H ) :   0.9626

Dispersion correction           -0.014243873
FINAL SINGLE POINT ENERGY      -528.820957527412

DIPOLE MOMENT
-------------

Method             : SCF
Type of density    : Electron Density
Multiplicity       :   1
Irrep              :   0
Energy             :  -528.8494595702611605 Eh
Relativity type    :
Basis              : AO
                                X                 Y                 Z
Electronic contribution:    108.783128741       0.000085976      -0.000435843
Nuclear contribution   :   -109.391586988      -0.000139241       0.000512865
                        -----------------------------------------
Total Dipole Moment    :     -0.608458247      -0.000053264       0.000077022
                        -----------------------------------------
Magnitude (a.u.)       :      0.608458254
Magnitude (Debye)      :      1.546577974

Rotational constants in cm-1:             0.191801             0.024785             0.021948
Rotational constants in MHz :          5750.046012           743.023146           657.996577

                             ****ORCA TERMINATED NORMALLY****
TOTAL RUN TIME: 0 days 0 hours 0 minutes 13 seconds 364 msec
