                         Program Version 6.0.0  -   RELEASE  -
|  1> ! pbe def2-sv(p) def2/J RI DEFGRID1 loosescf d4 GCP(DFT/SV(P)) printgap
|  2> %output
|  3>     printlevel normal
|  4> end
|  5> * xyz 0 1
|  6> C -2.5851761308 0.5999232177 -0.0006900436
|  7> C -1.2343707398 -0.0544491605 0.0001838428
|  8> C -1.1492929906 -1.4431541737 0.0001105224
|  9> C 0.074677382 -2.0824494842 0.0001888095
| 10> C 1.2413324302 -1.3398999257 -1.41517e-05
| 11> C 1.1707864832 0.0452983266 7.3953e-05
| 12> C -0.0652830228 0.7031383358 0.0009239596
| 13> C -0.0485377745 2.2031713803 0.0003135401
| 14> O 2.2949806305 0.8205067861 -0.0005410882
| 15> H -2.7140914787 1.217444922 0.8865961165
| 16> H -2.7058072147 1.2325694182 -0.8782415971
| 17> H -3.3678537229 -0.1537995905 -0.0104552292
| 18> H -2.0567294616 -2.0287855442 -0.0003429966
| 19> H 0.1251129818 -3.1608356701 -0.0002120785
| 20> H 2.2029653797 -1.8332525947 -0.0006108324
| 21> H 0.5225455416 2.5610961758 0.8560265914
| 22> H 0.4582416093 2.5622809462 -0.8948168262
| 23> H -1.0458758539 2.6241728004 0.0369298947
| 24> H 3.0855241348 0.2616710659 0.0007216653
| 25> *
| 26>
| 27>                          ****END OF INPUT****

CARTESIAN COORDINATES (ANGSTROEM)
---------------------------------
  C     -2.585176    0.599923   -0.000690
  C     -1.234371   -0.054449    0.000184
  C     -1.149293   -1.443154    0.000111
  C      0.074677   -2.082449    0.000189
  C      1.241332   -1.339900   -0.000014
  C      1.170786    0.045298    0.000074
  C     -0.065283    0.703138    0.000924
  C     -0.048538    2.203171    0.000314
  O      2.294981    0.820507   -0.000541
  H     -2.714091    1.217445    0.886596
  H     -2.705807    1.232569   -0.878242
  H     -3.367854   -0.153800   -0.010455
  H     -2.056729   -2.028786   -0.000343
  H      0.125113   -3.160836   -0.000212
  H      2.202965   -1.833253   -0.000611
  H      0.522546    2.561096    0.856027
  H      0.458242    2.562281   -0.894817
  H     -1.045876    2.624173    0.036930
  H      3.085524    0.261671    0.000722

 Total Charge           Charge          ....    0
 Multiplicity           Mult            ....    1
 Number of Electrons    NEL             ....   66
 Basis Dimension        Dim             ....  146

ORBITAL ENERGIES
----------------

  NO   OCC          E(Eh)            E(eV)
   0   2.0000     -18.778992      -511.0023
   1   2.0000      -9.942724      -270.5553
   2   2.0000      -9.895389      -269.2672
   3   2.0000      -9.889773      -269.1144
   4   2.0000      -9.884549      -268.9722
   5   2.0000      -9.883093      -268.9326
   6   2.0000      -9.879449      -268.8335
   7   2.0000      -9.876010      -268.7399
   8   2.0000      -9.874033      -268.6861
   9   2.0000      -0.959355       -26.1054
  10   2.0000      -0.770709       -20.9720
  11   2.0000      -0.697026       -18.9670
  12   2.0000      -0.677391       -18.4327
  13   2.0000      -0.618285       -16.8244
  14   2.0000      -0.599380       -16.3099
  15   2.0000      -0.551297       -15.0016
  16   2.0000      -0.515007       -14.0141
  17   2.0000      -0.469206       -12.7677
  18   2.0000      -0.433178       -11.7874
  19   2.0000      -0.427244       -11.6259
  20   2.0000      -0.387740       -10.5509
  21   2.0000      -0.374080       -10.1792
  22   2.0000      -0.361098        -9.8260
  23   2.0000      -0.355811        -9.6821
  24   2.0000      -0.346991        -9.4421
  25   2.0000      -0.340551        -9.2669
  26   2.0000      -0.335329        -9.1248
  27   2.0000      -0.321611        -8.7515
  28   2.0000      -0.299655        -8.1540
  29   2.0000      -0.284490        -7.7414
  30   2.0000      -0.282589        -7.6896
  31   2.0000      -0.209072        -5.6892
  32   2.0000      -0.187268        -5.0958
  33   0.0000      -0.025051        -0.6817
  34   0.0000      -0.010492        -0.2855
  35   0.0000       0.023368         0.6359
  36   0.0000       0.052447         1.4272
  37   0.0000       0.056280         1.5315

MULLIKEN ATOMIC CHARGES
-----------------------
   0 C :   -0.236277
   1 C :   -0.023255
   2 C :   -0.130604
   3 C :   -0.045740
   4 C :   -0.167080
   5 C :    0.180821
   6 C :   -0.092353
   7 C :   -0.205845
   8 O :   -0.340041
   9 H :    0.118205
  10 H :    0.117450
  11 H :    0.098788
  12 H :    0.026766
  13 H :    0.044916
  14 H :    0.018710
  15 H :    0.113276
  16 H :    0.113358
  17 H :    0.092465
  18 H :    0.316439
Sum of atomic charges:    0.0000000

LOEWDIN ATOMIC CHARGES
----------------------
   0 C :   -0.323146
   1 C :   -0.043403
   2 C :   -0.149996
   3 C :   -0.122847
   4 C :   -0.182512
   5 C :    0.025736
   6 C :   -0.071915
   7 C :   -0.322661
   8 O :   -0.237109
   9 H :    0.130904
  10 H :    0.130715
  11 H :    0.124054
  12 H :    0.118088
  13 H :    0.121936
  14 H :    0.117271
  15 H :    0.132973
  16 H :    0.133223
  17 H :    0.121125
  18 H :    0.297562

  Mayer bond orders larger than 0.100000
B(  0-C ,  1-C ) :   1.1194 B(  0-C ,  9-H ) :   0.9275 B(  0-C , 10-H ) :   0.9280
B(  0-C , 11-H ) :   0.9378 B(  1-C ,  2-C ) :   1.3729 B(  1-C ,  6-C ) :   1.4466
B(  2-C ,  3-C ) :   1.3652 B(  2-C , 12-H ) :   0.9599 B(  3-C ,  4-C ) :   1.3483
B(  3-C , 13-H ) :   0.9620 B(  4-C ,  5-C ) :   1.3261 B(  4-C , 14-H ) :   0.9601
B(  5-C ,  6-C ) :   1.3720 B(  5-C ,  8-O ) :   1.2082 B(  6-C ,  7-C ) :   1.1448
B(  7-C , 15-H ) :   0.9295 B(  7-C , 16-H ) :   0.9301 B(  7-C , 17-H ) :   0.9235
B(  8-O , 18-H ) :   0.8411

Dispersion correction           -0.019478582
FINAL SINGLE POINT ENERGY      -385.239428944968

DIPOLE MOMENT
-------------

Method             : SCF
Type of density    : Electron Density
Multiplicity       :   1
Irrep              :   0
Energy             :  -385.2983771349146878 Eh
Relativity type    :
Basis              : AO
                                X                 Y                 Z
Electronic contribution:      5.452051673      -3.245392643       0.003541745
Nuclear contribution   :     -5.122133609       3.091756902      -0.004140926
                        -----------------------------------------
Total Dipole Moment    :      0.329918063      -0.153635741      -0.000599181
                        -----------------------------------------
Magnitude (a.u.)       :      0.363937122
Magnitude (Debye)      :      0.925054648

Rotational constants in cm-1:             0.075972             0.059418             0.033758
Rotational constants in MHz :          2277.582274          1781.298900          1012.028372

                             ****ORCA TERMINATED NORMALLY****
TOTAL RUN TIME: 0 days 0 hours 0 minutes 7 seconds 802 msec
