                         Program Version 6.0.0  -   RELEASE  -
|  1> ! r2scan-3c def2/J RI DEFGRID2 scfconv6 printgap
|  2> %output
|  3>     printlevel normal
|  4> end
|  5> * xyz 0 1
|  6> C 0.6160492093 1.7005061544 -0.0603135606
|  7> C 1.3960234797 0.3982281868 -0.2678052638
|  8> H 1.6094151109 0.2731565949 -1.3440302917
|  9> C 0.5336900894 -0.7837589996 0.2005468378
| 10> H 0.3548401172 -0.7021179683 1.2780852307
| 11> C -0.811309417 -0.7351085023 -0.5307402308
| 12> H -0.6306742377 -0.7839634346 -1.6193259151
| 13> C -1.477897595 0.6230037805 -0.2437361484
| 14> H -2.3939267265 0.705478291 -0.8435830943
| 15> O -0.6506230788 1.6709397911 -0.6997577045
| 16> O -1.7395405609 0.7133379096 1.1155387399
| 17> O -1.6748140175 -1.7711636193 -0.1495720802
| 18> O 1.1844827889 -2.0183541352 0.015290173
| 19> O 2.5993102699 0.486590663 0.4527506358
| 20> H 1.1509466141 2.5416196239 -0.4990127821
| 21> H 0.4994163193 1.8630453296 1.0172145419
| 22> H -2.349675277 1.4442666852 1.2951674847
| 23> H -1.1404798433 -2.5254156284 0.1479933077
| 24> H 1.3596237234 -2.158747911 -0.9279536556
| 25> H 2.9466988946 -0.409122307 0.5895489994
| 26> *
| 27>
| 28>                          ****END OF INPUT****

CARTESIAN COORDINATES (ANGSTROEM)
---------------------------------
  C      0.616049    1.700506   -0.060314
  C      1.396023    0.398228   -0.267805
  H      1.609415    0.273157   -1.344030
  C      0.533690   -0.783759    0.200547
  H      0.354840   -0.702118    1.278085
  C     -0.811309   -0.735109   -0.530740
  H     -0.630674   -0.783963   -1.619326
  C     -1.477898    0.623004   -0.243736
  H     -2.393927    0.705478   -0.843583
  O     -0.650623    1.670940   -0.699758
  O     -1.739541    0.713338    1.115539
  O     -1.674814   -1.771164   -0.149572
  O      1.184483   -2.018354    0.015290
  O      2.599310    0.486591    0.452751
  H      1.150947    2.541620   -0.499013
  H      0.499416    1.863045    1.017215
  H     -2.349675    1.444267    1.295167
  H     -1.140480   -2.525416    0.147993
  H      1.359624   -2.158748   -0.927954
  H      2.946699   -0.409122    0.589549

 Total Charge           Charge          ....    0
 Multiplicity           Mult            ....    1
 Number of Electrons    NEL             ....   80
 Basis Dimension        Dim             ....  265

ORBITAL ENERGIES
----------------

  NO   OCC          E(Eh)            E(eV)
   0   2.0000     -18.980295      -516.4801
   1   2.0000     -18.968206      -516.1511
   2   2.0000     -18.967356      -516.1280
   3   2.0000     -18.958561      -515.8887
   4   2.0000     -18.955486      -515.8050
   5   2.0000     -10.138460      -275.8815
   6   2.0000     -10.094867      -274.6953
   7   2.0000     -10.093512      -274.6584
   8   2.0000     -10.093173      -274.6492
   9   2.0000     -10.081526      -274.3323
  10   2.0000      -1.048861       -28.5410
  11   2.0000      -1.024388       -27.8750
  12   2.0000      -0.998668       -27.1751
  13   2.0000      -0.988180       -26.8898
  14   2.0000      -0.978826       -26.6352
  15   2.0000      -0.751847       -20.4588
  16   2.0000      -0.725308       -19.7366
  17   2.0000      -0.631063       -17.1721
  18   2.0000      -0.605427       -16.4745
  19   2.0000      -0.569860       -15.5067
  20   2.0000      -0.527490       -14.3537
  21   2.0000      -0.503173       -13.6920
  22   2.0000      -0.491461       -13.3733
  23   2.0000      -0.478662       -13.0251
  24   2.0000      -0.451593       -12.2885
  25   2.0000      -0.443356       -12.0643
  26   2.0000      -0.428402       -11.6574
  27   2.0000      -0.396285       -10.7835
  28   2.0000      -0.387771       -10.5518
  29   2.0000      -0.382841       -10.4176
  30   2.0000      -0.352723        -9.5981
  31   2.0000      -0.347155        -9.4466
  32   2.0000      -0.328670        -8.9436
  33   2.0000      -0.316148        -8.6028
  34   2.0000      -0.285001        -7.7553
  35   2.0000      -0.275370        -7.4932
  36   2.0000      -0.267004        -7.2655
  37   2.0000      -0.258148        -7.0246
  38   2.0000      -0.240499        -6.5443
  39   2.0000      -0.233993        -6.3673
  40   0.0000       0.024790         0.6746
  41   0.0000       0.046375         1.2619
  42   0.0000       0.067570         1.8387
  43   0.0000       0.074176         2.0184
  44   0.0000       0.093096         2.5333

MULLIKEN ATOMIC CHARGES
-----------------------
   0 C :   -0.262147
   1 C :    0.014863
   2 H :    0.154603
   3 C :   -0.093369
   4 H :    0.193941
   5 C :   -0.058528
   6 H :    0.165357
   7 C :    0.027941
   8 H :    0.132426
   9 O :   -0.200996
  10 O :   -0.382330
  11 O :   -0.406459
  12 O :   -0.439526
  13 O :   -0.415535
  14 H :    0.152627
  15 H :    0.173126
  16 H :    0.306837
  17 H :    0.318562
  18 H :    0.305303
  19 H :    0.313301
Sum of atomic charges:   -0.0000000

LOEWDIN ATOMIC CHARGES
----------------------
   0 C :    0.056677
   1 C :    0.094747
   2 H :    0.170548
   3 C :    0.092207
   4 H :    0.211195
   5 C :    0.112717
   6 H :    0.180259
   7 C :    0.290130
   8 H :    0.197951
   9 O :   -0.678416
  10 O :   -0.506944
  11 O :   -0.553036
  12 O :   -0.581699
  13 O :   -0.578927
  14 H :    0.190097
  15 H :    0.185234
  16 H :    0.279756
  17 H :    0.282531
  18 H :    0.274229
  19 H :    0.280742

  Mayer bond orders larger than 0.100000
B(  0-C ,  1-C ) :   0.8788 B(  0-C ,  9-O ) :   0.9394 B(  0-C , 14-H ) :   0.9368
B(  0-C , 15-H ) :   0.9871 B(  1-C ,  2-H ) :   0.9584 B(  1-C ,  3-C ) :   0.9304
B(  1-C , 13-O ) :   0.8975 B(  3-C ,  4-H ) :   0.9443 B(  3-C ,  5-C ) :   0.9171
B(  3-C , 12-O ) :   1.0440 B(  5-C ,  6-H ) :   0.9644 B(  5-C ,  7-C ) :   0.9568
B(  5-C , 11-O ) :   0.9100 B(  7-C ,  8-H ) :   0.9425 B(  7-C ,  9-O ) :   0.9379
B(  7-C , 10-O ) :   1.0482 B( 10-O , 16-H ) :   0.8904 B( 11-O , 17-H ) :   0.8679
B( 12-O , 18-H ) :   0.8833 B( 13-O , 19-H ) :   0.8733

Dispersion correction           -0.006304255
FINAL SINGLE POINT ENERGY      -572.560683781890

DIPOLE MOMENT
-------------

Method             : SCF
Type of density    : Electron Density
Multiplicity       :   1
Irrep              :   0
Energy             :  -572.5706711610895354 Eh
Relativity type    :
Basis              : AO
                                X                 Y                 Z
Electronic contribution:     -1.225548061      -0.388222415       0.445933288
Nuclear contribution   :      1.315074854       0.219243820      -0.839007184
                        -----------------------------------------
Total Dipole Moment    :      0.089526794      -0.168978596      -0.393073896
                        -----------------------------------------
Magnitude (a.u.)       :      0.437122294
Magnitude (Debye)      :      1.111076574

Rotational constants in cm-1:             0.056174             0.045315             0.029244
Rotational constants in MHz :          1684.049271          1358.501886           876.700213

                             ****ORCA TERMINATED NORMALLY****
TOTAL RUN TIME: 0 days 0 hours 0 minutes 37 seconds 291 msec
