                         Program Version 6.0.0  -   RELEASE  -
|  1> ! r2scan-3c def2/J RI DEFGRID2 scfconv6 printgap
|  2> %output
|  3>     printlevel normal
|  4> end
|  5> %cpcm
|  6>     smd true
|  7>     smdsolvent "water"
|  8> end
|  9> * xyz 0 1
| 10> C 0.6160492093 1.7005061544 -0.0603135606
| 11> C 1.3960234797 0.3982281868 -0.2678052638
| 12> H 1.6094151109 0.2731565949 -1.3440302917
| 13> C 0.5336900894 -0.7837589996 0.2005468378
| 14> H 0.3548401172 -0.7021179683 1.2780852307
| 15> C -0.811309417 -0.7351085023 -0.5307402308
| 16> H -0.6306742377 -0.7839634346 -1.6193259151
| 17> C -1.477897595 0.6230037805 -0.2437361484
| 18> H -2.3939267265 0.705478291 -0.8435830943
| 19> O -0.6506230788 1.6709397911 -0.6997577045
| 20> O -1.7395405609 0.7133379096 1.1155387399
| 21> O -1.6748140175 -1.7711636193 -0.1495720802
| 22> O 1.1844827889 -2.0183541352 0.015290173
| 23> O 2.5993102699 0.486590663 0.4527506358
| 24> H 1.1509466141 2.5416196239 -0.4990127821
| 25> H 0.4994163193 1.8630453296 1.0172145419
| 26> H -2.349675277 1.4442666852 1.2951674847
| 27> H -1.1404798433 -2.5254156284 0.1479933077
| 28> H 1.3596237234 -2.158747911 -0.9279536556
| 29> H 2.9466988946 -0.409122307 0.5895489994
| 30> *
| 31>
| 32>                          ****END OF INPUT****

CARTESIAN COORDINATES (ANGSTROEM)
---------------------------------
  C      0.616049    1.700506   -0.060314
  C      1.396023    0.398228   -0.267805
  H      1.609415    0.273157   -1.344030
  C      0.533690   -0.783759    0.200547
  H      0.354840   -0.702118    1.278085
  C     -0.811309   -0.735109   -0.530740
  H     -0.630674   -0.783963   -1.619326
  C     -1.477898    0.623004   -0.243736
  H     -2.393927    0.705478   -0.843583
  O     -0.650623    1.670940   -0.699758
  O     -1.739541    0.713338    1.115539
  O     -1.674814   -1.771164   -0.149572
  O      1.184483   -2.018354    0.015290
  O      2.599310    0.486591    0.452751
  H      1.150947    2.541620   -0.499013
  H      0.499416    1.863045    1.017215
  H     -2.349675    1.444267    1.295167
  H     -1.140480   -2.525416    0.147993
  H      1.359624   -2.158748   -0.927954
  H      2.946699   -0.409122    0.589549

 Total Charge           Charge          ....    0
 Multiplicity           Mult            ....    1
 Number of Electrons    NEL             ....   80
 Basis Dimension        Dim             ....  265

ORBITAL ENERGIES
----------------

  NO   OCC          E(Eh)            E(eV)
   0   2.0000     -18.971149      -516.2312
   1   2.0000     -18.965803      -516.0857
   2   2.0000     -18.965261      -516.0710
   3   2.0000     -18.959794      -515.9222
   4   2.0000     -18.959509      -515.9145
   5   2.0000     -10.133863      -275.7564
   6   2.0000     -10.086632      -274.4712
   7   2.0000     -10.086349      -274.4635
   8   2.0000     -10.085399      -274.4376
   9   2.0000     -10.077188      -274.2142
  10   2.0000      -1.048223       -28.5236
  11   2.0000      -1.014465       -27.6050
  12   2.0000      -0.999769       -27.2051
  13   2.0000      -0.984852       -26.7992
  14   2.0000      -0.978454       -26.6251
  15   2.0000      -0.745237       -20.2789
  16   2.0000      -0.721592       -19.6355
  17   2.0000      -0.623242       -16.9593
  18   2.0000      -0.601831       -16.3767
  19   2.0000      -0.562217       -15.2987
  20   2.0000      -0.519780       -14.1439
  21   2.0000      -0.499946       -13.6042
  22   2.0000      -0.486957       -13.2508
  23   2.0000      -0.473265       -12.8782
  24   2.0000      -0.448611       -12.2073
  25   2.0000      -0.437124       -11.8947
  26   2.0000      -0.424108       -11.5406
  27   2.0000      -0.394199       -10.7267
  28   2.0000      -0.383862       -10.4454
  29   2.0000      -0.380798       -10.3620
  30   2.0000      -0.355731        -9.6799
  31   2.0000      -0.345896        -9.4123
  32   2.0000      -0.324972        -8.8429
  33   2.0000      -0.317007        -8.6262
  34   2.0000      -0.282407        -7.6847
  35   2.0000      -0.276509        -7.5242
  36   2.0000      -0.262417        -7.1407
  37   2.0000      -0.260584        -7.0909
  38   2.0000      -0.242382        -6.5956
  39   2.0000      -0.232793        -6.3346
  40   0.0000       0.039053         1.0627
  41   0.0000       0.067878         1.8470
  42   0.0000       0.084568         2.3012
  43   0.0000       0.092957         2.5295
  44   0.0000       0.103259         2.8098

MULLIKEN ATOMIC CHARGES
-----------------------
   0 C :   -0.280788
   1 C :    0.019621
   2 H :    0.177590
   3 C :   -0.052834
   4 H :    0.198535
   5 C :   -0.068032
   6 H :    0.188522
   7 C :    0.038365
   8 H :    0.161915
   9 O :   -0.258424
  10 O :   -0.447132
  11 O :   -0.482799
  12 O :   -0.486709
  13 O :   -0.489109
  14 H :    0.173532
  15 H :    0.180424
  16 H :    0.357034
  17 H :    0.358694
  18 H :    0.357574
  19 H :    0.354022
Sum of atomic charges:   -0.0000000

LOEWDIN ATOMIC CHARGES
----------------------
   0 C :    0.052115
   1 C :    0.098719
   2 H :    0.183928
   3 C :    0.095777
   4 H :    0.210062
   5 C :    0.115236
   6 H :    0.193493
   7 C :    0.289059
   8 H :    0.208419
   9 O :   -0.701006
  10 O :   -0.528874
  11 O :   -0.585757
  12 O :   -0.589278
  13 O :   -0.607867
  14 H :    0.196434
  15 H :    0.186568
  16 H :    0.298425
  17 H :    0.295815
  18 H :    0.294049
  19 H :    0.294681

  Mayer bond orders larger than 0.100000
B(  0-C ,  1-C ) :   0.8712 B(  0-C ,  9-O ) :   0.9306 B(  0-C , 14-H ) :   0.9325
B(  0-C , 15-H ) :   0.9832 B(  1-C ,  2-H ) :   0.9593 B(  1-C ,  3-C ) :   0.9147
B(  1-C , 13-O ) :   0.8917 B(  3-C ,  4-H ) :   0.9481 B(  3-C ,  5-C ) :   0.9001
B(  3-C , 12-O ) :   1.0292 B(  5-C ,  6-H ) :   0.9675 B(  5-C ,  7-C ) :   0.9323
B(  5-C , 11-O ) :   0.9150 B(  7-C ,  8-H ) :   0.9436 B(  7-C ,  9-O ) :   0.9350
B(  7-C , 10-O ) :   1.0216 B( 10-O , 16-H ) :   0.8643 B( 11-O , 17-H ) :   0.8482
B( 12-O , 18-H ) :   0.8580 B( 13-O , 19-H ) :   0.8540

Dispersion correction           -0.006304255
FINAL SINGLE POINT ENERGY      -572.590237338044

DIPOLE MOMENT
-------------

Method             : SCF
Type of density    : Electron Density
Multiplicity       :   1
Irrep              :   0
Energy             :  -572.6002247172442594 Eh
Relativity type    :
Basis              : AO
                                X                 Y                 Z
Electronic contribution:     -1.106495907      -0.507998245       0.113604040
Nuclear contribution   :      1.315074854       0.219243820      -0.839007184
                        -----------------------------------------
Total Dipole Moment    :      0.208578948      -0.288754425      -0.725403144
                        -----------------------------------------
Magnitude (a.u.)       :      0.808142324
Magnitude (Debye)      :      2.054134544

Rotational constants in cm-1:             0.056174             0.045315             0.029244
Rotational constants in MHz :          1684.049271          1358.501886           876.700213

                             ****ORCA TERMINATED NORMALLY****
TOTAL RUN TIME: 0 days 0 hours 0 minutes 45 seconds 660 msec
