                         Program Version 6.0.1  -  RELEASE   -
|  1> ! r2scan-3c def2/J RI DEFGRID2 scfconv6 printgap
|  2> %output
|  3>     printlevel normal
|  4> end
|  5> * xyz 0 1
|  6> C 3.9883822037 -3.7888513435 -1.4145644103
|  7> C 2.8866040462 -2.9889759937 -2.0912767394
|  8> O 2.6824937362 -1.7255649324 -1.4294149281
|  9> C 1.8850079147 -1.6877896282 -0.3820544266
| 10> O 1.2973748111 -2.6425042663 0.0748824046
| 11> C 1.7467271249 -0.2743557759 0.1543584748
| 12> C 0.851607109 0.5265550218 -0.7922192776
| 13> H 1.3676565519 0.6914894899 -1.7431706787
| 14> C 0.4353342609 1.8745593641 -0.226388341
| 15> O -0.686459672 2.3218350461 -0.3632860387
| 16> O 1.4176881742 2.480732481 0.376672054
| 17> C 1.1400473849 3.7592093951 0.988692813
| 18> C 2.436351589 4.2901616525 1.5651524782
| 19> S -0.6686411133 -0.3694490584 -1.2584917186
| 20> P -1.87588213 -0.0024472599 0.4527527966
| 21> S -1.0550577973 0.5281126372 2.1487158044
| 22> O -3.0768747705 0.932390098 0.0389429807
| 23> C -3.8448313651 0.7375973117 -1.1642306363
| 24> O -2.6474646712 -1.4079352034 0.5539948698
| 25> C -1.9938792412 -2.5732192384 1.0663605509
| 26> H 3.6937425228 -4.0473376676 -0.4000186715
| 27> H 4.163050638 -4.7022019069 -1.9734650293
| 28> H 4.9062122799 -3.2084752033 -1.3802461558
| 29> H 1.9433714082 -3.5422181704 -2.0819700643
| 30> H 3.1593342221 -2.7191427694 -3.1114136338
| 31> H 2.7240122071 0.2043193094 0.2022283872
| 32> H 1.3044022154 -0.3194246533 1.151207068
| 33> H 0.7250346452 4.4231976387 0.2245984234
| 34> H 0.3804579094 3.6015485629 1.7610430577
| 35> H 2.8181648958 3.6029747996 2.3137082268
| 36> H 3.1757411179 4.4044983154 0.7784568511
| 37> H 2.2513924282 5.2540901187 2.026944435
| 38> H -4.3261011433 -0.2387032206 -1.14425523
| 39> H -3.1939828317 0.8212650865 -2.0345424416
| 40> H -4.581300705 1.5367603851 -1.1584916295
| 41> H -1.1042524317 -2.8096697275 0.4803634298
| 42> H -2.7249772825 -3.3735233811 0.9936044065
| 43> H -1.7051523123 -2.4086390673 2.105183101
| 44> *
| 45>
| 46>                          ****END OF INPUT****

CARTESIAN COORDINATES (ANGSTROEM)
---------------------------------
  C      3.988382   -3.788851   -1.414564
  C      2.886604   -2.988976   -2.091277
  O      2.682494   -1.725565   -1.429415
  C      1.885008   -1.687790   -0.382054
  O      1.297375   -2.642504    0.074882
  C      1.746727   -0.274356    0.154358
  C      0.851607    0.526555   -0.792219
  H      1.367657    0.691489   -1.743171
  C      0.435334    1.874559   -0.226388
  O     -0.686460    2.321835   -0.363286
  O      1.417688    2.480732    0.376672
  C      1.140047    3.759209    0.988693
  C      2.436352    4.290162    1.565152
  S     -0.668641   -0.369449   -1.258492
  P     -1.875882   -0.002447    0.452753
  S     -1.055058    0.528113    2.148716
  O     -3.076875    0.932390    0.038943
  C     -3.844831    0.737597   -1.164231
  O     -2.647465   -1.407935    0.553995
  C     -1.993879   -2.573219    1.066361
  H      3.693743   -4.047338   -0.400019
  H      4.163051   -4.702202   -1.973465
  H      4.906212   -3.208475   -1.380246
  H      1.943371   -3.542218   -2.081970
  H      3.159334   -2.719143   -3.111414
  H      2.724012    0.204319    0.202228
  H      1.304402   -0.319425    1.151207
  H      0.725035    4.423198    0.224598
  H      0.380458    3.601549    1.761043
  H      2.818165    3.602975    2.313708
  H      3.175741    4.404498    0.778457
  H      2.251392    5.254090    2.026944
  H     -4.326101   -0.238703   -1.144255
  H     -3.193983    0.821265   -2.034542
  H     -4.581301    1.536760   -1.158492
  H     -1.104252   -2.809670    0.480363
  H     -2.724977   -3.373523    0.993604
  H     -1.705152   -2.408639    2.105183

 Total Charge           Charge          ....    0
 Multiplicity           Mult            ....    1
 Number of Electrons    NEL             ....  174
 Basis Dimension        Dim             ....  510

ORBITAL ENERGIES
----------------

  NO   OCC          E(Eh)            E(eV)
   0   2.0000     -88.569589     -2410.1011
   1   2.0000     -88.509854     -2408.4756
   2   2.0000     -76.906619     -2092.7355
   3   2.0000     -19.011903      -517.3402
   4   2.0000     -19.006759      -517.2002
   5   2.0000     -18.981674      -516.5176
   6   2.0000     -18.976913      -516.3881
   7   2.0000     -18.935562      -515.2628
   8   2.0000     -18.934861      -515.2438
   9   2.0000     -10.166978      -276.6575
  10   2.0000     -10.160424      -276.4792
  11   2.0000     -10.102203      -274.8949
  12   2.0000     -10.098339      -274.7898
  13   2.0000     -10.097218      -274.7593
  14   2.0000     -10.087644      -274.4987
  15   2.0000     -10.071846      -274.0689
  16   2.0000     -10.052059      -273.5304
  17   2.0000     -10.035638      -273.0836
  18   2.0000     -10.033794      -273.0334
  19   2.0000      -7.864158      -213.9946
  20   2.0000      -7.804991      -212.3846
  21   2.0000      -6.584551      -179.1748
  22   2.0000      -5.811268      -158.1326
  23   2.0000      -5.808038      -158.0447
  24   2.0000      -5.800950      -157.8519
  25   2.0000      -5.752905      -156.5445
  26   2.0000      -5.745377      -156.3397
  27   2.0000      -5.744553      -156.3172
  28   2.0000      -4.730158      -128.7141
  29   2.0000      -4.729719      -128.7022
  30   2.0000      -4.728115      -128.6586
  31   2.0000      -1.090110       -29.6634
  32   2.0000      -1.082625       -29.4597
  33   2.0000      -1.038021       -28.2460
  34   2.0000      -0.995372       -27.0855
  35   2.0000      -0.988399       -26.8957
  36   2.0000      -0.984749       -26.7964
  37   2.0000      -0.811668       -22.0866
  38   2.0000      -0.756997       -20.5989
  39   2.0000      -0.750406       -20.4196
  40   2.0000      -0.723629       -19.6909
  41   2.0000      -0.693496       -18.8710
  42   2.0000      -0.662980       -18.0406
  43   2.0000      -0.656117       -17.8539
  44   2.0000      -0.648354       -17.6426
  45   2.0000      -0.627984       -17.0883
  46   2.0000      -0.597637       -16.2625
  47   2.0000      -0.544455       -14.8154
  48   2.0000      -0.533523       -14.5179
  49   2.0000      -0.524414       -14.2700
  50   2.0000      -0.500883       -13.6297
  51   2.0000      -0.481698       -13.1077
  52   2.0000      -0.475585       -12.9413
  53   2.0000      -0.472286       -12.8515
  54   2.0000      -0.462160       -12.5760
  55   2.0000      -0.452327       -12.3084
  56   2.0000      -0.445054       -12.1105
  57   2.0000      -0.437769       -11.9123
  58   2.0000      -0.434627       -11.8268
  59   2.0000      -0.420936       -11.4543
  60   2.0000      -0.417822       -11.3695
  61   2.0000      -0.411074       -11.1859
  62   2.0000      -0.406797       -11.0695
  63   2.0000      -0.397471       -10.8157
  64   2.0000      -0.389839       -10.6081
  65   2.0000      -0.388214       -10.5638
  66   2.0000      -0.378727       -10.3057
  67   2.0000      -0.373208       -10.1555
  68   2.0000      -0.359838        -9.7917
  69   2.0000      -0.354019        -9.6334
  70   2.0000      -0.349558        -9.5119
  71   2.0000      -0.342454        -9.3187
  72   2.0000      -0.335678        -9.1343
  73   2.0000      -0.325663        -8.8617
  74   2.0000      -0.324560        -8.8317
  75   2.0000      -0.315545        -8.5864
  76   2.0000      -0.308349        -8.3906
  77   2.0000      -0.302821        -8.2402
  78   2.0000      -0.284114        -7.7311
  79   2.0000      -0.280795        -7.6408
  80   2.0000      -0.277501        -7.5512
  81   2.0000      -0.264437        -7.1957
  82   2.0000      -0.255889        -6.9631
  83   2.0000      -0.236912        -6.4467
  84   2.0000      -0.228431        -6.2159
  85   2.0000      -0.209646        -5.7048
  86   2.0000      -0.204991        -5.5781
  87   0.0000      -0.043780        -1.1913
  88   0.0000      -0.031105        -0.8464
  89   0.0000      -0.014472        -0.3938
  90   0.0000       0.006558         0.1784
  91   0.0000       0.023798         0.6476

MULLIKEN ATOMIC CHARGES
-----------------------
   0 C :   -0.469743
   1 C :   -0.133568
   2 O :   -0.173153
   3 C :    0.435492
   4 O :   -0.399874
   5 C :   -0.501295
   6 C :    0.062696
   7 H :    0.196555
   8 C :    0.230958
   9 O :   -0.380887
  10 O :   -0.124260
  11 C :   -0.154109
  12 C :   -0.447150
  13 S :   -0.181880
  14 P :    0.788219
  15 S :   -0.463423
  16 O :   -0.297458
  17 C :   -0.301182
  18 O :   -0.359527
  19 C :   -0.301951
  20 H :    0.175801
  21 H :    0.148849
  22 H :    0.151986
  23 H :    0.169639
  24 H :    0.149081
  25 H :    0.176464
  26 H :    0.221930
  27 H :    0.158866
  28 H :    0.177053
  29 H :    0.157042
  30 H :    0.151260
  31 H :    0.150932
  32 H :    0.167175
  33 H :    0.168612
  34 H :    0.155260
  35 H :    0.183974
  36 H :    0.142722
  37 H :    0.168893
Sum of atomic charges:    0.0000000

LOEWDIN ATOMIC CHARGES
----------------------
   0 C :   -0.388970
   1 C :    0.029586
   2 O :   -0.590344
   3 C :    0.338957
   4 O :   -0.439285
   5 C :   -0.210289
   6 C :   -0.190199
   7 H :    0.204114
   8 C :    0.334394
   9 O :   -0.450265
  10 O :   -0.575763
  11 C :    0.039653
  12 C :   -0.384596
  13 S :    0.224838
  14 P :    0.417296
  15 S :   -0.072909
  16 O :   -0.639861
  17 C :   -0.051279
  18 O :   -0.689172
  19 C :   -0.062342
  20 H :    0.166601
  21 H :    0.160061
  22 H :    0.157563
  23 H :    0.188700
  24 H :    0.178508
  25 H :    0.189813
  26 H :    0.200556
  27 H :    0.181282
  28 H :    0.189352
  29 H :    0.161381
  30 H :    0.158825
  31 H :    0.161740
  32 H :    0.171718
  33 H :    0.173958
  34 H :    0.180651
  35 H :    0.187937
  36 H :    0.172495
  37 H :    0.175294

  Mayer bond orders larger than 0.100000
B(  0-C ,  1-C ) :   0.9379 B(  0-C , 20-H ) :   0.9707 B(  0-C , 21-H ) :   0.9647
B(  0-C , 22-H ) :   0.9725 B(  1-C ,  2-O ) :   0.8135 B(  1-C , 23-H ) :   0.9678
B(  1-C , 24-H ) :   0.9605 B(  2-O ,  3-C ) :   1.0217 B(  3-C ,  4-O ) :   1.8127
B(  3-C ,  5-C ) :   0.8878 B(  5-C ,  6-C ) :   0.8987 B(  5-C , 25-H ) :   0.9454
B(  5-C , 26-H ) :   0.9797 B(  6-C ,  7-H ) :   0.8780 B(  6-C ,  8-C ) :   0.9348
B(  6-C , 13-S ) :   0.8317 B(  8-C ,  9-O ) :   1.7792 B(  8-C , 10-O ) :   1.1669
B( 10-O , 11-C ) :   0.7795 B( 11-C , 12-C ) :   0.9431 B( 11-C , 27-H ) :   0.9532
B( 11-C , 28-H ) :   0.9457 B( 12-C , 29-H ) :   0.9708 B( 12-C , 30-H ) :   0.9745
B( 12-C , 31-H ) :   0.9667 B( 13-S , 14-P ) :   0.9976 B( 14-P , 15-S ) :   1.7399
B( 14-P , 16-O ) :   1.1942 B( 14-P , 18-O ) :   1.0254 B( 16-O , 17-C ) :   0.7983
B( 17-C , 32-H ) :   0.9634 B( 17-C , 33-H ) :   0.9572 B( 17-C , 34-H ) :   0.9650
B( 18-O , 19-C ) :   0.8356 B( 19-C , 35-H ) :   0.9425 B( 19-C , 36-H ) :   0.9690
B( 19-C , 37-H ) :   0.9582

Dispersion correction           -0.017384344
FINAL SINGLE POINT ENERGY     -1981.447563464679

DIPOLE MOMENT
-------------

Method             : SCF
Type of density    : Electron Density
Multiplicity       :   1
Irrep              :   0
Energy             : -1981.4676433785907648 Eh
Relativity type    :
Basis              : AO
                                X                 Y                 Z
Electronic contribution:    -14.588106614       2.709391065       1.975506760
Nuclear contribution   :     15.761815730      -2.657281190      -3.246743281
                        -----------------------------------------
Total Dipole Moment    :      1.173709116       0.052109875      -1.271236522
                        -----------------------------------------
Magnitude (a.u.)       :      1.730997060
Magnitude (Debye)      :      4.399844866

Rotational constants in cm-1:             0.010770             0.007970             0.005576
Rotational constants in MHz :           322.877089           238.943865           167.168457

                             ****ORCA TERMINATED NORMALLY****
TOTAL RUN TIME: 0 days 0 hours 1 minutes 14 seconds 921 msec
