                         Program Version 6.0.1  -  RELEASE   -
|  1> ! r2scan-3c def2/J RI DEFGRID2 scfconv6 printgap
|  2> %output
|  3>     printlevel normal
|  4> end
|  5> %cpcm
|  6>     smd true
|  7>     smdsolvent "water"
|  8> end
|  9> * xyz 0 1
| 10> C 3.9883822037 -3.7888513435 -1.4145644103
| 11> C 2.8866040462 -2.9889759937 -2.0912767394
| 12> O 2.6824937362 -1.7255649324 -1.4294149281
| 13> C 1.8850079147 -1.6877896282 -0.3820544266
| 14> O 1.2973748111 -2.6425042663 0.0748824046
| 15> C 1.7467271249 -0.2743557759 0.1543584748
| 16> C 0.851607109 0.5265550218 -0.7922192776
| 17> H 1.3676565519 0.6914894899 -1.7431706787
| 18> C 0.4353342609 1.8745593641 -0.226388341
| 19> O -0.686459672 2.3218350461 -0.3632860387
| 20> O 1.4176881742 2.480732481 0.376672054
| 21> C 1.1400473849 3.7592093951 0.988692813
| 22> C 2.436351589 4.2901616525 1.5651524782
| 23> S -0.6686411133 -0.3694490584 -1.2584917186
| 24> P -1.87588213 -0.0024472599 0.4527527966
| 25> S -1.0550577973 0.5281126372 2.1487158044
| 26> O -3.0768747705 0.932390098 0.0389429807
| 27> C -3.8448313651 0.7375973117 -1.1642306363
| 28> O -2.6474646712 -1.4079352034 0.5539948698
| 29> C -1.9938792412 -2.5732192384 1.0663605509
| 30> H 3.6937425228 -4.0473376676 -0.4000186715
| 31> H 4.163050638 -4.7022019069 -1.9734650293
| 32> H 4.9062122799 -3.2084752033 -1.3802461558
| 33> H 1.9433714082 -3.5422181704 -2.0819700643
| 34> H 3.1593342221 -2.7191427694 -3.1114136338
| 35> H 2.7240122071 0.2043193094 0.2022283872
| 36> H 1.3044022154 -0.3194246533 1.151207068
| 37> H 0.7250346452 4.4231976387 0.2245984234
| 38> H 0.3804579094 3.6015485629 1.7610430577
| 39> H 2.8181648958 3.6029747996 2.3137082268
| 40> H 3.1757411179 4.4044983154 0.7784568511
| 41> H 2.2513924282 5.2540901187 2.026944435
| 42> H -4.3261011433 -0.2387032206 -1.14425523
| 43> H -3.1939828317 0.8212650865 -2.0345424416
| 44> H -4.581300705 1.5367603851 -1.1584916295
| 45> H -1.1042524317 -2.8096697275 0.4803634298
| 46> H -2.7249772825 -3.3735233811 0.9936044065
| 47> H -1.7051523123 -2.4086390673 2.105183101
| 48> *
| 49>
| 50>                          ****END OF INPUT****

CARTESIAN COORDINATES (ANGSTROEM)
---------------------------------
  C      3.988382   -3.788851   -1.414564
  C      2.886604   -2.988976   -2.091277
  O      2.682494   -1.725565   -1.429415
  C      1.885008   -1.687790   -0.382054
  O      1.297375   -2.642504    0.074882
  C      1.746727   -0.274356    0.154358
  C      0.851607    0.526555   -0.792219
  H      1.367657    0.691489   -1.743171
  C      0.435334    1.874559   -0.226388
  O     -0.686460    2.321835   -0.363286
  O      1.417688    2.480732    0.376672
  C      1.140047    3.759209    0.988693
  C      2.436352    4.290162    1.565152
  S     -0.668641   -0.369449   -1.258492
  P     -1.875882   -0.002447    0.452753
  S     -1.055058    0.528113    2.148716
  O     -3.076875    0.932390    0.038943
  C     -3.844831    0.737597   -1.164231
  O     -2.647465   -1.407935    0.553995
  C     -1.993879   -2.573219    1.066361
  H      3.693743   -4.047338   -0.400019
  H      4.163051   -4.702202   -1.973465
  H      4.906212   -3.208475   -1.380246
  H      1.943371   -3.542218   -2.081970
  H      3.159334   -2.719143   -3.111414
  H      2.724012    0.204319    0.202228
  H      1.304402   -0.319425    1.151207
  H      0.725035    4.423198    0.224598
  H      0.380458    3.601549    1.761043
  H      2.818165    3.602975    2.313708
  H      3.175741    4.404498    0.778457
  H      2.251392    5.254090    2.026944
  H     -4.326101   -0.238703   -1.144255
  H     -3.193983    0.821265   -2.034542
  H     -4.581301    1.536760   -1.158492
  H     -1.104252   -2.809670    0.480363
  H     -2.724977   -3.373523    0.993604
  H     -1.705152   -2.408639    2.105183

 Total Charge           Charge          ....    0
 Multiplicity           Mult            ....    1
 Number of Electrons    NEL             ....  174
 Basis Dimension        Dim             ....  510

ORBITAL ENERGIES
----------------

  NO   OCC          E(Eh)            E(eV)
   0   2.0000     -88.578992     -2410.3569
   1   2.0000     -88.527957     -2408.9682
   2   2.0000     -76.921518     -2093.1409
   3   2.0000     -19.016465      -517.4643
   4   2.0000     -19.008332      -517.2430
   5   2.0000     -18.996534      -516.9220
   6   2.0000     -18.990778      -516.7653
   7   2.0000     -18.950541      -515.6704
   8   2.0000     -18.947503      -515.5878
   9   2.0000     -10.178303      -276.9657
  10   2.0000     -10.169298      -276.7207
  11   2.0000     -10.103268      -274.9239
  12   2.0000     -10.089834      -274.5583
  13   2.0000     -10.086022      -274.4546
  14   2.0000     -10.084715      -274.4191
  15   2.0000     -10.077901      -274.2336
  16   2.0000     -10.052725      -273.5486
  17   2.0000     -10.020654      -272.6759
  18   2.0000     -10.019271      -272.6382
  19   2.0000      -7.873477      -214.2482
  20   2.0000      -7.823354      -212.8843
  21   2.0000      -6.599620      -179.5848
  22   2.0000      -5.820569      -158.3857
  23   2.0000      -5.817344      -158.2980
  24   2.0000      -5.810316      -158.1067
  25   2.0000      -5.771161      -157.0413
  26   2.0000      -5.763748      -156.8396
  27   2.0000      -5.762962      -156.8182
  28   2.0000      -4.745235      -129.1244
  29   2.0000      -4.744716      -129.1103
  30   2.0000      -4.743241      -129.0702
  31   2.0000      -1.096540       -29.8384
  32   2.0000      -1.086224       -29.5577
  33   2.0000      -1.052338       -28.6356
  34   2.0000      -1.009144       -27.4602
  35   2.0000      -1.001427       -27.2502
  36   2.0000      -0.995092       -27.0778
  37   2.0000      -0.814824       -22.1725
  38   2.0000      -0.749776       -20.4024
  39   2.0000      -0.747837       -20.3497
  40   2.0000      -0.728738       -19.8300
  41   2.0000      -0.695925       -18.9371
  42   2.0000      -0.667913       -18.1748
  43   2.0000      -0.662061       -18.0156
  44   2.0000      -0.654073       -17.7982
  45   2.0000      -0.620870       -16.8947
  46   2.0000      -0.595745       -16.2111
  47   2.0000      -0.544532       -14.8175
  48   2.0000      -0.534036       -14.5319
  49   2.0000      -0.525362       -14.2958
  50   2.0000      -0.504482       -13.7277
  51   2.0000      -0.491055       -13.3623
  52   2.0000      -0.481189       -13.0938
  53   2.0000      -0.474527       -12.9125
  54   2.0000      -0.463761       -12.6196
  55   2.0000      -0.458275       -12.4703
  56   2.0000      -0.451093       -12.2749
  57   2.0000      -0.446550       -12.1513
  58   2.0000      -0.441230       -12.0065
  59   2.0000      -0.425055       -11.5663
  60   2.0000      -0.419490       -11.4149
  61   2.0000      -0.412642       -11.2286
  62   2.0000      -0.410838       -11.1795
  63   2.0000      -0.401649       -10.9294
  64   2.0000      -0.388936       -10.5835
  65   2.0000      -0.387059       -10.5324
  66   2.0000      -0.368992       -10.0408
  67   2.0000      -0.366672        -9.9777
  68   2.0000      -0.360649        -9.8138
  69   2.0000      -0.351614        -9.5679
  70   2.0000      -0.349810        -9.5188
  71   2.0000      -0.339583        -9.2405
  72   2.0000      -0.335014        -9.1162
  73   2.0000      -0.329646        -8.9701
  74   2.0000      -0.324234        -8.8229
  75   2.0000      -0.317174        -8.6307
  76   2.0000      -0.313547        -8.5320
  77   2.0000      -0.308001        -8.3811
  78   2.0000      -0.291543        -7.9333
  79   2.0000      -0.286481        -7.7956
  80   2.0000      -0.283588        -7.7168
  81   2.0000      -0.276783        -7.5317
  82   2.0000      -0.269919        -7.3449
  83   2.0000      -0.250756        -6.8234
  84   2.0000      -0.241642        -6.5754
  85   2.0000      -0.226703        -6.1689
  86   2.0000      -0.223985        -6.0950
  87   0.0000      -0.053635        -1.4595
  88   0.0000      -0.041190        -1.1208
  89   0.0000      -0.022185        -0.6037
  90   0.0000      -0.001496        -0.0407
  91   0.0000       0.011656         0.3172

MULLIKEN ATOMIC CHARGES
-----------------------
   0 C :   -0.495665
   1 C :   -0.138381
   2 O :   -0.181720
   3 C :    0.460192
   4 O :   -0.468186
   5 C :   -0.515619
   6 C :    0.084235
   7 H :    0.245722
   8 C :    0.257085
   9 O :   -0.444340
  10 O :   -0.133541
  11 C :   -0.150792
  12 C :   -0.492307
  13 S :   -0.187700
  14 P :    0.786793
  15 S :   -0.500059
  16 O :   -0.348418
  17 C :   -0.304582
  18 O :   -0.382961
  19 C :   -0.318803
  20 H :    0.170578
  21 H :    0.171810
  22 H :    0.166695
  23 H :    0.174789
  24 H :    0.176499
  25 H :    0.206894
  26 H :    0.216101
  27 H :    0.177740
  28 H :    0.178278
  29 H :    0.166903
  30 H :    0.167702
  31 H :    0.172405
  32 H :    0.186310
  33 H :    0.179522
  34 H :    0.182307
  35 H :    0.179417
  36 H :    0.176287
  37 H :    0.178809
Sum of atomic charges:    0.0000000

LOEWDIN ATOMIC CHARGES
----------------------
   0 C :   -0.391578
   1 C :    0.035618
   2 O :   -0.585138
   3 C :    0.346817
   4 O :   -0.488068
   5 C :   -0.205623
   6 C :   -0.181180
   7 H :    0.224544
   8 C :    0.344234
   9 O :   -0.498718
  10 O :   -0.570898
  11 C :    0.043095
  12 C :   -0.386374
  13 S :    0.231076
  14 P :    0.410769
  15 S :   -0.103451
  16 O :   -0.671830
  17 C :   -0.043889
  18 O :   -0.701119
  19 C :   -0.061027
  20 H :    0.163135
  21 H :    0.168553
  22 H :    0.162640
  23 H :    0.190469
  24 H :    0.190489
  25 H :    0.203981
  26 H :    0.196788
  27 H :    0.188265
  28 H :    0.188805
  29 H :    0.163902
  30 H :    0.164220
  31 H :    0.170159
  32 H :    0.181196
  33 H :    0.179663
  34 H :    0.191928
  35 H :    0.185019
  36 H :    0.186618
  37 H :    0.176910

  Mayer bond orders larger than 0.100000
B(  0-C ,  1-C ) :   0.9355 B(  0-C , 20-H ) :   0.9691 B(  0-C , 21-H ) :   0.9596
B(  0-C , 22-H ) :   0.9688 B(  1-C ,  2-O ) :   0.7945 B(  1-C , 23-H ) :   0.9632
B(  1-C , 24-H ) :   0.9507 B(  2-O ,  3-C ) :   1.0559 B(  3-C ,  4-O ) :   1.7544
B(  3-C ,  5-C ) :   0.8943 B(  5-C ,  6-C ) :   0.8866 B(  5-C , 25-H ) :   0.9266
B(  5-C , 26-H ) :   0.9889 B(  6-C ,  7-H ) :   0.8518 B(  6-C ,  8-C ) :   0.9538
B(  6-C , 13-S ) :   0.8026 B(  8-C ,  9-O ) :   1.7350 B(  8-C , 10-O ) :   1.1879
B( 10-O , 11-C ) :   0.7674 B( 11-C , 12-C ) :   0.9460 B( 11-C , 27-H ) :   0.9461
B( 11-C , 28-H ) :   0.9391 B( 12-C , 29-H ) :   0.9683 B( 12-C , 30-H ) :   0.9715
B( 12-C , 31-H ) :   0.9606 B( 13-S , 14-P ) :   1.0206 B( 14-P , 15-S ) :   1.7435
B( 14-P , 16-O ) :   1.1800 B( 14-P , 18-O ) :   1.0166 B( 16-O , 17-C ) :   0.7919
B( 17-C , 32-H ) :   0.9534 B( 17-C , 33-H ) :   0.9475 B( 17-C , 34-H ) :   0.9542
B( 18-O , 19-C ) :   0.8269 B( 19-C , 35-H ) :   0.9424 B( 19-C , 36-H ) :   0.9581
B( 19-C , 37-H ) :   0.9548

Dispersion correction           -0.017384344
FINAL SINGLE POINT ENERGY     -1981.462173757349

DIPOLE MOMENT
-------------

Method             : SCF
Type of density    : Electron Density
Multiplicity       :   1
Irrep              :   0
Energy             : -1981.4822536712606507 Eh
Relativity type    :
Basis              : AO
                                X                 Y                 Z
Electronic contribution:    -13.940640366       2.694729993       1.299813837
Nuclear contribution   :     15.761815730      -2.657281190      -3.246743281
                        -----------------------------------------
Total Dipole Moment    :      1.821175364       0.037448803      -1.946929444
                        -----------------------------------------
Magnitude (a.u.)       :      2.666198864
Magnitude (Debye)      :      6.776938940

Rotational constants in cm-1:             0.010770             0.007970             0.005576
Rotational constants in MHz :           322.877089           238.943865           167.168457

                             ****ORCA TERMINATED NORMALLY****
TOTAL RUN TIME: 0 days 0 hours 1 minutes 42 seconds 449 msec
