                         Program Version 6.0.0  -   RELEASE  -
|  1> ! r2scan-3c def2/J RI DEFGRID2 scfconv6 printgap
|  2> %output
|  3>     printlevel normal
|  4> end
|  5> * xyz 0 1
|  6> C -0.7253731347 -1.8173169324 5.19921e-05
|  7> C 0.5997696771 -1.4264122658 -6.36902e-05
|  8> C 0.9030898757 -0.0631022753 -4.95786e-05
|  9> C -0.1087245263 0.892949679 -3.24612e-05
| 10> C -1.4386791103 0.4849219477 5.3132e-05
| 11> C -1.7403107147 -0.8756909458 0.0001283793
| 12> O -2.3923868713 1.4430297058 -2.85868e-05
| 13> C 2.2511684485 0.3536871629 -0.0002054187
| 14> N 3.3510894558 0.6850231634 0.0001867401
| 15> H -0.9731191194 -2.867004376 -0.0001319735
| 16> H 1.3962714487 -2.1534250074 -0.0002172474
| 17> H 0.1224053839 1.9464638446 -6.94559e-05
| 18> H -2.7708193418 -1.1976839321 -0.0003348648
| 19> H -3.2804728169 1.0525556297 1.41766e-05
| 20> *
| 21>
| 22>                          ****END OF INPUT****

CARTESIAN COORDINATES (ANGSTROEM)
---------------------------------
  C     -0.725373   -1.817317    0.000052
  C      0.599770   -1.426412   -0.000064
  C      0.903090   -0.063102   -0.000050
  C     -0.108725    0.892950   -0.000032
  C     -1.438679    0.484922    0.000053
  C     -1.740311   -0.875691    0.000128
  O     -2.392387    1.443030   -0.000029
  C      2.251168    0.353687   -0.000205
  N      3.351089    0.685023    0.000187
  H     -0.973119   -2.867004   -0.000132
  H      1.396271   -2.153425   -0.000217
  H      0.122405    1.946464   -0.000069
  H     -2.770819   -1.197684   -0.000335
  H     -3.280473    1.052556    0.000014

 Total Charge           Charge          ....    0
 Multiplicity           Mult            ....    1
 Number of Electrons    NEL             ....   62
 Basis Dimension        Dim             ....  206

ORBITAL ENERGIES
----------------

  NO   OCC          E(Eh)            E(eV)
   0   2.0000     -19.010331      -517.2974
   1   2.0000     -14.156968      -385.2307
   2   2.0000     -10.126646      -275.5600
   3   2.0000     -10.092191      -274.6225
   4   2.0000     -10.069581      -274.0072
   5   2.0000     -10.065622      -273.8995
   6   2.0000     -10.064493      -273.8688
   7   2.0000     -10.064314      -273.8639
   8   2.0000     -10.061735      -273.7937
   9   2.0000      -1.056611       -28.7519
  10   2.0000      -0.882909       -24.0252
  11   2.0000      -0.851991       -23.1839
  12   2.0000      -0.762886       -20.7592
  13   2.0000      -0.742396       -20.2016
  14   2.0000      -0.644559       -17.5393
  15   2.0000      -0.607570       -16.5328
  16   2.0000      -0.572657       -15.5828
  17   2.0000      -0.497249       -13.5308
  18   2.0000      -0.479345       -13.0436
  19   2.0000      -0.466970       -12.7069
  20   2.0000      -0.427356       -11.6290
  21   2.0000      -0.413491       -11.2517
  22   2.0000      -0.390155       -10.6167
  23   2.0000      -0.370787       -10.0896
  24   2.0000      -0.366559        -9.9746
  25   2.0000      -0.343461        -9.3460
  26   2.0000      -0.327467        -8.9108
  27   2.0000      -0.319002        -8.6805
  28   2.0000      -0.313053        -8.5186
  29   2.0000      -0.259766        -7.0686
  30   2.0000      -0.233808        -6.3622
  31   0.0000      -0.084058        -2.2873
  32   0.0000      -0.047492        -1.2923
  33   0.0000       0.006636         0.1806
  34   0.0000       0.037923         1.0319
  35   0.0000       0.049367         1.3433

MULLIKEN ATOMIC CHARGES
-----------------------
   0 C :   -0.147092
   1 C :   -0.203432
   2 C :    0.047263
   3 C :   -0.314222
   4 C :    0.376818
   5 C :   -0.283728
   6 O :   -0.399716
   7 C :    0.225248
   8 N :   -0.245577
   9 H :    0.151379
  10 H :    0.160840
  11 H :    0.169769
  12 H :    0.142474
  13 H :    0.319977
Sum of atomic charges:    0.0000000

LOEWDIN ATOMIC CHARGES
----------------------
   0 C :   -0.138890
   1 C :   -0.140799
   2 C :   -0.062773
   3 C :   -0.093012
   4 C :    0.188878
   5 C :   -0.152409
   6 O :   -0.481086
   7 C :    0.164327
   8 N :   -0.295569
   9 H :    0.173969
  10 H :    0.181636
  11 H :    0.194153
  12 H :    0.172571
  13 H :    0.289006

  Mayer bond orders larger than 0.100000
B(  0-C ,  1-C ) :   1.4329 B(  0-C ,  5-C ) :   1.4076 B(  0-C ,  9-H ) :   0.9470
B(  1-C ,  2-C ) :   1.3708 B(  1-C , 10-H ) :   0.9507 B(  2-C ,  3-C ) :   1.3869
B(  2-C ,  7-C ) :   1.0541 B(  3-C ,  4-C ) :   1.4363 B(  3-C ,  6-O ) :   0.1131
B(  3-C , 11-H ) :   0.9469 B(  4-C ,  5-C ) :   1.3296 B(  4-C ,  6-O ) :   0.9218
B(  5-C , 12-H ) :   0.9340 B(  6-O , 13-H ) :   0.8772 B(  7-C ,  8-N ) :   2.8369

Dispersion correction           -0.004700691
FINAL SINGLE POINT ENERGY      -399.625241415819

DIPOLE MOMENT
-------------

Method             : SCF
Type of density    : Electron Density
Multiplicity       :   1
Irrep              :   0
Energy             :  -399.6243906404410495 Eh
Relativity type    :
Basis              : AO
                                X                 Y                 Z
Electronic contribution:      2.992576628       2.159966988       0.000316881
Nuclear contribution   :     -5.182340684      -2.994916131      -0.000693049
                        -----------------------------------------
Total Dipole Moment    :     -2.189764056      -0.834949143      -0.000376168
                        -----------------------------------------
Magnitude (a.u.)       :      2.343545782
Magnitude (Debye)      :      5.956819982

Rotational constants in cm-1:             0.115071             0.040810             0.030126
Rotational constants in MHz :          3449.733458          1223.464302           903.155821

                             ****ORCA TERMINATED NORMALLY****
TOTAL RUN TIME: 0 days 0 hours 0 minutes 43 seconds 321 msec
