                         Program Version 6.0.0  -   RELEASE  -
|  1> ! r2scan-3c def2/J RI DEFGRID2 scfconv6 printgap
|  2> %output
|  3>     printlevel normal
|  4> end
|  5> %cpcm
|  6>     smd true
|  7>     smdsolvent "water"
|  8> end
|  9> * xyz 0 1
| 10> C -0.7253731347 -1.8173169324 5.19921e-05
| 11> C 0.5997696771 -1.4264122658 -6.36902e-05
| 12> C 0.9030898757 -0.0631022753 -4.95786e-05
| 13> C -0.1087245263 0.892949679 -3.24612e-05
| 14> C -1.4386791103 0.4849219477 5.3132e-05
| 15> C -1.7403107147 -0.8756909458 0.0001283793
| 16> O -2.3923868713 1.4430297058 -2.85868e-05
| 17> C 2.2511684485 0.3536871629 -0.0002054187
| 18> N 3.3510894558 0.6850231634 0.0001867401
| 19> H -0.9731191194 -2.867004376 -0.0001319735
| 20> H 1.3962714487 -2.1534250074 -0.0002172474
| 21> H 0.1224053839 1.9464638446 -6.94559e-05
| 22> H -2.7708193418 -1.1976839321 -0.0003348648
| 23> H -3.2804728169 1.0525556297 1.41766e-05
| 24> *
| 25>
| 26>                          ****END OF INPUT****

CARTESIAN COORDINATES (ANGSTROEM)
---------------------------------
  C     -0.725373   -1.817317    0.000052
  C      0.599770   -1.426412   -0.000064
  C      0.903090   -0.063102   -0.000050
  C     -0.108725    0.892950   -0.000032
  C     -1.438679    0.484922    0.000053
  C     -1.740311   -0.875691    0.000128
  O     -2.392387    1.443030   -0.000029
  C      2.251168    0.353687   -0.000205
  N      3.351089    0.685023    0.000187
  H     -0.973119   -2.867004   -0.000132
  H      1.396271   -2.153425   -0.000217
  H      0.122405    1.946464   -0.000069
  H     -2.770819   -1.197684   -0.000335
  H     -3.280473    1.052556    0.000014

 Total Charge           Charge          ....    0
 Multiplicity           Mult            ....    1
 Number of Electrons    NEL             ....   62
 Basis Dimension        Dim             ....  206

ORBITAL ENERGIES
----------------

  NO   OCC          E(Eh)            E(eV)
   0   2.0000     -18.990892      -516.7685
   1   2.0000     -14.165325      -385.4581
   2   2.0000     -10.112138      -275.1653
   3   2.0000     -10.083463      -274.3850
   4   2.0000     -10.082822      -274.3675
   5   2.0000     -10.052925      -273.5540
   6   2.0000     -10.049556      -273.4623
   7   2.0000     -10.048587      -273.4359
   8   2.0000     -10.047024      -273.3934
   9   2.0000      -1.037203       -28.2237
  10   2.0000      -0.891503       -24.2590
  11   2.0000      -0.843179       -22.9441
  12   2.0000      -0.751736       -20.4558
  13   2.0000      -0.728709       -19.8292
  14   2.0000      -0.631757       -17.1910
  15   2.0000      -0.592328       -16.1181
  16   2.0000      -0.557655       -15.1746
  17   2.0000      -0.479664       -13.0523
  18   2.0000      -0.463591       -12.6150
  19   2.0000      -0.454787       -12.3754
  20   2.0000      -0.410340       -11.1659
  21   2.0000      -0.402195       -10.9443
  22   2.0000      -0.376472       -10.2443
  23   2.0000      -0.364804        -9.9268
  24   2.0000      -0.357939        -9.7400
  25   2.0000      -0.345156        -9.3922
  26   2.0000      -0.328090        -8.9278
  27   2.0000      -0.318580        -8.6690
  28   2.0000      -0.315031        -8.5724
  29   2.0000      -0.253260        -6.8916
  30   2.0000      -0.221788        -6.0352
  31   0.0000      -0.078223        -2.1286
  32   0.0000      -0.035374        -0.9626
  33   0.0000      -0.001510        -0.0411
  34   0.0000       0.051112         1.3908
  35   0.0000       0.061170         1.6645

MULLIKEN ATOMIC CHARGES
-----------------------
   0 C :   -0.185590
   1 C :   -0.216678
   2 C :    0.008181
   3 C :   -0.315607
   4 C :    0.311109
   5 C :   -0.259612
   6 O :   -0.437256
   7 C :    0.285344
   8 N :   -0.344798
   9 H :    0.187966
  10 H :    0.194297
  11 H :    0.200102
  12 H :    0.194624
  13 H :    0.377920
Sum of atomic charges:    0.0000000

LOEWDIN ATOMIC CHARGES
----------------------
   0 C :   -0.142673
   1 C :   -0.141736
   2 C :   -0.079510
   3 C :   -0.097315
   4 C :    0.182660
   5 C :   -0.132874
   6 O :   -0.492573
   7 C :    0.185502
   8 N :   -0.366005
   9 H :    0.186795
  10 H :    0.191631
  11 H :    0.202354
  12 H :    0.192592
  13 H :    0.311153

  Mayer bond orders larger than 0.100000
B(  0-C ,  1-C ) :   1.4064 B(  0-C ,  5-C ) :   1.3709 B(  0-C ,  9-H ) :   0.9569
B(  1-C ,  2-C ) :   1.3352 B(  1-C , 10-H ) :   0.9492 B(  2-C ,  3-C ) :   1.3669
B(  2-C ,  7-C ) :   1.0566 B(  3-C ,  4-C ) :   1.4213 B(  3-C ,  6-O ) :   0.1060
B(  3-C , 11-H ) :   0.9354 B(  4-C ,  5-C ) :   1.3376 B(  4-C ,  6-O ) :   0.9416
B(  5-C , 12-H ) :   0.9382 B(  6-O , 13-H ) :   0.8446 B(  7-C ,  8-N ) :   2.8292

Dispersion correction           -0.004700691
FINAL SINGLE POINT ENERGY      -399.638142340993

DIPOLE MOMENT
-------------

Method             : SCF
Type of density    : Electron Density
Multiplicity       :   1
Irrep              :   0
Energy             :  -399.6372915656151008 Eh
Relativity type    :
Basis              : AO
                                X                 Y                 Z
Electronic contribution:      2.175895561       1.809645627       0.000169915
Nuclear contribution   :     -5.182340684      -2.994916131      -0.000693049
                        -----------------------------------------
Total Dipole Moment    :     -3.006445123      -1.185270504      -0.000523134
                        -----------------------------------------
Magnitude (a.u.)       :      3.231652630
Magnitude (Debye)      :      8.214208192

Rotational constants in cm-1:             0.115071             0.040810             0.030126
Rotational constants in MHz :          3449.733458          1223.464302           903.155821

                             ****ORCA TERMINATED NORMALLY****
TOTAL RUN TIME: 0 days 0 hours 0 minutes 44 seconds 210 msec
