                         Program Version 6.0.0  -   RELEASE  -
|  1> ! pbe def2-sv(p) def2/J RI DEFGRID1 loosescf d4 GCP(DFT/SV(P)) printgap
|  2> %output
|  3>     printlevel normal
|  4> end
|  5> * xyz 0 1
|  6> C 5.49781752 -1.6770057128 -0.9792969237
|  7> C 4.4010200691 -0.9262928947 -1.7055763849
|  8> O 3.9934537917 0.2477542195 -0.9560637288
|  9> P 2.7684049017 0.2662111631 0.0283988783
| 10> S 2.5012573112 2.0397801632 0.8080115754
| 11> O 3.1395874084 -0.8901886667 1.0570771032
| 12> C 2.2255230765 -1.3255681913 2.0842270967
| 13> C 1.7693290376 -2.741898787 1.7901608122
| 14> S 1.1247027937 -0.5118080535 -1.1070361565
| 15> C -0.0759955891 0.7931174098 -0.7752786469
| 16> S -0.9920919569 0.5355906874 0.7756487674
| 17> P -2.9493738749 0.1816817749 -0.0037624104
| 18> S -3.1459181042 0.2960111056 -1.9568253576
| 19> O -3.8899092447 1.1311895641 0.8467029678
| 20> C -4.2038113965 2.4719447088 0.4336390217
| 21> C -2.9909596351 3.3819388027 0.4380649716
| 22> O -3.4408871022 -1.1625237336 0.6681903408
| 23> C -3.2086733318 -2.4518011275 0.0705216978
| 24> C -1.7476101258 -2.8511216016 0.1211635345
| 25> H 5.8174592807 -2.5155450182 -1.5900693138
| 26> H 6.3439582253 -1.0188417981 -0.8017756313
| 27> H 5.1354057381 -2.0443373279 -0.0232976175
| 28> H 3.5256343295 -1.5598288237 -1.8730803875
| 29> H 4.7544193606 -0.5278457086 -2.6581635818
| 30> H 2.7858230116 -1.2722867127 3.0197085984
| 31> H 1.3781630891 -0.6337127539 2.1376006439
| 32> H 2.6273645475 -3.4060746174 1.7430120503
| 33> H 1.1055136172 -3.0729181905 2.5821772325
| 34> H 1.2427671583 -2.7797596553 0.8398791541
| 35> H -0.7846856851 0.7971759066 -1.6069882917
| 36> H 0.4559261081 1.740706379 -0.690081034
| 37> H -4.6493527651 2.432604553 -0.5657558501
| 38> H -4.9511859361 2.7986823439 1.158020095
| 39> H -2.481772232 3.3331538278 1.3977203483
| 40> H -2.2948015688 3.0842699585 -0.3457879662
| 41> H -3.3080688153 4.4032046793 0.2520289657
| 42> H -3.8293520338 -3.1260952047 0.6624569355
| 43> H -3.5697694938 -2.4278572039 -0.9628148307
| 44> H -1.3701552008 -2.7482445201 1.1353672684
| 45> H -1.6465606631 -3.8833138413 -0.1985531904
| 46> H -1.1596675629 -2.2195613077 -0.5449579964
| 47> *
| 48>
| 49>                          ****END OF INPUT****

CARTESIAN COORDINATES (ANGSTROEM)
---------------------------------
  C      5.497818   -1.677006   -0.979297
  C      4.401020   -0.926293   -1.705576
  O      3.993454    0.247754   -0.956064
  P      2.768405    0.266211    0.028399
  S      2.501257    2.039780    0.808012
  O      3.139587   -0.890189    1.057077
  C      2.225523   -1.325568    2.084227
  C      1.769329   -2.741899    1.790161
  S      1.124703   -0.511808   -1.107036
  C     -0.075996    0.793117   -0.775279
  S     -0.992092    0.535591    0.775649
  P     -2.949374    0.181682   -0.003762
  S     -3.145918    0.296011   -1.956825
  O     -3.889909    1.131190    0.846703
  C     -4.203811    2.471945    0.433639
  C     -2.990960    3.381939    0.438065
  O     -3.440887   -1.162524    0.668190
  C     -3.208673   -2.451801    0.070522
  C     -1.747610   -2.851122    0.121164
  H      5.817459   -2.515545   -1.590069
  H      6.343958   -1.018842   -0.801776
  H      5.135406   -2.044337   -0.023298
  H      3.525634   -1.559829   -1.873080
  H      4.754419   -0.527846   -2.658164
  H      2.785823   -1.272287    3.019709
  H      1.378163   -0.633713    2.137601
  H      2.627365   -3.406075    1.743012
  H      1.105514   -3.072918    2.582177
  H      1.242767   -2.779760    0.839879
  H     -0.784686    0.797176   -1.606988
  H      0.455926    1.740706   -0.690081
  H     -4.649353    2.432605   -0.565756
  H     -4.951186    2.798682    1.158020
  H     -2.481772    3.333154    1.397720
  H     -2.294802    3.084270   -0.345788
  H     -3.308069    4.403205    0.252029
  H     -3.829352   -3.126095    0.662457
  H     -3.569769   -2.427857   -0.962815
  H     -1.370155   -2.748245    1.135367
  H     -1.646561   -3.883314   -0.198553
  H     -1.159668   -2.219561   -0.544958

 Total Charge           Charge          ....    0
 Multiplicity           Mult            ....    1
 Number of Electrons    NEL             ....  202
 Basis Dimension        Dim             ....  334

ORBITAL ENERGIES
----------------

  NO   OCC          E(Eh)            E(eV)
   0   2.0000     -88.046928     -2395.8787
   1   2.0000     -88.044271     -2395.8064
   2   2.0000     -87.996660     -2394.5109
   3   2.0000     -87.988654     -2394.2930
   4   2.0000     -76.429825     -2079.7613
   5   2.0000     -76.428699     -2079.7306
   6   2.0000     -18.796410      -511.4763
   7   2.0000     -18.795275      -511.4454
   8   2.0000     -18.791281      -511.3367
   9   2.0000     -18.789980      -511.3014
  10   2.0000      -9.963157      -271.1113
  11   2.0000      -9.957073      -270.9457
  12   2.0000      -9.955359      -270.8991
  13   2.0000      -9.953262      -270.8420
  14   2.0000      -9.950581      -270.7691
  15   2.0000      -9.890425      -269.1322
  16   2.0000      -9.889668      -269.1115
  17   2.0000      -9.886895      -269.0361
  18   2.0000      -9.883677      -268.9485
  19   2.0000      -7.691271      -209.2901
  20   2.0000      -7.688675      -209.2195
  21   2.0000      -7.641445      -207.9343
  22   2.0000      -7.633935      -207.7299
  23   2.0000      -6.427344      -174.8969
  24   2.0000      -6.426464      -174.8730
  25   2.0000      -5.719010      -155.6222
  26   2.0000      -5.716469      -155.5530
  27   2.0000      -5.715762      -155.5338
  28   2.0000      -5.713260      -155.4657
  29   2.0000      -5.708540      -155.3373
  30   2.0000      -5.705766      -155.2618
  31   2.0000      -5.670161      -154.2929
  32   2.0000      -5.662964      -154.0971
  33   2.0000      -5.661972      -154.0701
  34   2.0000      -5.661939      -154.0692
  35   2.0000      -5.654360      -153.8630
  36   2.0000      -5.654150      -153.8572
  37   2.0000      -4.649478      -126.5187
  38   2.0000      -4.649288      -126.5136
  39   2.0000      -4.649199      -126.5111
  40   2.0000      -4.648266      -126.4857
  41   2.0000      -4.647970      -126.4777
  42   2.0000      -4.646689      -126.4428
  43   2.0000      -0.992227       -26.9999
  44   2.0000      -0.990428       -26.9509
  45   2.0000      -0.949095       -25.8262
  46   2.0000      -0.946171       -25.7466
  47   2.0000      -0.762098       -20.7377
  48   2.0000      -0.724273       -19.7085
  49   2.0000      -0.714934       -19.4544
  50   2.0000      -0.695145       -18.9159
  51   2.0000      -0.684457       -18.6250
  52   2.0000      -0.681572       -18.5465
  53   2.0000      -0.652875       -17.7656
  54   2.0000      -0.640913       -17.4401
  55   2.0000      -0.606544       -16.5049
  56   2.0000      -0.594162       -16.1680
  57   2.0000      -0.576572       -15.6893
  58   2.0000      -0.571155       -15.5419
  59   2.0000      -0.562984       -15.3196
  60   2.0000      -0.508290       -13.8313
  61   2.0000      -0.495983       -13.4964
  62   2.0000      -0.486839       -13.2475
  63   2.0000      -0.467558       -12.7229
  64   2.0000      -0.460432       -12.5290
  65   2.0000      -0.448965       -12.2170
  66   2.0000      -0.446073       -12.1383
  67   2.0000      -0.440827       -11.9955
  68   2.0000      -0.431113       -11.7312
  69   2.0000      -0.422558       -11.4984
  70   2.0000      -0.405733       -11.0406
  71   2.0000      -0.400282       -10.8922
  72   2.0000      -0.398310       -10.8386
  73   2.0000      -0.391347       -10.6491
  74   2.0000      -0.388629       -10.5751
  75   2.0000      -0.379348       -10.3226
  76   2.0000      -0.366761        -9.9801
  77   2.0000      -0.359499        -9.7825
  78   2.0000      -0.356673        -9.7056
  79   2.0000      -0.352840        -9.6013
  80   2.0000      -0.351785        -9.5725
  81   2.0000      -0.349011        -9.4971
  82   2.0000      -0.344344        -9.3701
  83   2.0000      -0.339546        -9.2395
  84   2.0000      -0.338551        -9.2125
  85   2.0000      -0.325107        -8.8466
  86   2.0000      -0.314892        -8.5687
  87   2.0000      -0.302283        -8.2255
  88   2.0000      -0.297443        -8.0938
  89   2.0000      -0.295583        -8.0432
  90   2.0000      -0.290630        -7.9084
  91   2.0000      -0.282443        -7.6857
  92   2.0000      -0.269718        -7.3394
  93   2.0000      -0.266637        -7.2556
  94   2.0000      -0.261787        -7.1236
  95   2.0000      -0.232271        -6.3204
  96   2.0000      -0.222500        -6.0545
  97   2.0000      -0.217342        -5.9142
  98   2.0000      -0.211611        -5.7582
  99   2.0000      -0.205762        -5.5991
 100   2.0000      -0.202653        -5.5145
 101   0.0000      -0.047690        -1.2977
 102   0.0000      -0.040136        -1.0921
 103   0.0000      -0.017333        -0.4717
 104   0.0000       0.003497         0.0952
 105   0.0000       0.008288         0.2255

MULLIKEN ATOMIC CHARGES
-----------------------
   0 C :   -0.291119
   1 C :   -0.018265
   2 O :   -0.352300
   3 P :    0.586036
   4 S :   -0.297864
   5 O :   -0.378986
   6 C :   -0.011905
   7 C :   -0.307607
   8 S :   -0.120749
   9 C :   -0.356799
  10 S :   -0.087525
  11 P :    0.593543
  12 S :   -0.328947
  13 O :   -0.358061
  14 C :    0.002449
  15 C :   -0.320283
  16 O :   -0.355645
  17 C :    0.012138
  18 C :   -0.341825
  19 H :    0.110749
  20 H :    0.122912
  21 H :    0.124913
  22 H :    0.107491
  23 H :    0.116171
  24 H :    0.112698
  25 H :    0.114052
  26 H :    0.113429
  27 H :    0.114497
  28 H :    0.136138
  29 H :    0.192836
  30 H :    0.198015
  31 H :    0.111781
  32 H :    0.108497
  33 H :    0.126197
  34 H :    0.123924
  35 H :    0.114094
  36 H :    0.107185
  37 H :    0.111669
  38 H :    0.122977
  39 H :    0.112331
  40 H :    0.131159
Sum of atomic charges:   -0.0000000

LOEWDIN ATOMIC CHARGES
----------------------
   0 C :   -0.359882
   1 C :   -0.111021
   2 O :   -0.233576
   3 P :    0.563647
   4 S :   -0.296910
   5 O :   -0.248851
   6 C :   -0.116835
   7 C :   -0.360973
   8 S :    0.069676
   9 C :   -0.491377
  10 S :    0.085315
  11 P :    0.572751
  12 S :   -0.309159
  13 O :   -0.236643
  14 C :   -0.115285
  15 C :   -0.369084
  16 O :   -0.235606
  17 C :   -0.114422
  18 C :   -0.372120
  19 H :    0.129964
  20 H :    0.130754
  21 H :    0.126408
  22 H :    0.104378
  23 H :    0.124393
  24 H :    0.121970
  25 H :    0.103975
  26 H :    0.124557
  27 H :    0.130200
  28 H :    0.123175
  29 H :    0.122995
  30 H :    0.126183
  31 H :    0.111394
  32 H :    0.120741
  33 H :    0.127673
  34 H :    0.120111
  35 H :    0.131317
  36 H :    0.120244
  37 H :    0.111143
  38 H :    0.124762
  39 H :    0.130331
  40 H :    0.113687

  Mayer bond orders larger than 0.100000
B(  0-C ,  1-C ) :   1.1647 B(  0-C , 19-H ) :   0.9391 B(  0-C , 20-H ) :   0.9463
B(  0-C , 21-H ) :   0.9396 B(  1-C ,  2-O ) :   0.8918 B(  1-C , 22-H ) :   0.9153
B(  1-C , 23-H ) :   0.9356 B(  2-O ,  3-P ) :   1.1486 B(  3-P ,  4-S ) :   1.6606
B(  3-P ,  5-O ) :   1.0818 B(  3-P ,  8-S ) :   0.9333 B(  4-S ,  8-S ) :   0.1171
B(  5-O ,  6-C ) :   0.8931 B(  6-C ,  7-C ) :   1.1644 B(  6-C , 24-H ) :   0.9336
B(  6-C , 25-H ) :   0.9015 B(  7-C , 26-H ) :   0.9453 B(  7-C , 27-H ) :   0.9379
B(  7-C , 28-H ) :   0.9338 B(  8-S ,  9-C ) :   1.0124 B(  9-C , 10-S ) :   1.0071
B(  9-C , 29-H ) :   0.8468 B(  9-C , 30-H ) :   0.8625 B( 10-S , 11-P ) :   0.9495
B( 10-S , 12-S ) :   0.1232 B( 11-P , 12-S ) :   1.5759 B( 11-P , 13-O ) :   1.1298
B( 11-P , 16-O ) :   1.1323 B( 12-S , 29-H ) :   0.1170 B( 13-O , 14-C ) :   0.9146
B( 14-C , 15-C ) :   1.1618 B( 14-C , 31-H ) :   0.9200 B( 14-C , 32-H ) :   0.9344
B( 15-C , 33-H ) :   0.9419 B( 15-C , 34-H ) :   0.9396 B( 15-C , 35-H ) :   0.9373
B( 16-O , 17-C ) :   0.9165 B( 17-C , 18-C ) :   1.1593 B( 17-C , 36-H ) :   0.9335
B( 17-C , 37-H ) :   0.9174 B( 18-C , 38-H ) :   0.9394 B( 18-C , 39-H ) :   0.9376
B( 18-C , 40-H ) :   0.9316

Dispersion correction           -0.063608518
FINAL SINGLE POINT ENERGY     -2929.519830331297

DIPOLE MOMENT
-------------

Method             : SCF
Type of density    : Electron Density
Multiplicity       :   1
Irrep              :   0
Energy             : -2929.6407984817465149 Eh
Relativity type    :
Basis              : AO
                                X                 Y                 Z
Electronic contribution:     -4.807386075      12.860631474      -2.770102249
Nuclear contribution   :      4.983655796     -14.219339459       2.921807225
                        -----------------------------------------
Total Dipole Moment    :      0.176269721      -1.358707984       0.151704976
                        -----------------------------------------
Magnitude (a.u.)       :      1.378467555
Magnitude (Debye)      :      3.503786076

Rotational constants in cm-1:             0.012941             0.004350             0.003941
Rotational constants in MHz :           387.953303           130.409385           118.161129

                             ****ORCA TERMINATED NORMALLY****
TOTAL RUN TIME: 0 days 0 hours 0 minutes 21 seconds 140 msec
