                         Program Version 6.0.0  -   RELEASE  -
|  1> ! pbe def2-sv(p) def2/J RI DEFGRID1 loosescf d4 GCP(DFT/SV(P)) printgap
|  2> %output
|  3>     printlevel normal
|  4> end
|  5> * xyz 0 1
|  6> C 3.2954379943 2.4659622329 0.4048279873
|  7> C 2.1053793165 2.0365901121 1.2346598153
|  8> O 2.213690818 0.6764713886 1.7167144935
|  9> P 2.4272699071 -0.6181413679 0.84192003
| 10> S 1.9847740859 -2.2319016361 1.857330282
| 11> O 3.9493406464 -0.5026844256 0.3997262489
| 12> C 4.7118521026 -1.636492557 -0.047016396
| 13> C 4.2104579295 -2.1840038184 -1.3679881766
| 14> S 1.3149203052 -0.3097576934 -0.9526400432
| 15> C -0.2273060244 -1.0434935053 -0.3658497753
| 16> S -1.139690843 0.0401956776 0.7719259139
| 17> P -2.7418358062 0.6459691946 -0.5155658685
| 18> S -2.7720846129 -0.174046831 -2.3019856321
| 19> O -2.774941281 2.2236445916 -0.4203582706
| 20> C -1.6330271393 3.0910453132 -0.537239288
| 21> C -0.8310299234 2.8439114976 -1.7994619665
| 22> O -4.0706714599 0.4250451158 0.3176558605
| 23> C -4.8351723235 -0.7872546525 0.2236180672
| 24> C -4.1249072774 -1.9584975991 0.8739343698
| 25> H 4.2174601706 2.2997957016 0.9554151298
| 26> H 3.3320346848 1.8979304889 -0.5225823136
| 27> H 3.2014632388 3.5219750392 0.1709889109
| 28> H 1.1809608951 2.1180587192 0.6567278881
| 29> H 2.01835706 2.618601079 2.1532520287
| 30> H 5.7279002251 -1.2485992666 -0.1318201593
| 31> H 4.6717187788 -2.4081891322 0.7282937636
| 32> H 4.8962596219 -2.9467033367 -1.7226694993
| 33> H 3.2263866352 -2.6316290697 -1.2371865257
| 34> H 4.140454582 -1.3899072757 -2.1070105845
| 35> H 0.0073354667 -1.9616206363 0.1738611024
| 36> H -0.8456938704 -1.2355123401 -1.2466077959
| 37> H -2.0709006478 4.090889845 -0.5345650108
| 38> H -1.0144569284 2.9618450363 0.3561215259
| 39> H -0.0462560249 3.5892624457 -1.8812484024
| 40> H -0.3762510566 1.8531276412 -1.7809777724
| 41> H -1.4762147764 2.9057172397 -2.672692768
| 42> H -5.768756692 -0.5499549686 0.7353867638
| 43> H -5.0342064668 -0.9964734062 -0.8328096694
| 44> H -4.7899742203 -2.8157837025 0.8974960068
| 45> H -3.2353088932 -2.2208169903 0.3020552019
| 46> H -3.8286734401 -1.7047259824 1.8889152532
| 47> *
| 48>
| 49>                          ****END OF INPUT****

CARTESIAN COORDINATES (ANGSTROEM)
---------------------------------
  C      3.295438    2.465962    0.404828
  C      2.105379    2.036590    1.234660
  O      2.213691    0.676471    1.716714
  P      2.427270   -0.618141    0.841920
  S      1.984774   -2.231902    1.857330
  O      3.949341   -0.502684    0.399726
  C      4.711852   -1.636493   -0.047016
  C      4.210458   -2.184004   -1.367988
  S      1.314920   -0.309758   -0.952640
  C     -0.227306   -1.043494   -0.365850
  S     -1.139691    0.040196    0.771926
  P     -2.741836    0.645969   -0.515566
  S     -2.772085   -0.174047   -2.301986
  O     -2.774941    2.223645   -0.420358
  C     -1.633027    3.091045   -0.537239
  C     -0.831030    2.843911   -1.799462
  O     -4.070671    0.425045    0.317656
  C     -4.835172   -0.787255    0.223618
  C     -4.124907   -1.958498    0.873934
  H      4.217460    2.299796    0.955415
  H      3.332035    1.897930   -0.522582
  H      3.201463    3.521975    0.170989
  H      1.180961    2.118059    0.656728
  H      2.018357    2.618601    2.153252
  H      5.727900   -1.248599   -0.131820
  H      4.671719   -2.408189    0.728294
  H      4.896260   -2.946703   -1.722669
  H      3.226387   -2.631629   -1.237187
  H      4.140455   -1.389907   -2.107011
  H      0.007335   -1.961621    0.173861
  H     -0.845694   -1.235512   -1.246608
  H     -2.070901    4.090890   -0.534565
  H     -1.014457    2.961845    0.356122
  H     -0.046256    3.589262   -1.881248
  H     -0.376251    1.853128   -1.780978
  H     -1.476215    2.905717   -2.672693
  H     -5.768757   -0.549955    0.735387
  H     -5.034206   -0.996473   -0.832810
  H     -4.789974   -2.815784    0.897496
  H     -3.235309   -2.220817    0.302055
  H     -3.828673   -1.704726    1.888915

 Total Charge           Charge          ....    0
 Multiplicity           Mult            ....    1
 Number of Electrons    NEL             ....  202
 Basis Dimension        Dim             ....  334

ORBITAL ENERGIES
----------------

  NO   OCC          E(Eh)            E(eV)
   0   2.0000     -88.049656     -2395.9529
   1   2.0000     -88.047548     -2395.8956
   2   2.0000     -87.994443     -2394.4505
   3   2.0000     -87.988322     -2394.2840
   4   2.0000     -76.430724     -2079.7857
   5   2.0000     -76.430019     -2079.7666
   6   2.0000     -18.797813      -511.5145
   7   2.0000     -18.794862      -511.4342
   8   2.0000     -18.794299      -511.4189
   9   2.0000     -18.789778      -511.2959
  10   2.0000      -9.961214      -271.0584
  11   2.0000      -9.960489      -271.0387
  12   2.0000      -9.956050      -270.9179
  13   2.0000      -9.952934      -270.8331
  14   2.0000      -9.950806      -270.7752
  15   2.0000      -9.892482      -269.1881
  16   2.0000      -9.887874      -269.0627
  17   2.0000      -9.886688      -269.0305
  18   2.0000      -9.883254      -268.9370
  19   2.0000      -7.693848      -209.3603
  20   2.0000      -7.691940      -209.3083
  21   2.0000      -7.639309      -207.8762
  22   2.0000      -7.633550      -207.7195
  23   2.0000      -6.427915      -174.9124
  24   2.0000      -6.427527      -174.9019
  25   2.0000      -5.721493      -155.6897
  26   2.0000      -5.719695      -155.6408
  27   2.0000      -5.718419      -155.6061
  28   2.0000      -5.716429      -155.5520
  29   2.0000      -5.711116      -155.4074
  30   2.0000      -5.709196      -155.3551
  31   2.0000      -5.668083      -154.2364
  32   2.0000      -5.662542      -154.0856
  33   2.0000      -5.659948      -154.0150
  34   2.0000      -5.659620      -154.0061
  35   2.0000      -5.654117      -153.8563
  36   2.0000      -5.653654      -153.8437
  37   2.0000      -4.650260      -126.5400
  38   2.0000      -4.650159      -126.5373
  39   2.0000      -4.649964      -126.5320
  40   2.0000      -4.649335      -126.5148
  41   2.0000      -4.648407      -126.4896
  42   2.0000      -4.647798      -126.4730
  43   2.0000      -0.991435       -26.9783
  44   2.0000      -0.991064       -26.9682
  45   2.0000      -0.950036       -25.8518
  46   2.0000      -0.946819       -25.7643
  47   2.0000      -0.765386       -20.8272
  48   2.0000      -0.723984       -19.7006
  49   2.0000      -0.715756       -19.4767
  50   2.0000      -0.694332       -18.8937
  51   2.0000      -0.685916       -18.6647
  52   2.0000      -0.682968       -18.5845
  53   2.0000      -0.655528       -17.8378
  54   2.0000      -0.641940       -17.4681
  55   2.0000      -0.604708       -16.4549
  56   2.0000      -0.600070       -16.3287
  57   2.0000      -0.581143       -15.8137
  58   2.0000      -0.574200       -15.6248
  59   2.0000      -0.563328       -15.3289
  60   2.0000      -0.499787       -13.5999
  61   2.0000      -0.495959       -13.4957
  62   2.0000      -0.477211       -12.9856
  63   2.0000      -0.469553       -12.7772
  64   2.0000      -0.460714       -12.5367
  65   2.0000      -0.449255       -12.2248
  66   2.0000      -0.445136       -12.1128
  67   2.0000      -0.437220       -11.8974
  68   2.0000      -0.431844       -11.7511
  69   2.0000      -0.428741       -11.6666
  70   2.0000      -0.416216       -11.3258
  71   2.0000      -0.410403       -11.1676
  72   2.0000      -0.402212       -10.9447
  73   2.0000      -0.387659       -10.5487
  74   2.0000      -0.381164       -10.3720
  75   2.0000      -0.376411       -10.2427
  76   2.0000      -0.371402       -10.1063
  77   2.0000      -0.365654        -9.9500
  78   2.0000      -0.357691        -9.7333
  79   2.0000      -0.352873        -9.6022
  80   2.0000      -0.350226        -9.5301
  81   2.0000      -0.350153        -9.5281
  82   2.0000      -0.344262        -9.3678
  83   2.0000      -0.340176        -9.2567
  84   2.0000      -0.338837        -9.2202
  85   2.0000      -0.320865        -8.7312
  86   2.0000      -0.312555        -8.5051
  87   2.0000      -0.302944        -8.2435
  88   2.0000      -0.297628        -8.0989
  89   2.0000      -0.295580        -8.0431
  90   2.0000      -0.291145        -7.9225
  91   2.0000      -0.278653        -7.5825
  92   2.0000      -0.273640        -7.4461
  93   2.0000      -0.266037        -7.2392
  94   2.0000      -0.260730        -7.0948
  95   2.0000      -0.239701        -6.5226
  96   2.0000      -0.222263        -6.0481
  97   2.0000      -0.215720        -5.8700
  98   2.0000      -0.209738        -5.7073
  99   2.0000      -0.206454        -5.6179
 100   2.0000      -0.203542        -5.5387
 101   0.0000      -0.048622        -1.3231
 102   0.0000      -0.038056        -1.0355
 103   0.0000      -0.014619        -0.3978
 104   0.0000       0.000753         0.0205
 105   0.0000       0.007953         0.2164

MULLIKEN ATOMIC CHARGES
-----------------------
   0 C :   -0.304355
   1 C :   -0.036900
   2 O :   -0.354069
   3 P :    0.601554
   4 S :   -0.309370
   5 O :   -0.374915
   6 C :   -0.002642
   7 C :   -0.316119
   8 S :   -0.106575
   9 C :   -0.363063
  10 S :   -0.094818
  11 P :    0.590670
  12 S :   -0.322620
  13 O :   -0.355567
  14 C :   -0.013100
  15 C :   -0.322528
  16 O :   -0.353247
  17 C :   -0.003216
  18 C :   -0.313989
  19 H :    0.124779
  20 H :    0.118428
  21 H :    0.112330
  22 H :    0.135849
  23 H :    0.112452
  24 H :    0.105910
  25 H :    0.115444
  26 H :    0.115081
  27 H :    0.127888
  28 H :    0.116456
  29 H :    0.197345
  30 H :    0.194413
  31 H :    0.110285
  32 H :    0.118854
  33 H :    0.109233
  34 H :    0.132945
  35 H :    0.129261
  36 H :    0.107390
  37 H :    0.113721
  38 H :    0.113193
  39 H :    0.121107
  40 H :    0.122504
Sum of atomic charges:   -0.0000000

LOEWDIN ATOMIC CHARGES
----------------------
   0 C :   -0.365265
   1 C :   -0.118482
   2 O :   -0.233653
   3 P :    0.571227
   4 S :   -0.305994
   5 O :   -0.241815
   6 C :   -0.117403
   7 C :   -0.370246
   8 S :    0.087316
   9 C :   -0.493199
  10 S :    0.081648
  11 P :    0.571934
  12 S :   -0.303764
  13 O :   -0.231479
  14 C :   -0.115448
  15 C :   -0.372892
  16 O :   -0.234040
  17 C :   -0.119919
  18 C :   -0.366783
  19 H :    0.130152
  20 H :    0.118144
  21 H :    0.130692
  22 H :    0.104835
  23 H :    0.123802
  24 H :    0.119191
  25 H :    0.113625
  26 H :    0.132138
  27 H :    0.121710
  28 H :    0.123277
  29 H :    0.127129
  30 H :    0.123884
  31 H :    0.122975
  32 H :    0.106108
  33 H :    0.128956
  34 H :    0.112126
  35 H :    0.131907
  36 H :    0.120024
  37 H :    0.109881
  38 H :    0.130865
  39 H :    0.119514
  40 H :    0.127322

  Mayer bond orders larger than 0.100000
B(  0-C ,  1-C ) :   1.1689 B(  0-C , 19-H ) :   0.9430 B(  0-C , 20-H ) :   0.9374
B(  0-C , 21-H ) :   0.9359 B(  1-C ,  2-O ) :   0.9012 B(  1-C , 22-H ) :   0.8976
B(  1-C , 23-H ) :   0.9345 B(  2-O ,  3-P ) :   1.1458 B(  3-P ,  4-S ) :   1.6287
B(  3-P ,  5-O ) :   1.0959 B(  3-P ,  8-S ) :   0.9359 B(  4-S ,  8-S ) :   0.1083
B(  5-O ,  6-C ) :   0.9045 B(  6-C ,  7-C ) :   1.1652 B(  6-C , 24-H ) :   0.9339
B(  6-C , 25-H ) :   0.9166 B(  7-C , 26-H ) :   0.9374 B(  7-C , 27-H ) :   0.9350
B(  7-C , 28-H ) :   0.9448 B(  8-S ,  9-C ) :   1.0090 B(  9-C , 10-S ) :   1.0040
B(  9-C , 29-H ) :   0.8636 B(  9-C , 30-H ) :   0.8463 B( 10-S , 11-P ) :   0.9356
B( 10-S , 12-S ) :   0.1255 B( 11-P , 12-S ) :   1.5907 B( 11-P , 13-O ) :   1.1343
B( 11-P , 16-O ) :   1.1310 B( 12-S , 30-H ) :   0.1200 B( 13-O , 14-C ) :   0.9150
B( 14-C , 15-C ) :   1.1647 B( 14-C , 31-H ) :   0.9302 B( 14-C , 32-H ) :   0.9213
B( 15-C , 33-H ) :   0.9353 B( 15-C , 34-H ) :   0.9219 B( 15-C , 35-H ) :   0.9402
B( 16-O , 17-C ) :   0.9142 B( 17-C , 18-C ) :   1.1615 B( 17-C , 36-H ) :   0.9336
B( 17-C , 37-H ) :   0.9143 B( 18-C , 38-H ) :   0.9389 B( 18-C , 39-H ) :   0.9403
B( 18-C , 40-H ) :   0.9441

Dispersion correction           -0.065355929
FINAL SINGLE POINT ENERGY     -2929.519740587510

DIPOLE MOMENT
-------------

Method             : SCF
Type of density    : Electron Density
Multiplicity       :   1
Irrep              :   0
Energy             : -2929.6396046110548923 Eh
Relativity type    :
Basis              : AO
                                X                 Y                 Z
Electronic contribution:     -7.256660384      -4.562041891       5.284280489
Nuclear contribution   :      7.919425345       5.486328528      -5.545897735
                        -----------------------------------------
Total Dipole Moment    :      0.662764962       0.924286638      -0.261617246
                        -----------------------------------------
Magnitude (a.u.)       :      1.167050456
Magnitude (Debye)      :      2.966406514

Rotational constants in cm-1:             0.012672             0.004628             0.004166
Rotational constants in MHz :           379.897284           138.729127           124.894891

                             ****ORCA TERMINATED NORMALLY****
TOTAL RUN TIME: 0 days 0 hours 0 minutes 21 seconds 10 msec
