                         Program Version 6.0.0  -   RELEASE  -
|  1> ! pbe def2-sv(p) def2/J RI DEFGRID1 loosescf d4 GCP(DFT/SV(P)) printgap
|  2> %output
|  3>     printlevel normal
|  4> end
|  5> * xyz 0 1
|  6> C 4.35590143 -2.3736791395 -0.3703924024
|  7> C 4.7742337232 -0.9457881116 -0.0871037707
|  8> O 3.6892100376 -0.142803523 0.415760843
|  9> P 2.4053972714 0.2030956235 -0.4572250411
| 10> S 2.7378554189 0.602237245 -2.3407266255
| 11> O 1.7958114687 1.4390967779 0.3160398377
| 12> C 1.5350077432 1.4449234948 1.7390857235
| 13> C 2.6554015022 2.1359165341 2.4877310953
| 14> S 1.0881613516 -1.4164795503 -0.0467792381
| 15> C -0.0575287831 -1.1224624299 -1.4169151988
| 16> S -0.773336218 0.5536203333 -1.4476128312
| 17> P -2.23498665 0.339343791 0.0658407615
| 18> S -3.3263757473 1.9483540681 0.3062876159
| 19> O -1.3244952352 -0.1485245255 1.2646482118
| 20> C -1.8066814427 -0.9572840334 2.3636322083
| 21> C -2.7994338768 -0.2057862684 3.2246120419
| 22> O -3.0436860366 -0.9868649321 -0.2939599147
| 23> C -4.2943283905 -0.9795491701 -1.0072344665
| 24> C -5.2514455683 -1.9264222899 -0.3093396606
| 25> H 3.672228689 -2.3997596501 -1.2173142043
| 26> H 5.2359711907 -2.9608520346 -0.6122975727
| 27> H 3.8605164039 -2.8039229417 0.496357987
| 28> H 5.1592131914 -0.4706810893 -0.9943086972
| 29> H 5.5220888132 -0.8947465706 0.7055410192
| 30> H 0.5900119164 1.9842004001 1.8431827536
| 31> H 1.4059306374 0.4136069165 2.0796679278
| 32> H 3.5826848434 1.5816731289 2.3701468276
| 33> H 2.795107869 3.1415244407 2.1003091152
| 34> H 2.3979006577 2.1897797954 3.5408999273
| 35> H -0.8480708452 -1.8636994238 -1.3323561967
| 36> H 0.481332268 -1.2165624875 -2.3588168107
| 37> H -2.2501560273 -1.866628795 1.9541060821
| 38> H -0.8982317497 -1.205823012 2.9144956299
| 39> H -2.3574970151 0.7132586695 3.6015381454
| 40> H -3.6802877058 0.055515519 2.6394779414
| 41> H -3.0984160377 -0.8304988053 4.0603524984
| 42> H -4.6874251213 0.0426601712 -1.0207460943
| 43> H -4.0893842199 -1.301275554 -2.0306743379
| 44> H -6.1804975895 -1.9657767594 -0.8685107512
| 45> H -4.8214895603 -2.9226437693 -0.2577568666
| 46> H -5.4586620944 -1.5761445013 0.6984363178
| 47> *
| 48>
| 49>                          ****END OF INPUT****

CARTESIAN COORDINATES (ANGSTROEM)
---------------------------------
  C      4.355901   -2.373679   -0.370392
  C      4.774234   -0.945788   -0.087104
  O      3.689210   -0.142804    0.415761
  P      2.405397    0.203096   -0.457225
  S      2.737855    0.602237   -2.340727
  O      1.795811    1.439097    0.316040
  C      1.535008    1.444923    1.739086
  C      2.655402    2.135917    2.487731
  S      1.088161   -1.416480   -0.046779
  C     -0.057529   -1.122462   -1.416915
  S     -0.773336    0.553620   -1.447613
  P     -2.234987    0.339344    0.065841
  S     -3.326376    1.948354    0.306288
  O     -1.324495   -0.148525    1.264648
  C     -1.806681   -0.957284    2.363632
  C     -2.799434   -0.205786    3.224612
  O     -3.043686   -0.986865   -0.293960
  C     -4.294328   -0.979549   -1.007234
  C     -5.251446   -1.926422   -0.309340
  H      3.672229   -2.399760   -1.217314
  H      5.235971   -2.960852   -0.612298
  H      3.860516   -2.803923    0.496358
  H      5.159213   -0.470681   -0.994309
  H      5.522089   -0.894747    0.705541
  H      0.590012    1.984200    1.843183
  H      1.405931    0.413607    2.079668
  H      3.582685    1.581673    2.370147
  H      2.795108    3.141524    2.100309
  H      2.397901    2.189780    3.540900
  H     -0.848071   -1.863699   -1.332356
  H      0.481332   -1.216562   -2.358817
  H     -2.250156   -1.866629    1.954106
  H     -0.898232   -1.205823    2.914496
  H     -2.357497    0.713259    3.601538
  H     -3.680288    0.055516    2.639478
  H     -3.098416   -0.830499    4.060352
  H     -4.687425    0.042660   -1.020746
  H     -4.089384   -1.301276   -2.030674
  H     -6.180498   -1.965777   -0.868511
  H     -4.821490   -2.922644   -0.257757
  H     -5.458662   -1.576145    0.698436

 Total Charge           Charge          ....    0
 Multiplicity           Mult            ....    1
 Number of Electrons    NEL             ....  202
 Basis Dimension        Dim             ....  334

ORBITAL ENERGIES
----------------

  NO   OCC          E(Eh)            E(eV)
   0   2.0000     -88.040147     -2395.6942
   1   2.0000     -88.038595     -2395.6520
   2   2.0000     -87.985846     -2394.2166
   3   2.0000     -87.984677     -2394.1848
   4   2.0000     -76.427168     -2079.6890
   5   2.0000     -76.425606     -2079.6465
   6   2.0000     -18.800287      -511.5818
   7   2.0000     -18.795819      -511.4602
   8   2.0000     -18.794886      -511.4349
   9   2.0000     -18.785963      -511.1920
  10   2.0000      -9.960475      -271.0383
  11   2.0000      -9.957068      -270.9456
  12   2.0000      -9.956034      -270.9175
  13   2.0000      -9.955045      -270.8906
  14   2.0000      -9.948712      -270.7182
  15   2.0000      -9.893825      -269.2247
  16   2.0000      -9.889020      -269.0939
  17   2.0000      -9.885812      -269.0066
  18   2.0000      -9.881785      -268.8970
  19   2.0000      -7.685156      -209.1237
  20   2.0000      -7.683474      -209.0780
  21   2.0000      -7.631050      -207.6514
  22   2.0000      -7.629983      -207.6224
  23   2.0000      -6.424755      -174.8265
  24   2.0000      -6.422802      -174.7733
  25   2.0000      -5.712962      -155.4576
  26   2.0000      -5.711731      -155.4241
  27   2.0000      -5.709720      -155.3694
  28   2.0000      -5.707756      -155.3159
  29   2.0000      -5.702111      -155.1623
  30   2.0000      -5.700340      -155.1141
  31   2.0000      -5.660008      -154.0166
  32   2.0000      -5.658985      -153.9888
  33   2.0000      -5.651521      -153.7857
  34   2.0000      -5.651335      -153.7806
  35   2.0000      -5.650502      -153.7580
  36   2.0000      -5.650135      -153.7480
  37   2.0000      -4.647755      -126.4718
  38   2.0000      -4.646505      -126.4378
  39   2.0000      -4.645719      -126.4164
  40   2.0000      -4.644838      -126.3925
  41   2.0000      -4.644516      -126.3837
  42   2.0000      -4.643078      -126.3446
  43   2.0000      -0.992707       -27.0129
  44   2.0000      -0.986565       -26.8458
  45   2.0000      -0.949285       -25.8314
  46   2.0000      -0.942788       -25.6546
  47   2.0000      -0.761994       -20.7349
  48   2.0000      -0.724161       -19.7054
  49   2.0000      -0.709494       -19.3063
  50   2.0000      -0.695550       -18.9269
  51   2.0000      -0.689365       -18.7586
  52   2.0000      -0.674651       -18.3582
  53   2.0000      -0.653266       -17.7763
  54   2.0000      -0.637002       -17.3337
  55   2.0000      -0.596837       -16.2407
  56   2.0000      -0.592617       -16.1259
  57   2.0000      -0.579753       -15.7759
  58   2.0000      -0.571393       -15.5484
  59   2.0000      -0.563407       -15.3311
  60   2.0000      -0.510727       -13.8976
  61   2.0000      -0.497737       -13.5441
  62   2.0000      -0.480420       -13.0729
  63   2.0000      -0.472961       -12.8699
  64   2.0000      -0.462582       -12.5875
  65   2.0000      -0.447327       -12.1724
  66   2.0000      -0.444356       -12.0915
  67   2.0000      -0.437065       -11.8932
  68   2.0000      -0.425489       -11.5781
  69   2.0000      -0.419413       -11.4128
  70   2.0000      -0.417840       -11.3700
  71   2.0000      -0.400066       -10.8863
  72   2.0000      -0.390881       -10.6364
  73   2.0000      -0.386458       -10.5160
  74   2.0000      -0.379958       -10.3392
  75   2.0000      -0.372113       -10.1257
  76   2.0000      -0.367597       -10.0028
  77   2.0000      -0.360658        -9.8140
  78   2.0000      -0.358237        -9.7481
  79   2.0000      -0.353457        -9.6181
  80   2.0000      -0.351358        -9.5609
  81   2.0000      -0.345649        -9.4056
  82   2.0000      -0.343464        -9.3461
  83   2.0000      -0.342701        -9.3254
  84   2.0000      -0.336086        -9.1454
  85   2.0000      -0.325300        -8.8519
  86   2.0000      -0.315249        -8.5784
  87   2.0000      -0.301985        -8.2174
  88   2.0000      -0.295979        -8.0540
  89   2.0000      -0.295054        -8.0288
  90   2.0000      -0.290780        -7.9125
  91   2.0000      -0.282289        -7.6815
  92   2.0000      -0.269854        -7.3431
  93   2.0000      -0.263664        -7.1747
  94   2.0000      -0.257495        -7.0068
  95   2.0000      -0.230640        -6.2760
  96   2.0000      -0.217055        -5.9064
  97   2.0000      -0.206080        -5.6077
  98   2.0000      -0.204606        -5.5676
  99   2.0000      -0.199375        -5.4253
 100   2.0000      -0.197806        -5.3826
 101   0.0000      -0.040514        -1.1025
 102   0.0000      -0.017228        -0.4688
 103   0.0000      -0.005218        -0.1420
 104   0.0000       0.001236         0.0336
 105   0.0000       0.005009         0.1363

MULLIKEN ATOMIC CHARGES
-----------------------
   0 C :   -0.317266
   1 C :    0.000734
   2 O :   -0.382721
   3 P :    0.600099
   4 S :   -0.311776
   5 O :   -0.347589
   6 C :   -0.019198
   7 C :   -0.282306
   8 S :   -0.095747
   9 C :   -0.359149
  10 S :   -0.047263
  11 P :    0.617656
  12 S :   -0.317835
  13 O :   -0.370422
  14 C :   -0.008115
  15 C :   -0.312715
  16 O :   -0.396793
  17 C :   -0.008954
  18 C :   -0.291600
  19 H :    0.128111
  20 H :    0.113741
  21 H :    0.115721
  22 H :    0.114231
  23 H :    0.104493
  24 H :    0.117675
  25 H :    0.100454
  26 H :    0.116445
  27 H :    0.120580
  28 H :    0.105327
  29 H :    0.177291
  30 H :    0.192218
  31 H :    0.107596
  32 H :    0.107877
  33 H :    0.122094
  34 H :    0.130892
  35 H :    0.110146
  36 H :    0.113028
  37 H :    0.104007
  38 H :    0.115401
  39 H :    0.114203
  40 H :    0.119429
Sum of atomic charges:   -0.0000000

LOEWDIN ATOMIC CHARGES
----------------------
   0 C :   -0.371621
   1 C :   -0.115950
   2 O :   -0.248863
   3 P :    0.570588
   4 S :   -0.311901
   5 O :   -0.230479
   6 C :   -0.115744
   7 C :   -0.358869
   8 S :    0.075481
   9 C :   -0.481576
  10 S :    0.106172
  11 P :    0.558013
  12 S :   -0.318206
  13 O :   -0.239737
  14 C :   -0.113130
  15 C :   -0.365557
  16 O :   -0.253735
  17 C :   -0.120432
  18 C :   -0.353061
  19 H :    0.121422
  20 H :    0.131377
  21 H :    0.122150
  22 H :    0.113992
  23 H :    0.118149
  24 H :    0.121101
  25 H :    0.100984
  26 H :    0.124114
  27 H :    0.129268
  28 H :    0.127523
  29 H :    0.129983
  30 H :    0.133550
  31 H :    0.111252
  32 H :    0.117213
  33 H :    0.129648
  34 H :    0.121461
  35 H :    0.129163
  36 H :    0.108804
  37 H :    0.114252
  38 H :    0.132468
  39 H :    0.124551
  40 H :    0.126183

  Mayer bond orders larger than 0.100000
B(  0-C ,  1-C ) :   1.1668 B(  0-C , 19-H ) :   0.9343 B(  0-C , 20-H ) :   0.9366
B(  0-C , 21-H ) :   0.9433 B(  1-C ,  2-O ) :   0.9057 B(  1-C , 22-H ) :   0.9191
B(  1-C , 23-H ) :   0.9343 B(  2-O ,  3-P ) :   1.0807 B(  3-P ,  4-S ) :   1.6323
B(  3-P ,  5-O ) :   1.1395 B(  3-P ,  8-S ) :   0.9575 B(  4-S ,  8-S ) :   0.1090
B(  5-O ,  6-C ) :   0.8941 B(  6-C ,  7-C ) :   1.1574 B(  6-C , 24-H ) :   0.9311
B(  6-C , 25-H ) :   0.9125 B(  7-C , 26-H ) :   0.9428 B(  7-C , 27-H ) :   0.9466
B(  7-C , 28-H ) :   0.9407 B(  8-S ,  9-C ) :   0.9961 B(  9-C , 10-S ) :   0.9886
B(  9-C , 29-H ) :   0.8978 B(  9-C , 30-H ) :   0.8887 B( 10-S , 11-P ) :   0.9911
B( 11-P , 12-S ) :   1.6614 B( 11-P , 13-O ) :   1.1020 B( 11-P , 16-O ) :   1.0453
B( 13-O , 14-C ) :   0.9025 B( 14-C , 15-C ) :   1.1672 B( 14-C , 31-H ) :   0.9267
B( 14-C , 32-H ) :   0.9303 B( 15-C , 33-H ) :   0.9459 B( 15-C , 34-H ) :   0.9322
B( 15-C , 35-H ) :   0.9368 B( 16-O , 17-C ) :   0.9030 B( 17-C , 18-C ) :   1.1611
B( 17-C , 36-H ) :   0.8993 B( 17-C , 37-H ) :   0.9328 B( 18-C , 38-H ) :   0.9413
B( 18-C , 39-H ) :   0.9505 B( 18-C , 40-H ) :   0.9489

Dispersion correction           -0.064880136
FINAL SINGLE POINT ENERGY     -2929.518501615687

DIPOLE MOMENT
-------------

Method             : SCF
Type of density    : Electron Density
Multiplicity       :   1
Irrep              :   0
Energy             : -2929.6391961296649242 Eh
Relativity type    :
Basis              : AO
                                X                 Y                 Z
Electronic contribution:      3.419036220      11.824448303     -16.332401150
Nuclear contribution   :     -3.568198792     -13.812651706      17.656617318
                        -----------------------------------------
Total Dipole Moment    :     -0.149162572      -1.988203404       1.324216168
                        -----------------------------------------
Magnitude (a.u.)       :      2.393480877
Magnitude (Debye)      :      6.083744905

Rotational constants in cm-1:             0.013199             0.004695             0.004421
Rotational constants in MHz :           395.691118           140.744264           132.527863

                             ****ORCA TERMINATED NORMALLY****
TOTAL RUN TIME: 0 days 0 hours 0 minutes 21 seconds 460 msec
