                         Program Version 6.0.0  -   RELEASE  -
|  1> ! r2scan-3c def2/J RI DEFGRID2 scfconv6 printgap
|  2> %output
|  3>     printlevel normal
|  4> end
|  5> * xyz 0 1
|  6> C 4.3928554807 -0.9827224167 -2.37680201
|  7> C 3.4728021953 -2.0532276199 -1.8266640652
|  8> O 2.9850131712 -1.7461610221 -0.5075170775
|  9> P 2.2168121387 -0.4221257266 -0.0953591901
| 10> S 3.2722915305 1.2091386612 0.2002951805
| 11> O 1.5105865584 -0.9845180428 1.2064176043
| 12> C 1.6185367346 -0.3797434951 2.5125635712
| 13> C 0.3495922312 -0.6591880025 3.2910769007
| 14> S 0.7139119577 -0.2791778791 -1.5881480084
| 15> C 0.225766767 1.425126825 -1.2330585218
| 16> S -0.4765095491 1.623845036 0.4269263473
| 17> P -2.1590493593 0.3887301329 0.1279780354
| 18> S -3.0501810683 0.4588659836 -1.6207100827
| 19> O -3.110365043 0.7016211096 1.3651081826
| 20> C -4.1306578876 1.7143642468 1.3209243687
| 21> C -3.5441577738 3.1094799426 1.2515481909
| 22> O -1.5540937343 -1.0082589609 0.5564233807
| 23> C -2.1752309412 -2.2757509493 0.2490904321
| 24> C -1.1517878199 -3.1822167408 -0.4060959785
| 25> H 3.8421261773 -0.0562555899 -2.5330670165
| 26> H 5.205032127 -0.7868418199 -1.6806271457
| 27> H 4.8039630536 -1.3137041641 -3.3250590965
| 28> H 3.9990306651 -2.9996193488 -1.689579572
| 29> H 2.6124369289 -2.200499515 -2.4856318715
| 30> H 2.4866407837 -0.8258492628 3.0041708087
| 31> H 1.7902518962 0.6958684098 2.3979196225
| 32> H 0.4537032697 -0.2488505829 4.2902655413
| 33> H -0.5068498242 -0.1990358109 2.8044873396
| 34> H 0.1818581563 -1.7303544398 3.3551251531
| 35> H -0.5162232224 1.6985574882 -1.9825217576
| 36> H 1.0997678787 2.0750575 -1.276017588
| 37> H -4.7696929465 1.5218373592 0.453262741
| 38> H -4.6948071802 1.5579639905 2.2412270997
| 39> H -2.828063378 3.2599273997 2.0555949297
| 40> H -3.0358527476 3.2528485371 0.2987659842
| 41> H -4.3422968448 3.8398224493 1.3372842934
| 42> H -2.5235706899 -2.685332035 1.1992756294
| 43> H -3.0314060097 -2.1051113626 -0.4116884525
| 44> H -0.2520118134 -3.2233887284 0.2032035088
| 45> H -1.5679080566 -4.1793671395 -0.5060507882
| 46> H -0.8882518484 -2.8027397218 -1.3905857305
| 47> *
| 48>
| 49>                          ****END OF INPUT****

CARTESIAN COORDINATES (ANGSTROEM)
---------------------------------
  C      4.392855   -0.982722   -2.376802
  C      3.472802   -2.053228   -1.826664
  O      2.985013   -1.746161   -0.507517
  P      2.216812   -0.422126   -0.095359
  S      3.272292    1.209139    0.200295
  O      1.510587   -0.984518    1.206418
  C      1.618537   -0.379743    2.512564
  C      0.349592   -0.659188    3.291077
  S      0.713912   -0.279178   -1.588148
  C      0.225767    1.425127   -1.233059
  S     -0.476510    1.623845    0.426926
  P     -2.159049    0.388730    0.127978
  S     -3.050181    0.458866   -1.620710
  O     -3.110365    0.701621    1.365108
  C     -4.130658    1.714364    1.320924
  C     -3.544158    3.109480    1.251548
  O     -1.554094   -1.008259    0.556423
  C     -2.175231   -2.275751    0.249090
  C     -1.151788   -3.182217   -0.406096
  H      3.842126   -0.056256   -2.533067
  H      5.205032   -0.786842   -1.680627
  H      4.803963   -1.313704   -3.325059
  H      3.999031   -2.999619   -1.689580
  H      2.612437   -2.200500   -2.485632
  H      2.486641   -0.825849    3.004171
  H      1.790252    0.695868    2.397920
  H      0.453703   -0.248851    4.290266
  H     -0.506850   -0.199036    2.804487
  H      0.181858   -1.730354    3.355125
  H     -0.516223    1.698557   -1.982522
  H      1.099768    2.075058   -1.276018
  H     -4.769693    1.521837    0.453263
  H     -4.694807    1.557964    2.241227
  H     -2.828063    3.259927    2.055595
  H     -3.035853    3.252849    0.298766
  H     -4.342297    3.839822    1.337284
  H     -2.523571   -2.685332    1.199276
  H     -3.031406   -2.105111   -0.411688
  H     -0.252012   -3.223389    0.203204
  H     -1.567908   -4.179367   -0.506051
  H     -0.888252   -2.802740   -1.390586

 Total Charge           Charge          ....    0
 Multiplicity           Mult            ....    1
 Number of Electrons    NEL             ....  202
 Basis Dimension        Dim             ....  539

ORBITAL ENERGIES
----------------

  NO   OCC          E(Eh)            E(eV)
   0   2.0000     -88.579160     -2410.3615
   1   2.0000     -88.575814     -2410.2704
   2   2.0000     -88.523324     -2408.8421
   3   2.0000     -88.517519     -2408.6841
   4   2.0000     -76.915761     -2092.9843
   5   2.0000     -76.913340     -2092.9184
   6   2.0000     -18.995032      -516.8811
   7   2.0000     -18.991456      -516.7838
   8   2.0000     -18.987280      -516.6701
   9   2.0000     -18.984023      -516.5815
  10   2.0000     -10.107950      -275.0513
  11   2.0000     -10.103282      -274.9243
  12   2.0000     -10.100064      -274.8367
  13   2.0000     -10.096930      -274.7514
  14   2.0000     -10.090240      -274.5694
  15   2.0000     -10.030490      -272.9435
  16   2.0000     -10.026893      -272.8456
  17   2.0000     -10.025724      -272.8138
  18   2.0000     -10.022840      -272.7353
  19   2.0000      -7.873598      -214.2515
  20   2.0000      -7.870289      -214.1615
  21   2.0000      -7.818047      -212.7399
  22   2.0000      -7.812386      -212.5858
  23   2.0000      -6.594302      -179.4401
  24   2.0000      -6.591471      -179.3630
  25   2.0000      -5.820473      -158.3831
  26   2.0000      -5.817493      -158.3020
  27   2.0000      -5.817151      -158.2927
  28   2.0000      -5.814071      -158.2089
  29   2.0000      -5.810656      -158.1160
  30   2.0000      -5.807459      -158.0290
  31   2.0000      -5.765594      -156.8898
  32   2.0000      -5.760060      -156.7392
  33   2.0000      -5.758406      -156.6942
  34   2.0000      -5.758080      -156.6853
  35   2.0000      -5.752713      -156.5393
  36   2.0000      -5.752310      -156.5283
  37   2.0000      -4.739756      -128.9753
  38   2.0000      -4.739172      -128.9594
  39   2.0000      -4.738115      -128.9307
  40   2.0000      -4.736925      -128.8983
  41   2.0000      -4.736553      -128.8882
  42   2.0000      -4.735134      -128.8496
  43   2.0000      -1.050368       -28.5820
  44   2.0000      -1.047457       -28.5028
  45   2.0000      -1.010551       -27.4985
  46   2.0000      -1.005633       -27.3647
  47   2.0000      -0.805591       -21.9212
  48   2.0000      -0.759343       -20.6628
  49   2.0000      -0.749907       -20.4060
  50   2.0000      -0.731202       -19.8970
  51   2.0000      -0.727424       -19.7942
  52   2.0000      -0.711026       -19.3480
  53   2.0000      -0.685145       -18.6437
  54   2.0000      -0.670476       -18.2446
  55   2.0000      -0.633025       -17.2255
  56   2.0000      -0.623853       -16.9759
  57   2.0000      -0.607484       -16.5305
  58   2.0000      -0.599780       -16.3208
  59   2.0000      -0.588465       -16.0129
  60   2.0000      -0.528724       -14.3873
  61   2.0000      -0.523397       -14.2424
  62   2.0000      -0.493306       -13.4235
  63   2.0000      -0.488795       -13.3008
  64   2.0000      -0.479255       -13.0412
  65   2.0000      -0.460987       -12.5441
  66   2.0000      -0.457732       -12.4555
  67   2.0000      -0.448204       -12.1962
  68   2.0000      -0.441924       -12.0254
  69   2.0000      -0.436014       -11.8646
  70   2.0000      -0.431880       -11.7521
  71   2.0000      -0.414923       -11.2906
  72   2.0000      -0.406555       -11.0629
  73   2.0000      -0.405348       -11.0301
  74   2.0000      -0.399518       -10.8714
  75   2.0000      -0.393818       -10.7163
  76   2.0000      -0.377967       -10.2850
  77   2.0000      -0.369904       -10.0656
  78   2.0000      -0.367344        -9.9959
  79   2.0000      -0.363127        -9.8812
  80   2.0000      -0.360614        -9.8128
  81   2.0000      -0.358991        -9.7686
  82   2.0000      -0.355456        -9.6724
  83   2.0000      -0.353142        -9.6095
  84   2.0000      -0.344586        -9.3767
  85   2.0000      -0.336125        -9.1464
  86   2.0000      -0.320749        -8.7280
  87   2.0000      -0.312738        -8.5100
  88   2.0000      -0.311047        -8.4640
  89   2.0000      -0.305190        -8.3046
  90   2.0000      -0.297642        -8.0993
  91   2.0000      -0.292145        -7.9497
  92   2.0000      -0.286723        -7.8021
  93   2.0000      -0.280818        -7.6414
  94   2.0000      -0.268507        -7.3065
  95   2.0000      -0.245830        -6.6894
  96   2.0000      -0.231619        -6.3027
  97   2.0000      -0.227245        -6.1837
  98   2.0000      -0.221212        -6.0195
  99   2.0000      -0.213345        -5.8054
 100   2.0000      -0.211252        -5.7485
 101   0.0000      -0.050886        -1.3847
 102   0.0000      -0.026998        -0.7347
 103   0.0000      -0.004443        -0.1209
 104   0.0000      -0.002351        -0.0640
 105   0.0000       0.007565         0.2058

MULLIKEN ATOMIC CHARGES
-----------------------
   0 C :   -0.425879
   1 C :   -0.150436
   2 O :   -0.304367
   3 P :    0.684640
   4 S :   -0.469323
   5 O :   -0.273268
   6 C :   -0.105603
   7 C :   -0.465383
   8 S :   -0.143531
   9 C :   -0.243475
  10 S :   -0.124500
  11 P :    0.686565
  12 S :   -0.484204
  13 O :   -0.303540
  14 C :   -0.152927
  15 C :   -0.452649
  16 O :   -0.241392
  17 C :   -0.126985
  18 C :   -0.482478
  19 H :    0.169077
  20 H :    0.163829
  21 H :    0.146660
  22 H :    0.150581
  23 H :    0.150977
  24 H :    0.146959
  25 H :    0.171574
  26 H :    0.143496
  27 H :    0.167987
  28 H :    0.146013
  29 H :    0.213351
  30 H :    0.212295
  31 H :    0.173179
  32 H :    0.148164
  33 H :    0.155918
  34 H :    0.176460
  35 H :    0.149020
  36 H :    0.149564
  37 H :    0.163970
  38 H :    0.170341
  39 H :    0.142245
  40 H :    0.167073
Sum of atomic charges:   -0.0000000

LOEWDIN ATOMIC CHARGES
----------------------
   0 C :   -0.406327
   1 C :    0.022848
   2 O :   -0.652590
   3 P :    0.385484
   4 S :   -0.130465
   5 O :   -0.656567
   6 C :    0.014099
   7 C :   -0.392588
   8 S :    0.161707
   9 C :   -0.419483
  10 S :    0.182524
  11 P :    0.373811
  12 S :   -0.131992
  13 O :   -0.661507
  14 C :    0.019639
  15 C :   -0.406622
  16 O :   -0.680430
  17 C :    0.027513
  18 C :   -0.396969
  19 H :    0.166085
  20 H :    0.165364
  21 H :    0.157922
  22 H :    0.181709
  23 H :    0.171503
  24 H :    0.172139
  25 H :    0.182423
  26 H :    0.157745
  27 H :    0.167707
  28 H :    0.158488
  29 H :    0.190262
  30 H :    0.191945
  31 H :    0.180054
  32 H :    0.179581
  33 H :    0.160090
  34 H :    0.165361
  35 H :    0.159741
  36 H :    0.173536
  37 H :    0.180450
  38 H :    0.166489
  39 H :    0.156471
  40 H :    0.162851

  Mayer bond orders larger than 0.100000
B(  0-C ,  1-C ) :   0.9412 B(  0-C , 19-H ) :   0.9547 B(  0-C , 20-H ) :   0.9660
B(  0-C , 21-H ) :   0.9632 B(  1-C ,  2-O ) :   0.8061 B(  1-C , 22-H ) :   0.9582
B(  1-C , 23-H ) :   0.9622 B(  2-O ,  3-P ) :   1.1093 B(  3-P ,  4-S ) :   1.7829
B(  3-P ,  5-O ) :   1.1459 B(  3-P ,  8-S ) :   1.0143 B(  5-O ,  6-C ) :   0.7580
B(  6-C ,  7-C ) :   0.9372 B(  6-C , 24-H ) :   0.9450 B(  6-C , 25-H ) :   0.9606
B(  7-C , 26-H ) :   0.9674 B(  7-C , 27-H ) :   0.9665 B(  7-C , 28-H ) :   0.9679
B(  8-S ,  9-C ) :   0.9025 B(  9-C , 10-S ) :   0.8973 B(  9-C , 29-H ) :   0.9118
B(  9-C , 30-H ) :   0.9069 B( 10-S , 11-P ) :   1.0885 B( 11-P , 12-S ) :   1.7634
B( 11-P , 13-O ) :   1.0475 B( 11-P , 16-O ) :   1.1419 B( 13-O , 14-C ) :   0.8174
B( 14-C , 15-C ) :   0.9214 B( 14-C , 31-H ) :   0.9674 B( 14-C , 32-H ) :   0.9584
B( 15-C , 33-H ) :   0.9687 B( 15-C , 34-H ) :   0.9626 B( 15-C , 35-H ) :   0.9585
B( 16-O , 17-C ) :   0.7495 B( 17-C , 18-C ) :   0.9496 B( 17-C , 36-H ) :   0.9554
B( 17-C , 37-H ) :   0.9564 B( 18-C , 38-H ) :   0.9686 B( 18-C , 39-H ) :   0.9646
B( 18-C , 40-H ) :   0.9688

Dispersion correction           -0.022465263
FINAL SINGLE POINT ENERGY     -2932.460708150862

DIPOLE MOMENT
-------------

Method             : SCF
Type of density    : Electron Density
Multiplicity       :   1
Irrep              :   0
Energy             : -2932.4848567395129066 Eh
Relativity type    :
Basis              : AO
                                X                 Y                 Z
Electronic contribution:      1.938265117       6.415811966      -5.613066108
Nuclear contribution   :     -2.396072247      -7.096485683       6.050936732
                        -----------------------------------------
Total Dipole Moment    :     -0.457807130      -0.680673717       0.437870624
                        -----------------------------------------
Magnitude (a.u.)       :      0.929857388
Magnitude (Debye)      :      2.363509648

Rotational constants in cm-1:             0.012624             0.005380             0.005150
Rotational constants in MHz :           378.455612           161.282536           154.387230

                             ****ORCA TERMINATED NORMALLY****
TOTAL RUN TIME: 0 days 0 hours 1 minutes 23 seconds 666 msec
