                         Program Version 6.0.0  -   RELEASE  -
|  1> ! r2scan-3c def2/J RI DEFGRID2 scfconv6 printgap
|  2> %output
|  3>     printlevel normal
|  4> end
|  5> %cpcm
|  6>     smd true
|  7>     smdsolvent "water"
|  8> end
|  9> * xyz 0 1
| 10> C 4.3928554807 -0.9827224167 -2.37680201
| 11> C 3.4728021953 -2.0532276199 -1.8266640652
| 12> O 2.9850131712 -1.7461610221 -0.5075170775
| 13> P 2.2168121387 -0.4221257266 -0.0953591901
| 14> S 3.2722915305 1.2091386612 0.2002951805
| 15> O 1.5105865584 -0.9845180428 1.2064176043
| 16> C 1.6185367346 -0.3797434951 2.5125635712
| 17> C 0.3495922312 -0.6591880025 3.2910769007
| 18> S 0.7139119577 -0.2791778791 -1.5881480084
| 19> C 0.225766767 1.425126825 -1.2330585218
| 20> S -0.4765095491 1.623845036 0.4269263473
| 21> P -2.1590493593 0.3887301329 0.1279780354
| 22> S -3.0501810683 0.4588659836 -1.6207100827
| 23> O -3.110365043 0.7016211096 1.3651081826
| 24> C -4.1306578876 1.7143642468 1.3209243687
| 25> C -3.5441577738 3.1094799426 1.2515481909
| 26> O -1.5540937343 -1.0082589609 0.5564233807
| 27> C -2.1752309412 -2.2757509493 0.2490904321
| 28> C -1.1517878199 -3.1822167408 -0.4060959785
| 29> H 3.8421261773 -0.0562555899 -2.5330670165
| 30> H 5.205032127 -0.7868418199 -1.6806271457
| 31> H 4.8039630536 -1.3137041641 -3.3250590965
| 32> H 3.9990306651 -2.9996193488 -1.689579572
| 33> H 2.6124369289 -2.200499515 -2.4856318715
| 34> H 2.4866407837 -0.8258492628 3.0041708087
| 35> H 1.7902518962 0.6958684098 2.3979196225
| 36> H 0.4537032697 -0.2488505829 4.2902655413
| 37> H -0.5068498242 -0.1990358109 2.8044873396
| 38> H 0.1818581563 -1.7303544398 3.3551251531
| 39> H -0.5162232224 1.6985574882 -1.9825217576
| 40> H 1.0997678787 2.0750575 -1.276017588
| 41> H -4.7696929465 1.5218373592 0.453262741
| 42> H -4.6948071802 1.5579639905 2.2412270997
| 43> H -2.828063378 3.2599273997 2.0555949297
| 44> H -3.0358527476 3.2528485371 0.2987659842
| 45> H -4.3422968448 3.8398224493 1.3372842934
| 46> H -2.5235706899 -2.685332035 1.1992756294
| 47> H -3.0314060097 -2.1051113626 -0.4116884525
| 48> H -0.2520118134 -3.2233887284 0.2032035088
| 49> H -1.5679080566 -4.1793671395 -0.5060507882
| 50> H -0.8882518484 -2.8027397218 -1.3905857305
| 51> *
| 52>
| 53>                          ****END OF INPUT****

CARTESIAN COORDINATES (ANGSTROEM)
---------------------------------
  C      4.392855   -0.982722   -2.376802
  C      3.472802   -2.053228   -1.826664
  O      2.985013   -1.746161   -0.507517
  P      2.216812   -0.422126   -0.095359
  S      3.272292    1.209139    0.200295
  O      1.510587   -0.984518    1.206418
  C      1.618537   -0.379743    2.512564
  C      0.349592   -0.659188    3.291077
  S      0.713912   -0.279178   -1.588148
  C      0.225767    1.425127   -1.233059
  S     -0.476510    1.623845    0.426926
  P     -2.159049    0.388730    0.127978
  S     -3.050181    0.458866   -1.620710
  O     -3.110365    0.701621    1.365108
  C     -4.130658    1.714364    1.320924
  C     -3.544158    3.109480    1.251548
  O     -1.554094   -1.008259    0.556423
  C     -2.175231   -2.275751    0.249090
  C     -1.151788   -3.182217   -0.406096
  H      3.842126   -0.056256   -2.533067
  H      5.205032   -0.786842   -1.680627
  H      4.803963   -1.313704   -3.325059
  H      3.999031   -2.999619   -1.689580
  H      2.612437   -2.200500   -2.485632
  H      2.486641   -0.825849    3.004171
  H      1.790252    0.695868    2.397920
  H      0.453703   -0.248851    4.290266
  H     -0.506850   -0.199036    2.804487
  H      0.181858   -1.730354    3.355125
  H     -0.516223    1.698557   -1.982522
  H      1.099768    2.075058   -1.276018
  H     -4.769693    1.521837    0.453263
  H     -4.694807    1.557964    2.241227
  H     -2.828063    3.259927    2.055595
  H     -3.035853    3.252849    0.298766
  H     -4.342297    3.839822    1.337284
  H     -2.523571   -2.685332    1.199276
  H     -3.031406   -2.105111   -0.411688
  H     -0.252012   -3.223389    0.203204
  H     -1.567908   -4.179367   -0.506051
  H     -0.888252   -2.802740   -1.390586

 Total Charge           Charge          ....    0
 Multiplicity           Mult            ....    1
 Number of Electrons    NEL             ....  202
 Basis Dimension        Dim             ....  539

ORBITAL ENERGIES
----------------

  NO   OCC          E(Eh)            E(eV)
   0   2.0000     -88.581019     -2410.4121
   1   2.0000     -88.578885     -2410.3540
   2   2.0000     -88.528803     -2408.9912
   3   2.0000     -88.526210     -2408.9206
   4   2.0000     -76.919996     -2093.0995
   5   2.0000     -76.919342     -2093.0817
   6   2.0000     -18.995628      -516.8973
   7   2.0000     -18.995409      -516.8913
   8   2.0000     -18.991309      -516.7798
   9   2.0000     -18.989672      -516.7353
  10   2.0000     -10.106099      -275.0009
  11   2.0000     -10.093063      -274.6462
  12   2.0000     -10.089337      -274.5448
  13   2.0000     -10.088906      -274.5331
  14   2.0000     -10.087607      -274.4977
  15   2.0000     -10.018680      -272.6221
  16   2.0000     -10.018505      -272.6174
  17   2.0000     -10.017097      -272.5791
  18   2.0000     -10.017042      -272.5776
  19   2.0000      -7.875475      -214.3026
  20   2.0000      -7.873316      -214.2438
  21   2.0000      -7.823813      -212.8968
  22   2.0000      -7.821375      -212.8304
  23   2.0000      -6.598209      -179.5464
  24   2.0000      -6.597894      -179.5378
  25   2.0000      -5.822348      -158.4341
  26   2.0000      -5.820192      -158.3755
  27   2.0000      -5.819363      -158.3529
  28   2.0000      -5.817093      -158.2911
  29   2.0000      -5.812547      -158.1674
  30   2.0000      -5.810487      -158.1114
  31   2.0000      -5.771304      -157.0452
  32   2.0000      -5.768981      -156.9820
  33   2.0000      -5.764154      -156.8506
  34   2.0000      -5.763865      -156.8428
  35   2.0000      -5.761726      -156.7845
  36   2.0000      -5.761283      -156.7725
  37   2.0000      -4.743639      -129.0810
  38   2.0000      -4.743308      -129.0720
  39   2.0000      -4.743302      -129.0718
  40   2.0000      -4.742777      -129.0575
  41   2.0000      -4.741906      -129.0338
  42   2.0000      -4.741767      -129.0300
  43   2.0000      -1.052753       -28.6469
  44   2.0000      -1.051233       -28.6055
  45   2.0000      -1.011450       -27.5230
  46   2.0000      -1.010329       -27.4925
  47   2.0000      -0.806625       -21.9494
  48   2.0000      -0.757327       -20.6079
  49   2.0000      -0.745310       -20.2809
  50   2.0000      -0.722725       -19.6664
  51   2.0000      -0.721588       -19.6354
  52   2.0000      -0.710634       -19.3373
  53   2.0000      -0.688812       -18.7435
  54   2.0000      -0.675618       -18.3845
  55   2.0000      -0.632052       -17.1990
  56   2.0000      -0.621304       -16.9065
  57   2.0000      -0.601562       -16.3693
  58   2.0000      -0.595699       -16.2098
  59   2.0000      -0.586411       -15.9571
  60   2.0000      -0.525292       -14.2939
  61   2.0000      -0.521575       -14.1928
  62   2.0000      -0.489966       -13.3327
  63   2.0000      -0.487228       -13.2582
  64   2.0000      -0.479330       -13.0432
  65   2.0000      -0.456669       -12.4266
  66   2.0000      -0.455392       -12.3918
  67   2.0000      -0.442634       -12.0447
  68   2.0000      -0.440237       -11.9794
  69   2.0000      -0.434659       -11.8277
  70   2.0000      -0.427927       -11.6445
  71   2.0000      -0.414426       -11.2771
  72   2.0000      -0.405319       -11.0293
  73   2.0000      -0.402841       -10.9619
  74   2.0000      -0.399138       -10.8611
  75   2.0000      -0.390866       -10.6360
  76   2.0000      -0.376425       -10.2430
  77   2.0000      -0.363864        -9.9012
  78   2.0000      -0.360971        -9.8225
  79   2.0000      -0.357455        -9.7268
  80   2.0000      -0.354803        -9.6547
  81   2.0000      -0.354189        -9.6380
  82   2.0000      -0.350592        -9.5401
  83   2.0000      -0.347512        -9.4563
  84   2.0000      -0.341576        -9.2947
  85   2.0000      -0.334329        -9.0975
  86   2.0000      -0.318570        -8.6687
  87   2.0000      -0.310241        -8.4421
  88   2.0000      -0.306728        -8.3465
  89   2.0000      -0.304819        -8.2946
  90   2.0000      -0.299267        -8.1435
  91   2.0000      -0.289913        -7.8889
  92   2.0000      -0.287651        -7.8274
  93   2.0000      -0.279806        -7.6139
  94   2.0000      -0.270929        -7.3724
  95   2.0000      -0.248466        -6.7611
  96   2.0000      -0.236304        -6.4301
  97   2.0000      -0.234245        -6.3741
  98   2.0000      -0.227339        -6.1862
  99   2.0000      -0.220802        -6.0083
 100   2.0000      -0.218872        -5.9558
 101   0.0000      -0.054502        -1.4831
 102   0.0000      -0.032090        -0.8732
 103   0.0000      -0.007424        -0.2020
 104   0.0000      -0.006410        -0.1744
 105   0.0000       0.007826         0.2130

MULLIKEN ATOMIC CHARGES
-----------------------
   0 C :   -0.466735
   1 C :   -0.150448
   2 O :   -0.337425
   3 P :    0.715046
   4 S :   -0.514490
   5 O :   -0.306688
   6 C :   -0.100206
   7 C :   -0.512545
   8 S :   -0.145907
   9 C :   -0.253268
  10 S :   -0.132683
  11 P :    0.721236
  12 S :   -0.529743
  13 O :   -0.330245
  14 C :   -0.151756
  15 C :   -0.489347
  16 O :   -0.267790
  17 C :   -0.127567
  18 C :   -0.509429
  19 H :    0.166020
  20 H :    0.169864
  21 H :    0.173240
  22 H :    0.177263
  23 H :    0.171635
  24 H :    0.170297
  25 H :    0.172284
  26 H :    0.169048
  27 H :    0.166355
  28 H :    0.166831
  29 H :    0.236187
  30 H :    0.231705
  31 H :    0.177930
  32 H :    0.174702
  33 H :    0.170149
  34 H :    0.172673
  35 H :    0.173217
  36 H :    0.174948
  37 H :    0.168854
  38 H :    0.169097
  39 H :    0.167414
  40 H :    0.170273
Sum of atomic charges:   -0.0000000

LOEWDIN ATOMIC CHARGES
----------------------
   0 C :   -0.409939
   1 C :    0.029256
   2 O :   -0.668676
   3 P :    0.388281
   4 S :   -0.160590
   5 O :   -0.675383
   6 C :    0.016286
   7 C :   -0.396445
   8 S :    0.164016
   9 C :   -0.412948
  10 S :    0.179519
  11 P :    0.379927
  12 S :   -0.160438
  13 O :   -0.671876
  14 C :    0.024989
  15 C :   -0.409809
  16 O :   -0.695841
  17 C :    0.031747
  18 C :   -0.399161
  19 H :    0.161858
  20 H :    0.164317
  21 H :    0.168069
  22 H :    0.193083
  23 H :    0.179503
  24 H :    0.180891
  25 H :    0.182737
  26 H :    0.167923
  27 H :    0.164759
  28 H :    0.163448
  29 H :    0.197524
  30 H :    0.197914
  31 H :    0.181480
  32 H :    0.190826
  33 H :    0.163660
  34 H :    0.161476
  35 H :    0.168515
  36 H :    0.183895
  37 H :    0.182560
  38 H :    0.164648
  39 H :    0.165953
  40 H :    0.162049

  Mayer bond orders larger than 0.100000
B(  0-C ,  1-C ) :   0.9221 B(  0-C , 19-H ) :   0.9572 B(  0-C , 20-H ) :   0.9670
B(  0-C , 21-H ) :   0.9569 B(  1-C ,  2-O ) :   0.7968 B(  1-C , 22-H ) :   0.9484
B(  1-C , 23-H ) :   0.9565 B(  2-O ,  3-P ) :   1.1149 B(  3-P ,  4-S ) :   1.7495
B(  3-P ,  5-O ) :   1.1413 B(  3-P ,  8-S ) :   1.0339 B(  5-O ,  6-C ) :   0.7513
B(  6-C ,  7-C ) :   0.9272 B(  6-C , 24-H ) :   0.9363 B(  6-C , 25-H ) :   0.9574
B(  7-C , 26-H ) :   0.9604 B(  7-C , 27-H ) :   0.9666 B(  7-C , 28-H ) :   0.9657
B(  8-S ,  9-C ) :   0.8893 B(  9-C , 10-S ) :   0.8869 B(  9-C , 29-H ) :   0.9053
B(  9-C , 30-H ) :   0.9020 B( 10-S , 11-P ) :   1.0971 B( 11-P , 12-S ) :   1.7234
B( 11-P , 13-O ) :   1.0556 B( 11-P , 16-O ) :   1.1493 B( 13-O , 14-C ) :   0.8054
B( 14-C , 15-C ) :   0.9094 B( 14-C , 31-H ) :   0.9658 B( 14-C , 32-H ) :   0.9487
B( 15-C , 33-H ) :   0.9658 B( 15-C , 34-H ) :   0.9635 B( 15-C , 35-H ) :   0.9532
B( 16-O , 17-C ) :   0.7407 B( 17-C , 18-C ) :   0.9406 B( 17-C , 36-H ) :   0.9456
B( 17-C , 37-H ) :   0.9539 B( 18-C , 38-H ) :   0.9683 B( 18-C , 39-H ) :   0.9599
B( 18-C , 40-H ) :   0.9675

Dispersion correction           -0.022465263
FINAL SINGLE POINT ENERGY     -2932.468666274488

DIPOLE MOMENT
-------------

Method             : SCF
Type of density    : Electron Density
Multiplicity       :   1
Irrep              :   0
Energy             : -2932.4928148631393015 Eh
Relativity type    :
Basis              : AO
                                X                 Y                 Z
Electronic contribution:      1.728664945       6.264457732      -5.554204725
Nuclear contribution   :     -2.396072247      -7.096485683       6.050936732
                        -----------------------------------------
Total Dipole Moment    :     -0.667407302      -0.832027951       0.496732007
                        -----------------------------------------
Magnitude (a.u.)       :      1.176624708
Magnitude (Debye)      :      2.990742331

Rotational constants in cm-1:             0.012624             0.005380             0.005150
Rotational constants in MHz :           378.455612           161.282536           154.387230

                             ****ORCA TERMINATED NORMALLY****
TOTAL RUN TIME: 0 days 0 hours 2 minutes 0 seconds 675 msec
