                         Program Version 6.0.0  -   RELEASE  -
|  1> ! pbe def2-sv(p) def2/J RI DEFGRID1 loosescf d4 GCP(DFT/SV(P)) printgap
|  2> %output
|  3>     printlevel normal
|  4> end
|  5> * xyz 0 1
|  6> C 4.4373992271 -1.6868214065 -1.9904649333
|  7> C 3.6637978687 -2.3204733866 -0.853636762
|  8> O 3.2846132711 -1.3702156355 0.1601245485
|  9> P 2.4704033929 -0.0295496596 -0.0936707436
| 10> S 3.4012262725 1.5238596017 -0.8349731324
| 11> O 1.969378078 0.3175129313 1.3561147223
| 12> C 1.2182423975 -0.5866842398 2.2056704161
| 13> C 0.7083154058 0.2233382233 3.3793052386
| 14> S 0.7829411055 -0.7073864213 -1.2162850197
| 15> C 0.1271138329 0.9372945838 -1.5529880674
| 16> S -0.6900651326 1.6780926508 -0.1158190517
| 17> P -2.4114629295 0.4525789392 -0.2020636324
| 18> S -3.1088333274 -0.0348046303 -1.9604222331
| 19> O -3.5115475737 1.2550041728 0.6091521936
| 20> C -3.2892969915 1.9500319081 1.8596613262
| 21> C -3.2951636596 1.0038611909 3.0434435616
| 22> O -1.9279193541 -0.7711715289 0.7104376966
| 23> C -2.5730817089 -2.0630617075 0.657950183
| 24> C -1.7642600428 -3.0322060668 -0.180381842
| 25> H 4.7684853135 -2.4594767915 -2.6768185199
| 26> H 3.8056009605 -0.9812365802 -2.5283307904
| 27> H 5.3018744125 -1.1489574835 -1.6083610503
| 28> H 4.2736200224 -3.044499222 -0.3103689555
| 29> H 2.7553133243 -2.8017551327 -1.2261164693
| 30> H 0.3926981401 -1.0066975925 1.6234322862
| 31> H 1.8862535394 -1.3892643561 2.5234680396
| 32> H 0.0733610687 1.030267521 3.0222867502
| 33> H 0.141072547 -0.4221448792 4.0422912034
| 34> H 1.5428983438 0.6555337135 3.923659952
| 35> H -0.5938936919 0.8373718369 -2.3649026928
| 36> H 0.9492457239 1.6019283245 -1.8242253579
| 37> H -2.3448706917 2.4971267886 1.7911023563
| 38> H -4.1181941454 2.6582661073 1.9097729392
| 39> H -2.452301928 0.3202767605 2.9893344276
| 40> H -3.222261162 1.5844302618 3.9578744362
| 41> H -4.2185577888 0.4306333433 3.0574643205
| 42> H -2.6347820799 -2.3886773774 1.6978857666
| 43> H -3.5804158614 -1.9448880769 0.2483391705
| 44> H -0.7550092723 -3.1222507414 0.2111412634
| 45> H -2.245503824 -4.0046322541 -0.1646567128
| 46> H -1.7071619537 -2.6799027324 -1.2081439206
| 47> *
| 48>
| 49>                          ****END OF INPUT****

CARTESIAN COORDINATES (ANGSTROEM)
---------------------------------
  C      4.437399   -1.686821   -1.990465
  C      3.663798   -2.320473   -0.853637
  O      3.284613   -1.370216    0.160125
  P      2.470403   -0.029550   -0.093671
  S      3.401226    1.523860   -0.834973
  O      1.969378    0.317513    1.356115
  C      1.218242   -0.586684    2.205670
  C      0.708315    0.223338    3.379305
  S      0.782941   -0.707386   -1.216285
  C      0.127114    0.937295   -1.552988
  S     -0.690065    1.678093   -0.115819
  P     -2.411463    0.452579   -0.202064
  S     -3.108833   -0.034805   -1.960422
  O     -3.511548    1.255004    0.609152
  C     -3.289297    1.950032    1.859661
  C     -3.295164    1.003861    3.043444
  O     -1.927919   -0.771172    0.710438
  C     -2.573082   -2.063062    0.657950
  C     -1.764260   -3.032206   -0.180382
  H      4.768485   -2.459477   -2.676819
  H      3.805601   -0.981237   -2.528331
  H      5.301874   -1.148957   -1.608361
  H      4.273620   -3.044499   -0.310369
  H      2.755313   -2.801755   -1.226116
  H      0.392698   -1.006698    1.623432
  H      1.886254   -1.389264    2.523468
  H      0.073361    1.030268    3.022287
  H      0.141073   -0.422145    4.042291
  H      1.542898    0.655534    3.923660
  H     -0.593894    0.837372   -2.364903
  H      0.949246    1.601928   -1.824225
  H     -2.344871    2.497127    1.791102
  H     -4.118194    2.658266    1.909773
  H     -2.452302    0.320277    2.989334
  H     -3.222261    1.584430    3.957874
  H     -4.218558    0.430633    3.057464
  H     -2.634782   -2.388677    1.697886
  H     -3.580416   -1.944888    0.248339
  H     -0.755009   -3.122251    0.211141
  H     -2.245504   -4.004632   -0.164657
  H     -1.707162   -2.679903   -1.208144

 Total Charge           Charge          ....    0
 Multiplicity           Mult            ....    1
 Number of Electrons    NEL             ....  202
 Basis Dimension        Dim             ....  334

ORBITAL ENERGIES
----------------

  NO   OCC          E(Eh)            E(eV)
   0   2.0000     -88.046875     -2395.8773
   1   2.0000     -88.044349     -2395.8085
   2   2.0000     -87.989726     -2394.3222
   3   2.0000     -87.981928     -2394.1100
   4   2.0000     -76.430187     -2079.7711
   5   2.0000     -76.426194     -2079.6625
   6   2.0000     -18.798388      -511.5301
   7   2.0000     -18.796837      -511.4879
   8   2.0000     -18.796796      -511.4868
   9   2.0000     -18.789669      -511.2929
  10   2.0000      -9.966605      -271.2051
  11   2.0000      -9.961715      -271.0720
  12   2.0000      -9.958544      -270.9858
  13   2.0000      -9.954868      -270.8857
  14   2.0000      -9.952183      -270.8127
  15   2.0000      -9.897670      -269.3293
  16   2.0000      -9.889213      -269.0992
  17   2.0000      -9.885306      -268.9929
  18   2.0000      -9.884438      -268.9692
  19   2.0000      -7.692004      -209.3101
  20   2.0000      -7.689062      -209.2300
  21   2.0000      -7.635004      -207.7590
  22   2.0000      -7.627262      -207.5483
  23   2.0000      -6.428217      -174.9207
  24   2.0000      -6.423475      -174.7916
  25   2.0000      -5.719742      -155.6421
  26   2.0000      -5.716712      -155.5596
  27   2.0000      -5.716665      -155.5584
  28   2.0000      -5.713589      -155.4747
  29   2.0000      -5.708884      -155.3466
  30   2.0000      -5.706334      -155.2772
  31   2.0000      -5.664095      -154.1279
  32   2.0000      -5.656366      -153.9175
  33   2.0000      -5.655878      -153.9043
  34   2.0000      -5.654674      -153.8715
  35   2.0000      -5.647845      -153.6857
  36   2.0000      -5.647235      -153.6691
  37   2.0000      -4.651183      -126.5651
  38   2.0000      -4.649701      -126.5248
  39   2.0000      -4.648549      -126.4935
  40   2.0000      -4.646355      -126.4337
  41   2.0000      -4.645500      -126.4105
  42   2.0000      -4.643452      -126.3547
  43   2.0000      -0.989485       -26.9253
  44   2.0000      -0.989120       -26.9153
  45   2.0000      -0.950388       -25.8614
  46   2.0000      -0.945484       -25.7279
  47   2.0000      -0.768497       -20.9119
  48   2.0000      -0.726822       -19.7778
  49   2.0000      -0.716351       -19.4929
  50   2.0000      -0.697914       -18.9912
  51   2.0000      -0.691853       -18.8263
  52   2.0000      -0.678017       -18.4498
  53   2.0000      -0.652959       -17.7679
  54   2.0000      -0.640800       -17.4371
  55   2.0000      -0.596443       -16.2300
  56   2.0000      -0.590571       -16.0702
  57   2.0000      -0.586328       -15.9548
  58   2.0000      -0.571715       -15.5571
  59   2.0000      -0.564617       -15.3640
  60   2.0000      -0.513058       -13.9610
  61   2.0000      -0.502983       -13.6869
  62   2.0000      -0.486057       -13.2263
  63   2.0000      -0.477064       -12.9816
  64   2.0000      -0.464171       -12.6307
  65   2.0000      -0.454577       -12.3697
  66   2.0000      -0.443475       -12.0676
  67   2.0000      -0.437599       -11.9077
  68   2.0000      -0.432453       -11.7676
  69   2.0000      -0.418369       -11.3844
  70   2.0000      -0.413551       -11.2533
  71   2.0000      -0.403855       -10.9895
  72   2.0000      -0.397034       -10.8038
  73   2.0000      -0.391097       -10.6423
  74   2.0000      -0.384153       -10.4533
  75   2.0000      -0.374063       -10.1788
  76   2.0000      -0.367552       -10.0016
  77   2.0000      -0.360463        -9.8087
  78   2.0000      -0.358143        -9.7456
  79   2.0000      -0.356754        -9.7078
  80   2.0000      -0.350110        -9.5270
  81   2.0000      -0.348953        -9.4955
  82   2.0000      -0.346491        -9.4285
  83   2.0000      -0.340954        -9.2778
  84   2.0000      -0.337740        -9.1904
  85   2.0000      -0.325234        -8.8501
  86   2.0000      -0.317687        -8.6447
  87   2.0000      -0.313735        -8.5372
  88   2.0000      -0.298875        -8.1328
  89   2.0000      -0.295187        -8.0324
  90   2.0000      -0.287682        -7.8282
  91   2.0000      -0.281894        -7.6707
  92   2.0000      -0.273923        -7.4538
  93   2.0000      -0.273272        -7.4361
  94   2.0000      -0.259749        -7.0681
  95   2.0000      -0.236100        -6.4246
  96   2.0000      -0.221758        -6.0343
  97   2.0000      -0.212802        -5.7906
  98   2.0000      -0.203546        -5.5388
  99   2.0000      -0.200272        -5.4497
 100   2.0000      -0.196378        -5.3437
 101   0.0000      -0.047242        -1.2855
 102   0.0000      -0.027694        -0.7536
 103   0.0000      -0.012011        -0.3268
 104   0.0000      -0.002102        -0.0572
 105   0.0000       0.006775         0.1843

MULLIKEN ATOMIC CHARGES
-----------------------
   0 C :   -0.308526
   1 C :   -0.014667
   2 O :   -0.383815
   3 P :    0.601286
   4 S :   -0.309324
   5 O :   -0.352349
   6 C :   -0.041421
   7 C :   -0.285225
   8 S :   -0.108403
   9 C :   -0.360496
  10 S :   -0.092964
  11 P :    0.618174
  12 S :   -0.310544
  13 O :   -0.365973
  14 C :   -0.030096
  15 C :   -0.321111
  16 O :   -0.383670
  17 C :   -0.012883
  18 C :   -0.286416
  19 H :    0.111872
  20 H :    0.127949
  21 H :    0.128000
  22 H :    0.109489
  23 H :    0.113934
  24 H :    0.134080
  25 H :    0.102252
  26 H :    0.122252
  27 H :    0.107001
  28 H :    0.120649
  29 H :    0.197267
  30 H :    0.195401
  31 H :    0.125444
  32 H :    0.118693
  33 H :    0.137986
  34 H :    0.116418
  35 H :    0.120496
  36 H :    0.099933
  37 H :    0.110054
  38 H :    0.113111
  39 H :    0.108299
  40 H :    0.127845
Sum of atomic charges:    0.0000000

LOEWDIN ATOMIC CHARGES
----------------------
   0 C :   -0.368674
   1 C :   -0.114421
   2 O :   -0.246926
   3 P :    0.567462
   4 S :   -0.309165
   5 O :   -0.232144
   6 C :   -0.123017
   7 C :   -0.350856
   8 S :    0.076487
   9 C :   -0.484842
  10 S :    0.089392
  11 P :    0.570479
  12 S :   -0.306088
  13 O :   -0.243845
  14 C :   -0.113525
  15 C :   -0.365145
  16 O :   -0.254554
  17 C :   -0.117897
  18 C :   -0.361363
  19 H :    0.130412
  20 H :    0.122819
  21 H :    0.131246
  22 H :    0.121335
  23 H :    0.107959
  24 H :    0.106277
  25 H :    0.111458
  26 H :    0.123187
  27 H :    0.126626
  28 H :    0.129472
  29 H :    0.130580
  30 H :    0.129461
  31 H :    0.107763
  32 H :    0.126029
  33 H :    0.125417
  34 H :    0.132943
  35 H :    0.128890
  36 H :    0.113606
  37 H :    0.111081
  38 H :    0.119444
  39 H :    0.128547
  40 H :    0.124088

  Mayer bond orders larger than 0.100000
B(  0-C ,  1-C ) :   1.1667 B(  0-C , 19-H ) :   0.9348 B(  0-C , 20-H ) :   0.9317
B(  0-C , 21-H ) :   0.9433 B(  1-C ,  2-O ) :   0.9137 B(  1-C , 22-H ) :   0.9333
B(  1-C , 23-H ) :   0.9262 B(  2-O ,  3-P ) :   1.0883 B(  3-P ,  4-S ) :   1.6471
B(  3-P ,  5-O ) :   1.1448 B(  3-P ,  8-S ) :   0.9367 B(  4-S ,  8-S ) :   0.1079
B(  5-O ,  6-C ) :   0.8846 B(  6-C ,  7-C ) :   1.1720 B(  6-C , 24-H ) :   0.8978
B(  6-C , 25-H ) :   0.9278 B(  7-C , 26-H ) :   0.9402 B(  7-C , 27-H ) :   0.9380
B(  7-C , 28-H ) :   0.9470 B(  8-S ,  9-C ) :   1.0127 B(  9-C , 10-S ) :   1.0053
B(  9-C , 29-H ) :   0.8713 B(  9-C , 30-H ) :   0.8636 B( 10-S , 11-P ) :   0.9690
B( 10-S , 12-S ) :   0.1025 B( 11-P , 12-S ) :   1.6282 B( 11-P , 13-O ) :   1.1250
B( 11-P , 16-O ) :   1.0685 B( 13-O , 14-C ) :   0.9070 B( 14-C , 15-C ) :   1.1612
B( 14-C , 31-H ) :   0.9155 B( 14-C , 32-H ) :   0.9343 B( 15-C , 33-H ) :   0.9315
B( 15-C , 34-H ) :   0.9380 B( 15-C , 35-H ) :   0.9447 B( 16-O , 17-C ) :   0.8878
B( 17-C , 18-C ) :   1.1745 B( 17-C , 36-H ) :   0.9325 B( 17-C , 37-H ) :   0.9119
B( 18-C , 38-H ) :   0.9472 B( 18-C , 39-H ) :   0.9390 B( 18-C , 40-H ) :   0.9337

Dispersion correction           -0.066390598
FINAL SINGLE POINT ENERGY     -2929.517659424267

DIPOLE MOMENT
-------------

Method             : SCF
Type of density    : Electron Density
Multiplicity       :   1
Irrep              :   0
Energy             : -2929.6373476178018791 Eh
Relativity type    :
Basis              : AO
                                X                 Y                 Z
Electronic contribution:      1.508544862      13.813809791     -14.872928762
Nuclear contribution   :     -1.926515829     -15.260596620      16.455442985
                        -----------------------------------------
Total Dipole Moment    :     -0.417970967      -1.446786829       1.582514223
                        -----------------------------------------
Magnitude (a.u.)       :      2.184546434
Magnitude (Debye)      :      5.552675757

Rotational constants in cm-1:             0.012068             0.005197             0.004899
Rotational constants in MHz :           361.794737           155.811637           146.865556

                             ****ORCA TERMINATED NORMALLY****
TOTAL RUN TIME: 0 days 0 hours 0 minutes 21 seconds 849 msec
