                         Program Version 6.0.0  -   RELEASE  -
|  1> ! pbe def2-sv(p) def2/J RI DEFGRID1 loosescf d4 GCP(DFT/SV(P)) printgap
|  2> %output
|  3>     printlevel normal
|  4> end
|  5> * xyz 0 1
|  6> C 4.5177706405 2.0620500027 0.1834342858
|  7> C 4.0445831699 1.3608423837 -1.0730489529
|  8> O 3.3611033413 0.1217133813 -0.8036195026
|  9> P 2.1666065891 -0.0716234273 0.2244693802
| 10> S 2.6293960357 -0.217023591 2.1284431355
| 11> O 1.4685273118 -1.3641879005 -0.3720830443
| 12> C 1.6896494202 -2.6822011829 0.1545323423
| 13> C 3.0672854768 -3.1917135838 -0.2115520867
| 14> S 0.8028735969 1.4392519696 -0.307635943
| 15> C -0.2358778308 1.3194558874 1.1756620028
| 16> S -1.0717645401 -0.2818920017 1.3594521554
| 17> P -2.1885015292 -0.3495550304 -0.4499020167
| 18> S -1.2893657864 -0.9038534585 -2.0970547522
| 19> O -2.9057193645 1.074282281 -0.5010745011
| 20> C -2.8821034642 1.9655584336 -1.6361880307
| 21> C -2.1716980805 3.2588308542 -1.2910649367
| 22> O -3.3215723395 -1.3957680375 -0.0892410556
| 23> C -4.5502540621 -1.119417405 0.6272877235
| 24> C -4.3266246736 -0.5689466127 2.0194307442
| 25> H 3.6647478849 2.3735973672 0.7849874141
| 26> H 5.1353239181 1.3955267606 0.7810484003
| 27> H 5.0961541273 2.9382610278 -0.0912521465
| 28> H 4.8834674369 1.0574435715 -1.7020950211
| 29> H 3.367849691 2.0025080001 -1.6447524387
| 30> H 1.5597059235 -2.650819108 1.2423280009
| 31> H 0.8964179802 -3.2828081127 -0.2945331254
| 32> H 3.1861565214 -4.2083861677 0.1493115955
| 33> H 3.1989543681 -3.168256608 -1.2901570775
| 34> H 3.823809115 -2.5564762409 0.2489057191
| 35> H -0.9717590653 2.1166292502 1.1129153246
| 36> H 0.3890255894 1.4224600104 2.0634221479
| 37> H -2.395589744 1.4564889624 -2.4749546612
| 38> H -3.930611945 2.1477743809 -1.8804778517
| 39> H -1.1102137994 3.0820770329 -1.1269879772
| 40> H -2.2846845698 3.9485524768 -2.1212329559
| 41> H -2.6086252741 3.7018863582 -0.4003719006
| 42> H -5.1421085798 -0.4255882537 0.0265661742
| 43> H -5.040589384 -2.0938659226 0.6554416757
| 44> H -3.6617003898 -1.2181760196 2.5839699001
| 45> H -3.8877556765 0.4246294918 1.9688637315
| 46> H -5.2834285395 -0.5079966409 2.5290437287
| 47> *
| 48>
| 49>                          ****END OF INPUT****

CARTESIAN COORDINATES (ANGSTROEM)
---------------------------------
  C      4.517771    2.062050    0.183434
  C      4.044583    1.360842   -1.073049
  O      3.361103    0.121713   -0.803620
  P      2.166607   -0.071623    0.224469
  S      2.629396   -0.217024    2.128443
  O      1.468527   -1.364188   -0.372083
  C      1.689649   -2.682201    0.154532
  C      3.067285   -3.191714   -0.211552
  S      0.802874    1.439252   -0.307636
  C     -0.235878    1.319456    1.175662
  S     -1.071765   -0.281892    1.359452
  P     -2.188502   -0.349555   -0.449902
  S     -1.289366   -0.903853   -2.097055
  O     -2.905719    1.074282   -0.501075
  C     -2.882103    1.965558   -1.636188
  C     -2.171698    3.258831   -1.291065
  O     -3.321572   -1.395768   -0.089241
  C     -4.550254   -1.119417    0.627288
  C     -4.326625   -0.568947    2.019431
  H      3.664748    2.373597    0.784987
  H      5.135324    1.395527    0.781048
  H      5.096154    2.938261   -0.091252
  H      4.883467    1.057444   -1.702095
  H      3.367850    2.002508   -1.644752
  H      1.559706   -2.650819    1.242328
  H      0.896418   -3.282808   -0.294533
  H      3.186157   -4.208386    0.149312
  H      3.198954   -3.168257   -1.290157
  H      3.823809   -2.556476    0.248906
  H     -0.971759    2.116629    1.112915
  H      0.389026    1.422460    2.063422
  H     -2.395590    1.456489   -2.474955
  H     -3.930612    2.147774   -1.880478
  H     -1.110214    3.082077   -1.126988
  H     -2.284685    3.948552   -2.121233
  H     -2.608625    3.701886   -0.400372
  H     -5.142109   -0.425588    0.026566
  H     -5.040589   -2.093866    0.655442
  H     -3.661700   -1.218176    2.583970
  H     -3.887756    0.424629    1.968864
  H     -5.283429   -0.507997    2.529044

 Total Charge           Charge          ....    0
 Multiplicity           Mult            ....    1
 Number of Electrons    NEL             ....  202
 Basis Dimension        Dim             ....  334

ORBITAL ENERGIES
----------------

  NO   OCC          E(Eh)            E(eV)
   0   2.0000     -88.044784     -2395.8204
   1   2.0000     -88.039077     -2395.6651
   2   2.0000     -87.983311     -2394.1476
   3   2.0000     -87.974618     -2393.9111
   4   2.0000     -76.423760     -2079.5962
   5   2.0000     -76.422927     -2079.5736
   6   2.0000     -18.797570      -511.5079
   7   2.0000     -18.790292      -511.3098
   8   2.0000     -18.787591      -511.2364
   9   2.0000     -18.776848      -510.9440
  10   2.0000      -9.959067      -271.0000
  11   2.0000      -9.957196      -270.9491
  12   2.0000      -9.957129      -270.9472
  13   2.0000      -9.955205      -270.8949
  14   2.0000      -9.936922      -270.3974
  15   2.0000      -9.892942      -269.2007
  16   2.0000      -9.886997      -269.0389
  17   2.0000      -9.882934      -268.9283
  18   2.0000      -9.872851      -268.6539
  19   2.0000      -7.689562      -209.2436
  20   2.0000      -7.683807      -209.0870
  21   2.0000      -7.628279      -207.5760
  22   2.0000      -7.619967      -207.3499
  23   2.0000      -6.420907      -174.7218
  24   2.0000      -6.420145      -174.7010
  25   2.0000      -5.717361      -155.5773
  26   2.0000      -5.714120      -155.4891
  27   2.0000      -5.711881      -155.4282
  28   2.0000      -5.708292      -155.3305
  29   2.0000      -5.706570      -155.2837
  30   2.0000      -5.700618      -155.1217
  31   2.0000      -5.657108      -153.9377
  32   2.0000      -5.649076      -153.7192
  33   2.0000      -5.648982      -153.7166
  34   2.0000      -5.648374      -153.7001
  35   2.0000      -5.640632      -153.4894
  36   2.0000      -5.639925      -153.4702
  37   2.0000      -4.643564      -126.3578
  38   2.0000      -4.643376      -126.3527
  39   2.0000      -4.642789      -126.3367
  40   2.0000      -4.641550      -126.3030
  41   2.0000      -4.641431      -126.2998
  42   2.0000      -4.640197      -126.2662
  43   2.0000      -0.984437       -26.7879
  44   2.0000      -0.980465       -26.6798
  45   2.0000      -0.943627       -25.6774
  46   2.0000      -0.937905       -25.5217
  47   2.0000      -0.764290       -20.7974
  48   2.0000      -0.720882       -19.6162
  49   2.0000      -0.707552       -19.2535
  50   2.0000      -0.695758       -18.9325
  51   2.0000      -0.682688       -18.5769
  52   2.0000      -0.670303       -18.2399
  53   2.0000      -0.648111       -17.6360
  54   2.0000      -0.636445       -17.3186
  55   2.0000      -0.595295       -16.1988
  56   2.0000      -0.590645       -16.0723
  57   2.0000      -0.579124       -15.7588
  58   2.0000      -0.570673       -15.5288
  59   2.0000      -0.560036       -15.2394
  60   2.0000      -0.502305       -13.6684
  61   2.0000      -0.490148       -13.3376
  62   2.0000      -0.475668       -12.9436
  63   2.0000      -0.464486       -12.6393
  64   2.0000      -0.460282       -12.5249
  65   2.0000      -0.446162       -12.1407
  66   2.0000      -0.438122       -11.9219
  67   2.0000      -0.432603       -11.7717
  68   2.0000      -0.425437       -11.5767
  69   2.0000      -0.416946       -11.3457
  70   2.0000      -0.411630       -11.2010
  71   2.0000      -0.396810       -10.7978
  72   2.0000      -0.389452       -10.5975
  73   2.0000      -0.382256       -10.4017
  74   2.0000      -0.381135       -10.3712
  75   2.0000      -0.376941       -10.2571
  76   2.0000      -0.370289       -10.0761
  77   2.0000      -0.361927        -9.8485
  78   2.0000      -0.353188        -9.6107
  79   2.0000      -0.346261        -9.4223
  80   2.0000      -0.345697        -9.4069
  81   2.0000      -0.343777        -9.3547
  82   2.0000      -0.339097        -9.2273
  83   2.0000      -0.337458        -9.1827
  84   2.0000      -0.334596        -9.1048
  85   2.0000      -0.318415        -8.6645
  86   2.0000      -0.308533        -8.3956
  87   2.0000      -0.301950        -8.2165
  88   2.0000      -0.294578        -8.0159
  89   2.0000      -0.289181        -7.8690
  90   2.0000      -0.279271        -7.5993
  91   2.0000      -0.271066        -7.3761
  92   2.0000      -0.265339        -7.2203
  93   2.0000      -0.262447        -7.1415
  94   2.0000      -0.257580        -7.0091
  95   2.0000      -0.233650        -6.3579
  96   2.0000      -0.217043        -5.9060
  97   2.0000      -0.205296        -5.5864
  98   2.0000      -0.197799        -5.3824
  99   2.0000      -0.191652        -5.2151
 100   2.0000      -0.183904        -5.0043
 101   0.0000      -0.047992        -1.3059
 102   0.0000      -0.022157        -0.6029
 103   0.0000      -0.009411        -0.2561
 104   0.0000      -0.001582        -0.0430
 105   0.0000       0.017762         0.4833

MULLIKEN ATOMIC CHARGES
-----------------------
   0 C :   -0.309921
   1 C :   -0.010476
   2 O :   -0.370507
   3 P :    0.632522
   4 S :   -0.339883
   5 O :   -0.341191
   6 C :   -0.001697
   7 C :   -0.304182
   8 S :   -0.108966
   9 C :   -0.360046
  10 S :   -0.085371
  11 P :    0.618746
  12 S :   -0.291318
  13 O :   -0.399162
  14 C :   -0.007601
  15 C :   -0.315556
  16 O :   -0.370651
  17 C :    0.005128
  18 C :   -0.321564
  19 H :    0.122027
  20 H :    0.127394
  21 H :    0.110502
  22 H :    0.110766
  23 H :    0.113102
  24 H :    0.108688
  25 H :    0.106445
  26 H :    0.107625
  27 H :    0.116313
  28 H :    0.118208
  29 H :    0.183087
  30 H :    0.193446
  31 H :    0.117213
  32 H :    0.101218
  33 H :    0.133764
  34 H :    0.116018
  35 H :    0.117344
  36 H :    0.102255
  37 H :    0.111161
  38 H :    0.127603
  39 H :    0.125635
  40 H :    0.111881
Sum of atomic charges:    0.0000000

LOEWDIN ATOMIC CHARGES
----------------------
   0 C :   -0.370441
   1 C :   -0.113147
   2 O :   -0.241952
   3 P :    0.576550
   4 S :   -0.323975
   5 O :   -0.225743
   6 C :   -0.119902
   7 C :   -0.363610
   8 S :    0.088256
   9 C :   -0.478098
  10 S :    0.094098
  11 P :    0.562374
  12 S :   -0.297998
  13 O :   -0.258785
  14 C :   -0.119505
  15 C :   -0.361803
  16 O :   -0.248071
  17 C :   -0.107946
  18 C :   -0.372897
  19 H :    0.119233
  20 H :    0.130053
  21 H :    0.129502
  22 H :    0.122392
  23 H :    0.109613
  24 H :    0.106358
  25 H :    0.119217
  26 H :    0.128089
  27 H :    0.126091
  28 H :    0.120617
  29 H :    0.129121
  30 H :    0.131999
  31 H :    0.109893
  32 H :    0.115361
  33 H :    0.115386
  34 H :    0.134356
  35 H :    0.124188
  36 H :    0.112176
  37 H :    0.122699
  38 H :    0.126062
  39 H :    0.119856
  40 H :    0.130332

  Mayer bond orders larger than 0.100000
B(  0-C ,  1-C ) :   1.1632 B(  0-C , 19-H ) :   0.9329 B(  0-C , 20-H ) :   0.9421
B(  0-C , 21-H ) :   0.9347 B(  1-C ,  2-O ) :   0.9155 B(  1-C , 22-H ) :   0.9343
B(  1-C , 23-H ) :   0.9286 B(  2-O ,  3-P ) :   1.1144 B(  3-P ,  4-S ) :   1.5886
B(  3-P ,  5-O ) :   1.1468 B(  3-P ,  8-S ) :   0.9400 B(  4-S ,  8-S ) :   0.1055
B(  5-O ,  6-C ) :   0.9060 B(  6-C ,  7-C ) :   1.1628 B(  6-C , 24-H ) :   0.9133
B(  6-C , 25-H ) :   0.9296 B(  7-C , 26-H ) :   0.9408 B(  7-C , 27-H ) :   0.9467
B(  7-C , 28-H ) :   0.9376 B(  8-S ,  9-C ) :   1.0108 B(  9-C , 10-S ) :   1.0027
B(  9-C , 29-H ) :   0.8992 B(  9-C , 30-H ) :   0.8814 B( 10-S , 11-P ) :   0.9535
B( 10-S , 12-S ) :   0.1059 B( 11-P , 12-S ) :   1.6890 B( 11-P , 13-O ) :   1.0440
B( 11-P , 16-O ) :   1.1220 B( 13-O , 14-C ) :   0.9064 B( 14-C , 15-C ) :   1.1679
B( 14-C , 31-H ) :   0.8948 B( 14-C , 32-H ) :   0.9331 B( 15-C , 33-H ) :   0.9295
B( 15-C , 34-H ) :   0.9367 B( 15-C , 35-H ) :   0.9431 B( 16-O , 17-C ) :   0.9032
B( 17-C , 18-C ) :   1.1700 B( 17-C , 36-H ) :   0.9308 B( 17-C , 37-H ) :   0.9358
B( 18-C , 38-H ) :   0.9405 B( 18-C , 39-H ) :   0.9387 B( 18-C , 40-H ) :   0.9338

Dispersion correction           -0.067184555
FINAL SINGLE POINT ENERGY     -2929.512366659855

DIPOLE MOMENT
-------------

Method             : SCF
Type of density    : Electron Density
Multiplicity       :   1
Irrep              :   0
Energy             : -2929.6298850938101168 Eh
Relativity type    :
Basis              : AO
                                X                 Y                 Z
Electronic contribution:      0.274980355      -6.647360265      -1.214784859
Nuclear contribution   :     -1.078630770       7.815696269       1.194656110
                        -----------------------------------------
Total Dipole Moment    :     -0.803650416       1.168336004      -0.020128749
                        -----------------------------------------
Magnitude (a.u.)       :      1.418191868
Magnitude (Debye)      :      3.604757255

Rotational constants in cm-1:             0.012369             0.005298             0.004805
Rotational constants in MHz :           370.821985           158.831607           144.039798

                             ****ORCA TERMINATED NORMALLY****
TOTAL RUN TIME: 0 days 0 hours 0 minutes 21 seconds 243 msec
