                         Program Version 6.0.0  -   RELEASE  -
|  1> ! r2scan-3c def2/J RI DEFGRID2 scfconv6 printgap
|  2> %output
|  3>     printlevel normal
|  4> end
|  5> * xyz 0 1
|  6> C 1.4702939145 2.8884809175 1.5044908512
|  7> C 2.2291516429 1.5811529532 1.5973714044
|  8> O 1.4915682405 0.6012528642 0.8346791664
|  9> P 1.8894351103 -0.9286261524 0.8402767534
| 10> S 2.1827152453 -1.7447081306 2.5967316289
| 11> O 3.1794537241 -0.9188956031 -0.1052943561
| 12> C 4.1169809179 -2.0074872627 -0.1128862544
| 13> C 3.5356067902 -3.247768389 -0.7613644705
| 14> S 0.3014219304 -1.69246412 -0.3169261688
| 15> C 0.5033669227 -0.7114039837 -1.8310704981
| 16> S -0.0020050406 1.0312891109 -1.6858290232
| 17> P -1.8727749359 0.7236128299 -0.7919943825
| 18> S -2.9457341191 -0.7959711425 -1.4282932649
| 19> O -2.590571313 2.1341456079 -0.9498556314
| 20> C -3.2455398126 2.5268966198 -2.1737914139
| 21> C -4.2614696211 3.6001557221 -1.8383014048
| 22> O -1.5108684328 0.7468755355 0.7491997187
| 23> C -2.3944304496 0.2158064004 1.7603195688
| 24> C -1.5624921474 -0.1719041047 2.9651115927
| 25> H 0.4570922417 2.7563984711 1.8748925759
| 26> H 1.97778712 3.641849163 2.0979660309
| 27> H 1.4188689325 3.2137064051 0.4688981093
| 28> H 2.3077657301 1.2252173358 2.630067925
| 29> H 3.2314979306 1.6675186085 1.1705885996
| 30> H 4.9708221934 -1.6197990828 -0.6701118125
| 31> H 4.4092734856 -2.218343598 0.9206726257
| 32> H 4.2912171135 -4.0262651289 -0.7884936995
| 33> H 2.6844636013 -3.6035495841 -0.1807482264
| 34> H 3.205075053 -3.0341693782 -1.7745650891
| 35> H -0.1235653069 -1.2050265917 -2.5719880773
| 36> H 1.5476258502 -0.7012555567 -2.1335706492
| 37> H -2.4816246858 2.9002920224 -2.8603601901
| 38> H -3.7236923837 1.6440421858 -2.6113712364
| 39> H -3.7671459067 4.4418169121 -1.361899935
| 40> H -4.7409957908 3.9338454777 -2.7526049981
| 41> H -5.0148532373 3.2050967939 -1.1625351802
| 42> H -3.1200657886 0.9930835076 2.0115854522
| 43> H -2.9223855367 -0.6496167546 1.3443163015
| 44> H -2.2141650282 -0.5678222706 3.737090945
| 45> H -0.832793272 -0.9335964634 2.6960807652
| 46> H -1.0322198082 0.6940987119 3.3515542271
| 47> *
| 48>
| 49>                          ****END OF INPUT****

CARTESIAN COORDINATES (ANGSTROEM)
---------------------------------
  C      1.470294    2.888481    1.504491
  C      2.229152    1.581153    1.597371
  O      1.491568    0.601253    0.834679
  P      1.889435   -0.928626    0.840277
  S      2.182715   -1.744708    2.596732
  O      3.179454   -0.918896   -0.105294
  C      4.116981   -2.007487   -0.112886
  C      3.535607   -3.247768   -0.761364
  S      0.301422   -1.692464   -0.316926
  C      0.503367   -0.711404   -1.831070
  S     -0.002005    1.031289   -1.685829
  P     -1.872775    0.723613   -0.791994
  S     -2.945734   -0.795971   -1.428293
  O     -2.590571    2.134146   -0.949856
  C     -3.245540    2.526897   -2.173791
  C     -4.261470    3.600156   -1.838301
  O     -1.510868    0.746876    0.749200
  C     -2.394430    0.215806    1.760320
  C     -1.562492   -0.171904    2.965112
  H      0.457092    2.756398    1.874893
  H      1.977787    3.641849    2.097966
  H      1.418869    3.213706    0.468898
  H      2.307766    1.225217    2.630068
  H      3.231498    1.667519    1.170589
  H      4.970822   -1.619799   -0.670112
  H      4.409273   -2.218344    0.920673
  H      4.291217   -4.026265   -0.788494
  H      2.684464   -3.603550   -0.180748
  H      3.205075   -3.034169   -1.774565
  H     -0.123565   -1.205027   -2.571988
  H      1.547626   -0.701256   -2.133571
  H     -2.481625    2.900292   -2.860360
  H     -3.723692    1.644042   -2.611371
  H     -3.767146    4.441817   -1.361900
  H     -4.740996    3.933845   -2.752605
  H     -5.014853    3.205097   -1.162535
  H     -3.120066    0.993084    2.011585
  H     -2.922386   -0.649617    1.344316
  H     -2.214165   -0.567822    3.737091
  H     -0.832793   -0.933596    2.696081
  H     -1.032220    0.694099    3.351554

 Total Charge           Charge          ....    0
 Multiplicity           Mult            ....    1
 Number of Electrons    NEL             ....  202
 Basis Dimension        Dim             ....  539

ORBITAL ENERGIES
----------------

  NO   OCC          E(Eh)            E(eV)
   0   2.0000     -88.577776     -2410.3238
   1   2.0000     -88.575509     -2410.2621
   2   2.0000     -88.521581     -2408.7947
   3   2.0000     -88.517737     -2408.6901
   4   2.0000     -76.912813     -2092.9040
   5   2.0000     -76.912281     -2092.8896
   6   2.0000     -18.992846      -516.8216
   7   2.0000     -18.990543      -516.7589
   8   2.0000     -18.985571      -516.6236
   9   2.0000     -18.984679      -516.5994
  10   2.0000     -10.113270      -275.1961
  11   2.0000     -10.098982      -274.8073
  12   2.0000     -10.097203      -274.7589
  13   2.0000     -10.096762      -274.7469
  14   2.0000     -10.090623      -274.5798
  15   2.0000     -10.032669      -273.0028
  16   2.0000     -10.030821      -272.9525
  17   2.0000     -10.028595      -272.8920
  18   2.0000     -10.020178      -272.6629
  19   2.0000      -7.871848      -214.2039
  20   2.0000      -7.870243      -214.1602
  21   2.0000      -7.816183      -212.6891
  22   2.0000      -7.812461      -212.5879
  23   2.0000      -6.591351      -179.3598
  24   2.0000      -6.590702      -179.3421
  25   2.0000      -5.819251      -158.3499
  26   2.0000      -5.817266      -158.2959
  27   2.0000      -5.815346      -158.2436
  28   2.0000      -5.814063      -158.2087
  29   2.0000      -5.808803      -158.0656
  30   2.0000      -5.807158      -158.0208
  31   2.0000      -5.763783      -156.8405
  32   2.0000      -5.760060      -156.7392
  33   2.0000      -5.756570      -156.6442
  34   2.0000      -5.756158      -156.6330
  35   2.0000      -5.752787      -156.5413
  36   2.0000      -5.752474      -156.5328
  37   2.0000      -4.736794      -128.8947
  38   2.0000      -4.736385      -128.8836
  39   2.0000      -4.736109      -128.8761
  40   2.0000      -4.735669      -128.8641
  41   2.0000      -4.735046      -128.8472
  42   2.0000      -4.734494      -128.8321
  43   2.0000      -1.049241       -28.5513
  44   2.0000      -1.045970       -28.4623
  45   2.0000      -1.009462       -27.4688
  46   2.0000      -1.006104       -27.3775
  47   2.0000      -0.803970       -21.8771
  48   2.0000      -0.760106       -20.6835
  49   2.0000      -0.749327       -20.3902
  50   2.0000      -0.731845       -19.9145
  51   2.0000      -0.728457       -19.8223
  52   2.0000      -0.709713       -19.3123
  53   2.0000      -0.685401       -18.6507
  54   2.0000      -0.668074       -18.1792
  55   2.0000      -0.628189       -17.0939
  56   2.0000      -0.619513       -16.8578
  57   2.0000      -0.607178       -16.5221
  58   2.0000      -0.598215       -16.2783
  59   2.0000      -0.587665       -15.9912
  60   2.0000      -0.531767       -14.4701
  61   2.0000      -0.528694       -14.3865
  62   2.0000      -0.496787       -13.5183
  63   2.0000      -0.494081       -13.4446
  64   2.0000      -0.475730       -12.9453
  65   2.0000      -0.463592       -12.6150
  66   2.0000      -0.457220       -12.4416
  67   2.0000      -0.447615       -12.1802
  68   2.0000      -0.446018       -12.1368
  69   2.0000      -0.433355       -11.7922
  70   2.0000      -0.424914       -11.5625
  71   2.0000      -0.413949       -11.2641
  72   2.0000      -0.408979       -11.1289
  73   2.0000      -0.406690       -11.0666
  74   2.0000      -0.392159       -10.6712
  75   2.0000      -0.390815       -10.6346
  76   2.0000      -0.378540       -10.3006
  77   2.0000      -0.371582       -10.1113
  78   2.0000      -0.369990       -10.0680
  79   2.0000      -0.366335        -9.9685
  80   2.0000      -0.359895        -9.7932
  81   2.0000      -0.357917        -9.7394
  82   2.0000      -0.350939        -9.5495
  83   2.0000      -0.347443        -9.4544
  84   2.0000      -0.343241        -9.3401
  85   2.0000      -0.336453        -9.1554
  86   2.0000      -0.325586        -8.8596
  87   2.0000      -0.315779        -8.5928
  88   2.0000      -0.313201        -8.5226
  89   2.0000      -0.307647        -8.3715
  90   2.0000      -0.298847        -8.1320
  91   2.0000      -0.286130        -7.7860
  92   2.0000      -0.280620        -7.6361
  93   2.0000      -0.279246        -7.5987
  94   2.0000      -0.275864        -7.5067
  95   2.0000      -0.243686        -6.6310
  96   2.0000      -0.231679        -6.3043
  97   2.0000      -0.223278        -6.0757
  98   2.0000      -0.219459        -5.9718
  99   2.0000      -0.212671        -5.7871
 100   2.0000      -0.211251        -5.7484
 101   0.0000      -0.047562        -1.2942
 102   0.0000      -0.022153        -0.6028
 103   0.0000      -0.009378        -0.2552
 104   0.0000       0.002128         0.0579
 105   0.0000       0.006598         0.1795

MULLIKEN ATOMIC CHARGES
-----------------------
   0 C :   -0.448239
   1 C :   -0.153149
   2 O :   -0.213834
   3 P :    0.682018
   4 S :   -0.474412
   5 O :   -0.316906
   6 C :   -0.160359
   7 C :   -0.434346
   8 S :   -0.114612
   9 C :   -0.254778
  10 S :   -0.127663
  11 P :    0.714502
  12 S :   -0.489452
  13 O :   -0.298792
  14 C :   -0.146995
  15 C :   -0.443706
  16 O :   -0.253309
  17 C :   -0.142580
  18 C :   -0.450323
  19 H :    0.163198
  20 H :    0.143310
  21 H :    0.155888
  22 H :    0.167277
  23 H :    0.149230
  24 H :    0.147032
  25 H :    0.172569
  26 H :    0.148716
  27 H :    0.175827
  28 H :    0.145777
  29 H :    0.208739
  30 H :    0.188944
  31 H :    0.148312
  32 H :    0.171161
  33 H :    0.152863
  34 H :    0.146545
  35 H :    0.157197
  36 H :    0.144979
  37 H :    0.170449
  38 H :    0.144616
  39 H :    0.178040
  40 H :    0.146264
Sum of atomic charges:   -0.0000000

LOEWDIN ATOMIC CHARGES
----------------------
   0 C :   -0.387526
   1 C :    0.026200
   2 O :   -0.690649
   3 P :    0.367440
   4 S :   -0.116528
   5 O :   -0.680185
   6 C :    0.016222
   7 C :   -0.402725
   8 S :    0.195234
   9 C :   -0.407779
  10 S :    0.189833
  11 P :    0.365482
  12 S :   -0.134013
  13 O :   -0.663804
  14 C :    0.018864
  15 C :   -0.386625
  16 O :   -0.666673
  17 C :    0.022107
  18 C :   -0.390393
  19 H :    0.165267
  20 H :    0.157407
  21 H :    0.161590
  22 H :    0.179329
  23 H :    0.171353
  24 H :    0.178088
  25 H :    0.181017
  26 H :    0.160042
  27 H :    0.167384
  28 H :    0.155603
  29 H :    0.190700
  30 H :    0.187111
  31 H :    0.170466
  32 H :    0.181240
  33 H :    0.159373
  34 H :    0.159736
  35 H :    0.160771
  36 H :    0.170216
  37 H :    0.182821
  38 H :    0.158955
  39 H :    0.169727
  40 H :    0.157323

  Mayer bond orders larger than 0.100000
B(  0-C ,  1-C ) :   0.9568 B(  0-C , 19-H ) :   0.9702 B(  0-C , 20-H ) :   0.9638
B(  0-C , 21-H ) :   0.9678 B(  1-C ,  2-O ) :   0.7799 B(  1-C , 22-H ) :   0.9523
B(  1-C , 23-H ) :   0.9448 B(  2-O ,  3-P ) :   1.1407 B(  3-P ,  4-S ) :   1.7870
B(  3-P ,  5-O ) :   1.0208 B(  3-P ,  8-S ) :   1.0754 B(  5-O ,  6-C ) :   0.8162
B(  6-C ,  7-C ) :   0.9311 B(  6-C , 24-H ) :   0.9593 B(  6-C , 25-H ) :   0.9613
B(  7-C , 26-H ) :   0.9608 B(  7-C , 27-H ) :   0.9598 B(  7-C , 28-H ) :   0.9705
B(  8-S ,  9-C ) :   0.9129 B(  9-C , 10-S ) :   0.9150 B(  9-C , 29-H ) :   0.9154
B(  9-C , 30-H ) :   0.9185 B( 10-S , 11-P ) :   1.0855 B( 11-P , 12-S ) :   1.7289
B( 11-P , 13-O ) :   1.0848 B( 11-P , 16-O ) :   1.1815 B( 13-O , 14-C ) :   0.7760
B( 14-C , 15-C ) :   0.9577 B( 14-C , 31-H ) :   0.9458 B( 14-C , 32-H ) :   0.9512
B( 15-C , 33-H ) :   0.9718 B( 15-C , 34-H ) :   0.9648 B( 15-C , 35-H ) :   0.9719
B( 16-O , 17-C ) :   0.7705 B( 17-C , 18-C ) :   0.9555 B( 17-C , 36-H ) :   0.9427
B( 17-C , 37-H ) :   0.9564 B( 18-C , 38-H ) :   0.9635 B( 18-C , 39-H ) :   0.9615
B( 18-C , 40-H ) :   0.9698

Dispersion correction           -0.021844528
FINAL SINGLE POINT ENERGY     -2932.461551109867

DIPOLE MOMENT
-------------

Method             : SCF
Type of density    : Electron Density
Multiplicity       :   1
Irrep              :   0
Energy             : -2932.4860754210694722 Eh
Relativity type    :
Basis              : AO
                                X                 Y                 Z
Electronic contribution:      0.143360251     -10.151594780      -3.826760161
Nuclear contribution   :      0.502307992      11.344404179       3.211897102
                        -----------------------------------------
Total Dipole Moment    :      0.645668243       1.192809399      -0.614863059
                        -----------------------------------------
Magnitude (a.u.)       :      1.489207280
Magnitude (Debye)      :      3.785264087

Rotational constants in cm-1:             0.012835             0.005081             0.004821
Rotational constants in MHz :           384.768900           152.326622           144.527255

                             ****ORCA TERMINATED NORMALLY****
TOTAL RUN TIME: 0 days 0 hours 1 minutes 21 seconds 948 msec
