                         Program Version 6.0.0  -   RELEASE  -
|  1> ! r2scan-3c def2/J RI DEFGRID2 scfconv6 printgap
|  2> %output
|  3>     printlevel normal
|  4> end
|  5> %cpcm
|  6>     smd true
|  7>     smdsolvent "water"
|  8> end
|  9> * xyz 0 1
| 10> C 1.4702939145 2.8884809175 1.5044908512
| 11> C 2.2291516429 1.5811529532 1.5973714044
| 12> O 1.4915682405 0.6012528642 0.8346791664
| 13> P 1.8894351103 -0.9286261524 0.8402767534
| 14> S 2.1827152453 -1.7447081306 2.5967316289
| 15> O 3.1794537241 -0.9188956031 -0.1052943561
| 16> C 4.1169809179 -2.0074872627 -0.1128862544
| 17> C 3.5356067902 -3.247768389 -0.7613644705
| 18> S 0.3014219304 -1.69246412 -0.3169261688
| 19> C 0.5033669227 -0.7114039837 -1.8310704981
| 20> S -0.0020050406 1.0312891109 -1.6858290232
| 21> P -1.8727749359 0.7236128299 -0.7919943825
| 22> S -2.9457341191 -0.7959711425 -1.4282932649
| 23> O -2.590571313 2.1341456079 -0.9498556314
| 24> C -3.2455398126 2.5268966198 -2.1737914139
| 25> C -4.2614696211 3.6001557221 -1.8383014048
| 26> O -1.5108684328 0.7468755355 0.7491997187
| 27> C -2.3944304496 0.2158064004 1.7603195688
| 28> C -1.5624921474 -0.1719041047 2.9651115927
| 29> H 0.4570922417 2.7563984711 1.8748925759
| 30> H 1.97778712 3.641849163 2.0979660309
| 31> H 1.4188689325 3.2137064051 0.4688981093
| 32> H 2.3077657301 1.2252173358 2.630067925
| 33> H 3.2314979306 1.6675186085 1.1705885996
| 34> H 4.9708221934 -1.6197990828 -0.6701118125
| 35> H 4.4092734856 -2.218343598 0.9206726257
| 36> H 4.2912171135 -4.0262651289 -0.7884936995
| 37> H 2.6844636013 -3.6035495841 -0.1807482264
| 38> H 3.205075053 -3.0341693782 -1.7745650891
| 39> H -0.1235653069 -1.2050265917 -2.5719880773
| 40> H 1.5476258502 -0.7012555567 -2.1335706492
| 41> H -2.4816246858 2.9002920224 -2.8603601901
| 42> H -3.7236923837 1.6440421858 -2.6113712364
| 43> H -3.7671459067 4.4418169121 -1.361899935
| 44> H -4.7409957908 3.9338454777 -2.7526049981
| 45> H -5.0148532373 3.2050967939 -1.1625351802
| 46> H -3.1200657886 0.9930835076 2.0115854522
| 47> H -2.9223855367 -0.6496167546 1.3443163015
| 48> H -2.2141650282 -0.5678222706 3.737090945
| 49> H -0.832793272 -0.9335964634 2.6960807652
| 50> H -1.0322198082 0.6940987119 3.3515542271
| 51> *
| 52>
| 53>                          ****END OF INPUT****

CARTESIAN COORDINATES (ANGSTROEM)
---------------------------------
  C      1.470294    2.888481    1.504491
  C      2.229152    1.581153    1.597371
  O      1.491568    0.601253    0.834679
  P      1.889435   -0.928626    0.840277
  S      2.182715   -1.744708    2.596732
  O      3.179454   -0.918896   -0.105294
  C      4.116981   -2.007487   -0.112886
  C      3.535607   -3.247768   -0.761364
  S      0.301422   -1.692464   -0.316926
  C      0.503367   -0.711404   -1.831070
  S     -0.002005    1.031289   -1.685829
  P     -1.872775    0.723613   -0.791994
  S     -2.945734   -0.795971   -1.428293
  O     -2.590571    2.134146   -0.949856
  C     -3.245540    2.526897   -2.173791
  C     -4.261470    3.600156   -1.838301
  O     -1.510868    0.746876    0.749200
  C     -2.394430    0.215806    1.760320
  C     -1.562492   -0.171904    2.965112
  H      0.457092    2.756398    1.874893
  H      1.977787    3.641849    2.097966
  H      1.418869    3.213706    0.468898
  H      2.307766    1.225217    2.630068
  H      3.231498    1.667519    1.170589
  H      4.970822   -1.619799   -0.670112
  H      4.409273   -2.218344    0.920673
  H      4.291217   -4.026265   -0.788494
  H      2.684464   -3.603550   -0.180748
  H      3.205075   -3.034169   -1.774565
  H     -0.123565   -1.205027   -2.571988
  H      1.547626   -0.701256   -2.133571
  H     -2.481625    2.900292   -2.860360
  H     -3.723692    1.644042   -2.611371
  H     -3.767146    4.441817   -1.361900
  H     -4.740996    3.933845   -2.752605
  H     -5.014853    3.205097   -1.162535
  H     -3.120066    0.993084    2.011585
  H     -2.922386   -0.649617    1.344316
  H     -2.214165   -0.567822    3.737091
  H     -0.832793   -0.933596    2.696081
  H     -1.032220    0.694099    3.351554

 Total Charge           Charge          ....    0
 Multiplicity           Mult            ....    1
 Number of Electrons    NEL             ....  202
 Basis Dimension        Dim             ....  539

ORBITAL ENERGIES
----------------

  NO   OCC          E(Eh)            E(eV)
   0   2.0000     -88.580460     -2410.3969
   1   2.0000     -88.578170     -2410.3345
   2   2.0000     -88.529215     -2409.0024
   3   2.0000     -88.526195     -2408.9202
   4   2.0000     -76.918372     -2093.0553
   5   2.0000     -76.917355     -2093.0276
   6   2.0000     -18.993899      -516.8503
   7   2.0000     -18.992279      -516.8062
   8   2.0000     -18.990980      -516.7708
   9   2.0000     -18.988305      -516.6981
  10   2.0000     -10.108625      -275.0697
  11   2.0000     -10.088905      -274.5331
  12   2.0000     -10.088882      -274.5324
  13   2.0000     -10.088182      -274.5134
  14   2.0000     -10.087764      -274.5020
  15   2.0000     -10.019273      -272.6383
  16   2.0000     -10.018499      -272.6172
  17   2.0000     -10.018134      -272.6073
  18   2.0000     -10.017494      -272.5899
  19   2.0000      -7.874654      -214.2802
  20   2.0000      -7.872807      -214.2300
  21   2.0000      -7.824184      -212.9069
  22   2.0000      -7.821235      -212.8266
  23   2.0000      -6.596856      -179.5096
  24   2.0000      -6.595919      -179.4841
  25   2.0000      -5.822015      -158.4251
  26   2.0000      -5.819815      -158.3652
  27   2.0000      -5.818125      -158.3192
  28   2.0000      -5.816613      -158.2781
  29   2.0000      -5.811674      -158.1437
  30   2.0000      -5.809776      -158.0920
  31   2.0000      -5.771686      -157.0556
  32   2.0000      -5.768758      -156.9759
  33   2.0000      -5.764597      -156.8626
  34   2.0000      -5.764164      -156.8509
  35   2.0000      -5.761550      -156.7798
  36   2.0000      -5.761275      -156.7723
  37   2.0000      -4.742243      -129.0430
  38   2.0000      -4.741828      -129.0317
  39   2.0000      -4.741274      -129.0166
  40   2.0000      -4.740960      -129.0081
  41   2.0000      -4.740689      -129.0007
  42   2.0000      -4.739729      -128.9746
  43   2.0000      -1.050956       -28.5980
  44   2.0000      -1.049478       -28.5577
  45   2.0000      -1.010664       -27.5016
  46   2.0000      -1.009184       -27.4613
  47   2.0000      -0.803780       -21.8720
  48   2.0000      -0.758083       -20.6285
  49   2.0000      -0.744210       -20.2510
  50   2.0000      -0.723020       -19.6744
  51   2.0000      -0.722104       -19.6494
  52   2.0000      -0.709028       -19.2936
  53   2.0000      -0.689676       -18.7670
  54   2.0000      -0.674486       -18.3537
  55   2.0000      -0.626661       -17.0523
  56   2.0000      -0.615503       -16.7487
  57   2.0000      -0.600617       -16.3436
  58   2.0000      -0.592903       -16.1337
  59   2.0000      -0.585276       -15.9262
  60   2.0000      -0.529970       -14.4212
  61   2.0000      -0.524961       -14.2849
  62   2.0000      -0.497361       -13.5339
  63   2.0000      -0.489312       -13.3149
  64   2.0000      -0.474550       -12.9132
  65   2.0000      -0.459149       -12.4941
  66   2.0000      -0.453353       -12.3363
  67   2.0000      -0.445979       -12.1357
  68   2.0000      -0.438115       -11.9217
  69   2.0000      -0.431219       -11.7341
  70   2.0000      -0.422669       -11.5014
  71   2.0000      -0.411375       -11.1941
  72   2.0000      -0.410104       -11.1595
  73   2.0000      -0.402441       -10.9510
  74   2.0000      -0.390580       -10.6282
  75   2.0000      -0.387069       -10.5327
  76   2.0000      -0.375478       -10.2173
  77   2.0000      -0.362949        -9.8763
  78   2.0000      -0.361224        -9.8294
  79   2.0000      -0.356610        -9.7039
  80   2.0000      -0.355868        -9.6837
  81   2.0000      -0.352719        -9.5980
  82   2.0000      -0.344781        -9.3820
  83   2.0000      -0.343627        -9.3506
  84   2.0000      -0.339929        -9.2499
  85   2.0000      -0.333479        -9.0744
  86   2.0000      -0.323202        -8.7948
  87   2.0000      -0.314741        -8.5645
  88   2.0000      -0.312150        -8.4940
  89   2.0000      -0.302903        -8.2424
  90   2.0000      -0.300864        -8.1869
  91   2.0000      -0.284885        -7.7521
  92   2.0000      -0.281081        -7.6486
  93   2.0000      -0.278309        -7.5732
  94   2.0000      -0.276406        -7.5214
  95   2.0000      -0.247699        -6.7402
  96   2.0000      -0.237024        -6.4498
  97   2.0000      -0.232109        -6.3160
  98   2.0000      -0.228212        -6.2100
  99   2.0000      -0.219971        -5.9857
 100   2.0000      -0.218584        -5.9480
 101   0.0000      -0.050464        -1.3732
 102   0.0000      -0.027440        -0.7467
 103   0.0000      -0.012982        -0.3533
 104   0.0000      -0.000821        -0.0223
 105   0.0000       0.003819         0.1039

MULLIKEN ATOMIC CHARGES
-----------------------
   0 C :   -0.496340
   1 C :   -0.140736
   2 O :   -0.244823
   3 P :    0.719919
   4 S :   -0.533308
   5 O :   -0.331667
   6 C :   -0.154544
   7 C :   -0.473235
   8 S :   -0.144726
   9 C :   -0.261081
  10 S :   -0.127654
  11 P :    0.735870
  12 S :   -0.540406
  13 O :   -0.325978
  14 C :   -0.140789
  15 C :   -0.484420
  16 O :   -0.279523
  17 C :   -0.133366
  18 C :   -0.503300
  19 H :    0.167914
  20 H :    0.168284
  21 H :    0.168061
  22 H :    0.171712
  23 H :    0.172286
  24 H :    0.173802
  25 H :    0.173679
  26 H :    0.171175
  27 H :    0.166121
  28 H :    0.169230
  29 H :    0.234296
  30 H :    0.228820
  31 H :    0.170732
  32 H :    0.171204
  33 H :    0.165471
  34 H :    0.169364
  35 H :    0.166239
  36 H :    0.171421
  37 H :    0.171425
  38 H :    0.169788
  39 H :    0.168649
  40 H :    0.170437
Sum of atomic charges:   -0.0000000

LOEWDIN ATOMIC CHARGES
----------------------
   0 C :   -0.391236
   1 C :    0.030834
   2 O :   -0.703827
   3 P :    0.373410
   4 S :   -0.156585
   5 O :   -0.682075
   6 C :    0.022509
   7 C :   -0.406498
   8 S :    0.180164
   9 C :   -0.395512
  10 S :    0.192946
  11 P :    0.368309
  12 S :   -0.168158
  13 O :   -0.677742
  14 C :    0.023383
  15 C :   -0.390360
  16 O :   -0.683430
  17 C :    0.026527
  18 C :   -0.397708
  19 H :    0.163963
  20 H :    0.167445
  21 H :    0.163302
  22 H :    0.181294
  23 H :    0.180489
  24 H :    0.189823
  25 H :    0.180851
  26 H :    0.167822
  27 H :    0.161440
  28 H :    0.162873
  29 H :    0.199732
  30 H :    0.202369
  31 H :    0.179489
  32 H :    0.181500
  33 H :    0.163007
  34 H :    0.168724
  35 H :    0.162408
  36 H :    0.181088
  37 H :    0.183078
  38 H :    0.168257
  39 H :    0.163092
  40 H :    0.163002

  Mayer bond orders larger than 0.100000
B(  0-C ,  1-C ) :   0.9443 B(  0-C , 19-H ) :   0.9700 B(  0-C , 20-H ) :   0.9575
B(  0-C , 21-H ) :   0.9669 B(  1-C ,  2-O ) :   0.7735 B(  1-C , 22-H ) :   0.9477
B(  1-C , 23-H ) :   0.9357 B(  2-O ,  3-P ) :   1.1483 B(  3-P ,  4-S ) :   1.7387
B(  3-P ,  5-O ) :   1.0383 B(  3-P ,  8-S ) :   1.0828 B(  5-O ,  6-C ) :   0.8029
B(  6-C ,  7-C ) :   0.9208 B(  6-C , 24-H ) :   0.9493 B(  6-C , 25-H ) :   0.9604
B(  7-C , 26-H ) :   0.9562 B(  7-C , 27-H ) :   0.9621 B(  7-C , 28-H ) :   0.9665
B(  8-S ,  9-C ) :   0.9073 B(  9-C , 10-S ) :   0.9065 B(  9-C , 29-H ) :   0.9059
B(  9-C , 30-H ) :   0.9059 B( 10-S , 11-P ) :   1.1119 B( 11-P , 12-S ) :   1.6880
B( 11-P , 13-O ) :   1.0896 B( 11-P , 16-O ) :   1.1791 B( 13-O , 14-C ) :   0.7680
B( 14-C , 15-C ) :   0.9535 B( 14-C , 31-H ) :   0.9366 B( 14-C , 32-H ) :   0.9485
B( 15-C , 33-H ) :   0.9689 B( 15-C , 34-H ) :   0.9588 B( 15-C , 35-H ) :   0.9696
B( 16-O , 17-C ) :   0.7668 B( 17-C , 18-C ) :   0.9430 B( 17-C , 36-H ) :   0.9343
B( 17-C , 37-H ) :   0.9549 B( 18-C , 38-H ) :   0.9570 B( 18-C , 39-H ) :   0.9653
B( 18-C , 40-H ) :   0.9664

Dispersion correction           -0.021844528
FINAL SINGLE POINT ENERGY     -2932.471300684793

DIPOLE MOMENT
-------------

Method             : SCF
Type of density    : Electron Density
Multiplicity       :   1
Irrep              :   0
Energy             : -2932.4958249959959176 Eh
Relativity type    :
Basis              : AO
                                X                 Y                 Z
Electronic contribution:      0.513603728      -9.767479715      -4.285074882
Nuclear contribution   :      0.502307992      11.344404179       3.211897102
                        -----------------------------------------
Total Dipole Moment    :      1.015911720       1.576924464      -1.073177780
                        -----------------------------------------
Magnitude (a.u.)       :      2.161128857
Magnitude (Debye)      :      5.493153007

Rotational constants in cm-1:             0.012835             0.005081             0.004821
Rotational constants in MHz :           384.768900           152.326622           144.527255

                             ****ORCA TERMINATED NORMALLY****
TOTAL RUN TIME: 0 days 0 hours 1 minutes 52 seconds 388 msec
