                         Program Version 6.0.0  -   RELEASE  -
|  1> ! r2scan-3c def2/J RI DEFGRID2 scfconv6 printgap
|  2> %output
|  3>     printlevel normal
|  4> end
|  5> * xyz 0 1
|  6> C 0.9638707691 0.8244973866 0.0989910224
|  7> C -0.3352443994 0.0388341325 0.0140657208
|  8> F -1.4065925625 0.8439198442 0.1570637961
|  9> F -0.444025757 -0.8994406513 0.9657116853
| 10> F -0.4938712173 -0.588365923 -1.1602799607
| 11> O 2.0111543666 -0.0891853415 -0.0638673886
| 12> H 0.9356560698 1.5778644776 -0.69819738
| 13> H 0.9796779912 1.3118412755 1.0818716843
| 14> H 2.8607592274 0.3748563832 -0.0101694665
| 15> *
| 16>
| 17>                          ****END OF INPUT****

CARTESIAN COORDINATES (ANGSTROEM)
---------------------------------
  C      0.963871    0.824497    0.098991
  C     -0.335244    0.038834    0.014066
  F     -1.406593    0.843920    0.157064
  F     -0.444026   -0.899441    0.965712
  F     -0.493871   -0.588366   -1.160280
  O      2.011154   -0.089185   -0.063867
  H      0.935656    1.577864   -0.698197
  H      0.979678    1.311841    1.081872
  H      2.860759    0.374856   -0.010169

 Total Charge           Charge          ....    0
 Multiplicity           Mult            ....    1
 Number of Electrons    NEL             ....   50
 Basis Dimension        Dim             ....  149

ORBITAL ENERGIES
----------------

  NO   OCC          E(Eh)            E(eV)
   0   2.0000     -24.517157      -667.1457
   1   2.0000     -24.513782      -667.0539
   2   2.0000     -24.513762      -667.0534
   3   2.0000     -18.983379      -516.5640
   4   2.0000     -10.281581      -279.7760
   5   2.0000     -10.120313      -275.3877
   6   2.0000      -1.274610       -34.6839
   7   2.0000      -1.184075       -32.2203
   8   2.0000      -1.182955       -32.1898
   9   2.0000      -1.023177       -27.8421
  10   2.0000      -0.743981       -20.2447
  11   2.0000      -0.633298       -17.2329
  12   2.0000      -0.562345       -15.3022
  13   2.0000      -0.556534       -15.1440
  14   2.0000      -0.517914       -14.0931
  15   2.0000      -0.506257       -13.7760
  16   2.0000      -0.451758       -12.2930
  17   2.0000      -0.424873       -11.5614
  18   2.0000      -0.423727       -11.5302
  19   2.0000      -0.383773       -10.4430
  20   2.0000      -0.378646       -10.3035
  21   2.0000      -0.378433       -10.2977
  22   2.0000      -0.363994        -9.9048
  23   2.0000      -0.331175        -9.0117
  24   2.0000      -0.272618        -7.4183
  25   0.0000       0.023135         0.6295
  26   0.0000       0.094588         2.5739
  27   0.0000       0.099751         2.7144
  28   0.0000       0.124632         3.3914
  29   0.0000       0.139227         3.7886

MULLIKEN ATOMIC CHARGES
-----------------------
   0 C :   -0.117841
   1 C :    0.535678
   2 F :   -0.210137
   3 F :   -0.201577
   4 F :   -0.201403
   5 O :   -0.408410
   6 H :    0.147027
   7 H :    0.147010
   8 H :    0.309653
Sum of atomic charges:   -0.0000000

LOEWDIN ATOMIC CHARGES
----------------------
   0 C :    0.041915
   1 C :    0.514548
   2 F :   -0.217052
   3 F :   -0.197769
   4 F :   -0.197475
   5 O :   -0.581952
   6 H :    0.179681
   7 H :    0.179739
   8 H :    0.278365

  Mayer bond orders larger than 0.100000
B(  0-C ,  1-C ) :   1.0310 B(  0-C ,  5-O ) :   0.9648 B(  0-C ,  6-H ) :   0.9347
B(  0-C ,  7-H ) :   0.9348 B(  1-C ,  2-F ) :   1.0049 B(  1-C ,  3-F ) :   1.0343
B(  1-C ,  4-F ) :   1.0347 B(  5-O ,  8-H ) :   0.8909

Dispersion correction           -0.001536240
FINAL SINGLE POINT ENERGY      -452.747884883988

DIPOLE MOMENT
-------------

Method             : SCF
Type of density    : Electron Density
Multiplicity       :   1
Irrep              :   0
Energy             :  -452.7569409723585068 Eh
Relativity type    :
Basis              : AO
                                X                 Y                 Z
Electronic contribution:     -5.751620623      -2.685568158      -0.258767278
Nuclear contribution   :      6.682810105       3.657998665       0.384217997
                        -----------------------------------------
Total Dipole Moment    :      0.931189482       0.972430507       0.125450719
                        -----------------------------------------
Magnitude (a.u.)       :      1.352210348
Magnitude (Debye)      :      3.437045559

Rotational constants in cm-1:             0.179846             0.094253             0.092845
Rotational constants in MHz :          5391.650799          2825.638741          2783.419419

                             ****ORCA TERMINATED NORMALLY****
TOTAL RUN TIME: 0 days 0 hours 0 minutes 18 seconds 170 msec
