                         Program Version 6.0.0  -   RELEASE  -
|  1> ! r2scan-3c def2/J RI DEFGRID2 scfconv6 printgap
|  2> %output
|  3>     printlevel normal
|  4> end
|  5> %cpcm
|  6>     smd true
|  7>     smdsolvent "water"
|  8> end
|  9> * xyz 0 1
| 10> C 0.9638707691 0.8244973866 0.0989910224
| 11> C -0.3352443994 0.0388341325 0.0140657208
| 12> F -1.4065925625 0.8439198442 0.1570637961
| 13> F -0.444025757 -0.8994406513 0.9657116853
| 14> F -0.4938712173 -0.588365923 -1.1602799607
| 15> O 2.0111543666 -0.0891853415 -0.0638673886
| 16> H 0.9356560698 1.5778644776 -0.69819738
| 17> H 0.9796779912 1.3118412755 1.0818716843
| 18> H 2.8607592274 0.3748563832 -0.0101694665
| 19> *
| 20>
| 21>                          ****END OF INPUT****

CARTESIAN COORDINATES (ANGSTROEM)
---------------------------------
  C      0.963871    0.824497    0.098991
  C     -0.335244    0.038834    0.014066
  F     -1.406593    0.843920    0.157064
  F     -0.444026   -0.899441    0.965712
  F     -0.493871   -0.588366   -1.160280
  O      2.011154   -0.089185   -0.063867
  H      0.935656    1.577864   -0.698197
  H      0.979678    1.311841    1.081872
  H      2.860759    0.374856   -0.010169

 Total Charge           Charge          ....    0
 Multiplicity           Mult            ....    1
 Number of Electrons    NEL             ....   50
 Basis Dimension        Dim             ....  149

ORBITAL ENERGIES
----------------

  NO   OCC          E(Eh)            E(eV)
   0   2.0000     -24.520409      -667.2342
   1   2.0000     -24.520394      -667.2339
   2   2.0000     -24.520133      -667.2267
   3   2.0000     -18.968676      -516.1639
   4   2.0000     -10.281103      -279.7630
   5   2.0000     -10.101681      -274.8807
   6   2.0000      -1.279836       -34.8261
   7   2.0000      -1.190039       -32.3826
   8   2.0000      -1.188457       -32.3396
   9   2.0000      -1.008471       -27.4419
  10   2.0000      -0.734637       -19.9905
  11   2.0000      -0.633157       -17.2291
  12   2.0000      -0.563719       -15.3396
  13   2.0000      -0.561526       -15.2799
  14   2.0000      -0.511251       -13.9118
  15   2.0000      -0.491966       -13.3871
  16   2.0000      -0.440929       -11.9983
  17   2.0000      -0.431822       -11.7505
  18   2.0000      -0.425681       -11.5834
  19   2.0000      -0.388888       -10.5822
  20   2.0000      -0.382863       -10.4182
  21   2.0000      -0.375364       -10.2142
  22   2.0000      -0.370839       -10.0910
  23   2.0000      -0.323170        -8.7939
  24   2.0000      -0.260477        -7.0879
  25   0.0000       0.047084         1.2812
  26   0.0000       0.108639         2.9562
  27   0.0000       0.110570         3.0088
  28   0.0000       0.146268         3.9802
  29   0.0000       0.156624         4.2620

MULLIKEN ATOMIC CHARGES
-----------------------
   0 C :   -0.133046
   1 C :    0.530335
   2 F :   -0.216478
   3 F :   -0.213458
   4 F :   -0.213398
   5 O :   -0.479898
   6 H :    0.181640
   7 H :    0.181664
   8 H :    0.362640
Sum of atomic charges:   -0.0000000

LOEWDIN ATOMIC CHARGES
----------------------
   0 C :    0.050650
   1 C :    0.510311
   2 F :   -0.220928
   3 F :   -0.209340
   4 F :   -0.209058
   5 O :   -0.610036
   6 H :    0.194507
   7 H :    0.194540
   8 H :    0.299355

  Mayer bond orders larger than 0.100000
B(  0-C ,  1-C ) :   1.0236 B(  0-C ,  5-O ) :   0.9558 B(  0-C ,  6-H ) :   0.9277
B(  0-C ,  7-H ) :   0.9274 B(  1-C ,  2-F ) :   1.0068 B(  1-C ,  3-F ) :   1.0228
B(  1-C ,  4-F ) :   1.0230 B(  5-O ,  8-H ) :   0.8622

Dispersion correction           -0.001536240
FINAL SINGLE POINT ENERGY      -452.756633556031

DIPOLE MOMENT
-------------

Method             : SCF
Type of density    : Electron Density
Multiplicity       :   1
Irrep              :   0
Energy             :  -452.7656896444016752 Eh
Relativity type    :
Basis              : AO
                                X                 Y                 Z
Electronic contribution:     -5.556526030      -2.330141942      -0.210468252
Nuclear contribution   :      6.682810105       3.657998665       0.384217997
                        -----------------------------------------
Total Dipole Moment    :      1.126284075       1.327856723       0.173749745
                        -----------------------------------------
Magnitude (a.u.)       :      1.749830926
Magnitude (Debye)      :      4.447716748

Rotational constants in cm-1:             0.179846             0.094253             0.092845
Rotational constants in MHz :          5391.650799          2825.638741          2783.419419

                             ****ORCA TERMINATED NORMALLY****
TOTAL RUN TIME: 0 days 0 hours 0 minutes 17 seconds 569 msec
