                         Program Version 6.0.0  -   RELEASE  -
|  1> ! pbe def2-sv(p) def2/J RI DEFGRID1 loosescf d4 GCP(DFT/SV(P)) printgap
|  2> %output
|  3>     printlevel normal
|  4> end
|  5> * xyz 0 1
|  6> C 1.7880858595 3.0423960836 -0.850661699
|  7> C 1.6302009053 1.5928675928 -1.257661099
|  8> O 1.1466399028 0.8174743842 -0.1343820244
|  9> P 2.1555958768 -0.154369688 0.6204063359
| 10> S 3.992983603 0.481194227 0.8437747237
| 11> O 2.0342547602 -1.473453438 -0.2677034509
| 12> C 2.9603116732 -2.5714213075 -0.1718723419
| 13> C 3.037279599 -3.2374162486 -1.5311247152
| 14> S 1.1027077385 -0.5561065593 2.38486326
| 15> C -0.4859794602 -1.1330884873 1.6949467292
| 16> S -1.6730990249 0.2056080251 1.4437611232
| 17> P -1.8407640292 0.2062773137 -0.6864445854
| 18> S -0.8987130248 -1.2286365679 -1.6315570294
| 19> O -1.4383628511 1.6498617002 -1.1859094669
| 20> C -2.276479518 2.8265057142 -1.092546757
| 21> C -2.583829565 3.2099952671 0.339409156
| 22> O -3.41466601 0.2312178799 -0.9499670103
| 23> C -4.2052040531 -0.9629987729 -1.0597962773
| 24> C -4.2461109335 -1.7571725855 0.2299880222
| 25> H 2.5520914978 3.1288252454 -0.0804384379
| 26> H 2.0862645228 3.6257872507 -1.7157507198
| 27> H 0.8484030023 3.4234419288 -0.4610250777
| 28> H 2.5821812423 1.1737464261 -1.596137298
| 29> H 0.8806741122 1.4662622859 -2.040547708
| 30> H 3.9349383126 -2.1822847246 0.1427771071
| 31> H 2.5849105504 -3.2614676065 0.5881780614
| 32> H 3.4577800757 -2.5525627203 -2.2622620574
| 33> H 3.6648989893 -4.1195612827 -1.4617354884
| 34> H 2.0401527917 -3.5234051142 -1.855982496
| 35> H -0.8949911289 -1.8106383122 2.4392580764
| 36> H -0.3083012149 -1.6345779442 0.7393113951
| 37> H -1.6864294983 3.5934384493 -1.5974274704
| 38> H -3.1955395778 2.6385731635 -1.6506799064
| 39> H -1.6661301331 3.321521598 0.9122156404
| 40> H -3.1243766459 4.1514763859 0.3463160684
| 41> H -3.1972502113 2.4452574614 0.8128773109
| 42> H -5.1942500496 -0.5936654951 -1.3349252289
| 43> H -3.7968103711 -1.5726261142 -1.8718215866
| 44> H -3.26530052 -2.1837868792 0.4346320515
| 45> H -4.5355399968 -1.1194113752 1.06118825
| 46> H -4.9639700564 -2.5647312093 0.1279837243
| 47> *
| 48>
| 49>                          ****END OF INPUT****

CARTESIAN COORDINATES (ANGSTROEM)
---------------------------------
  C      1.788086    3.042396   -0.850662
  C      1.630201    1.592868   -1.257661
  O      1.146640    0.817474   -0.134382
  P      2.155596   -0.154370    0.620406
  S      3.992984    0.481194    0.843775
  O      2.034255   -1.473453   -0.267703
  C      2.960312   -2.571421   -0.171872
  C      3.037280   -3.237416   -1.531125
  S      1.102708   -0.556107    2.384863
  C     -0.485979   -1.133088    1.694947
  S     -1.673099    0.205608    1.443761
  P     -1.840764    0.206277   -0.686445
  S     -0.898713   -1.228637   -1.631557
  O     -1.438363    1.649862   -1.185909
  C     -2.276480    2.826506   -1.092547
  C     -2.583830    3.209995    0.339409
  O     -3.414666    0.231218   -0.949967
  C     -4.205204   -0.962999   -1.059796
  C     -4.246111   -1.757173    0.229988
  H      2.552091    3.128825   -0.080438
  H      2.086265    3.625787   -1.715751
  H      0.848403    3.423442   -0.461025
  H      2.582181    1.173746   -1.596137
  H      0.880674    1.466262   -2.040548
  H      3.934938   -2.182285    0.142777
  H      2.584911   -3.261468    0.588178
  H      3.457780   -2.552563   -2.262262
  H      3.664899   -4.119561   -1.461735
  H      2.040153   -3.523405   -1.855982
  H     -0.894991   -1.810638    2.439258
  H     -0.308301   -1.634578    0.739311
  H     -1.686429    3.593438   -1.597427
  H     -3.195540    2.638573   -1.650680
  H     -1.666130    3.321522    0.912216
  H     -3.124377    4.151476    0.346316
  H     -3.197250    2.445257    0.812877
  H     -5.194250   -0.593665   -1.334925
  H     -3.796810   -1.572626   -1.871822
  H     -3.265301   -2.183787    0.434632
  H     -4.535540   -1.119411    1.061188
  H     -4.963970   -2.564731    0.127984

 Total Charge           Charge          ....    0
 Multiplicity           Mult            ....    1
 Number of Electrons    NEL             ....  202
 Basis Dimension        Dim             ....  334

ORBITAL ENERGIES
----------------

  NO   OCC          E(Eh)            E(eV)
   0   2.0000     -88.043478     -2395.7848
   1   2.0000     -88.039435     -2395.6748
   2   2.0000     -87.990246     -2394.3363
   3   2.0000     -87.980646     -2394.0751
   4   2.0000     -76.431392     -2079.8039
   5   2.0000     -76.418681     -2079.4580
   6   2.0000     -18.796880      -511.4891
   7   2.0000     -18.796210      -511.4709
   8   2.0000     -18.782920      -511.1092
   9   2.0000     -18.781367      -511.0670
  10   2.0000      -9.962658      -271.0977
  11   2.0000      -9.957539      -270.9584
  12   2.0000      -9.955684      -270.9079
  13   2.0000      -9.944854      -270.6132
  14   2.0000      -9.938736      -270.4468
  15   2.0000      -9.894130      -269.2330
  16   2.0000      -9.888809      -269.0882
  17   2.0000      -9.880541      -268.8632
  18   2.0000      -9.874968      -268.7115
  19   2.0000      -7.688316      -209.2097
  20   2.0000      -7.685214      -209.1253
  21   2.0000      -7.635273      -207.7663
  22   2.0000      -7.625876      -207.5106
  23   2.0000      -6.428407      -174.9259
  24   2.0000      -6.416786      -174.6096
  25   2.0000      -5.716277      -155.5478
  26   2.0000      -5.713421      -155.4701
  27   2.0000      -5.712806      -155.4534
  28   2.0000      -5.709365      -155.3597
  29   2.0000      -5.705255      -155.2479
  30   2.0000      -5.702100      -155.1620
  31   2.0000      -5.664282      -154.1330
  32   2.0000      -5.655880      -153.9043
  33   2.0000      -5.655292      -153.8883
  34   2.0000      -5.654829      -153.8757
  35   2.0000      -5.646520      -153.6496
  36   2.0000      -5.645951      -153.6341
  37   2.0000      -4.651385      -126.5706
  38   2.0000      -4.649828      -126.5283
  39   2.0000      -4.648900      -126.5030
  40   2.0000      -4.639102      -126.2364
  41   2.0000      -4.638825      -126.2289
  42   2.0000      -4.637184      -126.1842
  43   2.0000      -0.993229       -27.0271
  44   2.0000      -0.976790       -26.5798
  45   2.0000      -0.948117       -25.7996
  46   2.0000      -0.935184       -25.4477
  47   2.0000      -0.761348       -20.7173
  48   2.0000      -0.723041       -19.6749
  49   2.0000      -0.707971       -19.2649
  50   2.0000      -0.695713       -18.9313
  51   2.0000      -0.679907       -18.5012
  52   2.0000      -0.675915       -18.3926
  53   2.0000      -0.651441       -17.7266
  54   2.0000      -0.636155       -17.3106
  55   2.0000      -0.602142       -16.3851
  56   2.0000      -0.585706       -15.9379
  57   2.0000      -0.582266       -15.8443
  58   2.0000      -0.564458       -15.3597
  59   2.0000      -0.554845       -15.0981
  60   2.0000      -0.501275       -13.6404
  61   2.0000      -0.499543       -13.5933
  62   2.0000      -0.474959       -12.9243
  63   2.0000      -0.469076       -12.7642
  64   2.0000      -0.458691       -12.4816
  65   2.0000      -0.453374       -12.3369
  66   2.0000      -0.441098       -12.0029
  67   2.0000      -0.432218       -11.7612
  68   2.0000      -0.426378       -11.6023
  69   2.0000      -0.422013       -11.4836
  70   2.0000      -0.413428       -11.2500
  71   2.0000      -0.406063       -11.0495
  72   2.0000      -0.387992       -10.5578
  73   2.0000      -0.380169       -10.3449
  74   2.0000      -0.373605       -10.1663
  75   2.0000      -0.373151       -10.1540
  76   2.0000      -0.365338        -9.9414
  77   2.0000      -0.361920        -9.8483
  78   2.0000      -0.356679        -9.7057
  79   2.0000      -0.350622        -9.5409
  80   2.0000      -0.348294        -9.4776
  81   2.0000      -0.343646        -9.3511
  82   2.0000      -0.342160        -9.3106
  83   2.0000      -0.333048        -9.0627
  84   2.0000      -0.327465        -8.9108
  85   2.0000      -0.316781        -8.6201
  86   2.0000      -0.309931        -8.4337
  87   2.0000      -0.300411        -8.1746
  88   2.0000      -0.298928        -8.1342
  89   2.0000      -0.288654        -7.8547
  90   2.0000      -0.285512        -7.7692
  91   2.0000      -0.274477        -7.4689
  92   2.0000      -0.268048        -7.2939
  93   2.0000      -0.263716        -7.1761
  94   2.0000      -0.257994        -7.0204
  95   2.0000      -0.230939        -6.2842
  96   2.0000      -0.217678        -5.9233
  97   2.0000      -0.207947        -5.6585
  98   2.0000      -0.205254        -5.5852
  99   2.0000      -0.199014        -5.4155
 100   2.0000      -0.196015        -5.3339
 101   0.0000      -0.041606        -1.1322
 102   0.0000      -0.028729        -0.7818
 103   0.0000      -0.013766        -0.3746
 104   0.0000       0.006007         0.1635
 105   0.0000       0.006927         0.1885

MULLIKEN ATOMIC CHARGES
-----------------------
   0 C :   -0.297295
   1 C :    0.000007
   2 O :   -0.381808
   3 P :    0.611685
   4 S :   -0.327390
   5 O :   -0.370125
   6 C :   -0.007923
   7 C :   -0.281257
   8 S :   -0.071536
   9 C :   -0.368375
  10 S :   -0.096603
  11 P :    0.628904
  12 S :   -0.300679
  13 O :   -0.371485
  14 C :    0.007045
  15 C :   -0.339102
  16 O :   -0.388047
  17 C :    0.003056
  18 C :   -0.315463
  19 H :    0.119581
  20 H :    0.103646
  21 H :    0.114831
  22 H :    0.103150
  23 H :    0.113183
  24 H :    0.105568
  25 H :    0.093744
  26 H :    0.116349
  27 H :    0.107968
  28 H :    0.119905
  29 H :    0.181688
  30 H :    0.205451
  31 H :    0.112155
  32 H :    0.112308
  33 H :    0.141447
  34 H :    0.118430
  35 H :    0.127805
  36 H :    0.103621
  37 H :    0.111936
  38 H :    0.120563
  39 H :    0.119345
  40 H :    0.113718
Sum of atomic charges:   -0.0000000

LOEWDIN ATOMIC CHARGES
----------------------
   0 C :   -0.358170
   1 C :   -0.121851
   2 O :   -0.247977
   3 P :    0.565360
   4 S :   -0.323882
   5 O :   -0.244567
   6 C :   -0.120605
   7 C :   -0.351123
   8 S :    0.084401
   9 C :   -0.485921
  10 S :    0.083136
  11 P :    0.584127
  12 S :   -0.288711
  13 O :   -0.231071
  14 C :   -0.109394
  15 C :   -0.370470
  16 O :   -0.252509
  17 C :   -0.117065
  18 C :   -0.370717
  19 H :    0.125752
  20 H :    0.127088
  21 H :    0.120440
  22 H :    0.106361
  23 H :    0.114188
  24 H :    0.105709
  25 H :    0.108190
  26 H :    0.127192
  27 H :    0.128438
  28 H :    0.127786
  29 H :    0.137004
  30 H :    0.124920
  31 H :    0.121131
  32 H :    0.115568
  33 H :    0.131242
  34 H :    0.134217
  35 H :    0.117974
  36 H :    0.118110
  37 H :    0.111666
  38 H :    0.119125
  39 H :    0.123816
  40 H :    0.131093

  Mayer bond orders larger than 0.100000
B(  0-C ,  1-C ) :   1.1758 B(  0-C , 19-H ) :   0.9383 B(  0-C , 20-H ) :   0.9413
B(  0-C , 21-H ) :   0.9422 B(  1-C ,  2-O ) :   0.8761 B(  1-C , 22-H ) :   0.9075
B(  1-C , 23-H ) :   0.9148 B(  2-O ,  3-P ) :   1.1128 B(  3-P ,  4-S ) :   1.6366
B(  3-P ,  5-O ) :   1.0845 B(  3-P ,  8-S ) :   0.9990 B(  5-O ,  6-C ) :   0.9085
B(  6-C ,  7-C ) :   1.1620 B(  6-C , 24-H ) :   0.9040 B(  6-C , 25-H ) :   0.9306
B(  7-C , 26-H ) :   0.9511 B(  7-C , 27-H ) :   0.9419 B(  7-C , 28-H ) :   0.9499
B(  8-S ,  9-C ) :   0.9805 B(  9-C , 10-S ) :   1.0028 B(  9-C , 29-H ) :   0.9092
B(  9-C , 30-H ) :   0.8424 B( 10-S , 11-P ) :   0.9498 B( 10-S , 12-S ) :   0.1186
B( 11-P , 12-S ) :   1.6209 B( 11-P , 13-O ) :   1.1137 B( 11-P , 16-O ) :   1.0606
B( 12-S , 30-H ) :   0.1055 B( 13-O , 14-C ) :   0.8987 B( 14-C , 15-C ) :   1.1732
B( 14-C , 31-H ) :   0.9285 B( 14-C , 32-H ) :   0.9253 B( 15-C , 33-H ) :   0.9413
B( 15-C , 34-H ) :   0.9350 B( 15-C , 35-H ) :   0.9321 B( 16-O , 17-C ) :   0.9130
B( 17-C , 18-C ) :   1.1661 B( 17-C , 36-H ) :   0.9342 B( 17-C , 37-H ) :   0.9173
B( 18-C , 38-H ) :   0.9379 B( 18-C , 39-H ) :   0.9420 B( 18-C , 40-H ) :   0.9367

Dispersion correction           -0.067272428
FINAL SINGLE POINT ENERGY     -2929.516536375344

DIPOLE MOMENT
-------------

Method             : SCF
Type of density    : Electron Density
Multiplicity       :   1
Irrep              :   0
Energy             : -2929.6376630769673284 Eh
Relativity type    :
Basis              : AO
                                X                 Y                 Z
Electronic contribution:      9.016569349      -1.787441790       9.323171836
Nuclear contribution   :    -10.883456836       1.738799929      -9.752287801
                        -----------------------------------------
Total Dipole Moment    :     -1.866887487      -0.048641861      -0.429115965
                        -----------------------------------------
Magnitude (a.u.)       :      1.916187734
Magnitude (Debye)      :      4.870562150

Rotational constants in cm-1:             0.011443             0.005801             0.005144
Rotational constants in MHz :           343.045035           173.905623           154.216869

                             ****ORCA TERMINATED NORMALLY****
TOTAL RUN TIME: 0 days 0 hours 0 minutes 21 seconds 880 msec
