                         Program Version 6.0.0  -   RELEASE  -
|  1> ! pbe def2-sv(p) def2/J RI DEFGRID1 loosescf d4 GCP(DFT/SV(P)) printgap
|  2> %output
|  3>     printlevel normal
|  4> end
|  5> * xyz 0 1
|  6> C 0.845158416 -1.9207956222 2.9247299746
|  7> C 2.0860366463 -1.2039213285 2.4342440136
|  8> O 1.698008993 -0.2019763219 1.4597481284
|  9> P 2.4501100107 -0.016293322 0.0836341069
| 10> S 3.2262912561 -1.6358451723 -0.7112574359
| 11> O 3.5009538089 1.117216072 0.4468252579
| 12> C 4.5545582589 1.5134917777 -0.4544021761
| 13> C 5.7198678063 2.0135777365 0.375733277
| 14> S 0.9986280199 0.9887101334 -1.0746779696
| 15> C 0.1473638779 -0.5082077517 -1.6490309025
| 16> S -0.9482598527 -1.2027615883 -0.39571219
| 17> P -2.4174705762 0.3455776996 -0.4959242989
| 18> S -2.6950863112 1.1030825119 -2.2793453176
| 19> O -2.0274871541 1.4582673678 0.542365771
| 20> C -1.4804689546 1.2785216147 1.8720769558
| 21> C -2.3322886943 0.3808844058 2.7429115393
| 22> O -3.7006047528 -0.3292197449 0.1480688691
| 23> C -4.4708794667 -1.309896693 -0.5761784598
| 24> C -5.8312610957 -1.4117297837 0.0833295119
| 25> H 0.1677527548 -1.2180600585 3.3997785793
| 26> H 0.3346176469 -2.3965966627 2.0906874224
| 27> H 1.1383068201 -2.6792056709 3.6434042393
| 28> H 2.7832200519 -1.9024250375 1.9601425719
| 29> H 2.5937281886 -0.674565477 3.2423819634
| 30> H 4.8404405043 0.6487094936 -1.062862975
| 31> H 4.1611284666 2.2975169678 -1.1061589002
| 32> H 6.5093186276 2.3520662243 -0.2872256897
| 33> H 5.3988821599 2.8385058128 1.0050509765
| 34> H 6.0995970115 1.2148357261 1.0067242882
| 35> H 0.8856533504 -1.2711368522 -1.8986333034
| 36> H -0.4424410428 -0.2189002971 -2.5196649804
| 37> H -0.4642894557 0.8864207116 1.7729451978
| 38> H -1.4411612396 2.2982416238 2.2587158353
| 39> H -2.3074929249 -0.6417486249 2.3723646827
| 40> H -1.9471688343 0.4033379846 3.7581188384
| 41> H -3.3615763866 0.7299916489 2.744274282
| 42> H -4.5537046266 -0.9885748824 -1.6199137459
| 43> H -3.9338129259 -2.2612498428 -0.5361187515
| 44> H -6.3370079156 -0.4510973231 0.0440095189
| 45> H -6.426590026 -2.1510393502 -0.4422118306
| 46> H -5.7205297472 -1.7102831609 1.1214957594
| 47> *
| 48>
| 49>                          ****END OF INPUT****

CARTESIAN COORDINATES (ANGSTROEM)
---------------------------------
  C      0.845158   -1.920796    2.924730
  C      2.086037   -1.203921    2.434244
  O      1.698009   -0.201976    1.459748
  P      2.450110   -0.016293    0.083634
  S      3.226291   -1.635845   -0.711257
  O      3.500954    1.117216    0.446825
  C      4.554558    1.513492   -0.454402
  C      5.719868    2.013578    0.375733
  S      0.998628    0.988710   -1.074678
  C      0.147364   -0.508208   -1.649031
  S     -0.948260   -1.202762   -0.395712
  P     -2.417471    0.345578   -0.495924
  S     -2.695086    1.103083   -2.279345
  O     -2.027487    1.458267    0.542366
  C     -1.480469    1.278522    1.872077
  C     -2.332289    0.380884    2.742912
  O     -3.700605   -0.329220    0.148069
  C     -4.470879   -1.309897   -0.576178
  C     -5.831261   -1.411730    0.083330
  H      0.167753   -1.218060    3.399779
  H      0.334618   -2.396597    2.090687
  H      1.138307   -2.679206    3.643404
  H      2.783220   -1.902425    1.960143
  H      2.593728   -0.674565    3.242382
  H      4.840441    0.648709   -1.062863
  H      4.161128    2.297517   -1.106159
  H      6.509319    2.352066   -0.287226
  H      5.398882    2.838506    1.005051
  H      6.099597    1.214836    1.006724
  H      0.885653   -1.271137   -1.898633
  H     -0.442441   -0.218900   -2.519665
  H     -0.464289    0.886421    1.772945
  H     -1.441161    2.298242    2.258716
  H     -2.307493   -0.641749    2.372365
  H     -1.947169    0.403338    3.758119
  H     -3.361576    0.729992    2.744274
  H     -4.553705   -0.988575   -1.619914
  H     -3.933813   -2.261250   -0.536119
  H     -6.337008   -0.451097    0.044010
  H     -6.426590   -2.151039   -0.442212
  H     -5.720530   -1.710283    1.121496

 Total Charge           Charge          ....    0
 Multiplicity           Mult            ....    1
 Number of Electrons    NEL             ....  202
 Basis Dimension        Dim             ....  334

ORBITAL ENERGIES
----------------

  NO   OCC          E(Eh)            E(eV)
   0   2.0000     -88.043656     -2395.7897
   1   2.0000     -88.042339     -2395.7538
   2   2.0000     -87.991472     -2394.3697
   3   2.0000     -87.981341     -2394.0940
   4   2.0000     -76.429555     -2079.7539
   5   2.0000     -76.425395     -2079.6407
   6   2.0000     -18.797966      -511.5187
   7   2.0000     -18.796340      -511.4744
   8   2.0000     -18.795139      -511.4417
   9   2.0000     -18.790811      -511.3240
  10   2.0000      -9.957129      -270.9472
  11   2.0000      -9.955156      -270.8936
  12   2.0000      -9.953634      -270.8521
  13   2.0000      -9.951951      -270.8064
  14   2.0000      -9.950935      -270.7787
  15   2.0000      -9.890290      -269.1285
  16   2.0000      -9.890238      -269.1270
  17   2.0000      -9.889360      -269.1032
  18   2.0000      -9.888360      -269.0760
  19   2.0000      -7.688874      -209.2249
  20   2.0000      -7.687181      -209.1788
  21   2.0000      -7.636444      -207.7982
  22   2.0000      -7.626717      -207.5335
  23   2.0000      -6.427536      -174.9022
  24   2.0000      -6.422849      -174.7746
  25   2.0000      -5.716660      -155.5582
  26   2.0000      -5.714821      -155.5082
  27   2.0000      -5.713509      -155.4725
  28   2.0000      -5.711757      -155.4248
  29   2.0000      -5.705806      -155.2629
  30   2.0000      -5.704383      -155.2242
  31   2.0000      -5.665162      -154.1569
  32   2.0000      -5.657054      -153.9363
  33   2.0000      -5.656811      -153.9297
  34   2.0000      -5.655684      -153.8990
  35   2.0000      -5.647246      -153.6694
  36   2.0000      -5.646848      -153.6586
  37   2.0000      -4.650039      -126.5340
  38   2.0000      -4.649270      -126.5131
  39   2.0000      -4.647967      -126.4776
  40   2.0000      -4.645619      -126.4137
  41   2.0000      -4.644774      -126.3907
  42   2.0000      -4.642977      -126.3418
  43   2.0000      -0.991620       -26.9834
  44   2.0000      -0.987636       -26.8749
  45   2.0000      -0.950329       -25.8598
  46   2.0000      -0.946108       -25.7449
  47   2.0000      -0.765466       -20.8294
  48   2.0000      -0.725856       -19.7516
  49   2.0000      -0.714063       -19.4306
  50   2.0000      -0.693407       -18.8686
  51   2.0000      -0.692623       -18.8472
  52   2.0000      -0.676283       -18.4026
  53   2.0000      -0.649263       -17.6673
  54   2.0000      -0.637389       -17.3442
  55   2.0000      -0.599533       -16.3141
  56   2.0000      -0.593719       -16.1559
  57   2.0000      -0.572920       -15.5899
  58   2.0000      -0.568832       -15.4787
  59   2.0000      -0.562231       -15.2991
  60   2.0000      -0.513404       -13.9704
  61   2.0000      -0.502894       -13.6845
  62   2.0000      -0.485879       -13.2214
  63   2.0000      -0.475476       -12.9384
  64   2.0000      -0.460039       -12.5183
  65   2.0000      -0.446371       -12.1464
  66   2.0000      -0.441954       -12.0262
  67   2.0000      -0.438203       -11.9241
  68   2.0000      -0.434796       -11.8314
  69   2.0000      -0.418379       -11.3847
  70   2.0000      -0.407733       -11.0950
  71   2.0000      -0.400199       -10.8900
  72   2.0000      -0.394573       -10.7369
  73   2.0000      -0.383706       -10.4412
  74   2.0000      -0.380410       -10.3515
  75   2.0000      -0.377546       -10.2736
  76   2.0000      -0.366858        -9.9827
  77   2.0000      -0.362819        -9.8728
  78   2.0000      -0.359208        -9.7746
  79   2.0000      -0.355064        -9.6618
  80   2.0000      -0.352539        -9.5931
  81   2.0000      -0.348884        -9.4936
  82   2.0000      -0.345160        -9.3923
  83   2.0000      -0.342560        -9.3215
  84   2.0000      -0.337161        -9.1746
  85   2.0000      -0.321305        -8.7432
  86   2.0000      -0.312657        -8.5078
  87   2.0000      -0.302658        -8.2358
  88   2.0000      -0.299752        -8.1567
  89   2.0000      -0.293701        -7.9920
  90   2.0000      -0.289605        -7.8805
  91   2.0000      -0.282761        -7.6943
  92   2.0000      -0.271560        -7.3895
  93   2.0000      -0.265158        -7.2153
  94   2.0000      -0.259851        -7.0709
  95   2.0000      -0.237862        -6.4726
  96   2.0000      -0.221503        -6.0274
  97   2.0000      -0.213204        -5.8016
  98   2.0000      -0.205402        -5.5893
  99   2.0000      -0.200456        -5.4547
 100   2.0000      -0.197778        -5.3818
 101   0.0000      -0.044650        -1.2150
 102   0.0000      -0.025580        -0.6961
 103   0.0000      -0.003304        -0.0899
 104   0.0000       0.002694         0.0733
 105   0.0000       0.012710         0.3458

MULLIKEN ATOMIC CHARGES
-----------------------
   0 C :   -0.301506
   1 C :   -0.010344
   2 O :   -0.360479
   3 P :    0.613315
   4 S :   -0.337323
   5 O :   -0.377121
   6 C :   -0.011324
   7 C :   -0.282320
   8 S :   -0.066069
   9 C :   -0.377086
  10 S :   -0.111014
  11 P :    0.605776
  12 S :   -0.318333
  13 O :   -0.352160
  14 C :   -0.032324
  15 C :   -0.314037
  16 O :   -0.378795
  17 C :   -0.010865
  18 C :   -0.280598
  19 H :    0.120053
  20 H :    0.131076
  21 H :    0.111640
  22 H :    0.110705
  23 H :    0.105790
  24 H :    0.108536
  25 H :    0.106502
  26 H :    0.113788
  27 H :    0.117614
  28 H :    0.117146
  29 H :    0.193129
  30 H :    0.198605
  31 H :    0.141940
  32 H :    0.107613
  33 H :    0.118872
  34 H :    0.117152
  35 H :    0.122916
  36 H :    0.108097
  37 H :    0.101842
  38 H :    0.122258
  39 H :    0.113066
  40 H :    0.114268
Sum of atomic charges:    0.0000000

LOEWDIN ATOMIC CHARGES
----------------------
   0 C :   -0.355787
   1 C :   -0.115354
   2 O :   -0.238198
   3 P :    0.568698
   4 S :   -0.321751
   5 O :   -0.249268
   6 C :   -0.119109
   7 C :   -0.350692
   8 S :    0.093610
   9 C :   -0.489022
  10 S :    0.065362
  11 P :    0.569365
  12 S :   -0.313129
  13 O :   -0.228684
  14 C :   -0.117937
  15 C :   -0.366853
  16 O :   -0.244722
  17 C :   -0.120673
  18 C :   -0.350168
  19 H :    0.123692
  20 H :    0.125492
  21 H :    0.130937
  22 H :    0.108256
  23 H :    0.115837
  24 H :    0.108448
  25 H :    0.113678
  26 H :    0.131698
  27 H :    0.127173
  28 H :    0.127571
  29 H :    0.127472
  30 H :    0.129245
  31 H :    0.111011
  32 H :    0.122557
  33 H :    0.118113
  34 H :    0.128962
  35 H :    0.128421
  36 H :    0.110085
  37 H :    0.108815
  38 H :    0.129872
  39 H :    0.131484
  40 H :    0.125493

  Mayer bond orders larger than 0.100000
B(  0-C ,  1-C ) :   1.1669 B(  0-C , 19-H ) :   0.9427 B(  0-C , 20-H ) :   0.9420
B(  0-C , 21-H ) :   0.9388 B(  1-C ,  2-O ) :   0.8902 B(  1-C , 22-H ) :   0.9014
B(  1-C , 23-H ) :   0.9330 B(  2-O ,  3-P ) :   1.1248 B(  3-P ,  4-S ) :   1.6007
B(  3-P ,  5-O ) :   1.1195 B(  3-P ,  8-S ) :   0.9772 B(  4-S ,  8-S ) :   0.1073
B(  5-O ,  6-C ) :   0.9021 B(  6-C ,  7-C ) :   1.1623 B(  6-C , 24-H ) :   0.9065
B(  6-C , 25-H ) :   0.9315 B(  7-C , 26-H ) :   0.9417 B(  7-C , 27-H ) :   0.9507
B(  7-C , 28-H ) :   0.9510 B(  8-S ,  9-C ) :   1.0027 B(  9-C , 10-S ) :   1.0072
B(  9-C , 29-H ) :   0.8669 B(  9-C , 30-H ) :   0.8663 B( 10-S , 11-P ) :   0.9340
B( 10-S , 12-S ) :   0.1093 B( 11-P , 12-S ) :   1.6365 B( 11-P , 13-O ) :   1.1617
B( 11-P , 16-O ) :   1.0911 B( 13-O , 14-C ) :   0.8912 B( 14-C , 15-C ) :   1.1730
B( 14-C , 31-H ) :   0.9009 B( 14-C , 32-H ) :   0.9336 B( 15-C , 33-H ) :   0.9368
B( 15-C , 34-H ) :   0.9300 B( 15-C , 35-H ) :   0.9404 B( 16-O , 17-C ) :   0.9012
B( 17-C , 18-C ) :   1.1602 B( 17-C , 36-H ) :   0.9080 B( 17-C , 37-H ) :   0.9291
B( 18-C , 38-H ) :   0.9506 B( 18-C , 39-H ) :   0.9417 B( 18-C , 40-H ) :   0.9515

Dispersion correction           -0.063558092
FINAL SINGLE POINT ENERGY     -2929.523600070773

DIPOLE MOMENT
-------------

Method             : SCF
Type of density    : Electron Density
Multiplicity       :   1
Irrep              :   0
Energy             : -2929.6446955622018322 Eh
Relativity type    :
Basis              : AO
                                X                 Y                 Z
Electronic contribution:      2.183381684       4.483481666     -18.566070580
Nuclear contribution   :     -1.951877959      -4.834914940      20.188148932
                        -----------------------------------------
Total Dipole Moment    :      0.231503724      -0.351433274       1.622078351
                        -----------------------------------------
Magnitude (a.u.)       :      1.675779669
Magnitude (Debye)      :      4.259493411

Rotational constants in cm-1:             0.013722             0.004443             0.004115
Rotational constants in MHz :           411.382377           133.194602           123.351854

                             ****ORCA TERMINATED NORMALLY****
TOTAL RUN TIME: 0 days 0 hours 0 minutes 21 seconds 576 msec
