                         Program Version 6.0.0  -   RELEASE  -
|  1> ! pbe def2-sv(p) def2/J RI DEFGRID1 loosescf d4 GCP(DFT/SV(P)) printgap
|  2> %output
|  3>     printlevel normal
|  4> end
|  5> * xyz 0 1
|  6> C 3.4601740142 -0.5564686752 -3.0094743872
|  7> C 4.2177841571 -0.5737254662 -1.699233644
|  8> O 3.5843356328 0.2151340937 -0.6723915854
|  9> P 2.0561666425 0.1195640508 -0.2543165122
| 10> S 0.7810326046 1.0662100386 -1.3990471049
| 11> O 2.0464483302 0.7720018673 1.1775672044
| 12> C 2.909998265 0.3705594338 2.2691799072
| 13> C 4.1019297367 1.299394083 2.3732662415
| 14> S 1.8317268207 -1.9839116298 0.0313595518
| 15> C 0.149343508 -2.0528568074 0.6914002127
| 16> S -1.1348487905 -1.6637009256 -0.5424841207
| 17> P -1.9924795206 0.0207307142 0.3963189432
| 18> S -1.0973655671 0.8187355147 1.9371522209
| 19> O -3.3875124808 -0.6833488896 0.7642079686
| 20> C -4.2705368531 -0.1551817331 1.769540049
| 21> C -4.9711365377 1.1040206785 1.3000219104
| 22> O -2.3104363433 1.0791180379 -0.7350675861
| 23> C -2.8172745026 0.6863373804 -2.034116308
| 24> C -3.6310246452 1.8374722981 -2.5864634457
| 25> H 3.3082830552 0.4661439753 -3.3472676372
| 26> H 4.022699092 -1.1046566974 -3.7582573188
| 27> H 2.4841662526 -1.0243229549 -2.8851698665
| 28> H 5.2030682021 -0.1157458229 -1.802639744
| 29> H 4.3183431844 -1.5957609895 -1.3241928349
| 30> H 2.2731437557 0.4361805598 3.15421402
| 31> H 3.2263896215 -0.6646494627 2.1121113335
| 32> H 3.7630103278 2.3244921738 2.495896943
| 33> H 4.7001970029 1.0133149806 3.2325812362
| 34> H 4.7077565025 1.2366313188 1.473185096
| 35> H 0.0508096734 -1.3546514212 1.5272686973
| 36> H 0.0061753127 -3.0813762017 1.0121220164
| 37> H -4.9752149286 -0.9672099338 1.9543149459
| 38> H -3.6853610528 0.0435889457 2.6733104506
| 39> H -5.6561484504 1.4436324083 2.0705614061
| 40> H -4.2358211401 1.8859662013 1.1098248188
| 41> H -5.5258731823 0.9088908641 0.3856196497
| 42> H -1.9495206303 0.4737186412 -2.6644576802
| 43> H -3.4191827151 -0.2204300555 -1.9207595774
| 44> H -3.0116812745 2.7284653742 -2.6386005751
| 45> H -3.9765612084 1.5801388618 -3.5823312676
| 46> H -4.4861380205 2.0404880648 -1.9475819015
| 47> *
| 48>
| 49>                          ****END OF INPUT****

CARTESIAN COORDINATES (ANGSTROEM)
---------------------------------
  C      3.460174   -0.556469   -3.009474
  C      4.217784   -0.573725   -1.699234
  O      3.584336    0.215134   -0.672392
  P      2.056167    0.119564   -0.254317
  S      0.781033    1.066210   -1.399047
  O      2.046448    0.772002    1.177567
  C      2.909998    0.370559    2.269180
  C      4.101930    1.299394    2.373266
  S      1.831727   -1.983912    0.031360
  C      0.149344   -2.052857    0.691400
  S     -1.134849   -1.663701   -0.542484
  P     -1.992480    0.020731    0.396319
  S     -1.097366    0.818736    1.937152
  O     -3.387512   -0.683349    0.764208
  C     -4.270537   -0.155182    1.769540
  C     -4.971137    1.104021    1.300022
  O     -2.310436    1.079118   -0.735068
  C     -2.817275    0.686337   -2.034116
  C     -3.631025    1.837472   -2.586463
  H      3.308283    0.466144   -3.347268
  H      4.022699   -1.104657   -3.758257
  H      2.484166   -1.024323   -2.885170
  H      5.203068   -0.115746   -1.802640
  H      4.318343   -1.595761   -1.324193
  H      2.273144    0.436181    3.154214
  H      3.226390   -0.664649    2.112111
  H      3.763010    2.324492    2.495897
  H      4.700197    1.013315    3.232581
  H      4.707757    1.236631    1.473185
  H      0.050810   -1.354651    1.527269
  H      0.006175   -3.081376    1.012122
  H     -4.975215   -0.967210    1.954315
  H     -3.685361    0.043589    2.673310
  H     -5.656148    1.443632    2.070561
  H     -4.235821    1.885966    1.109825
  H     -5.525873    0.908891    0.385620
  H     -1.949521    0.473719   -2.664458
  H     -3.419183   -0.220430   -1.920760
  H     -3.011681    2.728465   -2.638601
  H     -3.976561    1.580139   -3.582331
  H     -4.486138    2.040488   -1.947582

 Total Charge           Charge          ....    0
 Multiplicity           Mult            ....    1
 Number of Electrons    NEL             ....  202
 Basis Dimension        Dim             ....  334

ORBITAL ENERGIES
----------------

  NO   OCC          E(Eh)            E(eV)
   0   2.0000     -88.042303     -2395.7529
   1   2.0000     -88.034152     -2395.5311
   2   2.0000     -87.980522     -2394.0717
   3   2.0000     -87.972662     -2393.8578
   4   2.0000     -76.419969     -2079.4931
   5   2.0000     -76.417241     -2079.4188
   6   2.0000     -18.789613      -511.2914
   7   2.0000     -18.785519      -511.1799
   8   2.0000     -18.781865      -511.0805
   9   2.0000     -18.778223      -510.9814
  10   2.0000      -9.958024      -270.9716
  11   2.0000      -9.955603      -270.9057
  12   2.0000      -9.951323      -270.7893
  13   2.0000      -9.948682      -270.7174
  14   2.0000      -9.943985      -270.5896
  15   2.0000      -9.886339      -269.0210
  16   2.0000      -9.881421      -268.8871
  17   2.0000      -9.881246      -268.8824
  18   2.0000      -9.881116      -268.8788
  19   2.0000      -7.687197      -209.1793
  20   2.0000      -7.679616      -208.9730
  21   2.0000      -7.625771      -207.5078
  22   2.0000      -7.617685      -207.2877
  23   2.0000      -6.417109      -174.6184
  24   2.0000      -6.415225      -174.5672
  25   2.0000      -5.714800      -155.5076
  26   2.0000      -5.711595      -155.4204
  27   2.0000      -5.707558      -155.3105
  28   2.0000      -5.704595      -155.2299
  29   2.0000      -5.704478      -155.2267
  30   2.0000      -5.696066      -154.9978
  31   2.0000      -5.654763      -153.8739
  32   2.0000      -5.646831      -153.6581
  33   2.0000      -5.646817      -153.6577
  34   2.0000      -5.645313      -153.6168
  35   2.0000      -5.638119      -153.4210
  36   2.0000      -5.637797      -153.4122
  37   2.0000      -4.640075      -126.2629
  38   2.0000      -4.639293      -126.2416
  39   2.0000      -4.637967      -126.2055
  40   2.0000      -4.636871      -126.1757
  41   2.0000      -4.636659      -126.1699
  42   2.0000      -4.635830      -126.1473
  43   2.0000      -0.983181       -26.7537
  44   2.0000      -0.976546       -26.5732
  45   2.0000      -0.939965       -25.5777
  46   2.0000      -0.934995       -25.4425
  47   2.0000      -0.758785       -20.6476
  48   2.0000      -0.716695       -19.5022
  49   2.0000      -0.707899       -19.2629
  50   2.0000      -0.688262       -18.7286
  51   2.0000      -0.686948       -18.6928
  52   2.0000      -0.669523       -18.2187
  53   2.0000      -0.646219       -17.5845
  54   2.0000      -0.633759       -17.2455
  55   2.0000      -0.589051       -16.0289
  56   2.0000      -0.582866       -15.8606
  57   2.0000      -0.570515       -15.5245
  58   2.0000      -0.568463       -15.4687
  59   2.0000      -0.560274       -15.2458
  60   2.0000      -0.502979       -13.6867
  61   2.0000      -0.495668       -13.4878
  62   2.0000      -0.471850       -12.8397
  63   2.0000      -0.469798       -12.7839
  64   2.0000      -0.451138       -12.2761
  65   2.0000      -0.445339       -12.1183
  66   2.0000      -0.437404       -11.9024
  67   2.0000      -0.432163       -11.7597
  68   2.0000      -0.430311       -11.7094
  69   2.0000      -0.411367       -11.1939
  70   2.0000      -0.402677       -10.9574
  71   2.0000      -0.394058       -10.7229
  72   2.0000      -0.391622       -10.6566
  73   2.0000      -0.385421       -10.4879
  74   2.0000      -0.381593       -10.3837
  75   2.0000      -0.364197        -9.9103
  76   2.0000      -0.356030        -9.6881
  77   2.0000      -0.351768        -9.5721
  78   2.0000      -0.351673        -9.5695
  79   2.0000      -0.345561        -9.4032
  80   2.0000      -0.344083        -9.3630
  81   2.0000      -0.340026        -9.2526
  82   2.0000      -0.338477        -9.2104
  83   2.0000      -0.336179        -9.1479
  84   2.0000      -0.332829        -9.0567
  85   2.0000      -0.316795        -8.6204
  86   2.0000      -0.312422        -8.5014
  87   2.0000      -0.303538        -8.2597
  88   2.0000      -0.293459        -7.9854
  89   2.0000      -0.282865        -7.6971
  90   2.0000      -0.272697        -7.4205
  91   2.0000      -0.271473        -7.3872
  92   2.0000      -0.266174        -7.2430
  93   2.0000      -0.259543        -7.0625
  94   2.0000      -0.255987        -6.9658
  95   2.0000      -0.238401        -6.4872
  96   2.0000      -0.213291        -5.8039
  97   2.0000      -0.203558        -5.5391
  98   2.0000      -0.197100        -5.3634
  99   2.0000      -0.181616        -4.9420
 100   2.0000      -0.180438        -4.9100
 101   0.0000      -0.038838        -1.0568
 102   0.0000      -0.027023        -0.7353
 103   0.0000      -0.010640        -0.2895
 104   0.0000       0.003925         0.1068
 105   0.0000       0.027247         0.7414

MULLIKEN ATOMIC CHARGES
-----------------------
   0 C :   -0.311063
   1 C :   -0.012574
   2 O :   -0.380520
   3 P :    0.594198
   4 S :   -0.297279
   5 O :   -0.338101
   6 C :   -0.012161
   7 C :   -0.286751
   8 S :   -0.131164
   9 C :   -0.334022
  10 S :   -0.081774
  11 P :    0.611218
  12 S :   -0.298914
  13 O :   -0.383916
  14 C :   -0.005601
  15 C :   -0.321347
  16 O :   -0.360124
  17 C :   -0.032789
  18 C :   -0.282089
  19 H :    0.128452
  20 H :    0.109750
  21 H :    0.128561
  22 H :    0.109681
  23 H :    0.113763
  24 H :    0.110074
  25 H :    0.093151
  26 H :    0.122671
  27 H :    0.106298
  28 H :    0.118618
  29 H :    0.189618
  30 H :    0.182805
  31 H :    0.100821
  32 H :    0.106919
  33 H :    0.110534
  34 H :    0.133837
  35 H :    0.114638
  36 H :    0.123311
  37 H :    0.105316
  38 H :    0.128243
  39 H :    0.110574
  40 H :    0.117139
Sum of atomic charges:   -0.0000000

LOEWDIN ATOMIC CHARGES
----------------------
   0 C :   -0.371554
   1 C :   -0.114722
   2 O :   -0.247129
   3 P :    0.562016
   4 S :   -0.299008
   5 O :   -0.223510
   6 C :   -0.117081
   7 C :   -0.358548
   8 S :    0.056885
   9 C :   -0.477070
  10 S :    0.080822
  11 P :    0.572608
  12 S :   -0.288932
  13 O :   -0.264618
  14 C :   -0.122602
  15 C :   -0.366605
  16 O :   -0.234400
  17 C :   -0.121570
  18 C :   -0.349537
  19 H :    0.130688
  20 H :    0.129287
  21 H :    0.122072
  22 H :    0.121340
  23 H :    0.107944
  24 H :    0.120051
  25 H :    0.099847
  26 H :    0.130044
  27 H :    0.127787
  28 H :    0.125250
  29 H :    0.121077
  30 H :    0.137703
  31 H :    0.116119
  32 H :    0.106818
  33 H :    0.129783
  34 H :    0.126850
  35 H :    0.121120
  36 H :    0.115751
  37 H :    0.105780
  38 H :    0.133565
  39 H :    0.130504
  40 H :    0.125176

  Mayer bond orders larger than 0.100000
B(  0-C ,  1-C ) :   1.1683 B(  0-C , 19-H ) :   0.9411 B(  0-C , 20-H ) :   0.9337
B(  0-C , 21-H ) :   0.9310 B(  1-C ,  2-O ) :   0.9138 B(  1-C , 22-H ) :   0.9333
B(  1-C , 23-H ) :   0.9267 B(  2-O ,  3-P ) :   1.0752 B(  3-P ,  4-S ) :   1.6709
B(  3-P ,  5-O ) :   1.1404 B(  3-P ,  8-S ) :   0.9363 B(  4-S ,  8-S ) :   0.1170
B(  5-O ,  6-C ) :   0.8979 B(  6-C ,  7-C ) :   1.1664 B(  6-C , 24-H ) :   0.9317
B(  6-C , 25-H ) :   0.9096 B(  7-C , 26-H ) :   0.9472 B(  7-C , 27-H ) :   0.9404
B(  7-C , 28-H ) :   0.9432 B(  8-S ,  9-C ) :   0.9920 B(  9-C , 10-S ) :   1.0147
B(  9-C , 29-H ) :   0.8524 B(  9-C , 30-H ) :   0.9124 B( 10-S , 11-P ) :   0.9532
B( 10-S , 12-S ) :   0.1098 B( 11-P , 12-S ) :   1.6233 B( 11-P , 13-O ) :   1.0668
B( 11-P , 16-O ) :   1.1198 B( 12-S , 29-H ) :   0.1146 B( 13-O , 14-C ) :   0.9245
B( 14-C , 15-C ) :   1.1592 B( 14-C , 31-H ) :   0.9350 B( 14-C , 32-H ) :   0.9109
B( 15-C , 33-H ) :   0.9386 B( 15-C , 34-H ) :   0.9367 B( 15-C , 35-H ) :   0.9436
B( 16-O , 17-C ) :   0.8978 B( 17-C , 18-C ) :   1.1681 B( 17-C , 36-H ) :   0.9185
B( 17-C , 37-H ) :   0.9158 B( 18-C , 38-H ) :   0.9479 B( 18-C , 39-H ) :   0.9403
B( 18-C , 40-H ) :   0.9484

Dispersion correction           -0.066644526
FINAL SINGLE POINT ENERGY     -2929.508155490174

DIPOLE MOMENT
-------------

Method             : SCF
Type of density    : Electron Density
Multiplicity       :   1
Irrep              :   0
Energy             : -2929.6263128512223375 Eh
Relativity type    :
Basis              : AO
                                X                 Y                 Z
Electronic contribution:      2.893454076      -6.846202338       2.561506985
Nuclear contribution   :     -2.749704128       6.000032038      -2.624898873
                        -----------------------------------------
Total Dipole Moment    :      0.143749948      -0.846170301      -0.063391888
                        -----------------------------------------
Magnitude (a.u.)       :      0.860631603
Magnitude (Debye)      :      2.187551688

Rotational constants in cm-1:             0.012838             0.005146             0.004649
Rotational constants in MHz :           384.862769           154.268186           139.381212

                             ****ORCA TERMINATED NORMALLY****
TOTAL RUN TIME: 0 days 0 hours 0 minutes 20 seconds 843 msec
