                         Program Version 6.0.0  -   RELEASE  -
|  1> ! pbe def2-sv(p) def2/J RI DEFGRID1 loosescf d4 GCP(DFT/SV(P)) printgap
|  2> %output
|  3>     printlevel normal
|  4> end
|  5> * xyz 0 1
|  6> C 2.7027641661 3.0223623077 -0.053919355
|  7> C 3.0384897644 1.6170899885 -0.515383964
|  8> O 3.160153719 0.7197742143 0.6023249825
|  9> P 1.9473498773 -0.1143757974 1.1981782571
| 10> S 0.4534641566 0.8882592235 1.9689292044
| 11> O 2.6363705146 -0.9597309144 2.3348700854
| 12> C 3.5443461799 -2.075651881 2.1669218663
| 13> C 4.7568728083 -1.7400275353 1.3262033449
| 14> S 1.4725791806 -1.4723084971 -0.3808337888
| 15> C -0.2207148274 -1.901248006 0.1216436489
| 16> S -1.3811681951 -1.9052736438 -1.2763044278
| 17> P -2.082474431 0.079867453 -1.1775651752
| 18> S -3.4876586272 0.5716188048 -2.4481116364
| 19> O -0.7038036479 0.8572138284 -1.3260608302
| 20> C -0.6906280763 2.2461980647 -1.7212403387
| 21> C -1.2987453614 3.1439504186 -0.6647779784
| 22> O -2.4442938042 0.3273408873 0.3552432389
| 23> C -3.7745718834 0.1427280016 0.8609203829
| 24> C -4.1521407496 -1.3232556768 0.9395368197
| 25> H 2.6738275202 3.6885196967 -0.9104578815
| 26> H 1.7361879917 3.0370564329 0.4443721333
| 27> H 3.4568642489 3.3721632058 0.6457095586
| 28> H 4.0169064256 1.5842491809 -0.9993395794
| 29> H 2.2818747949 1.2292731263 -1.2037689616
| 30> H 3.8218614642 -2.3220573549 3.1929567558
| 31> H 2.9859588085 -2.9043672983 1.724165294
| 32> H 4.4655711385 -1.5720391887 0.2915850206
| 33> H 5.2441259087 -0.8464348909 1.707028426
| 34> H 5.4528319708 -2.5725438376 1.3649681757
| 35> H -0.5527488343 -1.1761929376 0.8693581853
| 36> H -0.2227762698 -2.9163104535 0.5091457966
| 37> H 0.3655079939 2.4661609653 -1.8800636765
| 38> H -1.2356053748 2.3368621825 -2.6663595084
| 39> H -0.8660552155 2.9249875749 0.3092925615
| 40> H -1.1132100299 4.1818671155 -0.9217979934
| 41> H -2.3737050448 2.9780430256 -0.610286003
| 42> H -3.7480360693 0.6088156298 1.8470387519
| 43> H -4.4701188318 0.6823710808 0.2097351067
| 44> H -3.4332236089 -1.8695748968 1.5449522831
| 45> H -5.1377562428 -1.4155537248 1.3842769818
| 46> H -4.1740710759 -1.7549992167 -0.0609611976
| 47> *
| 48>
| 49>                          ****END OF INPUT****

CARTESIAN COORDINATES (ANGSTROEM)
---------------------------------
  C      2.702764    3.022362   -0.053919
  C      3.038490    1.617090   -0.515384
  O      3.160154    0.719774    0.602325
  P      1.947350   -0.114376    1.198178
  S      0.453464    0.888259    1.968929
  O      2.636371   -0.959731    2.334870
  C      3.544346   -2.075652    2.166922
  C      4.756873   -1.740028    1.326203
  S      1.472579   -1.472308   -0.380834
  C     -0.220715   -1.901248    0.121644
  S     -1.381168   -1.905274   -1.276304
  P     -2.082474    0.079867   -1.177565
  S     -3.487659    0.571619   -2.448112
  O     -0.703804    0.857214   -1.326061
  C     -0.690628    2.246198   -1.721240
  C     -1.298745    3.143950   -0.664778
  O     -2.444294    0.327341    0.355243
  C     -3.774572    0.142728    0.860920
  C     -4.152141   -1.323256    0.939537
  H      2.673828    3.688520   -0.910458
  H      1.736188    3.037056    0.444372
  H      3.456864    3.372163    0.645710
  H      4.016906    1.584249   -0.999340
  H      2.281875    1.229273   -1.203769
  H      3.821861   -2.322057    3.192957
  H      2.985959   -2.904367    1.724165
  H      4.465571   -1.572039    0.291585
  H      5.244126   -0.846435    1.707028
  H      5.452832   -2.572544    1.364968
  H     -0.552749   -1.176193    0.869358
  H     -0.222776   -2.916310    0.509146
  H      0.365508    2.466161   -1.880064
  H     -1.235605    2.336862   -2.666360
  H     -0.866055    2.924988    0.309293
  H     -1.113210    4.181867   -0.921798
  H     -2.373705    2.978043   -0.610286
  H     -3.748036    0.608816    1.847039
  H     -4.470119    0.682371    0.209735
  H     -3.433224   -1.869575    1.544952
  H     -5.137756   -1.415554    1.384277
  H     -4.174071   -1.754999   -0.060961

 Total Charge           Charge          ....    0
 Multiplicity           Mult            ....    1
 Number of Electrons    NEL             ....  202
 Basis Dimension        Dim             ....  334

ORBITAL ENERGIES
----------------

  NO   OCC          E(Eh)            E(eV)
   0   2.0000     -88.046498     -2395.8670
   1   2.0000     -88.043920     -2395.7969
   2   2.0000     -87.986932     -2394.2461
   3   2.0000     -87.986537     -2394.2354
   4   2.0000     -76.429433     -2079.7506
   5   2.0000     -76.423690     -2079.5943
   6   2.0000     -18.799402      -511.5577
   7   2.0000     -18.793147      -511.3875
   8   2.0000     -18.789121      -511.2780
   9   2.0000     -18.785484      -511.1790
  10   2.0000      -9.960943      -271.0510
  11   2.0000      -9.960527      -271.0397
  12   2.0000      -9.957813      -270.9659
  13   2.0000      -9.948929      -270.7241
  14   2.0000      -9.948137      -270.7026
  15   2.0000      -9.892058      -269.1766
  16   2.0000      -9.887251      -269.0458
  17   2.0000      -9.882707      -268.9221
  18   2.0000      -9.875645      -268.7300
  19   2.0000      -7.691220      -209.2887
  20   2.0000      -7.689305      -209.2366
  21   2.0000      -7.632077      -207.6794
  22   2.0000      -7.631640      -207.6675
  23   2.0000      -6.426870      -174.8840
  24   2.0000      -6.421622      -174.7412
  25   2.0000      -5.718934      -155.6201
  26   2.0000      -5.717546      -155.5823
  27   2.0000      -5.715712      -155.5324
  28   2.0000      -5.713556      -155.4738
  29   2.0000      -5.708463      -155.3352
  30   2.0000      -5.706113      -155.2712
  31   2.0000      -5.661007      -154.0438
  32   2.0000      -5.660583      -154.0323
  33   2.0000      -5.652756      -153.8193
  34   2.0000      -5.652291      -153.8067
  35   2.0000      -5.652172      -153.8034
  36   2.0000      -5.651665      -153.7896
  37   2.0000      -4.649597      -126.5220
  38   2.0000      -4.648852      -126.5017
  39   2.0000      -4.647008      -126.4515
  40   2.0000      -4.643887      -126.3666
  41   2.0000      -4.643600      -126.3588
  42   2.0000      -4.642137      -126.3190
  43   2.0000      -0.991631       -26.9836
  44   2.0000      -0.982729       -26.7414
  45   2.0000      -0.949937       -25.8491
  46   2.0000      -0.942297       -25.6412
  47   2.0000      -0.763277       -20.7698
  48   2.0000      -0.724332       -19.7101
  49   2.0000      -0.709617       -19.3097
  50   2.0000      -0.696091       -18.9416
  51   2.0000      -0.684198       -18.6180
  52   2.0000      -0.675665       -18.3858
  53   2.0000      -0.654546       -17.8111
  54   2.0000      -0.639861       -17.4115
  55   2.0000      -0.597259       -16.2522
  56   2.0000      -0.594710       -16.1829
  57   2.0000      -0.579052       -15.7568
  58   2.0000      -0.569599       -15.4996
  59   2.0000      -0.565572       -15.3900
  60   2.0000      -0.504822       -13.7369
  61   2.0000      -0.489989       -13.3333
  62   2.0000      -0.480782       -13.0827
  63   2.0000      -0.469739       -12.7822
  64   2.0000      -0.456283       -12.4161
  65   2.0000      -0.450465       -12.2578
  66   2.0000      -0.444808       -12.1038
  67   2.0000      -0.437411       -11.9025
  68   2.0000      -0.433902       -11.8071
  69   2.0000      -0.414138       -11.2693
  70   2.0000      -0.411189       -11.1890
  71   2.0000      -0.404181       -10.9983
  72   2.0000      -0.398587       -10.8461
  73   2.0000      -0.392541       -10.6816
  74   2.0000      -0.389054       -10.5867
  75   2.0000      -0.368898       -10.0382
  76   2.0000      -0.363009        -9.8780
  77   2.0000      -0.360953        -9.8220
  78   2.0000      -0.355835        -9.6828
  79   2.0000      -0.353785        -9.6270
  80   2.0000      -0.349348        -9.5062
  81   2.0000      -0.342966        -9.3326
  82   2.0000      -0.340357        -9.2616
  83   2.0000      -0.338838        -9.2202
  84   2.0000      -0.327362        -8.9080
  85   2.0000      -0.322546        -8.7769
  86   2.0000      -0.316284        -8.6065
  87   2.0000      -0.299043        -8.1374
  88   2.0000      -0.293286        -7.9807
  89   2.0000      -0.290257        -7.8983
  90   2.0000      -0.286337        -7.7916
  91   2.0000      -0.277517        -7.5516
  92   2.0000      -0.269572        -7.3354
  93   2.0000      -0.267086        -7.2678
  94   2.0000      -0.262682        -7.1479
  95   2.0000      -0.234232        -6.3738
  96   2.0000      -0.220300        -5.9947
  97   2.0000      -0.208311        -5.6684
  98   2.0000      -0.206266        -5.6128
  99   2.0000      -0.202477        -5.5097
 100   2.0000      -0.199294        -5.4231
 101   0.0000      -0.041104        -1.1185
 102   0.0000      -0.030290        -0.8242
 103   0.0000      -0.021386        -0.5819
 104   0.0000       0.005789         0.1575
 105   0.0000       0.014793         0.4025

MULLIKEN ATOMIC CHARGES
-----------------------
   0 C :   -0.305818
   1 C :   -0.032174
   2 O :   -0.372560
   3 P :    0.594059
   4 S :   -0.296214
   5 O :   -0.359153
   6 C :    0.001260
   7 C :   -0.307883
   8 S :   -0.101020
   9 C :   -0.368677
  10 S :   -0.068121
  11 P :    0.613981
  12 S :   -0.321687
  13 O :   -0.371915
  14 C :   -0.017555
  15 C :   -0.327080
  16 O :   -0.366356
  17 C :   -0.007188
  18 C :   -0.314130
  19 H :    0.111173
  20 H :    0.140316
  21 H :    0.117116
  22 H :    0.107542
  23 H :    0.124829
  24 H :    0.111747
  25 H :    0.104470
  26 H :    0.117404
  27 H :    0.124622
  28 H :    0.114873
  29 H :    0.209420
  30 H :    0.181904
  31 H :    0.102726
  32 H :    0.113238
  33 H :    0.147802
  34 H :    0.106065
  35 H :    0.118295
  36 H :    0.108513
  37 H :    0.111129
  38 H :    0.115584
  39 H :    0.112855
  40 H :    0.126611
Sum of atomic charges:    0.0000000

LOEWDIN ATOMIC CHARGES
----------------------
   0 C :   -0.365746
   1 C :   -0.116930
   2 O :   -0.238705
   3 P :    0.565158
   4 S :   -0.287867
   5 O :   -0.238051
   6 C :   -0.112935
   7 C :   -0.366062
   8 S :    0.067020
   9 C :   -0.483081
  10 S :    0.095021
  11 P :    0.573394
  12 S :   -0.318327
  13 O :   -0.245443
  14 C :   -0.117016
  15 C :   -0.372406
  16 O :   -0.234786
  17 C :   -0.121615
  18 C :   -0.367179
  19 H :    0.128046
  20 H :    0.126782
  21 H :    0.128770
  22 H :    0.119171
  23 H :    0.109366
  24 H :    0.123151
  25 H :    0.108016
  26 H :    0.118677
  27 H :    0.129837
  28 H :    0.131869
  29 H :    0.125089
  30 H :    0.134677
  31 H :    0.111405
  32 H :    0.110861
  33 H :    0.125325
  34 H :    0.127829
  35 H :    0.121300
  36 H :    0.120293
  37 H :    0.108829
  38 H :    0.123692
  39 H :    0.131006
  40 H :    0.121565

  Mayer bond orders larger than 0.100000
B(  0-C ,  1-C ) :   1.1696 B(  0-C , 19-H ) :   0.9354 B(  0-C , 20-H ) :   0.9278
B(  0-C , 21-H ) :   0.9435 B(  1-C ,  2-O ) :   0.9061 B(  1-C , 22-H ) :   0.9332
B(  1-C , 23-H ) :   0.9102 B(  2-O ,  3-P ) :   1.0937 B(  3-P ,  4-S ) :   1.6418
B(  3-P ,  5-O ) :   1.1371 B(  3-P ,  8-S ) :   0.9486 B(  4-S ,  8-S ) :   0.1174
B(  4-S , 29-H ) :   0.1001 B(  5-O ,  6-C ) :   0.9041 B(  6-C ,  7-C ) :   1.1710
B(  6-C , 24-H ) :   0.9344 B(  6-C , 25-H ) :   0.9214 B(  7-C , 26-H ) :   0.9402
B(  7-C , 27-H ) :   0.9435 B(  7-C , 28-H ) :   0.9356 B(  8-S ,  9-C ) :   0.9829
B(  9-C , 10-S ) :   0.9961 B(  9-C , 29-H ) :   0.8416 B(  9-C , 30-H ) :   0.9104
B( 10-S , 11-P ) :   0.9756 B( 11-P , 12-S ) :   1.6348 B( 11-P , 13-O ) :   1.1154
B( 11-P , 16-O ) :   1.0782 B( 13-O , 14-C ) :   0.9112 B( 14-C , 15-C ) :   1.1633
B( 14-C , 31-H ) :   0.9217 B( 14-C , 32-H ) :   0.9183 B( 15-C , 33-H ) :   0.9270
B( 15-C , 34-H ) :   0.9373 B( 15-C , 35-H ) :   0.9337 B( 16-O , 17-C ) :   0.9097
B( 17-C , 18-C ) :   1.1639 B( 17-C , 36-H ) :   0.9322 B( 17-C , 37-H ) :   0.9126
B( 18-C , 38-H ) :   0.9473 B( 18-C , 39-H ) :   0.9393 B( 18-C , 40-H ) :   0.9358

Dispersion correction           -0.066746090
FINAL SINGLE POINT ENERGY     -2929.516611069429

DIPOLE MOMENT
-------------

Method             : SCF
Type of density    : Electron Density
Multiplicity       :   1
Irrep              :   0
Energy             : -2929.6372555184739213 Eh
Relativity type    :
Basis              : AO
                                X                 Y                 Z
Electronic contribution:     -7.503801818      -9.483060474      -5.933002072
Nuclear contribution   :      8.852130298       9.238405763       6.444185855
                        -----------------------------------------
Total Dipole Moment    :      1.348328480      -0.244654711       0.511183783
                        -----------------------------------------
Magnitude (a.u.)       :      1.462584862
Magnitude (Debye)      :      3.717595276

Rotational constants in cm-1:             0.012526             0.005315             0.004696
Rotational constants in MHz :           375.531361           159.338264           140.769181

                             ****ORCA TERMINATED NORMALLY****
TOTAL RUN TIME: 0 days 0 hours 0 minutes 21 seconds 882 msec
