                         Program Version 6.0.0  -   RELEASE  -
|  1> ! pbe def2-sv(p) def2/J RI DEFGRID1 loosescf d4 GCP(DFT/SV(P)) printgap
|  2> %output
|  3>     printlevel normal
|  4> end
|  5> * xyz 0 1
|  6> C 1.219808856 -0.3545487515 -3.0872540856
|  7> C 2.2968916322 0.3568550508 -2.2926690333
|  8> O 2.7995777748 -0.4985323494 -1.2502892443
|  9> P 2.4696738113 -0.3418511018 0.2829196772
| 10> S 2.5823800827 1.4556441101 1.0677602539
| 11> O 3.5857684219 -1.3529983953 0.7669857872
| 12> C 3.7825305199 -1.6021780997 2.1737198391
| 13> C 5.1477918532 -2.236442368 2.3464659271
| 14> S 0.6521608212 -1.3931850567 0.6482315368
| 15> C -0.1479626545 -0.2592666458 1.8406101253
| 16> S -1.933732349 -0.2075351641 1.618845175
| 17> P -1.9608433646 0.5618686648 -0.3704867516
| 18> S -0.6032123713 1.9104264422 -0.780669418
| 19> O -3.4681455857 1.0349323946 -0.5227608493
| 20> C -3.9594580666 2.1986776562 0.1742645169
| 21> C -5.3032599094 2.5627300821 -0.4233272593
| 22> O -1.8808282633 -0.6753578935 -1.3383916769
| 23> C -2.7954379499 -1.8003801489 -1.2755862205
| 24> C -3.9010849452 -1.6436032223 -2.2983712011
| 25> H 0.9437839619 0.260666786 -3.9376542409
| 26> H 1.5897887582 -1.3147204795 -3.4350778639
| 27> H 0.3359229297 -0.5154756357 -2.4731535379
| 28> H 1.9200412028 1.2886098447 -1.856983689
| 29> H 3.1652241191 0.5781628334 -2.9165851346
| 30> H 3.7129459586 -0.650407396 2.7127043157
| 31> H 2.987591419 -2.2711805957 2.5167770173
| 32> H 5.9196023954 -1.5586655546 1.9934330705
| 33> H 5.3111224576 -2.4517457363 3.39726267
| 34> H 5.2014786191 -3.1579587983 1.7744315802
| 35> H 0.2769979762 0.7393006763 1.7009496246
| 36> H 0.0198976775 -0.6221028441 2.8514745174
| 37> H -4.0466398583 1.9499813764 1.235311424
| 38> H -3.232610713 3.008791681 0.0547489542
| 39> H -5.6943256017 3.4361910245 0.0878390542
| 40> H -5.1936699083 2.7862354785 -1.4808057034
| 41> H -5.9985494946 1.7367506631 -0.3058451219
| 42> H -2.1706672912 -2.6701379278 -1.4866481014
| 43> H -3.1976593823 -1.8731452717 -0.2614933233
| 44> H -4.5367238467 -2.5230142414 -2.2697257027
| 45> H -4.496110082 -0.7620123064 -2.0760653444
| 46> H -3.4774587271 -1.5387996467 -3.2933026968
| 47> *
| 48>
| 49>                          ****END OF INPUT****

CARTESIAN COORDINATES (ANGSTROEM)
---------------------------------
  C      1.219809   -0.354549   -3.087254
  C      2.296892    0.356855   -2.292669
  O      2.799578   -0.498532   -1.250289
  P      2.469674   -0.341851    0.282920
  S      2.582380    1.455644    1.067760
  O      3.585768   -1.352998    0.766986
  C      3.782531   -1.602178    2.173720
  C      5.147792   -2.236442    2.346466
  S      0.652161   -1.393185    0.648232
  C     -0.147963   -0.259267    1.840610
  S     -1.933732   -0.207535    1.618845
  P     -1.960843    0.561869   -0.370487
  S     -0.603212    1.910426   -0.780669
  O     -3.468146    1.034932   -0.522761
  C     -3.959458    2.198678    0.174265
  C     -5.303260    2.562730   -0.423327
  O     -1.880828   -0.675358   -1.338392
  C     -2.795438   -1.800380   -1.275586
  C     -3.901085   -1.643603   -2.298371
  H      0.943784    0.260667   -3.937654
  H      1.589789   -1.314720   -3.435078
  H      0.335923   -0.515476   -2.473154
  H      1.920041    1.288610   -1.856984
  H      3.165224    0.578163   -2.916585
  H      3.712946   -0.650407    2.712704
  H      2.987591   -2.271181    2.516777
  H      5.919602   -1.558666    1.993433
  H      5.311122   -2.451746    3.397263
  H      5.201479   -3.157959    1.774432
  H      0.276998    0.739301    1.700950
  H      0.019898   -0.622103    2.851475
  H     -4.046640    1.949981    1.235311
  H     -3.232611    3.008792    0.054749
  H     -5.694326    3.436191    0.087839
  H     -5.193670    2.786235   -1.480806
  H     -5.998549    1.736751   -0.305845
  H     -2.170667   -2.670138   -1.486648
  H     -3.197659   -1.873145   -0.261493
  H     -4.536724   -2.523014   -2.269726
  H     -4.496110   -0.762012   -2.076065
  H     -3.477459   -1.538800   -3.293303

 Total Charge           Charge          ....    0
 Multiplicity           Mult            ....    1
 Number of Electrons    NEL             ....  202
 Basis Dimension        Dim             ....  334

ORBITAL ENERGIES
----------------

  NO   OCC          E(Eh)            E(eV)
   0   2.0000     -88.047231     -2395.8870
   1   2.0000     -88.038963     -2395.6620
   2   2.0000     -87.984687     -2394.1850
   3   2.0000     -87.981396     -2394.0955
   4   2.0000     -76.428827     -2079.7341
   5   2.0000     -76.420181     -2079.4988
   6   2.0000     -18.800158      -511.5783
   7   2.0000     -18.798029      -511.5204
   8   2.0000     -18.784205      -511.1442
   9   2.0000     -18.782162      -511.0886
  10   2.0000      -9.959428      -271.0098
  11   2.0000      -9.958422      -270.9824
  12   2.0000      -9.952363      -270.8176
  13   2.0000      -9.947749      -270.6920
  14   2.0000      -9.939558      -270.4691
  15   2.0000      -9.893591      -269.2183
  16   2.0000      -9.889845      -269.1164
  17   2.0000      -9.883440      -268.9421
  18   2.0000      -9.868008      -268.5221
  19   2.0000      -7.692319      -209.3186
  20   2.0000      -7.683540      -209.0797
  21   2.0000      -7.629592      -207.6118
  22   2.0000      -7.626408      -207.5251
  23   2.0000      -6.426291      -174.8683
  24   2.0000      -6.417621      -174.6324
  25   2.0000      -5.720138      -155.6529
  26   2.0000      -5.716635      -155.5575
  27   2.0000      -5.711415      -155.4155
  28   2.0000      -5.709576      -155.3655
  29   2.0000      -5.708056      -155.3241
  30   2.0000      -5.700612      -155.1215
  31   2.0000      -5.658600      -153.9783
  32   2.0000      -5.655224      -153.8865
  33   2.0000      -5.649982      -153.7438
  34   2.0000      -5.649867      -153.7407
  35   2.0000      -5.647011      -153.6630
  36   2.0000      -5.646679      -153.6539
  37   2.0000      -4.649135      -126.5094
  38   2.0000      -4.648195      -126.4838
  39   2.0000      -4.646341      -126.4334
  40   2.0000      -4.639874      -126.2574
  41   2.0000      -4.639556      -126.2487
  42   2.0000      -4.638154      -126.2106
  43   2.0000      -0.994862       -27.0716
  44   2.0000      -0.982640       -26.7390
  45   2.0000      -0.951998       -25.9052
  46   2.0000      -0.937320       -25.5058
  47   2.0000      -0.761545       -20.7227
  48   2.0000      -0.722422       -19.6581
  49   2.0000      -0.711017       -19.3477
  50   2.0000      -0.697389       -18.9769
  51   2.0000      -0.677458       -18.4346
  52   2.0000      -0.672921       -18.3111
  53   2.0000      -0.648613       -17.6497
  54   2.0000      -0.630442       -17.1552
  55   2.0000      -0.592937       -16.1346
  56   2.0000      -0.590059       -16.0563
  57   2.0000      -0.574666       -15.6375
  58   2.0000      -0.566294       -15.4097
  59   2.0000      -0.551935       -15.0189
  60   2.0000      -0.512453       -13.9446
  61   2.0000      -0.499003       -13.5786
  62   2.0000      -0.487044       -13.2531
  63   2.0000      -0.468313       -12.7434
  64   2.0000      -0.450934       -12.2705
  65   2.0000      -0.445579       -12.1248
  66   2.0000      -0.444750       -12.1023
  67   2.0000      -0.434366       -11.8197
  68   2.0000      -0.432754       -11.7758
  69   2.0000      -0.413065       -11.2401
  70   2.0000      -0.408667       -11.1204
  71   2.0000      -0.393919       -10.7191
  72   2.0000      -0.391491       -10.6530
  73   2.0000      -0.386237       -10.5101
  74   2.0000      -0.373039       -10.1509
  75   2.0000      -0.370103       -10.0710
  76   2.0000      -0.364601        -9.9213
  77   2.0000      -0.359264        -9.7761
  78   2.0000      -0.356816        -9.7095
  79   2.0000      -0.352624        -9.5954
  80   2.0000      -0.349034        -9.4977
  81   2.0000      -0.344412        -9.3719
  82   2.0000      -0.338235        -9.2039
  83   2.0000      -0.334354        -9.0982
  84   2.0000      -0.323399        -8.8001
  85   2.0000      -0.321372        -8.7450
  86   2.0000      -0.309168        -8.4129
  87   2.0000      -0.305219        -8.3054
  88   2.0000      -0.298613        -8.1257
  89   2.0000      -0.296034        -8.0555
  90   2.0000      -0.280458        -7.6317
  91   2.0000      -0.279978        -7.6186
  92   2.0000      -0.265531        -7.2255
  93   2.0000      -0.261167        -7.1067
  94   2.0000      -0.253530        -6.8989
  95   2.0000      -0.236212        -6.4277
  96   2.0000      -0.223536        -6.0827
  97   2.0000      -0.209380        -5.6975
  98   2.0000      -0.202444        -5.5088
  99   2.0000      -0.197186        -5.3657
 100   2.0000      -0.187734        -5.1085
 101   0.0000      -0.043347        -1.1795
 102   0.0000      -0.032062        -0.8724
 103   0.0000      -0.009334        -0.2540
 104   0.0000       0.011394         0.3101
 105   0.0000       0.016773         0.4564

MULLIKEN ATOMIC CHARGES
-----------------------
   0 C :   -0.311729
   1 C :   -0.009069
   2 O :   -0.355836
   3 P :    0.606584
   4 S :   -0.315305
   5 O :   -0.360368
   6 C :   -0.009774
   7 C :   -0.276336
   8 S :   -0.128274
   9 C :   -0.350039
  10 S :   -0.114618
  11 P :    0.598578
  12 S :   -0.299693
  13 O :   -0.381343
  14 C :   -0.013752
  15 C :   -0.283573
  16 O :   -0.345531
  17 C :   -0.008128
  18 C :   -0.291970
  19 H :    0.104009
  20 H :    0.103352
  21 H :    0.143225
  22 H :    0.123966
  23 H :    0.101204
  24 H :    0.099145
  25 H :    0.094552
  26 H :    0.121302
  27 H :    0.108198
  28 H :    0.116944
  29 H :    0.216737
  30 H :    0.176223
  31 H :    0.106076
  32 H :    0.110604
  33 H :    0.115567
  34 H :    0.123770
  35 H :    0.116106
  36 H :    0.113098
  37 H :    0.101726
  38 H :    0.110952
  39 H :    0.122768
  40 H :    0.120650
Sum of atomic charges:   -0.0000000

LOEWDIN ATOMIC CHARGES
----------------------
   0 C :   -0.366994
   1 C :   -0.114794
   2 O :   -0.228853
   3 P :    0.567514
   4 S :   -0.300761
   5 O :   -0.241568
   6 C :   -0.123641
   7 C :   -0.349325
   8 S :    0.053394
   9 C :   -0.481863
  10 S :    0.065201
  11 P :    0.563671
  12 S :   -0.289794
  13 O :   -0.249139
  14 C :   -0.119989
  15 C :   -0.350516
  16 O :   -0.225456
  17 C :   -0.114290
  18 C :   -0.359267
  19 H :    0.128552
  20 H :    0.120507
  21 H :    0.122051
  22 H :    0.107089
  23 H :    0.116056
  24 H :    0.104870
  25 H :    0.104556
  26 H :    0.129498
  27 H :    0.128842
  28 H :    0.127281
  29 H :    0.123844
  30 H :    0.131956
  31 H :    0.109185
  32 H :    0.112493
  33 H :    0.132723
  34 H :    0.130090
  35 H :    0.125729
  36 H :    0.121917
  37 H :    0.103862
  38 H :    0.130163
  39 H :    0.126035
  40 H :    0.129168

  Mayer bond orders larger than 0.100000
B(  0-C ,  1-C ) :   1.1708 B(  0-C , 19-H ) :   0.9403 B(  0-C , 20-H ) :   0.9460
B(  0-C , 21-H ) :   0.9251 B(  1-C ,  2-O ) :   0.8975 B(  1-C , 22-H ) :   0.9033
B(  1-C , 23-H ) :   0.9344 B(  2-O ,  3-P ) :   1.1573 B(  3-P ,  4-S ) :   1.6268
B(  3-P ,  5-O ) :   1.1130 B(  3-P ,  8-S ) :   0.9300 B(  4-S ,  8-S ) :   0.1295
B(  5-O ,  6-C ) :   0.9171 B(  6-C ,  7-C ) :   1.1633 B(  6-C , 24-H ) :   0.9078
B(  6-C , 25-H ) :   0.9235 B(  7-C , 26-H ) :   0.9513 B(  7-C , 27-H ) :   0.9423
B(  7-C , 28-H ) :   0.9508 B(  8-S ,  9-C ) :   0.9901 B(  9-C , 10-S ) :   1.0032
B(  9-C , 29-H ) :   0.8408 B(  9-C , 30-H ) :   0.9107 B( 10-S , 11-P ) :   0.9442
B( 10-S , 12-S ) :   0.1085 B( 11-P , 12-S ) :   1.6642 B( 11-P , 13-O ) :   1.0810
B( 11-P , 16-O ) :   1.1250 B( 13-O , 14-C ) :   0.9017 B( 14-C , 15-C ) :   1.1598
B( 14-C , 31-H ) :   0.9272 B( 14-C , 32-H ) :   0.9120 B( 15-C , 33-H ) :   0.9416
B( 15-C , 34-H ) :   0.9507 B( 15-C , 35-H ) :   0.9506 B( 16-O , 17-C ) :   0.8849
B( 17-C , 18-C ) :   1.1653 B( 17-C , 36-H ) :   0.9343 B( 17-C , 37-H ) :   0.9115
B( 18-C , 38-H ) :   0.9398 B( 18-C , 39-H ) :   0.9415 B( 18-C , 40-H ) :   0.9472

Dispersion correction           -0.063953229
FINAL SINGLE POINT ENERGY     -2929.522825740870

DIPOLE MOMENT
-------------

Method             : SCF
Type of density    : Electron Density
Multiplicity       :   1
Irrep              :   0
Energy             : -2929.6427450962655712 Eh
Relativity type    :
Basis              : AO
                                X                 Y                 Z
Electronic contribution:      9.010440042       5.079595398       7.242136864
Nuclear contribution   :    -10.460415091      -6.015783380      -7.037066264
                        -----------------------------------------
Total Dipole Moment    :     -1.449975050      -0.936187982       0.205070601
                        -----------------------------------------
Magnitude (a.u.)       :      1.738082143
Magnitude (Debye)      :      4.417853714

Rotational constants in cm-1:             0.013504             0.004489             0.004388
Rotational constants in MHz :           404.827764           134.563749           131.558350

                             ****ORCA TERMINATED NORMALLY****
TOTAL RUN TIME: 0 days 0 hours 0 minutes 20 seconds 745 msec
