                         Program Version 6.0.0  -   RELEASE  -
|  1> ! pbe def2-sv(p) def2/J RI DEFGRID1 loosescf d4 GCP(DFT/SV(P)) printgap
|  2> %output
|  3>     printlevel normal
|  4> end
|  5> * xyz 0 1
|  6> C 2.349401363 -0.6989584041 -2.971137218
|  7> C 3.4705235098 -0.3470113507 -2.0144954114
|  8> O 3.259993352 -0.9221455322 -0.716085319
|  9> P 2.1720634047 -0.377636983 0.3065701659
| 10> S 2.0583009161 1.5855846341 0.3764836516
| 11> O 2.5901389289 -1.0690273393 1.6692370738
| 12> C 3.4797314093 -0.4326842628 2.6093202271
| 13> C 4.8997863277 -0.3811773538 2.0870339453
| 14> S 0.5058144227 -1.6050066016 -0.1158173844
| 15> C -0.4751218481 -1.329881706 1.3861735901
| 16> S -1.0647851247 0.3794832642 1.5999721723
| 17> P -1.9964624186 0.6587609552 -0.2909301016
| 18> S -0.8888411282 1.1811743337 -1.8168463242
| 19> O -3.0621426832 1.7921664707 0.0001152849
| 20> C -4.3721670085 1.6066997946 0.5920081287
| 21> C -4.3263241143 1.0139089354 1.9839781092
| 22> O -2.7996562784 -0.7096556268 -0.4471682906
| 23> C -2.8185993216 -1.4734276979 -1.6693379472
| 24> C -3.8780775133 -0.9440316367 -2.6143210529
| 25> H 2.1894166456 -1.7740876369 -2.9845104525
| 26> H 1.4252050129 -0.2081290204 -2.6639656895
| 27> H 2.6044128782 -0.357588881 -3.969107107
| 28> H 3.5579223336 0.7395695141 -1.9066713177
| 29> H 4.423741975 -0.7679020472 -2.3377058835
| 30> H 3.1055143175 0.5761250868 2.8120374726
| 31> H 3.3993503291 -1.0494732289 3.5053604791
| 32> H 5.227744699 -1.3745721212 1.7928847449
| 33> H 4.9496577203 0.2770746851 1.2206995866
| 34> H 5.5552670171 0.0042270149 2.8615881603
| 35> H 0.1253622875 -1.554475439 2.2643909683
| 36> H -1.327696356 -2.0004424833 1.3111665175
| 37> H -4.7811442577 2.6183413795 0.5996998694
| 38> H -4.9585340763 0.9758674213 -0.0793800109
| 39> H -3.6603287589 1.5909499652 2.6211505006
| 40> H -5.3271837324 1.031344765 2.4045279919
| 41> H -3.9738983268 -0.0141671785 1.9473630963
| 42> H -1.8289461173 -1.4269564451 -2.132825948
| 43> H -3.030830846 -2.4942782806 -1.3496934869
| 44> H -3.8869612716 -1.5464211532 -3.5169696792
| 45> H -4.859082229 -0.9814742639 -2.1479552465
| 46> H -3.6478079065 0.0870813772 -2.8809495693
| 47> *
| 48>
| 49>                          ****END OF INPUT****

CARTESIAN COORDINATES (ANGSTROEM)
---------------------------------
  C      2.349401   -0.698958   -2.971137
  C      3.470524   -0.347011   -2.014495
  O      3.259993   -0.922146   -0.716085
  P      2.172063   -0.377637    0.306570
  S      2.058301    1.585585    0.376484
  O      2.590139   -1.069027    1.669237
  C      3.479731   -0.432684    2.609320
  C      4.899786   -0.381177    2.087034
  S      0.505814   -1.605007   -0.115817
  C     -0.475122   -1.329882    1.386174
  S     -1.064785    0.379483    1.599972
  P     -1.996462    0.658761   -0.290930
  S     -0.888841    1.181174   -1.816846
  O     -3.062143    1.792166    0.000115
  C     -4.372167    1.606700    0.592008
  C     -4.326324    1.013909    1.983978
  O     -2.799656   -0.709656   -0.447168
  C     -2.818599   -1.473428   -1.669338
  C     -3.878078   -0.944032   -2.614321
  H      2.189417   -1.774088   -2.984510
  H      1.425205   -0.208129   -2.663966
  H      2.604413   -0.357589   -3.969107
  H      3.557922    0.739570   -1.906671
  H      4.423742   -0.767902   -2.337706
  H      3.105514    0.576125    2.812037
  H      3.399350   -1.049473    3.505360
  H      5.227745   -1.374572    1.792885
  H      4.949658    0.277075    1.220700
  H      5.555267    0.004227    2.861588
  H      0.125362   -1.554475    2.264391
  H     -1.327696   -2.000442    1.311167
  H     -4.781144    2.618341    0.599700
  H     -4.958534    0.975867   -0.079380
  H     -3.660329    1.590950    2.621151
  H     -5.327184    1.031345    2.404528
  H     -3.973898   -0.014167    1.947363
  H     -1.828946   -1.426956   -2.132826
  H     -3.030831   -2.494278   -1.349693
  H     -3.886961   -1.546421   -3.516970
  H     -4.859082   -0.981474   -2.147955
  H     -3.647808    0.087081   -2.880950

 Total Charge           Charge          ....    0
 Multiplicity           Mult            ....    1
 Number of Electrons    NEL             ....  202
 Basis Dimension        Dim             ....  334

ORBITAL ENERGIES
----------------

  NO   OCC          E(Eh)            E(eV)
   0   2.0000     -88.039030     -2395.6638
   1   2.0000     -88.034965     -2395.5532
   2   2.0000     -87.976435     -2393.9605
   3   2.0000     -87.974422     -2393.9057
   4   2.0000     -76.422985     -2079.5752
   5   2.0000     -76.420192     -2079.4991
   6   2.0000     -18.796432      -511.4769
   7   2.0000     -18.789355      -511.2843
   8   2.0000     -18.787706      -511.2395
   9   2.0000     -18.787063      -511.2220
  10   2.0000      -9.957796      -270.9654
  11   2.0000      -9.957458      -270.9562
  12   2.0000      -9.953272      -270.8423
  13   2.0000      -9.948080      -270.7010
  14   2.0000      -9.945350      -270.6267
  15   2.0000      -9.886855      -269.0350
  16   2.0000      -9.885741      -269.0047
  17   2.0000      -9.880401      -268.8594
  18   2.0000      -9.875421      -268.7239
  19   2.0000      -7.684035      -209.0932
  20   2.0000      -7.680000      -208.9834
  21   2.0000      -7.621207      -207.3836
  22   2.0000      -7.619444      -207.3356
  23   2.0000      -6.420081      -174.6993
  24   2.0000      -6.417718      -174.6350
  25   2.0000      -5.712054      -155.4329
  26   2.0000      -5.708621      -155.3395
  27   2.0000      -5.708123      -155.3259
  28   2.0000      -5.704524      -155.2280
  29   2.0000      -5.700738      -155.1250
  30   2.0000      -5.696655      -155.0139
  31   2.0000      -5.650122      -153.7476
  32   2.0000      -5.648458      -153.7024
  33   2.0000      -5.641689      -153.5182
  34   2.0000      -5.641577      -153.5151
  35   2.0000      -5.639931      -153.4703
  36   2.0000      -5.639576      -153.4607
  37   2.0000      -4.643474      -126.3554
  38   2.0000      -4.641459      -126.3005
  39   2.0000      -4.640303      -126.2691
  40   2.0000      -4.640210      -126.2665
  41   2.0000      -4.639527      -126.2479
  42   2.0000      -4.638087      -126.2088
  43   2.0000      -0.985010       -26.8035
  44   2.0000      -0.982449       -26.7338
  45   2.0000      -0.944620       -25.7044
  46   2.0000      -0.942884       -25.6572
  47   2.0000      -0.760263       -20.6878
  48   2.0000      -0.718427       -19.5494
  49   2.0000      -0.705660       -19.2020
  50   2.0000      -0.692896       -18.8547
  51   2.0000      -0.681862       -18.5544
  52   2.0000      -0.667342       -18.1593
  53   2.0000      -0.648459       -17.6455
  54   2.0000      -0.631482       -17.1835
  55   2.0000      -0.594822       -16.1859
  56   2.0000      -0.587702       -15.9922
  57   2.0000      -0.579416       -15.7667
  58   2.0000      -0.568099       -15.4587
  59   2.0000      -0.560139       -15.2422
  60   2.0000      -0.497637       -13.5414
  61   2.0000      -0.488435       -13.2910
  62   2.0000      -0.477549       -12.9948
  63   2.0000      -0.469874       -12.7859
  64   2.0000      -0.455936       -12.4067
  65   2.0000      -0.445122       -12.1124
  66   2.0000      -0.439479       -11.9588
  67   2.0000      -0.432707       -11.7745
  68   2.0000      -0.422986       -11.5100
  69   2.0000      -0.413462       -11.2509
  70   2.0000      -0.407895       -11.0994
  71   2.0000      -0.395587       -10.7645
  72   2.0000      -0.389986       -10.6121
  73   2.0000      -0.384069       -10.4510
  74   2.0000      -0.382791       -10.4163
  75   2.0000      -0.373970       -10.1762
  76   2.0000      -0.366098        -9.9620
  77   2.0000      -0.356892        -9.7115
  78   2.0000      -0.350924        -9.5491
  79   2.0000      -0.349585        -9.5127
  80   2.0000      -0.347586        -9.4583
  81   2.0000      -0.343924        -9.3586
  82   2.0000      -0.342784        -9.3276
  83   2.0000      -0.335257        -9.1228
  84   2.0000      -0.329450        -8.9648
  85   2.0000      -0.317944        -8.6517
  86   2.0000      -0.305743        -8.3197
  87   2.0000      -0.302171        -8.2225
  88   2.0000      -0.289923        -7.8892
  89   2.0000      -0.287378        -7.8200
  90   2.0000      -0.278432        -7.5765
  91   2.0000      -0.271106        -7.3772
  92   2.0000      -0.268587        -7.3086
  93   2.0000      -0.259151        -7.0518
  94   2.0000      -0.257327        -7.0022
  95   2.0000      -0.244201        -6.6451
  96   2.0000      -0.216665        -5.8957
  97   2.0000      -0.202285        -5.5045
  98   2.0000      -0.186896        -5.0857
  99   2.0000      -0.184093        -5.0094
 100   2.0000      -0.179209        -4.8765
 101   0.0000      -0.046243        -1.2583
 102   0.0000      -0.020738        -0.5643
 103   0.0000      -0.007710        -0.2098
 104   0.0000      -0.001566        -0.0426
 105   0.0000       0.021038         0.5725

MULLIKEN ATOMIC CHARGES
-----------------------
   0 C :   -0.345416
   1 C :   -0.001111
   2 O :   -0.372727
   3 P :    0.618563
   4 S :   -0.296217
   5 O :   -0.377678
   6 C :   -0.004910
   7 C :   -0.303355
   8 S :   -0.100473
   9 C :   -0.343658
  10 S :   -0.087624
  11 P :    0.625599
  12 S :   -0.285779
  13 O :   -0.367688
  14 C :   -0.002967
  15 C :   -0.318998
  16 O :   -0.399891
  17 C :   -0.016208
  18 C :   -0.301890
  19 H :    0.112581
  20 H :    0.159666
  21 H :    0.111543
  22 H :    0.110739
  23 H :    0.101689
  24 H :    0.111352
  25 H :    0.100026
  26 H :    0.115900
  27 H :    0.122850
  28 H :    0.110635
  29 H :    0.186874
  30 H :    0.183507
  31 H :    0.112207
  32 H :    0.105191
  33 H :    0.127569
  34 H :    0.111416
  35 H :    0.125088
  36 H :    0.122472
  37 H :    0.099478
  38 H :    0.112634
  39 H :    0.112437
  40 H :    0.126575
Sum of atomic charges:    0.0000000

LOEWDIN ATOMIC CHARGES
----------------------
   0 C :   -0.375101
   1 C :   -0.120037
   2 O :   -0.243060
   3 P :    0.567982
   4 S :   -0.299984
   5 O :   -0.245539
   6 C :   -0.120239
   7 C :   -0.363960
   8 S :    0.088967
   9 C :   -0.474316
  10 S :    0.086219
  11 P :    0.569511
  12 S :   -0.290150
  13 O :   -0.244870
  14 C :   -0.108320
  15 C :   -0.372327
  16 O :   -0.255346
  17 C :   -0.123631
  18 C :   -0.363281
  19 H :    0.122208
  20 H :    0.121961
  21 H :    0.131404
  22 H :    0.110209
  23 H :    0.116693
  24 H :    0.110439
  25 H :    0.115716
  26 H :    0.126177
  27 H :    0.123624
  28 H :    0.129676
  29 H :    0.134119
  30 H :    0.131236
  31 H :    0.123408
  32 H :    0.111463
  33 H :    0.126644
  34 H :    0.130092
  35 H :    0.119816
  36 H :    0.109869
  37 H :    0.114442
  38 H :    0.131669
  39 H :    0.120562
  40 H :    0.126055

  Mayer bond orders larger than 0.100000
B(  0-C ,  1-C ) :   1.1656 B(  0-C , 19-H ) :   0.9446 B(  0-C , 20-H ) :   0.9196
B(  0-C , 21-H ) :   0.9380 B(  1-C ,  2-O ) :   0.9076 B(  1-C , 22-H ) :   0.9109
B(  1-C , 23-H ) :   0.9333 B(  2-O ,  3-P ) :   1.1054 B(  3-P ,  4-S ) :   1.6484
B(  3-P ,  5-O ) :   1.1012 B(  3-P ,  8-S ) :   0.9440 B(  4-S ,  8-S ) :   0.1159
B(  5-O ,  6-C ) :   0.9055 B(  6-C ,  7-C ) :   1.1668 B(  6-C , 24-H ) :   0.9122
B(  6-C , 25-H ) :   0.9340 B(  7-C , 26-H ) :   0.9463 B(  7-C , 27-H ) :   0.9364
B(  7-C , 28-H ) :   0.9393 B(  8-S ,  9-C ) :   1.0053 B(  9-C , 10-S ) :   0.9986
B(  9-C , 29-H ) :   0.9017 B(  9-C , 30-H ) :   0.9060 B( 10-S , 11-P ) :   0.9615
B( 10-S , 12-S ) :   0.1050 B( 11-P , 12-S ) :   1.6599 B( 11-P , 13-O ) :   1.1286
B( 11-P , 16-O ) :   1.0435 B( 13-O , 14-C ) :   0.9030 B( 14-C , 15-C ) :   1.1702
B( 14-C , 31-H ) :   0.9351 B( 14-C , 32-H ) :   0.9279 B( 15-C , 33-H ) :   0.9409
B( 15-C , 34-H ) :   0.9336 B( 15-C , 35-H ) :   0.9383 B( 16-O , 17-C ) :   0.8976
B( 17-C , 18-C ) :   1.1665 B( 17-C , 36-H ) :   0.9048 B( 17-C , 37-H ) :   0.9326
B( 18-C , 38-H ) :   0.9394 B( 18-C , 39-H ) :   0.9435 B( 18-C , 40-H ) :   0.9360

Dispersion correction           -0.067649604
FINAL SINGLE POINT ENERGY     -2929.511012567066

DIPOLE MOMENT
-------------

Method             : SCF
Type of density    : Electron Density
Multiplicity       :   1
Irrep              :   0
Energy             : -2929.6281600664924554 Eh
Relativity type    :
Basis              : AO
                                X                 Y                 Z
Electronic contribution:      3.819619100       6.151574146       2.982935063
Nuclear contribution   :     -4.601807755      -7.485696778      -2.474073787
                        -----------------------------------------
Total Dipole Moment    :     -0.782188655      -1.334122631       0.508861276
                        -----------------------------------------
Magnitude (a.u.)       :      1.628079263
Magnitude (Debye)      :      4.138248614

Rotational constants in cm-1:             0.013302             0.005251             0.004615
Rotational constants in MHz :           398.773505           157.423346           138.345386

                             ****ORCA TERMINATED NORMALLY****
TOTAL RUN TIME: 0 days 0 hours 0 minutes 21 seconds 370 msec
