                         Program Version 6.0.0  -   RELEASE  -
|  1> ! pbe def2-sv(p) def2/J RI DEFGRID1 loosescf d4 GCP(DFT/SV(P)) printgap
|  2> %output
|  3>     printlevel normal
|  4> end
|  5> * xyz 0 1
|  6> C 4.0798269074 -0.3088319269 -2.2653661575
|  7> C 4.3550730444 -0.5665515934 -0.797216058
|  8> O 3.1439249979 -0.7068818356 -0.0392220423
|  9> P 2.189649285 0.5392831513 0.2604418201
| 10> S 3.1123231031 2.2385962738 0.5688537339
| 11> O 1.3085448252 -0.0099181472 1.4569217457
| 12> C 1.7092937908 0.1471358542 2.8351945255
| 13> C 2.9487027821 -0.6579622307 3.1622741951
| 14> S 0.7353124152 0.5119909256 -1.2786280438
| 15> C 0.2221966284 -1.2279849772 -1.1441526098
| 16> S -0.9527113985 -1.5444005271 0.1940086558
| 17> P -2.4612884792 -0.2041469967 -0.4822779463
| 18> S -2.6864283348 -0.0656495154 -2.4194850045
| 19> O -2.1352047578 1.2182280763 0.1205885954
| 20> C -1.9471748109 1.4586883926 1.5361647363
| 21> C -1.0854153056 2.6947188614 1.6918106167
| 22> O -3.7168162412 -0.6204821065 0.4016186091
| 23> C -4.2294390411 -1.9591945946 0.5491525981
| 24> C -4.5249326235 -2.6257623067 -0.7776896885
| 25> H 3.4571786406 -1.0953639874 -2.6842763606
| 26> H 3.5666924069 0.6454774723 -2.3848947015
| 27> H 5.0199565367 -0.2707986318 -2.8062550828
| 28> H 4.9380648203 0.255622199 -0.3697472124
| 29> H 4.8767613633 -1.512227357 -0.6437155564
| 30> H 1.8778920469 1.2115799541 3.0257032938
| 31> H 0.8425234025 -0.2018246683 3.3981928096
| 32> H 2.8092936687 -1.696683317 2.8746014947
| 33> H 3.8062306182 -0.2533051662 2.6266493092
| 34> H 3.1416702103 -0.6005263653 4.2289767496
| 35> H 1.0885145456 -1.857423347 -0.9570822145
| 36> H -0.2534206461 -1.4623890503 -2.0960421719
| 37> H -2.9338280097 1.6004846757 1.9809933705
| 38> H -1.4704468481 0.5797873856 1.981695045
| 39> H -0.1030736232 2.5351069362 1.2494162843
| 40> H -1.5505062705 3.5381431826 1.189628388
| 41> H -0.9681472484 2.9214582479 2.7466445128
| 42> H -3.5002979568 -2.5403542646 1.1203773243
| 43> H -5.1380678455 -1.8204148506 1.1376763748
| 44> H -3.6036679932 -2.7689206117 -1.3402480923
| 45> H -4.9870392627 -3.5915681172 -0.6006391139
| 46> H -5.1945785022 -2.0083772874 -1.3717404963
| 47> *
| 48>
| 49>                          ****END OF INPUT****

CARTESIAN COORDINATES (ANGSTROEM)
---------------------------------
  C      4.079827   -0.308832   -2.265366
  C      4.355073   -0.566552   -0.797216
  O      3.143925   -0.706882   -0.039222
  P      2.189649    0.539283    0.260442
  S      3.112323    2.238596    0.568854
  O      1.308545   -0.009918    1.456922
  C      1.709294    0.147136    2.835195
  C      2.948703   -0.657962    3.162274
  S      0.735312    0.511991   -1.278628
  C      0.222197   -1.227985   -1.144153
  S     -0.952711   -1.544401    0.194009
  P     -2.461288   -0.204147   -0.482278
  S     -2.686428   -0.065650   -2.419485
  O     -2.135205    1.218228    0.120589
  C     -1.947175    1.458688    1.536165
  C     -1.085415    2.694719    1.691811
  O     -3.716816   -0.620482    0.401619
  C     -4.229439   -1.959195    0.549153
  C     -4.524933   -2.625762   -0.777690
  H      3.457179   -1.095364   -2.684276
  H      3.566692    0.645477   -2.384895
  H      5.019957   -0.270799   -2.806255
  H      4.938065    0.255622   -0.369747
  H      4.876761   -1.512227   -0.643716
  H      1.877892    1.211580    3.025703
  H      0.842523   -0.201825    3.398193
  H      2.809294   -1.696683    2.874601
  H      3.806231   -0.253305    2.626649
  H      3.141670   -0.600526    4.228977
  H      1.088515   -1.857423   -0.957082
  H     -0.253421   -1.462389   -2.096042
  H     -2.933828    1.600485    1.980993
  H     -1.470447    0.579787    1.981695
  H     -0.103074    2.535107    1.249416
  H     -1.550506    3.538143    1.189628
  H     -0.968147    2.921458    2.746645
  H     -3.500298   -2.540354    1.120377
  H     -5.138068   -1.820415    1.137676
  H     -3.603668   -2.768921   -1.340248
  H     -4.987039   -3.591568   -0.600639
  H     -5.194579   -2.008377   -1.371740

 Total Charge           Charge          ....    0
 Multiplicity           Mult            ....    1
 Number of Electrons    NEL             ....  202
 Basis Dimension        Dim             ....  334

ORBITAL ENERGIES
----------------

  NO   OCC          E(Eh)            E(eV)
   0   2.0000     -88.043597     -2395.7881
   1   2.0000     -88.043030     -2395.7727
   2   2.0000     -87.994046     -2394.4397
   3   2.0000     -87.981570     -2394.1002
   4   2.0000     -76.430180     -2079.7709
   5   2.0000     -76.424691     -2079.6216
   6   2.0000     -18.798407      -511.5307
   7   2.0000     -18.795539      -511.4526
   8   2.0000     -18.794305      -511.4190
   9   2.0000     -18.785234      -511.1722
  10   2.0000      -9.959469      -271.0109
  11   2.0000      -9.958808      -270.9929
  12   2.0000      -9.958437      -270.9829
  13   2.0000      -9.956628      -270.9336
  14   2.0000      -9.948338      -270.7080
  15   2.0000      -9.889949      -269.1192
  16   2.0000      -9.887336      -269.0481
  17   2.0000      -9.883770      -268.9510
  18   2.0000      -9.878428      -268.8057
  19   2.0000      -7.688353      -209.2107
  20   2.0000      -7.687990      -209.2008
  21   2.0000      -7.639029      -207.8685
  22   2.0000      -7.626909      -207.5387
  23   2.0000      -6.427693      -174.9064
  24   2.0000      -6.421674      -174.7426
  25   2.0000      -5.716651      -155.5580
  26   2.0000      -5.715689      -155.5318
  27   2.0000      -5.712773      -155.4524
  28   2.0000      -5.712456      -155.4438
  29   2.0000      -5.705184      -155.2460
  30   2.0000      -5.705023      -155.2416
  31   2.0000      -5.667929      -154.2322
  32   2.0000      -5.659627      -154.0063
  33   2.0000      -5.659272      -153.9966
  34   2.0000      -5.655995      -153.9074
  35   2.0000      -5.647442      -153.6747
  36   2.0000      -5.646962      -153.6616
  37   2.0000      -4.650096      -126.5355
  38   2.0000      -4.649683      -126.5243
  39   2.0000      -4.648098      -126.4812
  40   2.0000      -4.644491      -126.3830
  41   2.0000      -4.643759      -126.3631
  42   2.0000      -4.641725      -126.3078
  43   2.0000      -0.992150       -26.9978
  44   2.0000      -0.985699       -26.8222
  45   2.0000      -0.951512       -25.8919
  46   2.0000      -0.940870       -25.6024
  47   2.0000      -0.765436       -20.8286
  48   2.0000      -0.723037       -19.6748
  49   2.0000      -0.710669       -19.3383
  50   2.0000      -0.691968       -18.8294
  51   2.0000      -0.687906       -18.7189
  52   2.0000      -0.677365       -18.4320
  53   2.0000      -0.655277       -17.8310
  54   2.0000      -0.638826       -17.3833
  55   2.0000      -0.603168       -16.4130
  56   2.0000      -0.588440       -16.0123
  57   2.0000      -0.577816       -15.7232
  58   2.0000      -0.570184       -15.5155
  59   2.0000      -0.564302       -15.3554
  60   2.0000      -0.505579       -13.7575
  61   2.0000      -0.497873       -13.5478
  62   2.0000      -0.478742       -13.0272
  63   2.0000      -0.473057       -12.8725
  64   2.0000      -0.464564       -12.6414
  65   2.0000      -0.447230       -12.1697
  66   2.0000      -0.445029       -12.1099
  67   2.0000      -0.434429       -11.8214
  68   2.0000      -0.429320       -11.6824
  69   2.0000      -0.418407       -11.3854
  70   2.0000      -0.414411       -11.2767
  71   2.0000      -0.402238       -10.9455
  72   2.0000      -0.399573       -10.8729
  73   2.0000      -0.392608       -10.6834
  74   2.0000      -0.382441       -10.4068
  75   2.0000      -0.372509       -10.1365
  76   2.0000      -0.363998        -9.9049
  77   2.0000      -0.358846        -9.7647
  78   2.0000      -0.353575        -9.6213
  79   2.0000      -0.350120        -9.5272
  80   2.0000      -0.348265        -9.4768
  81   2.0000      -0.346413        -9.4264
  82   2.0000      -0.342146        -9.3103
  83   2.0000      -0.336442        -9.1551
  84   2.0000      -0.331633        -9.0242
  85   2.0000      -0.325260        -8.8508
  86   2.0000      -0.315659        -8.5895
  87   2.0000      -0.299234        -8.1426
  88   2.0000      -0.296864        -8.0781
  89   2.0000      -0.295189        -8.0325
  90   2.0000      -0.290695        -7.9102
  91   2.0000      -0.279106        -7.5949
  92   2.0000      -0.271886        -7.3984
  93   2.0000      -0.269040        -7.3209
  94   2.0000      -0.257516        -7.0074
  95   2.0000      -0.231615        -6.3026
  96   2.0000      -0.219194        -5.9646
  97   2.0000      -0.212762        -5.7895
  98   2.0000      -0.209349        -5.6967
  99   2.0000      -0.199890        -5.4393
 100   2.0000      -0.196369        -5.3435
 101   0.0000      -0.042274        -1.1503
 102   0.0000      -0.026519        -0.7216
 103   0.0000      -0.011245        -0.3060
 104   0.0000      -0.000223        -0.0061
 105   0.0000       0.007580         0.2063

MULLIKEN ATOMIC CHARGES
-----------------------
   0 C :   -0.310834
   1 C :   -0.010211
   2 O :   -0.380030
   3 P :    0.596657
   4 S :   -0.314995
   5 O :   -0.371489
   6 C :   -0.012374
   7 C :   -0.302290
   8 S :   -0.036912
   9 C :   -0.358324
  10 S :   -0.102602
  11 P :    0.595774
  12 S :   -0.308625
  13 O :   -0.349281
  14 C :   -0.014862
  15 C :   -0.292644
  16 O :   -0.382862
  17 C :   -0.010208
  18 C :   -0.307749
  19 H :    0.114538
  20 H :    0.131072
  21 H :    0.114658
  22 H :    0.112852
  23 H :    0.104990
  24 H :    0.114284
  25 H :    0.106716
  26 H :    0.117146
  27 H :    0.123952
  28 H :    0.113087
  29 H :    0.182643
  30 H :    0.195789
  31 H :    0.102975
  32 H :    0.104390
  33 H :    0.131522
  34 H :    0.119943
  35 H :    0.102013
  36 H :    0.110162
  37 H :    0.108734
  38 H :    0.123800
  39 H :    0.110388
  40 H :    0.128208
Sum of atomic charges:    0.0000000

LOEWDIN ATOMIC CHARGES
----------------------
   0 C :   -0.366626
   1 C :   -0.122571
   2 O :   -0.248306
   3 P :    0.565854
   4 S :   -0.315422
   5 O :   -0.242272
   6 C :   -0.116479
   7 C :   -0.364330
   8 S :    0.116780
   9 C :   -0.480047
  10 S :    0.070431
  11 P :    0.564766
  12 S :   -0.309202
  13 O :   -0.232040
  14 C :   -0.117074
  15 C :   -0.354442
  16 O :   -0.248385
  17 C :   -0.114567
  18 C :   -0.369086
  19 H :    0.123653
  20 H :    0.123631
  21 H :    0.131951
  22 H :    0.110052
  23 H :    0.117971
  24 H :    0.112401
  25 H :    0.116783
  26 H :    0.126748
  27 H :    0.123283
  28 H :    0.131279
  29 H :    0.130617
  30 H :    0.133822
  31 H :    0.112740
  32 H :    0.101049
  33 H :    0.121471
  34 H :    0.130102
  35 H :    0.126071
  36 H :    0.106915
  37 H :    0.121028
  38 H :    0.120709
  39 H :    0.129589
  40 H :    0.131154

  Mayer bond orders larger than 0.100000
B(  0-C ,  1-C ) :   1.1643 B(  0-C , 19-H ) :   0.9469 B(  0-C , 20-H ) :   0.9350
B(  0-C , 21-H ) :   0.9384 B(  1-C ,  2-O ) :   0.9077 B(  1-C , 22-H ) :   0.9135
B(  1-C , 23-H ) :   0.9338 B(  2-O ,  3-P ) :   1.0633 B(  3-P ,  4-S ) :   1.6182
B(  3-P ,  5-O ) :   1.1045 B(  3-P ,  8-S ) :   0.9801 B(  5-O ,  6-C ) :   0.9038
B(  6-C ,  7-C ) :   1.1685 B(  6-C , 24-H ) :   0.9177 B(  6-C , 25-H ) :   0.9298
B(  7-C , 26-H ) :   0.9457 B(  7-C , 27-H ) :   0.9369 B(  7-C , 28-H ) :   0.9376
B(  8-S ,  9-C ) :   0.9920 B(  9-C , 10-S ) :   0.9999 B(  9-C , 29-H ) :   0.8914
B(  9-C , 30-H ) :   0.8834 B( 10-S , 11-P ) :   0.9504 B( 10-S , 12-S ) :   0.1103
B( 11-P , 12-S ) :   1.6430 B( 11-P , 13-O ) :   1.1351 B( 11-P , 16-O ) :   1.0843
B( 13-O , 14-C ) :   0.8902 B( 14-C , 15-C ) :   1.1659 B( 14-C , 31-H ) :   0.9307
B( 14-C , 32-H ) :   0.9089 B( 15-C , 33-H ) :   0.9319 B( 15-C , 34-H ) :   0.9473
B( 15-C , 35-H ) :   0.9401 B( 16-O , 17-C ) :   0.9157 B( 17-C , 18-C ) :   1.1666
B( 17-C , 36-H ) :   0.9267 B( 17-C , 37-H ) :   0.9335 B( 18-C , 38-H ) :   0.9323
B( 18-C , 39-H ) :   0.9349 B( 18-C , 40-H ) :   0.9431

Dispersion correction           -0.066667416
FINAL SINGLE POINT ENERGY     -2929.520611877592

DIPOLE MOMENT
-------------

Method             : SCF
Type of density    : Electron Density
Multiplicity       :   1
Irrep              :   0
Energy             : -2929.6402125562181027 Eh
Relativity type    :
Basis              : AO
                                X                 Y                 Z
Electronic contribution:     -5.192078849       6.631303887     -10.388015299
Nuclear contribution   :      5.583889421      -8.207847254      11.856971052
                        -----------------------------------------
Total Dipole Moment    :      0.391810572      -1.576543368       1.468955753
                        -----------------------------------------
Magnitude (a.u.)       :      2.190167920
Magnitude (Debye)      :      5.566964439

Rotational constants in cm-1:             0.012945             0.004982             0.004611
Rotational constants in MHz :           388.068310           149.349418           138.245987

                             ****ORCA TERMINATED NORMALLY****
TOTAL RUN TIME: 0 days 0 hours 0 minutes 21 seconds 521 msec
