                         Program Version 6.0.0  -   RELEASE  -
|  1> ! pbe def2-sv(p) def2/J RI DEFGRID1 loosescf d4 GCP(DFT/SV(P)) printgap
|  2> %output
|  3>     printlevel normal
|  4> end
|  5> * xyz 0 1
|  6> C 2.4779076072 -0.0099955076 0.6659370096
|  7> N 1.0674766164 0.0255231667 0.3550604988
|  8> C 0.7071739655 1.1299595023 -0.5151566352
|  9> C -0.8292960477 1.2801634773 -0.539018895
| 10> N -1.5318446437 0.0406595161 -0.2373160508
| 11> C -0.804043949 -1.077301394 -0.7995924503
| 12> C 0.6109496214 -1.2385869605 -0.2038188743
| 13> C -1.8311477141 -0.1285764018 1.1745012532
| 14> H 2.7603712582 0.9227170401 1.1511335441
| 15> H 3.1067995536 -0.1492161488 -0.2289505265
| 16> H 2.6654458095 -0.8347272963 1.3520307287
| 17> H 1.1629089959 2.041301986 -0.1244237404
| 18> H 1.0947471792 0.9716596864 -1.5388400541
| 19> H -1.1451458189 2.0338494934 0.1816455706
| 20> H -1.1418518185 1.6088769416 -1.5361767103
| 21> H -1.3818641333 -1.9895575095 -0.6430163146
| 22> H -0.7354146215 -0.900629484 -1.8766628156
| 23> H 0.6070766776 -1.9727097302 0.6068803329
| 24> H 1.2987495163 -1.6030918112 -0.9891527312
| 25> H -2.3542749733 -1.0748049938 1.3022588835
| 26> H -2.4953518646 0.6771906105 1.4838934041
| 27> H -0.939869269 -0.1222327898 1.8108245982
| 28> *
| 29>
| 30>                          ****END OF INPUT****

CARTESIAN COORDINATES (ANGSTROEM)
---------------------------------
  C      2.477908   -0.009996    0.665937
  N      1.067477    0.025523    0.355060
  C      0.707174    1.129960   -0.515157
  C     -0.829296    1.280163   -0.539019
  N     -1.531845    0.040660   -0.237316
  C     -0.804044   -1.077301   -0.799592
  C      0.610950   -1.238587   -0.203819
  C     -1.831148   -0.128576    1.174501
  H      2.760371    0.922717    1.151134
  H      3.106800   -0.149216   -0.228951
  H      2.665446   -0.834727    1.352031
  H      1.162909    2.041302   -0.124424
  H      1.094747    0.971660   -1.538840
  H     -1.145146    2.033849    0.181646
  H     -1.141852    1.608877   -1.536177
  H     -1.381864   -1.989558   -0.643016
  H     -0.735415   -0.900629   -1.876663
  H      0.607077   -1.972710    0.606880
  H      1.298750   -1.603092   -0.989153
  H     -2.354275   -1.074805    1.302259
  H     -2.495352    0.677191    1.483893
  H     -0.939869   -0.122233    1.810825

 Total Charge           Charge          ....    0
 Multiplicity           Mult            ....    1
 Number of Electrons    NEL             ....   64
 Basis Dimension        Dim             ....  140

ORBITAL ENERGIES
----------------

  NO   OCC          E(Eh)            E(eV)
   0   2.0000     -13.983438      -380.5087
   1   2.0000     -13.973134      -380.2283
   2   2.0000      -9.906420      -269.5674
   3   2.0000      -9.905568      -269.5442
   4   2.0000      -9.905012      -269.5291
   5   2.0000      -9.903009      -269.4746
   6   2.0000      -9.900712      -269.4121
   7   2.0000      -9.887517      -269.0530
   8   2.0000      -0.859479       -23.3876
   9   2.0000      -0.811313       -22.0769
  10   2.0000      -0.679834       -18.4992
  11   2.0000      -0.655457       -17.8359
  12   2.0000      -0.606716       -16.5096
  13   2.0000      -0.575770       -15.6675
  14   2.0000      -0.546481       -14.8705
  15   2.0000      -0.468373       -12.7451
  16   2.0000      -0.448047       -12.1920
  17   2.0000      -0.436836       -11.8869
  18   2.0000      -0.436667       -11.8823
  19   2.0000      -0.392960       -10.6930
  20   2.0000      -0.380124       -10.3437
  21   2.0000      -0.364565        -9.9203
  22   2.0000      -0.359535        -9.7835
  23   2.0000      -0.349606        -9.5133
  24   2.0000      -0.343292        -9.3414
  25   2.0000      -0.317643        -8.6435
  26   2.0000      -0.316353        -8.6084
  27   2.0000      -0.304987        -8.2991
  28   2.0000      -0.300836        -8.1862
  29   2.0000      -0.286558        -7.7976
  30   2.0000      -0.174374        -4.7450
  31   2.0000      -0.154335        -4.1997
  32   0.0000       0.027133         0.7383
  33   0.0000       0.057567         1.5665
  34   0.0000       0.058934         1.6037
  35   0.0000       0.065385         1.7792
  36   0.0000       0.087012         2.3677

MULLIKEN ATOMIC CHARGES
-----------------------
   0 C :   -0.150742
   1 N :   -0.311152
   2 C :   -0.082570
   3 C :   -0.013585
   4 N :   -0.290953
   5 C :   -0.073574
   6 C :   -0.062012
   7 C :   -0.173009
   8 H :    0.102368
   9 H :    0.067798
  10 H :    0.102053
  11 H :    0.083737
  12 H :    0.052454
  13 H :    0.077631
  14 H :    0.077886
  15 H :    0.089757
  16 H :    0.082563
  17 H :    0.082216
  18 H :    0.056370
  19 H :    0.091650
  20 H :    0.097830
  21 H :    0.093282
Sum of atomic charges:    0.0000000

LOEWDIN ATOMIC CHARGES
----------------------
   0 C :   -0.255394
   1 N :   -0.141733
   2 C :   -0.171131
   3 C :   -0.159216
   4 N :   -0.144152
   5 C :   -0.166177
   6 C :   -0.174611
   7 C :   -0.266172
   8 H :    0.112722
   9 H :    0.087338
  10 H :    0.113963
  11 H :    0.115105
  12 H :    0.086014
  13 H :    0.114986
  14 H :    0.107529
  15 H :    0.115812
  16 H :    0.111173
  17 H :    0.108655
  18 H :    0.090248
  19 H :    0.109722
  20 H :    0.110037
  21 H :    0.095281

  Mayer bond orders larger than 0.100000
B(  0-C ,  1-N ) :   1.0562 B(  0-C ,  8-H ) :   0.9555 B(  0-C ,  9-H ) :   0.9248
B(  0-C , 10-H ) :   0.9541 B(  1-N ,  2-C ) :   1.0465 B(  1-N ,  6-C ) :   1.0438
B(  2-C ,  3-C ) :   1.0879 B(  2-C , 11-H ) :   0.9223 B(  2-C , 12-H ) :   0.8962
B(  3-C ,  4-N ) :   1.0678 B(  3-C , 13-H ) :   0.9196 B(  3-C , 14-H ) :   0.9260
B(  4-N ,  5-C ) :   1.1058 B(  4-N ,  7-C ) :   1.0357 B(  5-C ,  6-C ) :   1.0683
B(  5-C , 15-H ) :   0.9289 B(  5-C , 16-H ) :   0.9241 B(  6-C , 17-H ) :   0.9228
B(  6-C , 18-H ) :   0.8972 B(  7-C , 19-H ) :   0.9529 B(  7-C , 20-H ) :   0.9559
B(  7-C , 21-H ) :   0.9201

Dispersion correction           -0.021035985
FINAL SINGLE POINT ENERGY      -345.702062772468

DIPOLE MOMENT
-------------

Method             : SCF
Type of density    : Electron Density
Multiplicity       :   1
Irrep              :   0
Energy             :  -345.7852051527305548 Eh
Relativity type    :
Basis              : AO
                                X                 Y                 Z
Electronic contribution:     -1.985133281       0.361481456      -0.847840498
Nuclear contribution   :      2.345053817      -0.366811197       0.893255840
                        -----------------------------------------
Total Dipole Moment    :      0.359920536      -0.005329741       0.045415342
                        -----------------------------------------
Magnitude (a.u.)       :      0.362813660
Magnitude (Debye)      :      0.922199035

Rotational constants in cm-1:             0.109888             0.057018             0.050803
Rotational constants in MHz :          3294.345013          1709.359877          1523.026339

                             ****ORCA TERMINATED NORMALLY****
TOTAL RUN TIME: 0 days 0 hours 0 minutes 11 seconds 731 msec
