                         Program Version 6.0.0  -   RELEASE  -
|  1> ! pbe def2-sv(p) def2/J RI DEFGRID1 loosescf d4 GCP(DFT/SV(P)) printgap
|  2> %output
|  3>     printlevel normal
|  4> end
|  5> * xyz 0 1
|  6> C 1.3992276052 -0.5037718603 -2.986737344
|  7> C 2.4434914769 0.2296948849 -2.1689390979
|  8> O 2.8460386788 -0.5582255844 -1.0351879933
|  9> P 2.3189766712 -0.3334302417 0.4499730562
| 10> S 2.3773701009 1.5297979605 1.0732235626
| 11> O 3.2540429867 -1.3294550555 1.2469478417
| 12> C 4.633871676 -1.0087467628 1.5360890484
| 13> C 5.0446613812 -1.7850884105 2.7701764289
| 14> S 0.5221296563 -1.4055030243 0.6333053486
| 15> C -0.3609515553 -0.2931593779 1.789866581
| 16> S -2.1294668546 -0.2518491824 1.4572150926
| 17> P -2.0419911475 0.4981550437 -0.5411685685
| 18> S -0.6628279452 1.8289847493 -0.9330407268
| 19> O -3.5382324627 0.9537022961 -0.8242885824
| 20> C -4.0280570986 2.2691990383 -0.5085472395
| 21> C -4.045932835 2.5387907784 0.9819667275
| 22> O -1.8909830154 -0.778773714 -1.45296591
| 23> C -2.77969561 -1.9230344531 -1.3990716599
| 24> C -3.84845005 -1.8224040537 -2.4677395172
| 25> H 0.4719512774 -0.599764259 -2.4248490614
| 26> H 1.1989566407 0.0604896682 -3.8919206175
| 27> H 1.7593803965 -1.495213475 -3.2463743157
| 28> H 2.0674726575 1.1983119809 -1.8223336818
| 29> H 3.3598030392 0.381548521 -2.7427201382
| 30> H 5.2313739427 -1.2892204565 0.6657562276
| 31> H 4.7144130135 0.0722132177 1.6949411049
| 32> H 4.9055161097 -2.8487078488 2.6004409433
| 33> H 6.0897366037 -1.5864220008 2.9842639849
| 34> H 4.4400118614 -1.481964368 3.620235301
| 35> H 0.0626392743 0.7102816405 1.6871368371
| 36> H -0.2496407316 -0.6667774137 2.8045853458
| 37> H -3.4012437507 3.0027110701 -1.0249440484
| 38> H -5.0340763871 2.2791358608 -0.930443258
| 39> H -4.5512442763 3.4810190422 1.1685510692
| 40> H -4.5638491745 1.7395423786 1.5060223542
| 41> H -3.0276359462 2.6063743775 1.3620196544
| 42> H -2.125448492 -2.7811246442 -1.5636662604
| 43> H -3.2204165906 -1.9825399001 -0.4003025054
| 44> H -4.4868084403 -0.9629156742 -2.2825632126
| 45> H -3.3886868522 -1.714150224 -3.4461726188
| 46> H -4.4497934667 -2.7259397238 -2.4519908902
| 47> *
| 48>
| 49>                          ****END OF INPUT****

CARTESIAN COORDINATES (ANGSTROEM)
---------------------------------
  C      1.399228   -0.503772   -2.986737
  C      2.443491    0.229695   -2.168939
  O      2.846039   -0.558226   -1.035188
  P      2.318977   -0.333430    0.449973
  S      2.377370    1.529798    1.073224
  O      3.254043   -1.329455    1.246948
  C      4.633872   -1.008747    1.536089
  C      5.044661   -1.785088    2.770176
  S      0.522130   -1.405503    0.633305
  C     -0.360952   -0.293159    1.789867
  S     -2.129467   -0.251849    1.457215
  P     -2.041991    0.498155   -0.541169
  S     -0.662828    1.828985   -0.933041
  O     -3.538232    0.953702   -0.824289
  C     -4.028057    2.269199   -0.508547
  C     -4.045933    2.538791    0.981967
  O     -1.890983   -0.778774   -1.452966
  C     -2.779696   -1.923034   -1.399072
  C     -3.848450   -1.822404   -2.467740
  H      0.471951   -0.599764   -2.424849
  H      1.198957    0.060490   -3.891921
  H      1.759380   -1.495213   -3.246374
  H      2.067473    1.198312   -1.822334
  H      3.359803    0.381549   -2.742720
  H      5.231374   -1.289220    0.665756
  H      4.714413    0.072213    1.694941
  H      4.905516   -2.848708    2.600441
  H      6.089737   -1.586422    2.984264
  H      4.440012   -1.481964    3.620235
  H      0.062639    0.710282    1.687137
  H     -0.249641   -0.666777    2.804585
  H     -3.401244    3.002711   -1.024944
  H     -5.034076    2.279136   -0.930443
  H     -4.551244    3.481019    1.168551
  H     -4.563849    1.739542    1.506022
  H     -3.027636    2.606374    1.362020
  H     -2.125448   -2.781125   -1.563666
  H     -3.220417   -1.982540   -0.400303
  H     -4.486808   -0.962916   -2.282563
  H     -3.388687   -1.714150   -3.446173
  H     -4.449793   -2.725940   -2.451991

 Total Charge           Charge          ....    0
 Multiplicity           Mult            ....    1
 Number of Electrons    NEL             ....  202
 Basis Dimension        Dim             ....  334

ORBITAL ENERGIES
----------------

  NO   OCC          E(Eh)            E(eV)
   0   2.0000     -88.047359     -2395.8904
   1   2.0000     -88.038850     -2395.6589
   2   2.0000     -87.985161     -2394.1979
   3   2.0000     -87.979577     -2394.0460
   4   2.0000     -76.428671     -2079.7299
   5   2.0000     -76.418449     -2079.4517
   6   2.0000     -18.798100      -511.5223
   7   2.0000     -18.794507      -511.4245
   8   2.0000     -18.783822      -511.1338
   9   2.0000     -18.781539      -511.0717
  10   2.0000      -9.957005      -270.9439
  11   2.0000      -9.956535      -270.9311
  12   2.0000      -9.952701      -270.8268
  13   2.0000      -9.945318      -270.6259
  14   2.0000      -9.938700      -270.4458
  15   2.0000      -9.887951      -269.0648
  16   2.0000      -9.886431      -269.0235
  17   2.0000      -9.882660      -268.9209
  18   2.0000      -9.868138      -268.5257
  19   2.0000      -7.692176      -209.3147
  20   2.0000      -7.684035      -209.0932
  21   2.0000      -7.630042      -207.6240
  22   2.0000      -7.624590      -207.4756
  23   2.0000      -6.425866      -174.8567
  24   2.0000      -6.416418      -174.5996
  25   2.0000      -5.720059      -155.6507
  26   2.0000      -5.716540      -155.5550
  27   2.0000      -5.711921      -155.4293
  28   2.0000      -5.709338      -155.3590
  29   2.0000      -5.708708      -155.3418
  30   2.0000      -5.700774      -155.1260
  31   2.0000      -5.659035      -153.9902
  32   2.0000      -5.653428      -153.8376
  33   2.0000      -5.650426      -153.7559
  34   2.0000      -5.650350      -153.7538
  35   2.0000      -5.645309      -153.6167
  36   2.0000      -5.644707      -153.6003
  37   2.0000      -4.648740      -126.4986
  38   2.0000      -4.647661      -126.4693
  39   2.0000      -4.646057      -126.4256
  40   2.0000      -4.638829      -126.2290
  41   2.0000      -4.638048      -126.2077
  42   2.0000      -4.637078      -126.1813
  43   2.0000      -0.991698       -26.9855
  44   2.0000      -0.978224       -26.6188
  45   2.0000      -0.949128       -25.8271
  46   2.0000      -0.935258       -25.4497
  47   2.0000      -0.762508       -20.7489
  48   2.0000      -0.720909       -19.6169
  49   2.0000      -0.708922       -19.2908
  50   2.0000      -0.692966       -18.8566
  51   2.0000      -0.677660       -18.4401
  52   2.0000      -0.673280       -18.3209
  53   2.0000      -0.649707       -17.6794
  54   2.0000      -0.630144       -17.1471
  55   2.0000      -0.598351       -16.2820
  56   2.0000      -0.586589       -15.9619
  57   2.0000      -0.577270       -15.7083
  58   2.0000      -0.562110       -15.2958
  59   2.0000      -0.556988       -15.1564
  60   2.0000      -0.503020       -13.6879
  61   2.0000      -0.496278       -13.5044
  62   2.0000      -0.477279       -12.9874
  63   2.0000      -0.469535       -12.7767
  64   2.0000      -0.451663       -12.2904
  65   2.0000      -0.444051       -12.0832
  66   2.0000      -0.438878       -11.9425
  67   2.0000      -0.432919       -11.7803
  68   2.0000      -0.431085       -11.7304
  69   2.0000      -0.415261       -11.2998
  70   2.0000      -0.410924       -11.1818
  71   2.0000      -0.395014       -10.7489
  72   2.0000      -0.385656       -10.4942
  73   2.0000      -0.381156       -10.3718
  74   2.0000      -0.377883       -10.2827
  75   2.0000      -0.370302       -10.0764
  76   2.0000      -0.365614        -9.9489
  77   2.0000      -0.356017        -9.6877
  78   2.0000      -0.355157        -9.6643
  79   2.0000      -0.352084        -9.5807
  80   2.0000      -0.348157        -9.4738
  81   2.0000      -0.343516        -9.3475
  82   2.0000      -0.339002        -9.2247
  83   2.0000      -0.331871        -9.0307
  84   2.0000      -0.324727        -8.8363
  85   2.0000      -0.317943        -8.6517
  86   2.0000      -0.306098        -8.3293
  87   2.0000      -0.299904        -8.1608
  88   2.0000      -0.295110        -8.0303
  89   2.0000      -0.286490        -7.7958
  90   2.0000      -0.280435        -7.6310
  91   2.0000      -0.274998        -7.4831
  92   2.0000      -0.266356        -7.2479
  93   2.0000      -0.265148        -7.2150
  94   2.0000      -0.256807        -6.9881
  95   2.0000      -0.232898        -6.3375
  96   2.0000      -0.222793        -6.0625
  97   2.0000      -0.210373        -5.7245
  98   2.0000      -0.202341        -5.5060
  99   2.0000      -0.194029        -5.2798
 100   2.0000      -0.187379        -5.0988
 101   0.0000      -0.043286        -1.1779
 102   0.0000      -0.031684        -0.8622
 103   0.0000      -0.010645        -0.2897
 104   0.0000       0.011383         0.3097
 105   0.0000       0.017997         0.4897

MULLIKEN ATOMIC CHARGES
-----------------------
   0 C :   -0.313038
   1 C :   -0.008735
   2 O :   -0.381461
   3 P :    0.626400
   4 S :   -0.321505
   5 O :   -0.371961
   6 C :   -0.007268
   7 C :   -0.277756
   8 S :   -0.101639
   9 C :   -0.350799
  10 S :   -0.107386
  11 P :    0.598832
  12 S :   -0.297293
  13 O :   -0.379460
  14 C :    0.000730
  15 C :   -0.321784
  16 O :   -0.346477
  17 C :   -0.010052
  18 C :   -0.289861
  19 H :    0.145416
  20 H :    0.104186
  21 H :    0.101809
  22 H :    0.119255
  23 H :    0.097268
  24 H :    0.101628
  25 H :    0.103100
  26 H :    0.116093
  27 H :    0.108988
  28 H :    0.116464
  29 H :    0.211833
  30 H :    0.182177
  31 H :    0.114589
  32 H :    0.105009
  33 H :    0.115785
  34 H :    0.117558
  35 H :    0.134122
  36 H :    0.111427
  37 H :    0.102439
  38 H :    0.121598
  39 H :    0.119662
  40 H :    0.110108
Sum of atomic charges:   -0.0000000

LOEWDIN ATOMIC CHARGES
----------------------
   0 C :   -0.367825
   1 C :   -0.117454
   2 O :   -0.246760
   3 P :    0.566835
   4 S :   -0.306490
   5 O :   -0.250322
   6 C :   -0.117919
   7 C :   -0.350741
   8 S :    0.079354
   9 C :   -0.478967
  10 S :    0.079197
  11 P :    0.567315
  12 S :   -0.290072
  13 O :   -0.247597
  14 C :   -0.116160
  15 C :   -0.371324
  16 O :   -0.229032
  17 C :   -0.116278
  18 C :   -0.359147
  19 H :    0.121820
  20 H :    0.128537
  21 H :    0.119641
  22 H :    0.107501
  23 H :    0.114204
  24 H :    0.112593
  25 H :    0.106518
  26 H :    0.126628
  27 H :    0.129294
  28 H :    0.127431
  29 H :    0.123817
  30 H :    0.135239
  31 H :    0.114202
  32 H :    0.118481
  33 H :    0.132508
  34 H :    0.122891
  35 H :    0.123754
  36 H :    0.121012
  37 H :    0.102850
  38 H :    0.126075
  39 H :    0.128683
  40 H :    0.129708

  Mayer bond orders larger than 0.100000
B(  0-C ,  1-C ) :   1.1705 B(  0-C , 19-H ) :   0.9247 B(  0-C , 20-H ) :   0.9404
B(  0-C , 21-H ) :   0.9461 B(  1-C ,  2-O ) :   0.9011 B(  1-C , 22-H ) :   0.9044
B(  1-C , 23-H ) :   0.9348 B(  2-O ,  3-P ) :   1.1149 B(  3-P ,  4-S ) :   1.6250
B(  3-P ,  5-O ) :   1.1268 B(  3-P ,  8-S ) :   0.9628 B(  4-S ,  8-S ) :   0.1205
B(  5-O ,  6-C ) :   0.9033 B(  6-C ,  7-C ) :   1.1620 B(  6-C , 24-H ) :   0.9317
B(  6-C , 25-H ) :   0.9073 B(  7-C , 26-H ) :   0.9507 B(  7-C , 27-H ) :   0.9421
B(  7-C , 28-H ) :   0.9512 B(  8-S ,  9-C ) :   0.9910 B(  9-C , 10-S ) :   1.0055
B(  9-C , 29-H ) :   0.8467 B(  9-C , 30-H ) :   0.9091 B( 10-S , 11-P ) :   0.9389
B( 10-S , 12-S ) :   0.1084 B( 11-P , 12-S ) :   1.6505 B( 11-P , 13-O ) :   1.0849
B( 11-P , 16-O ) :   1.1205 B( 13-O , 14-C ) :   0.9036 B( 14-C , 15-C ) :   1.1667
B( 14-C , 31-H ) :   0.9184 B( 14-C , 32-H ) :   0.9341 B( 15-C , 33-H ) :   0.9368
B( 15-C , 34-H ) :   0.9432 B( 15-C , 35-H ) :   0.9348 B( 16-O , 17-C ) :   0.8899
B( 17-C , 18-C ) :   1.1647 B( 17-C , 36-H ) :   0.9344 B( 17-C , 37-H ) :   0.9104
B( 18-C , 38-H ) :   0.9422 B( 18-C , 39-H ) :   0.9475 B( 18-C , 40-H ) :   0.9399

Dispersion correction           -0.064973560
FINAL SINGLE POINT ENERGY     -2929.521145541002

DIPOLE MOMENT
-------------

Method             : SCF
Type of density    : Electron Density
Multiplicity       :   1
Irrep              :   0
Energy             : -2929.6404729389678323 Eh
Relativity type    :
Basis              : AO
                                X                 Y                 Z
Electronic contribution:      3.287099711       3.764457771       5.631075650
Nuclear contribution   :     -4.178715616      -4.540310419      -5.768732794
                        -----------------------------------------
Total Dipole Moment    :     -0.891615905      -0.775852648      -0.137657144
                        -----------------------------------------
Magnitude (a.u.)       :      1.189905771
Magnitude (Debye)      :      3.024500108

Rotational constants in cm-1:             0.013180             0.004696             0.004501
Rotational constants in MHz :           395.136011           140.782536           134.950465

                             ****ORCA TERMINATED NORMALLY****
TOTAL RUN TIME: 0 days 0 hours 0 minutes 21 seconds 45 msec
