                         Program Version 6.0.0  -   RELEASE  -
|  1> ! pbe def2-sv(p) def2/J RI DEFGRID1 loosescf d4 GCP(DFT/SV(P)) printgap
|  2> %output
|  3>     printlevel normal
|  4> end
|  5> * xyz 0 1
|  6> C 1.0384443463 -2.9543625883 0.8433407897
|  7> C 2.0801153165 -1.9909896533 1.3763383596
|  8> O 1.7662191236 -0.6329240479 1.0075899795
|  9> P 2.454278314 0.1279898925 -0.2185426946
| 10> S 3.1473590833 -1.0226710688 -1.6364772118
| 11> O 3.6370112883 0.9983661928 0.3839358296
| 12> C 3.5015867157 2.2133681327 1.1566426195
| 13> C 2.7288928792 2.0043587802 2.4421529943
| 14> S 0.9684379957 1.5515303475 -0.7020408839
| 15> C 0.1957583357 0.6288276462 -2.0532721553
| 16> S -0.6080759203 -0.9010774959 -1.5096055934
| 17> P -1.9752973957 -0.0066273429 -0.1674593415
| 18> S -2.7298802601 1.7200117819 -0.7224276468
| 19> O -1.1692645367 -0.0367080694 1.1911733736
| 20> C -1.4265511272 0.9017994154 2.2553260408
| 21> C -2.7733421262 0.6529176624 2.9002099544
| 22> O -3.0350889171 -1.1628363112 0.0778513285
| 23> C -4.0648812369 -1.4630346562 -0.8852966512
| 24> C -5.1422541357 -2.2630187089 -0.1811690774
| 25> H 1.0908970457 -3.0031843273 -0.2423214329
| 26> H 1.2230860811 -3.9423644241 1.252629554
| 27> H 0.0430187414 -2.6231530864 1.1298892512
| 28> H 3.0744324267 -2.2468195344 0.9980457855
| 29> H 2.0913796317 -1.9839965217 2.4677890079
| 30> H 4.5356687035 2.5041946425 1.3485507669
| 31> H 3.0155887788 2.9650707453 0.5290851944
| 32> H 1.7060815764 1.7084133981 2.216971285
| 33> H 3.1984596758 1.2305708478 3.0441297043
| 34> H 2.7129313559 2.934562646 3.0014050379
| 35> H 0.9538334386 0.3367682138 -2.7794150787
| 36> H -0.5444066913 1.297623685 -2.4917148142
| 37> H -0.6048873811 0.7371280256 2.9539768224
| 38> H -1.3720041291 1.9159837753 1.8459981252
| 39> H -2.9005006494 1.3250246785 3.7430068713
| 40> H -3.5656424688 0.8387779101 2.1757603916
| 41> H -2.8431882779 -0.3766120192 3.2410138194
| 42> H -4.4576791299 -0.5204035668 -1.2813685117
| 43> H -3.6131210056 -2.0329465207 -1.7017955155
| 44> H -4.7140250185 -3.1672773638 0.2411823149
| 45> H -5.5844369469 -1.6753204527 0.6182159173
| 46> H -5.9124708611 -2.5298111168 -0.8972762801
| 47> *
| 48>
| 49>                          ****END OF INPUT****

CARTESIAN COORDINATES (ANGSTROEM)
---------------------------------
  C      1.038444   -2.954363    0.843341
  C      2.080115   -1.990990    1.376338
  O      1.766219   -0.632924    1.007590
  P      2.454278    0.127990   -0.218543
  S      3.147359   -1.022671   -1.636477
  O      3.637011    0.998366    0.383936
  C      3.501587    2.213368    1.156643
  C      2.728893    2.004359    2.442153
  S      0.968438    1.551530   -0.702041
  C      0.195758    0.628828   -2.053272
  S     -0.608076   -0.901077   -1.509606
  P     -1.975297   -0.006627   -0.167459
  S     -2.729880    1.720012   -0.722428
  O     -1.169265   -0.036708    1.191173
  C     -1.426551    0.901799    2.255326
  C     -2.773342    0.652918    2.900210
  O     -3.035089   -1.162836    0.077851
  C     -4.064881   -1.463035   -0.885297
  C     -5.142254   -2.263019   -0.181169
  H      1.090897   -3.003184   -0.242321
  H      1.223086   -3.942364    1.252630
  H      0.043019   -2.623153    1.129889
  H      3.074432   -2.246820    0.998046
  H      2.091380   -1.983997    2.467789
  H      4.535669    2.504195    1.348551
  H      3.015589    2.965071    0.529085
  H      1.706082    1.708413    2.216971
  H      3.198460    1.230571    3.044130
  H      2.712931    2.934563    3.001405
  H      0.953833    0.336768   -2.779415
  H     -0.544407    1.297624   -2.491715
  H     -0.604887    0.737128    2.953977
  H     -1.372004    1.915984    1.845998
  H     -2.900501    1.325025    3.743007
  H     -3.565642    0.838778    2.175760
  H     -2.843188   -0.376612    3.241014
  H     -4.457679   -0.520404   -1.281369
  H     -3.613121   -2.032947   -1.701796
  H     -4.714025   -3.167277    0.241182
  H     -5.584437   -1.675320    0.618216
  H     -5.912471   -2.529811   -0.897276

 Total Charge           Charge          ....    0
 Multiplicity           Mult            ....    1
 Number of Electrons    NEL             ....  202
 Basis Dimension        Dim             ....  334

ORBITAL ENERGIES
----------------

  NO   OCC          E(Eh)            E(eV)
   0   2.0000     -88.044667     -2395.8172
   1   2.0000     -88.042559     -2395.7598
   2   2.0000     -87.990524     -2394.3439
   3   2.0000     -87.982183     -2394.1169
   4   2.0000     -76.428175     -2079.7164
   5   2.0000     -76.423501     -2079.5892
   6   2.0000     -18.796852      -511.4884
   7   2.0000     -18.791805      -511.3510
   8   2.0000     -18.790956      -511.3279
   9   2.0000     -18.783787      -511.1328
  10   2.0000      -9.959748      -271.0185
  11   2.0000      -9.956290      -270.9244
  12   2.0000      -9.955422      -270.9008
  13   2.0000      -9.953568      -270.8503
  14   2.0000      -9.947211      -270.6774
  15   2.0000      -9.892686      -269.1937
  16   2.0000      -9.890897      -269.1450
  17   2.0000      -9.885740      -269.0047
  18   2.0000      -9.872509      -268.6446
  19   2.0000      -7.689579      -209.2441
  20   2.0000      -7.687520      -209.1881
  21   2.0000      -7.635421      -207.7704
  22   2.0000      -7.627516      -207.5553
  23   2.0000      -6.425732      -174.8531
  24   2.0000      -6.421231      -174.7306
  25   2.0000      -5.717393      -155.5782
  26   2.0000      -5.715389      -155.5236
  27   2.0000      -5.714208      -155.4915
  28   2.0000      -5.712096      -155.4340
  29   2.0000      -5.706480      -155.2812
  30   2.0000      -5.704404      -155.2247
  31   2.0000      -5.664208      -154.1309
  32   2.0000      -5.656593      -153.9237
  33   2.0000      -5.656039      -153.9087
  34   2.0000      -5.655747      -153.9007
  35   2.0000      -5.648431      -153.7016
  36   2.0000      -5.647155      -153.6669
  37   2.0000      -4.648109      -126.4815
  38   2.0000      -4.647520      -126.4655
  39   2.0000      -4.646314      -126.4326
  40   2.0000      -4.644039      -126.3707
  41   2.0000      -4.642770      -126.3362
  42   2.0000      -4.641718      -126.3076
  43   2.0000      -0.990195       -26.9446
  44   2.0000      -0.979377       -26.6502
  45   2.0000      -0.948893       -25.8207
  46   2.0000      -0.939939       -25.5770
  47   2.0000      -0.767057       -20.8727
  48   2.0000      -0.723253       -19.6807
  49   2.0000      -0.711510       -19.3612
  50   2.0000      -0.691415       -18.8144
  51   2.0000      -0.689022       -18.7492
  52   2.0000      -0.672220       -18.2920
  53   2.0000      -0.650048       -17.6887
  54   2.0000      -0.639900       -17.4126
  55   2.0000      -0.601430       -16.3658
  56   2.0000      -0.591108       -16.0849
  57   2.0000      -0.578546       -15.7430
  58   2.0000      -0.567518       -15.4429
  59   2.0000      -0.559400       -15.2221
  60   2.0000      -0.506984       -13.7957
  61   2.0000      -0.496645       -13.5144
  62   2.0000      -0.479613       -13.0509
  63   2.0000      -0.474718       -12.9177
  64   2.0000      -0.458527       -12.4771
  65   2.0000      -0.448218       -12.1966
  66   2.0000      -0.440336       -11.9822
  67   2.0000      -0.436763       -11.8849
  68   2.0000      -0.429222       -11.6797
  69   2.0000      -0.413480       -11.2514
  70   2.0000      -0.405125       -11.0240
  71   2.0000      -0.399216       -10.8632
  72   2.0000      -0.394905       -10.7459
  73   2.0000      -0.386279       -10.5112
  74   2.0000      -0.378626       -10.3029
  75   2.0000      -0.375386       -10.2148
  76   2.0000      -0.366527        -9.9737
  77   2.0000      -0.359914        -9.7937
  78   2.0000      -0.355121        -9.6633
  79   2.0000      -0.354399        -9.6437
  80   2.0000      -0.349659        -9.5147
  81   2.0000      -0.346032        -9.4160
  82   2.0000      -0.345581        -9.4037
  83   2.0000      -0.339715        -9.2441
  84   2.0000      -0.334526        -9.1029
  85   2.0000      -0.320621        -8.7245
  86   2.0000      -0.308902        -8.4056
  87   2.0000      -0.303552        -8.2601
  88   2.0000      -0.301114        -8.1937
  89   2.0000      -0.287712        -7.8290
  90   2.0000      -0.278887        -7.5889
  91   2.0000      -0.277799        -7.5593
  92   2.0000      -0.273248        -7.4354
  93   2.0000      -0.265538        -7.2256
  94   2.0000      -0.257481        -7.0064
  95   2.0000      -0.231456        -6.2982
  96   2.0000      -0.218191        -5.9373
  97   2.0000      -0.214678        -5.8417
  98   2.0000      -0.206911        -5.6303
  99   2.0000      -0.200170        -5.4469
 100   2.0000      -0.194602        -5.2954
 101   0.0000      -0.046849        -1.2748
 102   0.0000      -0.025457        -0.6927
 103   0.0000      -0.001096        -0.0298
 104   0.0000       0.004657         0.1267
 105   0.0000       0.008954         0.2436

MULLIKEN ATOMIC CHARGES
-----------------------
   0 C :   -0.294792
   1 C :   -0.007607
   2 O :   -0.377284
   3 P :    0.621291
   4 S :   -0.319611
   5 O :   -0.369956
   6 C :   -0.016803
   7 C :   -0.333771
   8 S :   -0.106062
   9 C :   -0.345491
  10 S :   -0.076703
  11 P :    0.620285
  12 S :   -0.337744
  13 O :   -0.354347
  14 C :   -0.025791
  15 C :   -0.293374
  16 O :   -0.377567
  17 C :   -0.013689
  18 C :   -0.281101
  19 H :    0.130265
  20 H :    0.101163
  21 H :    0.116266
  22 H :    0.105063
  23 H :    0.095544
  24 H :    0.114903
  25 H :    0.119223
  26 H :    0.148209
  27 H :    0.118431
  28 H :    0.114424
  29 H :    0.193737
  30 H :    0.191936
  31 H :    0.116136
  32 H :    0.114078
  33 H :    0.111009
  34 H :    0.122879
  35 H :    0.114767
  36 H :    0.106879
  37 H :    0.104810
  38 H :    0.117793
  39 H :    0.118986
  40 H :    0.113617
Sum of atomic charges:    0.0000000

LOEWDIN ATOMIC CHARGES
----------------------
   0 C :   -0.365725
   1 C :   -0.114472
   2 O :   -0.250448
   3 P :    0.570773
   4 S :   -0.315066
   5 O :   -0.247535
   6 C :   -0.116184
   7 C :   -0.368860
   8 S :    0.088208
   9 C :   -0.476879
  10 S :    0.100719
  11 P :    0.569820
  12 S :   -0.327657
  13 O :   -0.227677
  14 C :   -0.118963
  15 C :   -0.365109
  16 O :   -0.247023
  17 C :   -0.120748
  18 C :   -0.350250
  19 H :    0.121582
  20 H :    0.124868
  21 H :    0.120636
  22 H :    0.108483
  23 H :    0.113007
  24 H :    0.124326
  25 H :    0.109858
  26 H :    0.123075
  27 H :    0.127736
  28 H :    0.131711
  29 H :    0.132891
  30 H :    0.131697
  31 H :    0.117758
  32 H :    0.110481
  33 H :    0.130323
  34 H :    0.122004
  35 H :    0.125837
  36 H :    0.108759
  37 H :    0.110937
  38 H :    0.127532
  39 H :    0.127891
  40 H :    0.131684

  Mayer bond orders larger than 0.100000
B(  0-C ,  1-C ) :   1.1736 B(  0-C , 19-H ) :   0.9356 B(  0-C , 20-H ) :   0.9383
B(  0-C , 21-H ) :   0.9415 B(  1-C ,  2-O ) :   0.9029 B(  1-C , 22-H ) :   0.9134
B(  1-C , 23-H ) :   0.9335 B(  2-O ,  3-P ) :   1.0901 B(  3-P ,  4-S ) :   1.6239
B(  3-P ,  5-O ) :   1.1206 B(  3-P ,  8-S ) :   0.9486 B(  4-S ,  8-S ) :   0.1003
B(  5-O ,  6-C ) :   0.9138 B(  6-C ,  7-C ) :   1.1623 B(  6-C , 24-H ) :   0.9347
B(  6-C , 25-H ) :   0.9184 B(  7-C , 26-H ) :   0.9303 B(  7-C , 27-H ) :   0.9452
B(  7-C , 28-H ) :   0.9357 B(  8-S ,  9-C ) :   1.0130 B(  9-C , 10-S ) :   1.0054
B(  9-C , 29-H ) :   0.8832 B(  9-C , 30-H ) :   0.8855 B( 10-S , 11-P ) :   0.9634
B( 10-S , 12-S ) :   0.1079 B( 11-P , 12-S ) :   1.5902 B( 11-P , 13-O ) :   1.1249
B( 11-P , 16-O ) :   1.1062 B( 13-O , 14-C ) :   0.9028 B( 14-C , 15-C ) :   1.1617
B( 14-C , 31-H ) :   0.9247 B( 14-C , 32-H ) :   0.9160 B( 15-C , 33-H ) :   0.9390
B( 15-C , 34-H ) :   0.9323 B( 15-C , 35-H ) :   0.9454 B( 16-O , 17-C ) :   0.9036
B( 17-C , 18-C ) :   1.1611 B( 17-C , 36-H ) :   0.9102 B( 17-C , 37-H ) :   0.9286
B( 18-C , 38-H ) :   0.9504 B( 18-C , 39-H ) :   0.9514 B( 18-C , 40-H ) :   0.9417

Dispersion correction           -0.067068659
FINAL SINGLE POINT ENERGY     -2929.522488851082

DIPOLE MOMENT
-------------

Method             : SCF
Type of density    : Electron Density
Multiplicity       :   1
Irrep              :   0
Energy             : -2929.6408361496232828 Eh
Relativity type    :
Basis              : AO
                                X                 Y                 Z
Electronic contribution:     11.479402602       6.025130078     -19.154901390
Nuclear contribution   :    -12.128906512      -6.077578404      20.606387029
                        -----------------------------------------
Total Dipole Moment    :     -0.649503910      -0.052448326       1.451485639
                        -----------------------------------------
Magnitude (a.u.)       :      1.591042651
Magnitude (Debye)      :      4.044109028

Rotational constants in cm-1:             0.012137             0.005426             0.005065
Rotational constants in MHz :           363.856774           162.659386           151.849547

                             ****ORCA TERMINATED NORMALLY****
TOTAL RUN TIME: 0 days 0 hours 0 minutes 22 seconds 143 msec
