                         Program Version 6.0.0  -   RELEASE  -
|  1> ! pbe def2-sv(p) def2/J RI DEFGRID1 loosescf d4 GCP(DFT/SV(P)) printgap
|  2> %output
|  3>     printlevel normal
|  4> end
|  5> * xyz 0 1
|  6> C 3.3232583723 -1.8870582793 2.1871524359
|  7> C 1.9756766621 -1.7908462955 1.5012358288
|  8> O 1.7625868174 -0.465840385 0.9737916061
|  9> P 2.3849589766 0.0041613622 -0.4225369838
| 10> S 3.1363931793 -1.4141610337 -1.5370574274
| 11> O 3.4555186944 1.1157751261 -0.0694512065
| 12> C 3.3916515796 2.0101186798 1.0674852744
| 13> C 2.2447200047 2.9945832553 0.9747084468
| 14> S 0.7881711957 1.0794019223 -1.3133412262
| 15> C -0.0839376075 -0.3652759043 -1.969267728
| 16> S -0.9130900241 -1.3309042998 -0.6853112954
| 17> P -2.2300701585 0.2351473567 -0.0495223079
| 18> S -2.8498426109 1.4572854795 -1.4421437424
| 19> O -1.4512908283 0.9754991874 1.1057943485
| 20> C -1.098318872 0.3266104394 2.3530546784
| 21> C -2.0420511649 0.7591059454 3.4557995486
| 22> O -3.3636981342 -0.5394594225 0.7517107481
| 23> C -4.5495526971 -1.0509928579 0.1166677447
| 24> C -4.2468448352 -2.1659127277 -0.8629521204
| 25> H 3.4536324914 -2.8891927203 2.5827135649
| 26> H 4.1157808957 -1.6871420085 1.4664281964
| 27> H 3.3924459771 -1.1692348503 3.0001846067
| 28> H 1.1516588254 -1.9447840392 2.1985627486
| 29> H 1.906875981 -2.5127705223 0.6821602513
| 30> H 3.3160673626 1.4086321734 1.975915497
| 31> H 4.356925262 2.5176044068 1.0367525059
| 32> H 2.3253036508 3.7118982334 1.7857468611
| 33> H 2.2753553124 3.5237629 0.0251521072
| 34> H 1.2874898542 2.4814884288 1.050112787
| 35> H 0.6268958188 -1.0301043421 -2.4613665596
| 36> H -0.825851561 0.016904705 -2.6697310732
| 37> H -1.1265544158 -0.7565466643 2.2079344908
| 38> H -0.0737758254 0.6452807723 2.5553586238
| 39> H -3.0534931871 0.4288099576 3.2346699656
| 40> H -1.7181091778 0.3206369229 4.3944835923
| 41> H -2.0386892822 1.8420000132 3.5437209211
| 42> H -5.1583329813 -1.4036949157 0.9504272189
| 43> H -5.0530734599 -0.2216106296 -0.38902602
| 44> H -3.643207115 -2.9358861405 -0.389007705
| 45> H -5.1792618908 -2.6001627429 -1.2091198321
| 46> H -3.7037968948 -1.7718394954 -1.7206016818
| 47> *
| 48>
| 49>                          ****END OF INPUT****

CARTESIAN COORDINATES (ANGSTROEM)
---------------------------------
  C      3.323258   -1.887058    2.187152
  C      1.975677   -1.790846    1.501236
  O      1.762587   -0.465840    0.973792
  P      2.384959    0.004161   -0.422537
  S      3.136393   -1.414161   -1.537057
  O      3.455519    1.115775   -0.069451
  C      3.391652    2.010119    1.067485
  C      2.244720    2.994583    0.974708
  S      0.788171    1.079402   -1.313341
  C     -0.083938   -0.365276   -1.969268
  S     -0.913090   -1.330904   -0.685311
  P     -2.230070    0.235147   -0.049522
  S     -2.849843    1.457285   -1.442144
  O     -1.451291    0.975499    1.105794
  C     -1.098319    0.326610    2.353055
  C     -2.042051    0.759106    3.455800
  O     -3.363698   -0.539459    0.751711
  C     -4.549553   -1.050993    0.116668
  C     -4.246845   -2.165913   -0.862952
  H      3.453632   -2.889193    2.582714
  H      4.115781   -1.687142    1.466428
  H      3.392446   -1.169235    3.000185
  H      1.151659   -1.944784    2.198563
  H      1.906876   -2.512771    0.682160
  H      3.316067    1.408632    1.975915
  H      4.356925    2.517604    1.036753
  H      2.325304    3.711898    1.785747
  H      2.275355    3.523763    0.025152
  H      1.287490    2.481488    1.050113
  H      0.626896   -1.030104   -2.461367
  H     -0.825852    0.016905   -2.669731
  H     -1.126554   -0.756547    2.207934
  H     -0.073776    0.645281    2.555359
  H     -3.053493    0.428810    3.234670
  H     -1.718109    0.320637    4.394484
  H     -2.038689    1.842000    3.543721
  H     -5.158333   -1.403695    0.950427
  H     -5.053073   -0.221611   -0.389026
  H     -3.643207   -2.935886   -0.389008
  H     -5.179262   -2.600163   -1.209120
  H     -3.703797   -1.771839   -1.720602

 Total Charge           Charge          ....    0
 Multiplicity           Mult            ....    1
 Number of Electrons    NEL             ....  202
 Basis Dimension        Dim             ....  334

ORBITAL ENERGIES
----------------

  NO   OCC          E(Eh)            E(eV)
   0   2.0000     -88.041227     -2395.7236
   1   2.0000     -88.038013     -2395.6361
   2   2.0000     -87.989548     -2394.3173
   3   2.0000     -87.985670     -2394.2118
   4   2.0000     -76.429419     -2079.7502
   5   2.0000     -76.426396     -2079.6680
   6   2.0000     -18.799574      -511.5624
   7   2.0000     -18.795746      -511.4583
   8   2.0000     -18.795322      -511.4467
   9   2.0000     -18.792574      -511.3719
  10   2.0000      -9.961681      -271.0711
  11   2.0000      -9.958203      -270.9765
  12   2.0000      -9.957938      -270.9693
  13   2.0000      -9.954557      -270.8773
  14   2.0000      -9.950201      -270.7587
  15   2.0000      -9.890603      -269.1370
  16   2.0000      -9.889924      -269.1185
  17   2.0000      -9.888891      -269.0904
  18   2.0000      -9.887008      -269.0392
  19   2.0000      -7.685940      -209.1451
  20   2.0000      -7.682876      -209.0617
  21   2.0000      -7.634793      -207.7533
  22   2.0000      -7.630937      -207.6483
  23   2.0000      -6.426732      -174.8803
  24   2.0000      -6.424143      -174.8098
  25   2.0000      -5.713693      -155.4775
  26   2.0000      -5.710786      -155.3984
  27   2.0000      -5.710630      -155.3941
  28   2.0000      -5.707535      -155.3099
  29   2.0000      -5.702912      -155.1841
  30   2.0000      -5.699685      -155.0963
  31   2.0000      -5.663821      -154.1204
  32   2.0000      -5.659883      -154.0132
  33   2.0000      -5.655234      -153.8867
  34   2.0000      -5.654999      -153.8803
  35   2.0000      -5.651476      -153.7845
  36   2.0000      -5.651080      -153.7737
  37   2.0000      -4.649715      -126.5252
  38   2.0000      -4.648363      -126.4884
  39   2.0000      -4.647277      -126.4588
  40   2.0000      -4.646985      -126.4509
  41   2.0000      -4.645368      -126.4069
  42   2.0000      -4.644583      -126.3855
  43   2.0000      -0.992637       -27.0110
  44   2.0000      -0.988084       -26.8871
  45   2.0000      -0.948559       -25.8116
  46   2.0000      -0.946955       -25.7679
  47   2.0000      -0.763409       -20.7734
  48   2.0000      -0.723211       -19.6796
  49   2.0000      -0.712739       -19.3946
  50   2.0000      -0.695373       -18.9221
  51   2.0000      -0.694219       -18.8907
  52   2.0000      -0.676035       -18.3958
  53   2.0000      -0.652868       -17.7654
  54   2.0000      -0.638150       -17.3649
  55   2.0000      -0.600409       -16.3380
  56   2.0000      -0.593600       -16.1527
  57   2.0000      -0.583049       -15.8656
  58   2.0000      -0.577943       -15.7266
  59   2.0000      -0.559356       -15.2208
  60   2.0000      -0.505822       -13.7641
  61   2.0000      -0.497570       -13.5396
  62   2.0000      -0.481698       -13.1077
  63   2.0000      -0.478349       -13.0165
  64   2.0000      -0.458072       -12.4648
  65   2.0000      -0.453373       -12.3369
  66   2.0000      -0.447001       -12.1635
  67   2.0000      -0.435539       -11.8516
  68   2.0000      -0.430287       -11.7087
  69   2.0000      -0.421059       -11.4576
  70   2.0000      -0.412331       -11.2201
  71   2.0000      -0.400748       -10.9049
  72   2.0000      -0.395721       -10.7681
  73   2.0000      -0.383816       -10.4442
  74   2.0000      -0.379344       -10.3225
  75   2.0000      -0.376856       -10.2548
  76   2.0000      -0.369396       -10.0518
  77   2.0000      -0.362841        -9.8734
  78   2.0000      -0.359276        -9.7764
  79   2.0000      -0.356546        -9.7021
  80   2.0000      -0.352984        -9.6052
  81   2.0000      -0.348837        -9.4923
  82   2.0000      -0.345585        -9.4039
  83   2.0000      -0.344506        -9.3745
  84   2.0000      -0.339024        -9.2253
  85   2.0000      -0.325858        -8.8670
  86   2.0000      -0.313509        -8.5310
  87   2.0000      -0.305047        -8.3007
  88   2.0000      -0.302326        -8.2267
  89   2.0000      -0.298083        -8.1112
  90   2.0000      -0.288108        -7.8398
  91   2.0000      -0.277226        -7.5437
  92   2.0000      -0.272900        -7.4260
  93   2.0000      -0.266640        -7.2556
  94   2.0000      -0.259026        -7.0485
  95   2.0000      -0.231086        -6.2882
  96   2.0000      -0.216863        -5.9011
  97   2.0000      -0.213807        -5.8180
  98   2.0000      -0.205452        -5.5906
  99   2.0000      -0.203214        -5.5297
 100   2.0000      -0.196250        -5.3402
 101   0.0000      -0.045111        -1.2275
 102   0.0000      -0.021936        -0.5969
 103   0.0000      -0.002801        -0.0762
 104   0.0000      -0.000089        -0.0024
 105   0.0000       0.008403         0.2286

MULLIKEN ATOMIC CHARGES
-----------------------
   0 C :   -0.305404
   1 C :   -0.009321
   2 O :   -0.390625
   3 P :    0.625806
   4 S :   -0.317447
   5 O :   -0.368684
   6 C :   -0.006778
   7 C :   -0.350528
   8 S :   -0.070163
   9 C :   -0.362785
  10 S :   -0.098905
  11 P :    0.599659
  12 S :   -0.307859
  13 O :   -0.349776
  14 C :   -0.031983
  15 C :   -0.279344
  16 O :   -0.384107
  17 C :   -0.000612
  18 C :   -0.316592
  19 H :    0.113573
  20 H :    0.127830
  21 H :    0.112225
  22 H :    0.099884
  23 H :    0.114305
  24 H :    0.105850
  25 H :    0.113363
  26 H :    0.116074
  27 H :    0.131555
  28 H :    0.156417
  29 H :    0.189930
  30 H :    0.192884
  31 H :    0.107045
  32 H :    0.118898
  33 H :    0.118486
  34 H :    0.106690
  35 H :    0.119509
  36 H :    0.104707
  37 H :    0.114359
  38 H :    0.117355
  39 H :    0.114860
  40 H :    0.129654
Sum of atomic charges:   -0.0000000

LOEWDIN ATOMIC CHARGES
----------------------
   0 C :   -0.363773
   1 C :   -0.123195
   2 O :   -0.252640
   3 P :    0.575518
   4 S :   -0.309360
   5 O :   -0.242837
   6 C :   -0.110711
   7 C :   -0.374721
   8 S :    0.100442
   9 C :   -0.487224
  10 S :    0.069352
  11 P :    0.573520
  12 S :   -0.305016
  13 O :   -0.233975
  14 C :   -0.115662
  15 C :   -0.356714
  16 O :   -0.248517
  17 C :   -0.116147
  18 C :   -0.370637
  19 H :    0.131926
  20 H :    0.126114
  21 H :    0.120013
  22 H :    0.111353
  23 H :    0.108546
  24 H :    0.109497
  25 H :    0.123778
  26 H :    0.133221
  27 H :    0.131101
  28 H :    0.125350
  29 H :    0.128580
  30 H :    0.130283
  31 H :    0.103895
  32 H :    0.115745
  33 H :    0.126174
  34 H :    0.128126
  35 H :    0.128877
  36 H :    0.118291
  37 H :    0.113769
  38 H :    0.123377
  39 H :    0.131999
  40 H :    0.122284

  Mayer bond orders larger than 0.100000
B(  0-C ,  1-C ) :   1.1640 B(  0-C , 19-H ) :   0.9397 B(  0-C , 20-H ) :   0.9364
B(  0-C , 21-H ) :   0.9436 B(  1-C ,  2-O ) :   0.8975 B(  1-C , 22-H ) :   0.9273
B(  1-C , 23-H ) :   0.9074 B(  2-O ,  3-P ) :   1.0497 B(  3-P ,  4-S ) :   1.6263
B(  3-P ,  5-O ) :   1.1325 B(  3-P ,  8-S ) :   0.9704 B(  4-S ,  8-S ) :   0.1011
B(  5-O ,  6-C ) :   0.9031 B(  6-C ,  7-C ) :   1.1692 B(  6-C , 24-H ) :   0.9239
B(  6-C , 25-H ) :   0.9334 B(  7-C , 26-H ) :   0.9350 B(  7-C , 27-H ) :   0.9414
B(  7-C , 28-H ) :   0.9261 B(  8-S ,  9-C ) :   1.0107 B(  9-C , 10-S ) :   0.9992
B(  9-C , 29-H ) :   0.8711 B(  9-C , 30-H ) :   0.8822 B( 10-S , 11-P ) :   0.9447
B( 10-S , 12-S ) :   0.1104 B( 11-P , 12-S ) :   1.6372 B( 11-P , 13-O ) :   1.1312
B( 11-P , 16-O ) :   1.0771 B( 13-O , 14-C ) :   0.8952 B( 14-C , 15-C ) :   1.1587
B( 14-C , 31-H ) :   0.9112 B( 14-C , 32-H ) :   0.9227 B( 15-C , 33-H ) :   0.9436
B( 15-C , 34-H ) :   0.9406 B( 15-C , 35-H ) :   0.9468 B( 16-O , 17-C ) :   0.9045
B( 17-C , 18-C ) :   1.1668 B( 17-C , 36-H ) :   0.9341 B( 17-C , 37-H ) :   0.9187
B( 18-C , 38-H ) :   0.9436 B( 18-C , 39-H ) :   0.9365 B( 18-C , 40-H ) :   0.9348

Dispersion correction           -0.067134740
FINAL SINGLE POINT ENERGY     -2929.519636214666

DIPOLE MOMENT
-------------

Method             : SCF
Type of density    : Electron Density
Multiplicity       :   1
Irrep              :   0
Energy             : -2929.6393838387739379 Eh
Relativity type    :
Basis              : AO
                                X                 Y                 Z
Electronic contribution:      2.842257161       3.537122746     -20.883924238
Nuclear contribution   :     -3.294720832      -3.968741436      22.983563622
                        -----------------------------------------
Total Dipole Moment    :     -0.452463671      -0.431618690       2.099639384
                        -----------------------------------------
Magnitude (a.u.)       :      2.190776942
Magnitude (Debye)      :      5.568512450

Rotational constants in cm-1:             0.011881             0.005295             0.005106
Rotational constants in MHz :           356.195224           158.749111           153.062780

                             ****ORCA TERMINATED NORMALLY****
TOTAL RUN TIME: 0 days 0 hours 0 minutes 22 seconds 35 msec
