                         Program Version 6.0.0  -   RELEASE  -
|  1> ! r2scan-3c def2/J RI DEFGRID2 scfconv6 printgap
|  2> %output
|  3>     printlevel normal
|  4> end
|  5> * xyz 0 1
|  6> C 4.6573503422 -2.9902836412 -1.4751692577
|  7> C 3.8528794702 -1.7133227215 -1.6086944836
|  8> O 2.9402673687 -1.647628806 -0.4931480389
|  9> P 2.1933751642 -0.3012987372 -0.1133458647
| 10> S 3.3376460981 1.2881578671 0.0376481702
| 11> O 1.4020621591 -0.7351142246 1.1845345574
| 12> C 1.879477398 -0.4277732894 2.5099313054
| 13> C 3.0955832344 -1.2583312084 2.8603880666
| 14> S 0.6451131901 -0.1885332436 -1.552461714
| 15> C 0.2061705776 1.537230025 -1.225472881
| 16> S -0.5135882731 1.7674520106 0.422358858
| 17> P -2.3541740849 0.7951873548 0.0417775294
| 18> S -2.9936501147 0.9152116604 -1.8118956864
| 19> O -3.1450598446 1.5534352462 1.1842602202
| 20> C -4.3581090474 1.0586400583 1.792195069
| 21> C -5.497082758 0.9501484122 0.7988443694
| 22> O -2.2845630343 -0.6901246469 0.6140606902
| 23> C -2.234576837 -1.8865689805 -0.1908359459
| 24> C -1.1866026949 -2.8277257128 0.3665487531
| 25> H 5.232954302 -2.9766896804 -0.5542001698
| 26> H 3.9904907315 -3.8471517063 -1.4618186697
| 27> H 5.3343205157 -3.0735908941 -2.3189921027
| 28> H 3.2664483479 -1.7043410176 -2.5314663964
| 29> H 4.495380176 -0.8267814586 -1.5850993572
| 30> H 2.107925497 0.6418190977 2.5587535984
| 31> H 1.0288015426 -0.6516549027 3.1546761476
| 32> H 3.3859616455 -1.0599101985 3.8872538601
| 33> H 2.8761442935 -2.3158574102 2.7411790655
| 34> H 3.9212134563 -0.993032759 2.2007961467
| 35> H -0.5179870198 1.8275551656 -1.9870523621
| 36> H 1.1029317931 2.1551195534 -1.26829647
| 37> H -4.1443501704 0.0906151375 2.2513094221
| 38> H -4.5722970334 1.7973291811 2.5664262921
| 39> H -6.4012502946 0.6467609718 1.317264728
| 40> H -5.6653175663 1.9076585726 0.3116339855
| 41> H -5.2606897511 0.2132357663 0.0321141734
| 42> H -3.2293277096 -2.3360530159 -0.1373342722
| 43> H -2.0230976917 -1.6154021089 -1.2297823527
| 44> H -0.1964910332 -2.3847701875 0.2963363166
| 45> H -1.3998801824 -3.0460459799 1.4090648867
| 46> H -1.2029562323 -3.7492987131 -0.2059331405
| 47> *
| 48>
| 49>                          ****END OF INPUT****

CARTESIAN COORDINATES (ANGSTROEM)
---------------------------------
  C      4.657350   -2.990284   -1.475169
  C      3.852879   -1.713323   -1.608694
  O      2.940267   -1.647629   -0.493148
  P      2.193375   -0.301299   -0.113346
  S      3.337646    1.288158    0.037648
  O      1.402062   -0.735114    1.184535
  C      1.879477   -0.427773    2.509931
  C      3.095583   -1.258331    2.860388
  S      0.645113   -0.188533   -1.552462
  C      0.206171    1.537230   -1.225473
  S     -0.513588    1.767452    0.422359
  P     -2.354174    0.795187    0.041778
  S     -2.993650    0.915212   -1.811896
  O     -3.145060    1.553435    1.184260
  C     -4.358109    1.058640    1.792195
  C     -5.497083    0.950148    0.798844
  O     -2.284563   -0.690125    0.614061
  C     -2.234577   -1.886569   -0.190836
  C     -1.186603   -2.827726    0.366549
  H      5.232954   -2.976690   -0.554200
  H      3.990491   -3.847152   -1.461819
  H      5.334321   -3.073591   -2.318992
  H      3.266448   -1.704341   -2.531466
  H      4.495380   -0.826781   -1.585099
  H      2.107925    0.641819    2.558754
  H      1.028802   -0.651655    3.154676
  H      3.385962   -1.059910    3.887254
  H      2.876144   -2.315857    2.741179
  H      3.921213   -0.993033    2.200796
  H     -0.517987    1.827555   -1.987052
  H      1.102932    2.155120   -1.268296
  H     -4.144350    0.090615    2.251309
  H     -4.572297    1.797329    2.566426
  H     -6.401250    0.646761    1.317265
  H     -5.665318    1.907659    0.311634
  H     -5.260690    0.213236    0.032114
  H     -3.229328   -2.336053   -0.137334
  H     -2.023098   -1.615402   -1.229782
  H     -0.196491   -2.384770    0.296336
  H     -1.399880   -3.046046    1.409065
  H     -1.202956   -3.749299   -0.205933

 Total Charge           Charge          ....    0
 Multiplicity           Mult            ....    1
 Number of Electrons    NEL             ....  202
 Basis Dimension        Dim             ....  539

ORBITAL ENERGIES
----------------

  NO   OCC          E(Eh)            E(eV)
   0   2.0000     -88.576263     -2410.2827
   1   2.0000     -88.570801     -2410.1340
   2   2.0000     -88.523123     -2408.8366
   3   2.0000     -88.518503     -2408.7109
   4   2.0000     -76.915644     -2092.9811
   5   2.0000     -76.913291     -2092.9171
   6   2.0000     -18.996742      -516.9276
   7   2.0000     -18.992266      -516.8058
   8   2.0000     -18.990988      -516.7710
   9   2.0000     -18.990245      -516.7508
  10   2.0000     -10.102609      -274.9060
  11   2.0000     -10.102225      -274.8955
  12   2.0000     -10.100624      -274.8520
  13   2.0000     -10.098171      -274.7852
  14   2.0000     -10.094383      -274.6821
  15   2.0000     -10.036554      -273.1085
  16   2.0000     -10.029830      -272.9255
  17   2.0000     -10.029372      -272.9131
  18   2.0000     -10.024175      -272.7717
  19   2.0000      -7.870608      -214.1701
  20   2.0000      -7.864937      -214.0158
  21   2.0000      -7.817844      -212.7343
  22   2.0000      -7.813364      -212.6124
  23   2.0000      -6.594423      -179.4434
  24   2.0000      -6.591373      -179.3604
  25   2.0000      -5.817369      -158.2987
  26   2.0000      -5.814459      -158.2195
  27   2.0000      -5.811883      -158.1494
  28   2.0000      -5.808838      -158.0665
  29   2.0000      -5.807859      -158.0399
  30   2.0000      -5.801976      -157.8798
  31   2.0000      -5.765417      -156.8850
  32   2.0000      -5.761004      -156.7649
  33   2.0000      -5.758125      -156.6865
  34   2.0000      -5.757927      -156.6812
  35   2.0000      -5.753798      -156.5688
  36   2.0000      -5.753213      -156.5529
  37   2.0000      -4.739767      -128.9756
  38   2.0000      -4.739368      -128.9647
  39   2.0000      -4.738227      -128.9337
  40   2.0000      -4.737151      -128.9044
  41   2.0000      -4.736067      -128.8749
  42   2.0000      -4.735126      -128.8493
  43   2.0000      -1.053893       -28.6779
  44   2.0000      -1.048600       -28.5339
  45   2.0000      -1.014872       -27.6161
  46   2.0000      -1.007211       -27.4076
  47   2.0000      -0.801267       -21.8036
  48   2.0000      -0.761723       -20.7275
  49   2.0000      -0.750435       -20.4204
  50   2.0000      -0.734772       -19.9942
  51   2.0000      -0.732131       -19.9223
  52   2.0000      -0.708458       -19.2781
  53   2.0000      -0.684646       -18.6302
  54   2.0000      -0.667808       -18.1720
  55   2.0000      -0.633079       -17.2270
  56   2.0000      -0.624218       -16.9858
  57   2.0000      -0.605485       -16.4761
  58   2.0000      -0.602201       -16.3867
  59   2.0000      -0.589575       -16.0432
  60   2.0000      -0.532422       -14.4879
  61   2.0000      -0.524403       -14.2697
  62   2.0000      -0.499757       -13.5991
  63   2.0000      -0.492951       -13.4139
  64   2.0000      -0.478381       -13.0174
  65   2.0000      -0.466630       -12.6976
  66   2.0000      -0.456364       -12.4183
  67   2.0000      -0.450355       -12.2548
  68   2.0000      -0.443706       -12.0739
  69   2.0000      -0.433605       -11.7990
  70   2.0000      -0.428675       -11.6648
  71   2.0000      -0.414852       -11.2887
  72   2.0000      -0.405842       -11.0435
  73   2.0000      -0.400412       -10.8958
  74   2.0000      -0.396194       -10.7810
  75   2.0000      -0.389939       -10.6108
  76   2.0000      -0.382776       -10.4159
  77   2.0000      -0.375822       -10.2266
  78   2.0000      -0.368688       -10.0325
  79   2.0000      -0.365074        -9.9342
  80   2.0000      -0.364020        -9.9055
  81   2.0000      -0.362210        -9.8562
  82   2.0000      -0.358058        -9.7432
  83   2.0000      -0.352980        -9.6051
  84   2.0000      -0.346985        -9.4419
  85   2.0000      -0.337758        -9.1909
  86   2.0000      -0.324552        -8.8315
  87   2.0000      -0.319175        -8.6852
  88   2.0000      -0.307776        -8.3750
  89   2.0000      -0.307313        -8.3624
  90   2.0000      -0.302785        -8.2392
  91   2.0000      -0.292525        -7.9600
  92   2.0000      -0.289598        -7.8804
  93   2.0000      -0.281178        -7.6512
  94   2.0000      -0.271337        -7.3835
  95   2.0000      -0.246435        -6.7058
  96   2.0000      -0.228973        -6.2307
  97   2.0000      -0.227824        -6.1994
  98   2.0000      -0.218788        -5.9535
  99   2.0000      -0.214106        -5.8261
 100   2.0000      -0.210457        -5.7268
 101   0.0000      -0.047017        -1.2794
 102   0.0000      -0.024506        -0.6668
 103   0.0000      -0.001336        -0.0364
 104   0.0000       0.002056         0.0559
 105   0.0000       0.014064         0.3827

MULLIKEN ATOMIC CHARGES
-----------------------
   0 C :   -0.437814
   1 C :   -0.159758
   2 O :   -0.286640
   3 P :    0.703112
   4 S :   -0.484773
   5 O :   -0.269517
   6 C :   -0.150696
   7 C :   -0.444793
   8 S :   -0.164318
   9 C :   -0.223129
  10 S :   -0.116253
  11 P :    0.683121
  12 S :   -0.466052
  13 O :   -0.307788
  14 C :   -0.149087
  15 C :   -0.436112
  16 O :   -0.292870
  17 C :   -0.105422
  18 C :   -0.467950
  19 H :    0.155166
  20 H :    0.153604
  21 H :    0.148298
  22 H :    0.153625
  23 H :    0.171463
  24 H :    0.174889
  25 H :    0.154548
  26 H :    0.148004
  27 H :    0.155306
  28 H :    0.168512
  29 H :    0.214156
  30 H :    0.215161
  31 H :    0.157875
  32 H :    0.149755
  33 H :    0.146118
  34 H :    0.163928
  35 H :    0.164245
  36 H :    0.144966
  37 H :    0.171525
  38 H :    0.176818
  39 H :    0.145010
  40 H :    0.143764
Sum of atomic charges:   -0.0000000

LOEWDIN ATOMIC CHARGES
----------------------
   0 C :   -0.385048
   1 C :    0.020504
   2 O :   -0.664380
   3 P :    0.372094
   4 S :   -0.130278
   5 O :   -0.680986
   6 C :    0.019399
   7 C :   -0.399199
   8 S :    0.156444
   9 C :   -0.422980
  10 S :    0.190206
  11 P :    0.387173
  12 S :   -0.130908
  13 O :   -0.666370
  14 C :    0.031104
  15 C :   -0.401762
  16 O :   -0.666453
  17 C :    0.013718
  18 C :   -0.396629
  19 H :    0.160438
  20 H :    0.160015
  21 H :    0.160657
  22 H :    0.172677
  23 H :    0.180813
  24 H :    0.182291
  25 H :    0.181247
  26 H :    0.159916
  27 H :    0.159884
  28 H :    0.165299
  29 H :    0.192598
  30 H :    0.191369
  31 H :    0.174667
  32 H :    0.181652
  33 H :    0.157823
  34 H :    0.165141
  35 H :    0.164549
  36 H :    0.170863
  37 H :    0.182658
  38 H :    0.173832
  39 H :    0.157492
  40 H :    0.158470

  Mayer bond orders larger than 0.100000
B(  0-C ,  1-C ) :   0.9556 B(  0-C , 19-H ) :   0.9712 B(  0-C , 20-H ) :   0.9715
B(  0-C , 21-H ) :   0.9643 B(  1-C ,  2-O ) :   0.7791 B(  1-C , 22-H ) :   0.9452
B(  1-C , 23-H ) :   0.9507 B(  2-O ,  3-P ) :   1.0883 B(  3-P ,  4-S ) :   1.7550
B(  3-P ,  5-O ) :   1.1419 B(  3-P ,  8-S ) :   1.0487 B(  5-O ,  6-C ) :   0.7796
B(  6-C ,  7-C ) :   0.9208 B(  6-C , 24-H ) :   0.9607 B(  6-C , 25-H ) :   0.9625
B(  7-C , 26-H ) :   0.9630 B(  7-C , 27-H ) :   0.9730 B(  7-C , 28-H ) :   0.9598
B(  8-S ,  9-C ) :   0.8959 B(  9-C , 10-S ) :   0.9034 B(  9-C , 29-H ) :   0.9035
B(  9-C , 30-H ) :   0.9054 B( 10-S , 11-P ) :   1.0877 B( 11-P , 12-S ) :   1.7730
B( 11-P , 13-O ) :   1.1566 B( 11-P , 16-O ) :   1.0470 B( 13-O , 14-C ) :   0.7972
B( 14-C , 15-C ) :   0.9428 B( 14-C , 31-H ) :   0.9701 B( 14-C , 32-H ) :   0.9584
B( 15-C , 33-H ) :   0.9640 B( 15-C , 34-H ) :   0.9670 B( 15-C , 35-H ) :   0.9538
B( 16-O , 17-C ) :   0.7392 B( 17-C , 18-C ) :   0.9434 B( 17-C , 36-H ) :   0.9548
B( 17-C , 37-H ) :   0.9558 B( 18-C , 38-H ) :   0.9597 B( 18-C , 39-H ) :   0.9698
B( 18-C , 40-H ) :   0.9698

Dispersion correction           -0.021381498
FINAL SINGLE POINT ENERGY     -2932.464181482506

DIPOLE MOMENT
-------------

Method             : SCF
Type of density    : Electron Density
Multiplicity       :   1
Irrep              :   0
Energy             : -2932.4893331305383981 Eh
Relativity type    :
Basis              : AO
                                X                 Y                 Z
Electronic contribution:     -2.146088305      18.992164938      -8.156052692
Nuclear contribution   :      2.111106460     -20.556797789       9.047645279
                        -----------------------------------------
Total Dipole Moment    :     -0.034981845      -1.564632851       0.891592587
                        -----------------------------------------
Magnitude (a.u.)       :      1.801176568
Magnitude (Debye)      :      4.578226999

Rotational constants in cm-1:             0.013845             0.004525             0.004492
Rotational constants in MHz :           415.076062           135.651638           134.669150

                             ****ORCA TERMINATED NORMALLY****
TOTAL RUN TIME: 0 days 0 hours 1 minutes 23 seconds 619 msec
