                         Program Version 6.0.0  -   RELEASE  -
|  1> ! r2scan-3c def2/J RI DEFGRID2 scfconv6 printgap
|  2> %output
|  3>     printlevel normal
|  4> end
|  5> %cpcm
|  6>     smd true
|  7>     smdsolvent "water"
|  8> end
|  9> * xyz 0 1
| 10> C 4.6573503422 -2.9902836412 -1.4751692577
| 11> C 3.8528794702 -1.7133227215 -1.6086944836
| 12> O 2.9402673687 -1.647628806 -0.4931480389
| 13> P 2.1933751642 -0.3012987372 -0.1133458647
| 14> S 3.3376460981 1.2881578671 0.0376481702
| 15> O 1.4020621591 -0.7351142246 1.1845345574
| 16> C 1.879477398 -0.4277732894 2.5099313054
| 17> C 3.0955832344 -1.2583312084 2.8603880666
| 18> S 0.6451131901 -0.1885332436 -1.552461714
| 19> C 0.2061705776 1.537230025 -1.225472881
| 20> S -0.5135882731 1.7674520106 0.422358858
| 21> P -2.3541740849 0.7951873548 0.0417775294
| 22> S -2.9936501147 0.9152116604 -1.8118956864
| 23> O -3.1450598446 1.5534352462 1.1842602202
| 24> C -4.3581090474 1.0586400583 1.792195069
| 25> C -5.497082758 0.9501484122 0.7988443694
| 26> O -2.2845630343 -0.6901246469 0.6140606902
| 27> C -2.234576837 -1.8865689805 -0.1908359459
| 28> C -1.1866026949 -2.8277257128 0.3665487531
| 29> H 5.232954302 -2.9766896804 -0.5542001698
| 30> H 3.9904907315 -3.8471517063 -1.4618186697
| 31> H 5.3343205157 -3.0735908941 -2.3189921027
| 32> H 3.2664483479 -1.7043410176 -2.5314663964
| 33> H 4.495380176 -0.8267814586 -1.5850993572
| 34> H 2.107925497 0.6418190977 2.5587535984
| 35> H 1.0288015426 -0.6516549027 3.1546761476
| 36> H 3.3859616455 -1.0599101985 3.8872538601
| 37> H 2.8761442935 -2.3158574102 2.7411790655
| 38> H 3.9212134563 -0.993032759 2.2007961467
| 39> H -0.5179870198 1.8275551656 -1.9870523621
| 40> H 1.1029317931 2.1551195534 -1.26829647
| 41> H -4.1443501704 0.0906151375 2.2513094221
| 42> H -4.5722970334 1.7973291811 2.5664262921
| 43> H -6.4012502946 0.6467609718 1.317264728
| 44> H -5.6653175663 1.9076585726 0.3116339855
| 45> H -5.2606897511 0.2132357663 0.0321141734
| 46> H -3.2293277096 -2.3360530159 -0.1373342722
| 47> H -2.0230976917 -1.6154021089 -1.2297823527
| 48> H -0.1964910332 -2.3847701875 0.2963363166
| 49> H -1.3998801824 -3.0460459799 1.4090648867
| 50> H -1.2029562323 -3.7492987131 -0.2059331405
| 51> *
| 52>
| 53>                          ****END OF INPUT****

CARTESIAN COORDINATES (ANGSTROEM)
---------------------------------
  C      4.657350   -2.990284   -1.475169
  C      3.852879   -1.713323   -1.608694
  O      2.940267   -1.647629   -0.493148
  P      2.193375   -0.301299   -0.113346
  S      3.337646    1.288158    0.037648
  O      1.402062   -0.735114    1.184535
  C      1.879477   -0.427773    2.509931
  C      3.095583   -1.258331    2.860388
  S      0.645113   -0.188533   -1.552462
  C      0.206171    1.537230   -1.225473
  S     -0.513588    1.767452    0.422359
  P     -2.354174    0.795187    0.041778
  S     -2.993650    0.915212   -1.811896
  O     -3.145060    1.553435    1.184260
  C     -4.358109    1.058640    1.792195
  C     -5.497083    0.950148    0.798844
  O     -2.284563   -0.690125    0.614061
  C     -2.234577   -1.886569   -0.190836
  C     -1.186603   -2.827726    0.366549
  H      5.232954   -2.976690   -0.554200
  H      3.990491   -3.847152   -1.461819
  H      5.334321   -3.073591   -2.318992
  H      3.266448   -1.704341   -2.531466
  H      4.495380   -0.826781   -1.585099
  H      2.107925    0.641819    2.558754
  H      1.028802   -0.651655    3.154676
  H      3.385962   -1.059910    3.887254
  H      2.876144   -2.315857    2.741179
  H      3.921213   -0.993033    2.200796
  H     -0.517987    1.827555   -1.987052
  H      1.102932    2.155120   -1.268296
  H     -4.144350    0.090615    2.251309
  H     -4.572297    1.797329    2.566426
  H     -6.401250    0.646761    1.317265
  H     -5.665318    1.907659    0.311634
  H     -5.260690    0.213236    0.032114
  H     -3.229328   -2.336053   -0.137334
  H     -2.023098   -1.615402   -1.229782
  H     -0.196491   -2.384770    0.296336
  H     -1.399880   -3.046046    1.409065
  H     -1.202956   -3.749299   -0.205933

 Total Charge           Charge          ....    0
 Multiplicity           Mult            ....    1
 Number of Electrons    NEL             ....  202
 Basis Dimension        Dim             ....  539

ORBITAL ENERGIES
----------------

  NO   OCC          E(Eh)            E(eV)
   0   2.0000     -88.580700     -2410.4034
   1   2.0000     -88.578971     -2410.3564
   2   2.0000     -88.529870     -2409.0202
   3   2.0000     -88.528255     -2408.9763
   4   2.0000     -76.920713     -2093.1190
   5   2.0000     -76.920147     -2093.1036
   6   2.0000     -18.997506      -516.9484
   7   2.0000     -18.994911      -516.8778
   8   2.0000     -18.994583      -516.8689
   9   2.0000     -18.994373      -516.8632
  10   2.0000     -10.103543      -274.9314
  11   2.0000     -10.091348      -274.5996
  12   2.0000     -10.091179      -274.5949
  13   2.0000     -10.090024      -274.5635
  14   2.0000     -10.088435      -274.5203
  15   2.0000     -10.020054      -272.6595
  16   2.0000     -10.018937      -272.6291
  17   2.0000     -10.018561      -272.6189
  18   2.0000     -10.016309      -272.5576
  19   2.0000      -7.875066      -214.2914
  20   2.0000      -7.873191      -214.2404
  21   2.0000      -7.824873      -212.9256
  22   2.0000      -7.823409      -212.8858
  23   2.0000      -6.598944      -179.5664
  24   2.0000      -6.598818      -179.5630
  25   2.0000      -5.821815      -158.4196
  26   2.0000      -5.820066      -158.3720
  27   2.0000      -5.818923      -158.3409
  28   2.0000      -5.817030      -158.2894
  29   2.0000      -5.812320      -158.1613
  30   2.0000      -5.810361      -158.1080
  31   2.0000      -5.772386      -157.0746
  32   2.0000      -5.770983      -157.0364
  33   2.0000      -5.765144      -156.8776
  34   2.0000      -5.764974      -156.8729
  35   2.0000      -5.763776      -156.8403
  36   2.0000      -5.763335      -156.8283
  37   2.0000      -4.744540      -129.1055
  38   2.0000      -4.744236      -129.0972
  39   2.0000      -4.743889      -129.0878
  40   2.0000      -4.743514      -129.0776
  41   2.0000      -4.742832      -129.0590
  42   2.0000      -4.742660      -129.0543
  43   2.0000      -1.055128       -28.7115
  44   2.0000      -1.052077       -28.6285
  45   2.0000      -1.015462       -27.6321
  46   2.0000      -1.010199       -27.4889
  47   2.0000      -0.805921       -21.9302
  48   2.0000      -0.758987       -20.6531
  49   2.0000      -0.744456       -20.2577
  50   2.0000      -0.725127       -19.7317
  51   2.0000      -0.724794       -19.7226
  52   2.0000      -0.708554       -19.2807
  53   2.0000      -0.688758       -18.7421
  54   2.0000      -0.675207       -18.3733
  55   2.0000      -0.631241       -17.1769
  56   2.0000      -0.621033       -16.8992
  57   2.0000      -0.600307       -16.3352
  58   2.0000      -0.593322       -16.1451
  59   2.0000      -0.589586       -16.0435
  60   2.0000      -0.528982       -14.3943
  61   2.0000      -0.521903       -14.2017
  62   2.0000      -0.496928       -13.5221
  63   2.0000      -0.489582       -13.3222
  64   2.0000      -0.478446       -13.0192
  65   2.0000      -0.462471       -12.5845
  66   2.0000      -0.449628       -12.2350
  67   2.0000      -0.446745       -12.1565
  68   2.0000      -0.439592       -11.9619
  69   2.0000      -0.433081       -11.7847
  70   2.0000      -0.427592       -11.6354
  71   2.0000      -0.410224       -11.1628
  72   2.0000      -0.404140       -10.9972
  73   2.0000      -0.399948       -10.8831
  74   2.0000      -0.396225       -10.7818
  75   2.0000      -0.385429       -10.4880
  76   2.0000      -0.383028       -10.4227
  77   2.0000      -0.364799        -9.9267
  78   2.0000      -0.362443        -9.8626
  79   2.0000      -0.359627        -9.7860
  80   2.0000      -0.357664        -9.7325
  81   2.0000      -0.353640        -9.6230
  82   2.0000      -0.351039        -9.5522
  83   2.0000      -0.347142        -9.4462
  84   2.0000      -0.342068        -9.3081
  85   2.0000      -0.333252        -9.0683
  86   2.0000      -0.322754        -8.7826
  87   2.0000      -0.314746        -8.5647
  88   2.0000      -0.307014        -8.3543
  89   2.0000      -0.303661        -8.2630
  90   2.0000      -0.300675        -8.1818
  91   2.0000      -0.291541        -7.9332
  92   2.0000      -0.289027        -7.8648
  93   2.0000      -0.280480        -7.6322
  94   2.0000      -0.274196        -7.4613
  95   2.0000      -0.251237        -6.8365
  96   2.0000      -0.237667        -6.4672
  97   2.0000      -0.235899        -6.4191
  98   2.0000      -0.226763        -6.1705
  99   2.0000      -0.222855        -6.0642
 100   2.0000      -0.220019        -5.9870
 101   0.0000      -0.053969        -1.4686
 102   0.0000      -0.032150        -0.8748
 103   0.0000      -0.007466        -0.2032
 104   0.0000      -0.002773        -0.0755
 105   0.0000       0.012124         0.3299

MULLIKEN ATOMIC CHARGES
-----------------------
   0 C :   -0.481507
   1 C :   -0.149086
   2 O :   -0.313237
   3 P :    0.734371
   4 S :   -0.530262
   5 O :   -0.293300
   6 C :   -0.144059
   7 C :   -0.485585
   8 S :   -0.166267
   9 C :   -0.235482
  10 S :   -0.140554
  11 P :    0.705810
  12 S :   -0.510255
  13 O :   -0.338597
  14 C :   -0.134497
  15 C :   -0.485638
  16 O :   -0.314285
  17 C :   -0.093342
  18 C :   -0.510499
  19 H :    0.166531
  20 H :    0.166271
  21 H :    0.170152
  22 H :    0.171721
  23 H :    0.173567
  24 H :    0.176699
  25 H :    0.179820
  26 H :    0.172797
  27 H :    0.170876
  28 H :    0.167625
  29 H :    0.231216
  30 H :    0.234549
  31 H :    0.174821
  32 H :    0.174159
  33 H :    0.172222
  34 H :    0.170724
  35 H :    0.166849
  36 H :    0.173315
  37 H :    0.168068
  38 H :    0.168393
  39 H :    0.166312
  40 H :    0.169584
Sum of atomic charges:   -0.0000000

LOEWDIN ATOMIC CHARGES
----------------------
   0 C :   -0.388536
   1 C :    0.025634
   2 O :   -0.674806
   3 P :    0.377134
   4 S :   -0.159293
   5 O :   -0.693140
   6 C :    0.023258
   7 C :   -0.401954
   8 S :    0.156687
   9 C :   -0.418835
  10 S :    0.173657
  11 P :    0.388021
  12 S :   -0.160353
  13 O :   -0.682629
  14 C :    0.038357
  15 C :   -0.405257
  16 O :   -0.672621
  17 C :    0.018700
  18 C :   -0.400209
  19 H :    0.163034
  20 H :    0.163515
  21 H :    0.169286
  22 H :    0.180041
  23 H :    0.181959
  24 H :    0.182649
  25 H :    0.191199
  26 H :    0.169152
  27 H :    0.164209
  28 H :    0.162726
  29 H :    0.197361
  30 H :    0.196843
  31 H :    0.182959
  32 H :    0.191873
  33 H :    0.168326
  34 H :    0.163565
  35 H :    0.162719
  36 H :    0.182517
  37 H :    0.181666
  38 H :    0.168730
  39 H :    0.163291
  40 H :    0.168561

  Mayer bond orders larger than 0.100000
B(  0-C ,  1-C ) :   0.9516 B(  0-C , 19-H ) :   0.9690 B(  0-C , 20-H ) :   0.9688
B(  0-C , 21-H ) :   0.9582 B(  1-C ,  2-O ) :   0.7725 B(  1-C , 22-H ) :   0.9362
B(  1-C , 23-H ) :   0.9473 B(  2-O ,  3-P ) :   1.0965 B(  3-P ,  4-S ) :   1.7170
B(  3-P ,  5-O ) :   1.1502 B(  3-P ,  8-S ) :   1.0613 B(  5-O ,  6-C ) :   0.7667
B(  6-C ,  7-C ) :   0.9124 B(  6-C , 24-H ) :   0.9561 B(  6-C , 25-H ) :   0.9523
B(  7-C , 26-H ) :   0.9569 B(  7-C , 27-H ) :   0.9714 B(  7-C , 28-H ) :   0.9595
B(  8-S ,  9-C ) :   0.8912 B(  9-C , 10-S ) :   0.8936 B(  9-C , 29-H ) :   0.9001
B(  9-C , 30-H ) :   0.9001 B( 10-S , 11-P ) :   1.0961 B( 11-P , 12-S ) :   1.7435
B( 11-P , 13-O ) :   1.1654 B( 11-P , 16-O ) :   1.0550 B( 13-O , 14-C ) :   0.7889
B( 14-C , 15-C ) :   0.9231 B( 14-C , 31-H ) :   0.9611 B( 14-C , 32-H ) :   0.9506
B( 15-C , 33-H ) :   0.9567 B( 15-C , 34-H ) :   0.9697 B( 15-C , 35-H ) :   0.9559
B( 16-O , 17-C ) :   0.7297 B( 17-C , 18-C ) :   0.9350 B( 17-C , 36-H ) :   0.9455
B( 17-C , 37-H ) :   0.9536 B( 18-C , 38-H ) :   0.9616 B( 18-C , 39-H ) :   0.9674
B( 18-C , 40-H ) :   0.9632

Dispersion correction           -0.021381498
FINAL SINGLE POINT ENERGY     -2932.472289103005

DIPOLE MOMENT
-------------

Method             : SCF
Type of density    : Electron Density
Multiplicity       :   1
Irrep              :   0
Energy             : -2932.4974407510376295 Eh
Relativity type    :
Basis              : AO
                                X                 Y                 Z
Electronic contribution:     -2.243050399      18.418191630      -7.942545567
Nuclear contribution   :      2.111106460     -20.556797789       9.047645279
                        -----------------------------------------
Total Dipole Moment    :     -0.131943940      -2.138606160       1.105099713
                        -----------------------------------------
Magnitude (a.u.)       :      2.410869321
Magnitude (Debye)      :      6.127942819

Rotational constants in cm-1:             0.013845             0.004525             0.004492
Rotational constants in MHz :           415.076062           135.651638           134.669150

                             ****ORCA TERMINATED NORMALLY****
TOTAL RUN TIME: 0 days 0 hours 1 minutes 55 seconds 533 msec
