                         Program Version 6.0.0  -   RELEASE  -
|  1> ! pbe def2-sv(p) def2/J RI DEFGRID1 loosescf d4 GCP(DFT/SV(P)) printgap
|  2> %output
|  3>     printlevel normal
|  4> end
|  5> * xyz 0 1
|  6> C 3.569306662 -2.0492059016 -2.10241675
|  7> C 3.979781718 -0.5908237101 -2.0669479617
|  8> O 3.5423689217 0.0780147788 -0.8731807396
|  9> P 2.0066326022 0.3395788723 -0.5125742765
| 10> S 0.9066766436 0.8508091992 -2.0428029377
| 11> O 2.1619734793 1.4737397316 0.5621414882
| 12> C 2.917803267 1.3065546284 1.7894917622
| 13> C 2.4495232583 2.3662737305 2.7635429881
| 14> S 1.4222946433 -1.4146873821 0.5574843192
| 15> C 0.0604723574 -2.0035288845 -0.4966747486
| 16> S -1.5389309077 -2.0988248598 0.3555842565
| 17> P -2.0725683139 -0.0701214281 0.3878621447
| 18> S -0.9092605596 1.2518350512 1.2654465786
| 19> O -3.5505895886 -0.0743249546 0.9760360114
| 20> C -3.8183894725 0.0634496885 2.3823585057
| 21> C -3.3312413431 -1.1366227157 3.1678393275
| 22> O -2.3383842381 0.1419628049 -1.1575916411
| 23> C -2.6585687638 1.440286622 -1.7024812545
| 24> C -2.5892863659 1.3364435147 -3.2109170525
| 25> H 2.4904534505 -2.1292564523 -2.2260161377
| 26> H 4.054432141 -2.5345528336 -2.9431976583
| 27> H 3.8601143204 -2.5468625176 -1.1807614399
| 28> H 3.572971983 -0.0548941923 -2.9302988707
| 29> H 5.064785616 -0.479458749 -2.0402511296
| 30> H 2.7331878719 0.3004177572 2.1776300993
| 31> H 3.9762519949 1.4139550235 1.5438200961
| 32> H 2.9789893863 2.2485718079 3.7031437519
| 33> H 2.639175217 3.3561289916 2.3588164814
| 34> H 1.3801919033 2.2610560252 2.932360178
| 35> H 0.2878046169 -3.0250962655 -0.7898921276
| 36> H -0.0283859527 -1.3425344838 -1.3633285936
| 37> H -3.3341543199 0.9791182803 2.7372382123
| 38> H -4.9026009041 0.17040745 2.4334110572
| 39> H -3.73703478 -2.0534468839 2.7477462286
| 40> H -2.2432455796 -1.1857310729 3.1293734988
| 41> H -3.6434810785 -1.0416686143 4.202796423
| 42> H -3.659318736 1.7145552669 -1.3594339061
| 43> H -1.9341187149 2.1671225575 -1.3186717086
| 44> H -2.8777594363 2.2872904082 -3.6464389146
| 45> H -1.5734564037 1.0962190209 -3.5160864226
| 46> H -3.260097067 0.556638141 -3.5588020749
| 47> *
| 48>
| 49>                          ****END OF INPUT****

CARTESIAN COORDINATES (ANGSTROEM)
---------------------------------
  C      3.569307   -2.049206   -2.102417
  C      3.979782   -0.590824   -2.066948
  O      3.542369    0.078015   -0.873181
  P      2.006633    0.339579   -0.512574
  S      0.906677    0.850809   -2.042803
  O      2.161973    1.473740    0.562141
  C      2.917803    1.306555    1.789492
  C      2.449523    2.366274    2.763543
  S      1.422295   -1.414687    0.557484
  C      0.060472   -2.003529   -0.496675
  S     -1.538931   -2.098825    0.355584
  P     -2.072568   -0.070121    0.387862
  S     -0.909261    1.251835    1.265447
  O     -3.550590   -0.074325    0.976036
  C     -3.818389    0.063450    2.382359
  C     -3.331241   -1.136623    3.167839
  O     -2.338384    0.141963   -1.157592
  C     -2.658569    1.440287   -1.702481
  C     -2.589286    1.336444   -3.210917
  H      2.490453   -2.129256   -2.226016
  H      4.054432   -2.534553   -2.943198
  H      3.860114   -2.546863   -1.180761
  H      3.572972   -0.054894   -2.930299
  H      5.064786   -0.479459   -2.040251
  H      2.733188    0.300418    2.177630
  H      3.976252    1.413955    1.543820
  H      2.978989    2.248572    3.703144
  H      2.639175    3.356129    2.358816
  H      1.380192    2.261056    2.932360
  H      0.287805   -3.025096   -0.789892
  H     -0.028386   -1.342534   -1.363329
  H     -3.334154    0.979118    2.737238
  H     -4.902601    0.170407    2.433411
  H     -3.737035   -2.053447    2.747746
  H     -2.243246   -1.185731    3.129373
  H     -3.643481   -1.041669    4.202796
  H     -3.659319    1.714555   -1.359434
  H     -1.934119    2.167123   -1.318672
  H     -2.877759    2.287290   -3.646439
  H     -1.573456    1.096219   -3.516086
  H     -3.260097    0.556638   -3.558802

 Total Charge           Charge          ....    0
 Multiplicity           Mult            ....    1
 Number of Electrons    NEL             ....  202
 Basis Dimension        Dim             ....  334

ORBITAL ENERGIES
----------------

  NO   OCC          E(Eh)            E(eV)
   0   2.0000     -88.040346     -2395.6996
   1   2.0000     -88.038747     -2395.6561
   2   2.0000     -87.986452     -2394.2331
   3   2.0000     -87.977903     -2394.0005
   4   2.0000     -76.423489     -2079.5889
   5   2.0000     -76.418757     -2079.4601
   6   2.0000     -18.786824      -511.2155
   7   2.0000     -18.786248      -511.1998
   8   2.0000     -18.783875      -511.1352
   9   2.0000     -18.781140      -511.0608
  10   2.0000      -9.955665      -270.9074
  11   2.0000      -9.953795      -270.8565
  12   2.0000      -9.950541      -270.7680
  13   2.0000      -9.948111      -270.7019
  14   2.0000      -9.940764      -270.5019
  15   2.0000      -9.885282      -268.9922
  16   2.0000      -9.882130      -268.9064
  17   2.0000      -9.882024      -268.9035
  18   2.0000      -9.876064      -268.7414
  19   2.0000      -7.686083      -209.1490
  20   2.0000      -7.683579      -209.0808
  21   2.0000      -7.631433      -207.6618
  22   2.0000      -7.622517      -207.4192
  23   2.0000      -6.420804      -174.7189
  24   2.0000      -6.416601      -174.6046
  25   2.0000      -5.713960      -155.4848
  26   2.0000      -5.711498      -155.4178
  27   2.0000      -5.710585      -155.3929
  28   2.0000      -5.708170      -155.3272
  29   2.0000      -5.702924      -155.1845
  30   2.0000      -5.700466      -155.1176
  31   2.0000      -5.660238      -154.0229
  32   2.0000      -5.652263      -153.8059
  33   2.0000      -5.651409      -153.7827
  34   2.0000      -5.651285      -153.7793
  35   2.0000      -5.643068      -153.5557
  36   2.0000      -5.642946      -153.5524
  37   2.0000      -4.643480      -126.3555
  38   2.0000      -4.642410      -126.3264
  39   2.0000      -4.641382      -126.2984
  40   2.0000      -4.639191      -126.2388
  41   2.0000      -4.638345      -126.2158
  42   2.0000      -4.637001      -126.1792
  43   2.0000      -0.983038       -26.7498
  44   2.0000      -0.979841       -26.6628
  45   2.0000      -0.938139       -25.5280
  46   2.0000      -0.938118       -25.5275
  47   2.0000      -0.759618       -20.6702
  48   2.0000      -0.718636       -19.5551
  49   2.0000      -0.706729       -19.2311
  50   2.0000      -0.686444       -18.6791
  51   2.0000      -0.682647       -18.5758
  52   2.0000      -0.672126       -18.2895
  53   2.0000      -0.648302       -17.6412
  54   2.0000      -0.632343       -17.2069
  55   2.0000      -0.595187       -16.1959
  56   2.0000      -0.585356       -15.9284
  57   2.0000      -0.568975       -15.4826
  58   2.0000      -0.565198       -15.3798
  59   2.0000      -0.556583       -15.1454
  60   2.0000      -0.503364       -13.6972
  61   2.0000      -0.496596       -13.5131
  62   2.0000      -0.470147       -12.7933
  63   2.0000      -0.467629       -12.7248
  64   2.0000      -0.451890       -12.2966
  65   2.0000      -0.445226       -12.1152
  66   2.0000      -0.434872       -11.8335
  67   2.0000      -0.432907       -11.7800
  68   2.0000      -0.422012       -11.4835
  69   2.0000      -0.421745       -11.4763
  70   2.0000      -0.411225       -11.1900
  71   2.0000      -0.391201       -10.6451
  72   2.0000      -0.388465       -10.5707
  73   2.0000      -0.385759       -10.4970
  74   2.0000      -0.378230       -10.2922
  75   2.0000      -0.365343        -9.9415
  76   2.0000      -0.360797        -9.8178
  77   2.0000      -0.352548        -9.5933
  78   2.0000      -0.350132        -9.5276
  79   2.0000      -0.349417        -9.5081
  80   2.0000      -0.345964        -9.4142
  81   2.0000      -0.339988        -9.2516
  82   2.0000      -0.337041        -9.1713
  83   2.0000      -0.331292        -9.0149
  84   2.0000      -0.326001        -8.8709
  85   2.0000      -0.312623        -8.5069
  86   2.0000      -0.309481        -8.4214
  87   2.0000      -0.296855        -8.0778
  88   2.0000      -0.292744        -7.9660
  89   2.0000      -0.291971        -7.9449
  90   2.0000      -0.282095        -7.6762
  91   2.0000      -0.267375        -7.2756
  92   2.0000      -0.265618        -7.2278
  93   2.0000      -0.258649        -7.0382
  94   2.0000      -0.254463        -6.9243
  95   2.0000      -0.236596        -6.4381
  96   2.0000      -0.218799        -5.9538
  97   2.0000      -0.206642        -5.6230
  98   2.0000      -0.203145        -5.5279
  99   2.0000      -0.190384        -5.1806
 100   2.0000      -0.186800        -5.0831
 101   0.0000      -0.038259        -1.0411
 102   0.0000      -0.031239        -0.8501
 103   0.0000      -0.012593        -0.3427
 104   0.0000       0.002066         0.0562
 105   0.0000       0.018414         0.5011

MULLIKEN ATOMIC CHARGES
-----------------------
   0 C :   -0.321003
   1 C :    0.005134
   2 O :   -0.386794
   3 P :    0.620227
   4 S :   -0.311636
   5 O :   -0.350841
   6 C :   -0.016748
   7 C :   -0.286102
   8 S :   -0.106575
   9 C :   -0.361375
  10 S :   -0.078433
  11 P :    0.616272
  12 S :   -0.330305
  13 O :   -0.377701
  14 C :   -0.000770
  15 C :   -0.324634
  16 O :   -0.370386
  17 C :   -0.002743
  18 C :   -0.286785
  19 H :    0.121556
  20 H :    0.111895
  21 H :    0.119957
  22 H :    0.109144
  23 H :    0.102716
  24 H :    0.110832
  25 H :    0.108139
  26 H :    0.107479
  27 H :    0.119611
  28 H :    0.136860
  29 H :    0.184260
  30 H :    0.203077
  31 H :    0.109256
  32 H :    0.103467
  33 H :    0.118903
  34 H :    0.129885
  35 H :    0.113185
  36 H :    0.097463
  37 H :    0.115025
  38 H :    0.106837
  39 H :    0.130264
  40 H :    0.111387
Sum of atomic charges:   -0.0000000

LOEWDIN ATOMIC CHARGES
----------------------
   0 C :   -0.370266
   1 C :   -0.116374
   2 O :   -0.256689
   3 P :    0.575957
   4 S :   -0.290628
   5 O :   -0.227365
   6 C :   -0.111097
   7 C :   -0.351647
   8 S :    0.066165
   9 C :   -0.481559
  10 S :    0.091758
  11 P :    0.565767
  12 S :   -0.316774
  13 O :   -0.247314
  14 C :   -0.121178
  15 C :   -0.371714
  16 O :   -0.241852
  17 C :   -0.117601
  18 C :   -0.352454
  19 H :    0.119054
  20 H :    0.130080
  21 H :    0.124508
  22 H :    0.110445
  23 H :    0.117940
  24 H :    0.106080
  25 H :    0.114753
  26 H :    0.128892
  27 H :    0.129253
  28 H :    0.130390
  29 H :    0.136282
  30 H :    0.123626
  31 H :    0.109243
  32 H :    0.117850
  33 H :    0.124143
  34 H :    0.122232
  35 H :    0.131258
  36 H :    0.109218
  37 H :    0.111490
  38 H :    0.129003
  39 H :    0.124310
  40 H :    0.124816

  Mayer bond orders larger than 0.100000
B(  0-C ,  1-C ) :   1.1632 B(  0-C , 19-H ) :   0.9384 B(  0-C , 20-H ) :   0.9370
B(  0-C , 21-H ) :   0.9414 B(  1-C ,  2-O ) :   0.9236 B(  1-C , 22-H ) :   0.9185
B(  1-C , 23-H ) :   0.9348 B(  2-O ,  3-P ) :   1.0681 B(  3-P ,  4-S ) :   1.6117
B(  3-P ,  5-O ) :   1.1506 B(  3-P ,  8-S ) :   0.9478 B(  4-S ,  8-S ) :   0.1139
B(  4-S , 30-H ) :   0.1072 B(  5-O ,  6-C ) :   0.8905 B(  6-C ,  7-C ) :   1.1644
B(  6-C , 24-H ) :   0.9141 B(  6-C , 25-H ) :   0.9295 B(  7-C , 26-H ) :   0.9402
B(  7-C , 27-H ) :   0.9498 B(  7-C , 28-H ) :   0.9428 B(  8-S ,  9-C ) :   1.0035
B(  9-C , 10-S ) :   0.9986 B(  9-C , 29-H ) :   0.9081 B(  9-C , 30-H ) :   0.8454
B( 10-S , 11-P ) :   0.9690 B( 10-S , 12-S ) :   0.1172 B( 11-P , 12-S ) :   1.6278
B( 11-P , 13-O ) :   1.0972 B( 11-P , 16-O ) :   1.1274 B( 13-O , 14-C ) :   0.9108
B( 14-C , 15-C ) :   1.1639 B( 14-C , 31-H ) :   0.9124 B( 14-C , 32-H ) :   0.9331
B( 15-C , 33-H ) :   0.9444 B( 15-C , 34-H ) :   0.9331 B( 15-C , 35-H ) :   0.9382
B( 16-O , 17-C ) :   0.8921 B( 17-C , 18-C ) :   1.1648 B( 17-C , 36-H ) :   0.9301
B( 17-C , 37-H ) :   0.9106 B( 18-C , 38-H ) :   0.9413 B( 18-C , 39-H ) :   0.9450
B( 18-C , 40-H ) :   0.9492

Dispersion correction           -0.066758937
FINAL SINGLE POINT ENERGY     -2929.517916410039

DIPOLE MOMENT
-------------

Method             : SCF
Type of density    : Electron Density
Multiplicity       :   1
Irrep              :   0
Energy             : -2929.6355800379078573 Eh
Relativity type    :
Basis              : AO
                                X                 Y                 Z
Electronic contribution:     -1.445148072      -2.376353842      -0.829016099
Nuclear contribution   :      1.790281287       1.848617342       1.125776264
                        -----------------------------------------
Total Dipole Moment    :      0.345133214      -0.527736499       0.296760165
                        -----------------------------------------
Magnitude (a.u.)       :      0.696914158
Magnitude (Debye)      :      1.771415014

Rotational constants in cm-1:             0.010789             0.005692             0.005194
Rotational constants in MHz :           323.431880           170.627808           155.698052

                             ****ORCA TERMINATED NORMALLY****
TOTAL RUN TIME: 0 days 0 hours 0 minutes 21 seconds 201 msec
