                         Program Version 6.0.0  -   RELEASE  -
|  1> ! r2scan-3c def2/J RI DEFGRID2 scfconv6 printgap
|  2> %output
|  3>     printlevel normal
|  4> end
|  5> * xyz 0 1
|  6> C 0.0010184853 -2.4199255335 0.0582587981
|  7> C 1.1983928202 -1.726749352 0.1072868721
|  8> C 1.1877767314 -0.3365491278 0.0793007923
|  9> C -0.0032486792 0.3702511229 0.0022405899
| 10> C -1.1925961597 -0.3430296253 -0.0433788722
| 11> C -1.1988263545 -1.732938441 -0.0183526242
| 12> C -2.5019280864 0.3846771279 -0.1478049285
| 13> F -3.4348940881 -0.1052856804 0.690074202
| 14> F -2.4130981781 1.696686059 0.1155758728
| 15> F -3.0413812248 0.2900104719 -1.38328445
| 16> C 2.500371796 0.3906702108 0.1338185745
| 17> F 2.3834616392 1.7255605995 0.1005237192
| 18> F 3.1994326854 0.1036306825 1.2514643749
| 19> F 3.3122651956 0.0602369315 -0.8919557403
| 20> H 0.0026222041 -3.496797732 0.0798084338
| 21> H 2.1381447296 -2.2529005813 0.1671197583
| 22> H -0.0054120567 1.448893659 -0.0179356796
| 23> H -2.1366967763 -2.2645648552 -0.0544367446
| 24> *
| 25>
| 26>                          ****END OF INPUT****

CARTESIAN COORDINATES (ANGSTROEM)
---------------------------------
  C      0.001018   -2.419926    0.058259
  C      1.198393   -1.726749    0.107287
  C      1.187777   -0.336549    0.079301
  C     -0.003249    0.370251    0.002241
  C     -1.192596   -0.343030   -0.043379
  C     -1.198826   -1.732938   -0.018353
  C     -2.501928    0.384677   -0.147805
  F     -3.434894   -0.105286    0.690074
  F     -2.413098    1.696686    0.115576
  F     -3.041381    0.290010   -1.383284
  C      2.500372    0.390670    0.133819
  F      2.383462    1.725561    0.100524
  F      3.199433    0.103631    1.251464
  F      3.312265    0.060237   -0.891956
  H      0.002622   -3.496798    0.079808
  H      2.138145   -2.252901    0.167120
  H     -0.005412    1.448894   -0.017936
  H     -2.136697   -2.264565   -0.054437

 Total Charge           Charge          ....    0
 Multiplicity           Mult            ....    1
 Number of Electrons    NEL             ....  106
 Basis Dimension        Dim             ....  316

ORBITAL ENERGIES
----------------

  NO   OCC          E(Eh)            E(eV)
   0   2.0000     -24.528465      -667.4535
   1   2.0000     -24.527959      -667.4397
   2   2.0000     -24.524354      -667.3416
   3   2.0000     -24.522475      -667.2905
   4   2.0000     -24.522443      -667.2896
   5   2.0000     -24.520978      -667.2497
   6   2.0000     -10.295103      -280.1440
   7   2.0000     -10.295073      -280.1432
   8   2.0000     -10.091389      -274.6007
   9   2.0000     -10.091347      -274.5995
  10   2.0000     -10.083750      -274.3928
  11   2.0000     -10.080892      -274.3150
  12   2.0000     -10.080826      -274.3132
  13   2.0000     -10.076116      -274.1851
  14   2.0000      -1.283794       -34.9338
  15   2.0000      -1.283758       -34.9328
  16   2.0000      -1.195509       -32.5315
  17   2.0000      -1.195418       -32.5290
  18   2.0000      -1.189499       -32.3679
  19   2.0000      -1.189379       -32.3646
  20   2.0000      -0.878857       -23.9149
  21   2.0000      -0.793691       -21.5974
  22   2.0000      -0.771940       -21.0056
  23   2.0000      -0.692139       -18.8341
  24   2.0000      -0.683926       -18.6106
  25   2.0000      -0.622932       -16.9508
  26   2.0000      -0.618342       -16.8260
  27   2.0000      -0.576748       -15.6941
  28   2.0000      -0.566374       -15.4118
  29   2.0000      -0.562051       -15.2942
  30   2.0000      -0.561446       -15.2777
  31   2.0000      -0.556744       -15.1498
  32   2.0000      -0.508024       -13.8240
  33   2.0000      -0.499595       -13.5947
  34   2.0000      -0.467700       -12.7268
  35   2.0000      -0.447450       -12.1757
  36   2.0000      -0.436730       -11.8840
  37   2.0000      -0.436027       -11.8649
  38   2.0000      -0.433427       -11.7941
  39   2.0000      -0.431818       -11.7504
  40   2.0000      -0.406327       -11.0567
  41   2.0000      -0.397834       -10.8256
  42   2.0000      -0.396448       -10.7879
  43   2.0000      -0.395666       -10.7666
  44   2.0000      -0.390381       -10.6228
  45   2.0000      -0.389536       -10.5998
  46   2.0000      -0.375067       -10.2061
  47   2.0000      -0.373729       -10.1697
  48   2.0000      -0.373675       -10.1682
  49   2.0000      -0.354236        -9.6392
  50   2.0000      -0.347456        -9.4548
  51   2.0000      -0.281299        -7.6545
  52   2.0000      -0.279382        -7.6024
  53   0.0000      -0.088408        -2.4057
  54   0.0000      -0.075206        -2.0465
  55   0.0000       0.049792         1.3549
  56   0.0000       0.056130         1.5274
  57   0.0000       0.075288         2.0487

MULLIKEN ATOMIC CHARGES
-----------------------
   0 C :   -0.155177
   1 C :   -0.117355
   2 C :    0.130406
   3 C :   -0.275805
   4 C :    0.139778
   5 C :   -0.125282
   6 C :    0.511962
   7 F :   -0.214888
   8 F :   -0.216171
   9 F :   -0.210154
  10 C :    0.510800
  11 F :   -0.215539
  12 F :   -0.212129
  13 F :   -0.212139
  14 H :    0.152091
  15 H :    0.161752
  16 H :    0.183931
  17 H :    0.163921
Sum of atomic charges:   -0.0000000

LOEWDIN ATOMIC CHARGES
----------------------
   0 C :   -0.137387
   1 C :   -0.103927
   2 C :   -0.060150
   3 C :   -0.085134
   4 C :   -0.060170
   5 C :   -0.104436
   6 C :    0.531369
   7 F :   -0.209822
   8 F :   -0.207027
   9 F :   -0.211852
  10 C :    0.531303
  11 F :   -0.206668
  12 F :   -0.210773
  13 F :   -0.210813
  14 H :    0.175567
  15 H :    0.185224
  16 H :    0.199149
  17 H :    0.185548

  Mayer bond orders larger than 0.100000
B(  0-C ,  1-C ) :   1.3909 B(  0-C ,  5-C ) :   1.3841 B(  0-C , 14-H ) :   0.9577
B(  1-C ,  2-C ) :   1.4234 B(  1-C , 15-H ) :   0.9179 B(  2-C ,  3-C ) :   1.3611
B(  2-C , 10-C ) :   0.9692 B(  3-C ,  4-C ) :   1.3549 B(  3-C , 16-H ) :   0.9847
B(  4-C ,  5-C ) :   1.4204 B(  4-C ,  6-C ) :   0.9674 B(  5-C , 17-H ) :   0.9241
B(  6-C ,  7-F ) :   1.0328 B(  6-C ,  8-F ) :   1.0551 B(  6-C ,  9-F ) :   1.0250
B( 10-C , 11-F ) :   1.0594 B( 10-C , 12-F ) :   1.0279 B( 10-C , 13-F ) :   1.0275

Dispersion correction           -0.006486043
FINAL SINGLE POINT ENERGY      -906.280670811503

DIPOLE MOMENT
-------------

Method             : SCF
Type of density    : Electron Density
Multiplicity       :   1
Irrep              :   0
Energy             :  -906.2894744884999909 Eh
Relativity type    :
Basis              : AO
                                X                 Y                 Z
Electronic contribution:      0.001740362       8.615050634      -0.227798328
Nuclear contribution   :     -0.006619910      -9.653302867       0.272726894
                        -----------------------------------------
Total Dipole Moment    :     -0.004879548      -1.038252232       0.044928566
                        -----------------------------------------
Magnitude (a.u.)       :      1.039235336
Magnitude (Debye)      :      2.641526299

Rotational constants in cm-1:             0.044833             0.012573             0.010935
Rotational constants in MHz :          1344.060696           376.938197           327.826128

                             ****ORCA TERMINATED NORMALLY****
TOTAL RUN TIME: 0 days 0 hours 0 minutes 39 seconds 488 msec
