                         Program Version 6.0.0  -   RELEASE  -
|  1> ! r2scan-3c def2/J RI DEFGRID2 scfconv6 printgap
|  2> %output
|  3>     printlevel normal
|  4> end
|  5> %cpcm
|  6>     smd true
|  7>     smdsolvent "water"
|  8> end
|  9> * xyz 0 1
| 10> C 0.0010184853 -2.4199255335 0.0582587981
| 11> C 1.1983928202 -1.726749352 0.1072868721
| 12> C 1.1877767314 -0.3365491278 0.0793007923
| 13> C -0.0032486792 0.3702511229 0.0022405899
| 14> C -1.1925961597 -0.3430296253 -0.0433788722
| 15> C -1.1988263545 -1.732938441 -0.0183526242
| 16> C -2.5019280864 0.3846771279 -0.1478049285
| 17> F -3.4348940881 -0.1052856804 0.690074202
| 18> F -2.4130981781 1.696686059 0.1155758728
| 19> F -3.0413812248 0.2900104719 -1.38328445
| 20> C 2.500371796 0.3906702108 0.1338185745
| 21> F 2.3834616392 1.7255605995 0.1005237192
| 22> F 3.1994326854 0.1036306825 1.2514643749
| 23> F 3.3122651956 0.0602369315 -0.8919557403
| 24> H 0.0026222041 -3.496797732 0.0798084338
| 25> H 2.1381447296 -2.2529005813 0.1671197583
| 26> H -0.0054120567 1.448893659 -0.0179356796
| 27> H -2.1366967763 -2.2645648552 -0.0544367446
| 28> *
| 29>
| 30>                          ****END OF INPUT****

CARTESIAN COORDINATES (ANGSTROEM)
---------------------------------
  C      0.001018   -2.419926    0.058259
  C      1.198393   -1.726749    0.107287
  C      1.187777   -0.336549    0.079301
  C     -0.003249    0.370251    0.002241
  C     -1.192596   -0.343030   -0.043379
  C     -1.198826   -1.732938   -0.018353
  C     -2.501928    0.384677   -0.147805
  F     -3.434894   -0.105286    0.690074
  F     -2.413098    1.696686    0.115576
  F     -3.041381    0.290010   -1.383284
  C      2.500372    0.390670    0.133819
  F      2.383462    1.725561    0.100524
  F      3.199433    0.103631    1.251464
  F      3.312265    0.060237   -0.891956
  H      0.002622   -3.496798    0.079808
  H      2.138145   -2.252901    0.167120
  H     -0.005412    1.448894   -0.017936
  H     -2.136697   -2.264565   -0.054437

 Total Charge           Charge          ....    0
 Multiplicity           Mult            ....    1
 Number of Electrons    NEL             ....  106
 Basis Dimension        Dim             ....  316

ORBITAL ENERGIES
----------------

  NO   OCC          E(Eh)            E(eV)
   0   2.0000     -24.525839      -667.3820
   1   2.0000     -24.525387      -667.3697
   2   2.0000     -24.522242      -667.2841
   3   2.0000     -24.520895      -667.2475
   4   2.0000     -24.520871      -667.2468
   5   2.0000     -24.519847      -667.2190
   6   2.0000     -10.290342      -280.0144
   7   2.0000     -10.290302      -280.0134
   8   2.0000     -10.076095      -274.1845
   9   2.0000     -10.076062      -274.1836
  10   2.0000     -10.067670      -273.9552
  11   2.0000     -10.061662      -273.7918
  12   2.0000     -10.061641      -273.7912
  13   2.0000     -10.054669      -273.6015
  14   2.0000      -1.281786       -34.8792
  15   2.0000      -1.281742       -34.8780
  16   2.0000      -1.193343       -32.4725
  17   2.0000      -1.193310       -32.4716
  18   2.0000      -1.188293       -32.3351
  19   2.0000      -1.188258       -32.3341
  20   2.0000      -0.862736       -23.4762
  21   2.0000      -0.780550       -21.2399
  22   2.0000      -0.754666       -20.5355
  23   2.0000      -0.685255       -18.6467
  24   2.0000      -0.674002       -18.3405
  25   2.0000      -0.610625       -16.6159
  26   2.0000      -0.609114       -16.5748
  27   2.0000      -0.566962       -15.4278
  28   2.0000      -0.563287       -15.3278
  29   2.0000      -0.560600       -15.2547
  30   2.0000      -0.560097       -15.2410
  31   2.0000      -0.551444       -15.0055
  32   2.0000      -0.497672       -13.5423
  33   2.0000      -0.480073       -13.0634
  34   2.0000      -0.453245       -12.3334
  35   2.0000      -0.435495       -11.8504
  36   2.0000      -0.435025       -11.8376
  37   2.0000      -0.434621       -11.8267
  38   2.0000      -0.430932       -11.7263
  39   2.0000      -0.423036       -11.5114
  40   2.0000      -0.400989       -10.9115
  41   2.0000      -0.394991       -10.7482
  42   2.0000      -0.391981       -10.6664
  43   2.0000      -0.389648       -10.6029
  44   2.0000      -0.381846       -10.3906
  45   2.0000      -0.380065       -10.3421
  46   2.0000      -0.372813       -10.1448
  47   2.0000      -0.372637       -10.1400
  48   2.0000      -0.364155        -9.9092
  49   2.0000      -0.336198        -9.1484
  50   2.0000      -0.335686        -9.1345
  51   2.0000      -0.264893        -7.2081
  52   2.0000      -0.264299        -7.1920
  53   0.0000      -0.073033        -1.9873
  54   0.0000      -0.058825        -1.6007
  55   0.0000       0.063275         1.7218
  56   0.0000       0.076405         2.0791
  57   0.0000       0.084599         2.3021

MULLIKEN ATOMIC CHARGES
-----------------------
   0 C :   -0.202623
   1 C :   -0.125610
   2 C :    0.110116
   3 C :   -0.267829
   4 C :    0.119551
   5 C :   -0.132516
   6 C :    0.512893
   7 F :   -0.221190
   8 F :   -0.220584
   9 F :   -0.219755
  10 C :    0.511842
  11 F :   -0.219752
  12 F :   -0.220333
  13 F :   -0.220262
  14 H :    0.189822
  15 H :    0.199090
  16 H :    0.207397
  17 H :    0.199744
Sum of atomic charges:   -0.0000000

LOEWDIN ATOMIC CHARGES
----------------------
   0 C :   -0.134241
   1 C :   -0.101735
   2 C :   -0.068574
   3 C :   -0.083169
   4 C :   -0.068555
   5 C :   -0.101738
   6 C :    0.531480
   7 F :   -0.215436
   8 F :   -0.211449
   9 F :   -0.219780
  10 C :    0.531412
  11 F :   -0.210884
  12 F :   -0.217644
  13 F :   -0.217701
  14 H :    0.188818
  15 H :    0.196714
  16 H :    0.205774
  17 H :    0.196710

  Mayer bond orders larger than 0.100000
B(  0-C ,  1-C ) :   1.3813 B(  0-C ,  5-C ) :   1.3765 B(  0-C , 14-H ) :   0.9616
B(  1-C ,  2-C ) :   1.4006 B(  1-C , 15-H ) :   0.9139 B(  2-C ,  3-C ) :   1.3541
B(  2-C , 10-C ) :   0.9726 B(  3-C ,  4-C ) :   1.3514 B(  3-C , 16-H ) :   0.9726
B(  4-C ,  5-C ) :   1.3946 B(  4-C ,  6-C ) :   0.9708 B(  5-C , 17-H ) :   0.9207
B(  6-C ,  7-F ) :   1.0316 B(  6-C ,  8-F ) :   1.0541 B(  6-C ,  9-F ) :   1.0221
B( 10-C , 11-F ) :   1.0584 B( 10-C , 12-F ) :   1.0255 B( 10-C , 13-F ) :   1.0251

Dispersion correction           -0.006486043
FINAL SINGLE POINT ENERGY      -906.279748935186

DIPOLE MOMENT
-------------

Method             : SCF
Type of density    : Electron Density
Multiplicity       :   1
Irrep              :   0
Energy             :  -906.2885526121826842 Eh
Relativity type    :
Basis              : AO
                                X                 Y                 Z
Electronic contribution:      0.000607427       8.303841824      -0.216738445
Nuclear contribution   :     -0.006619910      -9.653302867       0.272726894
                        -----------------------------------------
Total Dipole Moment    :     -0.006012483      -1.349461042       0.055988449
                        -----------------------------------------
Magnitude (a.u.)       :      1.350635392
Magnitude (Debye)      :      3.433042337

Rotational constants in cm-1:             0.044833             0.012573             0.010935
Rotational constants in MHz :          1344.060696           376.938197           327.826128

                             ****ORCA TERMINATED NORMALLY****
TOTAL RUN TIME: 0 days 0 hours 0 minutes 48 seconds 632 msec
