                         Program Version 6.0.0  -   RELEASE  -
|  1> ! pbe def2-sv(p) def2/J RI DEFGRID1 loosescf d4 GCP(DFT/SV(P)) printgap
|  2> %output
|  3>     printlevel normal
|  4> end
|  5> * xyz 0 1
|  6> C 1.8730812757 -0.5037569752 -3.1588181705
|  7> C 1.8430649768 -1.421647162 -1.9536231878
|  8> O 1.191705867 -0.7921932235 -0.8274465347
|  9> P 1.9363217338 0.1736592745 0.1845130834
| 10> S 2.6897553511 1.870432101 -0.4384025149
| 11> O 3.0376295269 -0.8346795711 0.7607575908
| 12> C 4.1925473977 -0.3720127843 1.475952592
| 13> C 3.8333779115 0.1298593821 2.8600520697
| 14> S 0.4642536972 0.3242825697 1.6871931944
| 15> C -0.1110950265 -1.3889901433 1.7651152388
| 16> S -1.2240064626 -1.8919740566 0.4010850104
| 17> P -2.0560100526 -0.0602649184 -0.214900936
| 18> S -1.0857057583 1.3232699347 -1.2363976931
| 19> O -2.690697976 0.3846117089 1.1661831778
| 20> C -3.2985863324 1.6815723578 1.3620441195
| 21> C -2.3256527372 2.637197385 2.0239730056
| 22> O -3.343905732 -0.5533468535 -1.0152132375
| 23> C -3.3329939044 -0.7711185879 -2.4352799343
| 24> C -2.4251551497 -1.9223474853 -2.8169652674
| 25> H 2.5120878042 0.3559120125 -2.966305975
| 26> H 2.2531871758 -1.0476231963 -4.0174928205
| 27> H 0.8719809575 -0.1375666497 -3.3758072669
| 28> H 2.8506175921 -1.7218521823 -1.6569130641
| 29> H 1.233541368 -2.3088652747 -2.140042668
| 30> H 4.8466290257 -1.2440532439 1.5179557659
| 31> H 4.6648471904 0.423937459 0.8911297766
| 32> H 3.3045140242 -0.6370519398 3.4196799803
| 33> H 4.7408292762 0.4012546071 3.3895759306
| 34> H 3.1958698033 1.0099622513 2.77847446
| 35> H -0.6580515489 -1.4706919182 2.7015405178
| 36> H 0.738928927 -2.0678487935 1.739116896
| 37> H -3.6356163727 2.0709980433 0.3974149454
| 38> H -4.1609009527 1.4833633253 2.0004956817
| 39> H -2.8336922361 3.5710422053 2.241866358
| 40> H -1.9437438394 2.2064261117 2.9453420317
| 41> H -1.4846422963 2.8388990492 1.3630795592
| 42> H -4.3760935733 -0.9751929218 -2.6795695665
| 43> H -3.0083112375 0.1536939608 -2.9240080174
| 44> H -1.3947905861 -1.6674979257 -2.5676423581
| 45> H -2.7039148199 -2.8208570927 -2.2721558217
| 46> H -2.4967011902 -2.1045774461 -3.8843318679
| 47> *
| 48>
| 49>                          ****END OF INPUT****

CARTESIAN COORDINATES (ANGSTROEM)
---------------------------------
  C      1.873081   -0.503757   -3.158818
  C      1.843065   -1.421647   -1.953623
  O      1.191706   -0.792193   -0.827447
  P      1.936322    0.173659    0.184513
  S      2.689755    1.870432   -0.438403
  O      3.037630   -0.834680    0.760758
  C      4.192547   -0.372013    1.475953
  C      3.833378    0.129859    2.860052
  S      0.464254    0.324283    1.687193
  C     -0.111095   -1.388990    1.765115
  S     -1.224006   -1.891974    0.401085
  P     -2.056010   -0.060265   -0.214901
  S     -1.085706    1.323270   -1.236398
  O     -2.690698    0.384612    1.166183
  C     -3.298586    1.681572    1.362044
  C     -2.325653    2.637197    2.023973
  O     -3.343906   -0.553347   -1.015213
  C     -3.332994   -0.771119   -2.435280
  C     -2.425155   -1.922347   -2.816965
  H      2.512088    0.355912   -2.966306
  H      2.253187   -1.047623   -4.017493
  H      0.871981   -0.137567   -3.375807
  H      2.850618   -1.721852   -1.656913
  H      1.233541   -2.308865   -2.140043
  H      4.846629   -1.244053    1.517956
  H      4.664847    0.423937    0.891130
  H      3.304514   -0.637052    3.419680
  H      4.740829    0.401255    3.389576
  H      3.195870    1.009962    2.778474
  H     -0.658052   -1.470692    2.701541
  H      0.738929   -2.067849    1.739117
  H     -3.635616    2.070998    0.397415
  H     -4.160901    1.483363    2.000496
  H     -2.833692    3.571042    2.241866
  H     -1.943744    2.206426    2.945342
  H     -1.484642    2.838899    1.363080
  H     -4.376094   -0.975193   -2.679570
  H     -3.008311    0.153694   -2.924008
  H     -1.394791   -1.667498   -2.567642
  H     -2.703915   -2.820857   -2.272156
  H     -2.496701   -2.104577   -3.884332

 Total Charge           Charge          ....    0
 Multiplicity           Mult            ....    1
 Number of Electrons    NEL             ....  202
 Basis Dimension        Dim             ....  334

ORBITAL ENERGIES
----------------

  NO   OCC          E(Eh)            E(eV)
   0   2.0000     -88.046516     -2395.8675
   1   2.0000     -88.037999     -2395.6357
   2   2.0000     -87.983552     -2394.1542
   3   2.0000     -87.977191     -2393.9811
   4   2.0000     -76.424633     -2079.6200
   5   2.0000     -76.421994     -2079.5482
   6   2.0000     -18.790206      -511.3075
   7   2.0000     -18.785987      -511.1927
   8   2.0000     -18.785920      -511.1909
   9   2.0000     -18.785771      -511.1868
  10   2.0000      -9.961541      -271.0673
  11   2.0000      -9.951024      -270.7811
  12   2.0000      -9.949323      -270.7348
  13   2.0000      -9.948678      -270.7173
  14   2.0000      -9.947630      -270.6888
  15   2.0000      -9.884704      -268.9765
  16   2.0000      -9.883282      -268.9378
  17   2.0000      -9.875327      -268.7213
  18   2.0000      -9.874047      -268.6865
  19   2.0000      -7.690977      -209.2821
  20   2.0000      -7.683264      -209.0722
  21   2.0000      -7.628669      -207.5866
  22   2.0000      -7.621797      -207.3996
  23   2.0000      -6.421780      -174.7455
  24   2.0000      -6.418965      -174.6689
  25   2.0000      -5.719336      -155.6310
  26   2.0000      -5.715224      -155.5191
  27   2.0000      -5.711541      -155.4189
  28   2.0000      -5.707849      -155.3185
  29   2.0000      -5.707709      -155.3146
  30   2.0000      -5.699692      -155.0965
  31   2.0000      -5.657631      -153.9520
  32   2.0000      -5.650836      -153.7671
  33   2.0000      -5.649473      -153.7300
  34   2.0000      -5.648611      -153.7065
  35   2.0000      -5.642458      -153.5391
  36   2.0000      -5.641841      -153.5223
  37   2.0000      -4.644425      -126.3812
  38   2.0000      -4.643692      -126.3613
  39   2.0000      -4.642119      -126.3185
  40   2.0000      -4.641735      -126.3080
  41   2.0000      -4.640770      -126.2818
  42   2.0000      -4.639308      -126.2420
  43   2.0000      -0.984490       -26.7893
  44   2.0000      -0.980697       -26.6861
  45   2.0000      -0.940324       -25.5875
  46   2.0000      -0.939909       -25.5762
  47   2.0000      -0.764049       -20.7908
  48   2.0000      -0.717628       -19.5276
  49   2.0000      -0.704582       -19.1727
  50   2.0000      -0.684116       -18.6157
  51   2.0000      -0.682186       -18.5632
  52   2.0000      -0.670714       -18.2510
  53   2.0000      -0.651458       -17.7271
  54   2.0000      -0.634708       -17.2713
  55   2.0000      -0.593744       -16.1566
  56   2.0000      -0.586660       -15.9638
  57   2.0000      -0.573282       -15.5998
  58   2.0000      -0.571170       -15.5423
  59   2.0000      -0.561270       -15.2729
  60   2.0000      -0.497926       -13.5493
  61   2.0000      -0.496236       -13.5033
  62   2.0000      -0.466795       -12.7021
  63   2.0000      -0.464575       -12.6417
  64   2.0000      -0.460486       -12.5305
  65   2.0000      -0.437161       -11.8957
  66   2.0000      -0.436397       -11.8750
  67   2.0000      -0.433682       -11.8011
  68   2.0000      -0.422972       -11.5097
  69   2.0000      -0.418615       -11.3911
  70   2.0000      -0.413974       -11.2648
  71   2.0000      -0.395824       -10.7709
  72   2.0000      -0.393333       -10.7031
  73   2.0000      -0.384029       -10.4500
  74   2.0000      -0.375538       -10.2189
  75   2.0000      -0.372303       -10.1309
  76   2.0000      -0.364675        -9.9233
  77   2.0000      -0.356820        -9.7096
  78   2.0000      -0.348914        -9.4944
  79   2.0000      -0.348038        -9.4706
  80   2.0000      -0.344790        -9.3822
  81   2.0000      -0.341779        -9.3003
  82   2.0000      -0.338025        -9.1981
  83   2.0000      -0.334939        -9.1142
  84   2.0000      -0.327317        -8.9067
  85   2.0000      -0.318008        -8.6534
  86   2.0000      -0.304467        -8.2850
  87   2.0000      -0.294645        -8.0177
  88   2.0000      -0.292078        -7.9479
  89   2.0000      -0.289465        -7.8767
  90   2.0000      -0.281046        -7.6476
  91   2.0000      -0.272409        -7.4126
  92   2.0000      -0.271561        -7.3896
  93   2.0000      -0.260975        -7.1015
  94   2.0000      -0.256730        -6.9860
  95   2.0000      -0.231584        -6.3017
  96   2.0000      -0.216858        -5.9010
  97   2.0000      -0.204586        -5.5671
  98   2.0000      -0.197705        -5.3798
  99   2.0000      -0.191042        -5.1985
 100   2.0000      -0.183687        -4.9984
 101   0.0000      -0.052500        -1.4286
 102   0.0000      -0.027063        -0.7364
 103   0.0000      -0.014769        -0.4019
 104   0.0000      -0.002401        -0.0653
 105   0.0000       0.015182         0.4131

MULLIKEN ATOMIC CHARGES
-----------------------
   0 C :   -0.307092
   1 C :   -0.007336
   2 O :   -0.369705
   3 P :    0.637342
   4 S :   -0.306022
   5 O :   -0.386139
   6 C :   -0.007394
   7 C :   -0.305820
   8 S :   -0.084388
   9 C :   -0.310222
  10 S :   -0.105090
  11 P :    0.606891
  12 S :   -0.311682
  13 O :   -0.375830
  14 C :   -0.000287
  15 C :   -0.292382
  16 O :   -0.372894
  17 C :    0.002804
  18 C :   -0.350829
  19 H :    0.126472
  20 H :    0.102427
  21 H :    0.130605
  22 H :    0.101539
  23 H :    0.107757
  24 H :    0.100312
  25 H :    0.110505
  26 H :    0.108837
  27 H :    0.111817
  28 H :    0.124282
  29 H :    0.185762
  30 H :    0.179920
  31 H :    0.102871
  32 H :    0.104234
  33 H :    0.106279
  34 H :    0.107371
  35 H :    0.137603
  36 H :    0.103347
  37 H :    0.108953
  38 H :    0.150879
  39 H :    0.120651
  40 H :    0.113653
Sum of atomic charges:    0.0000000

LOEWDIN ATOMIC CHARGES
----------------------
   0 C :   -0.365681
   1 C :   -0.110785
   2 O :   -0.238863
   3 P :    0.569223
   4 S :   -0.304195
   5 O :   -0.253782
   6 C :   -0.125004
   7 C :   -0.366565
   8 S :    0.118912
   9 C :   -0.467344
  10 S :    0.082050
  11 P :    0.562778
  12 S :   -0.306053
  13 O :   -0.249700
  14 C :   -0.111415
  15 C :   -0.362875
  16 O :   -0.249538
  17 C :   -0.122306
  18 C :   -0.373481
  19 H :    0.124390
  20 H :    0.125666
  21 H :    0.127169
  22 H :    0.108955
  23 H :    0.115266
  24 H :    0.115658
  25 H :    0.108392
  26 H :    0.121259
  27 H :    0.130207
  28 H :    0.120548
  29 H :    0.137696
  30 H :    0.132063
  31 H :    0.110394
  32 H :    0.117609
  33 H :    0.127541
  34 H :    0.120510
  35 H :    0.127357
  36 H :    0.117900
  37 H :    0.108244
  38 H :    0.122236
  39 H :    0.124347
  40 H :    0.131218

  Mayer bond orders larger than 0.100000
B(  0-C ,  1-C ) :   1.1731 B(  0-C , 19-H ) :   0.9332 B(  0-C , 20-H ) :   0.9384
B(  0-C , 21-H ) :   0.9402 B(  1-C ,  2-O ) :   0.8995 B(  1-C , 22-H ) :   0.9231
B(  1-C , 23-H ) :   0.9259 B(  2-O ,  3-P ) :   1.1143 B(  3-P ,  4-S ) :   1.6604
B(  3-P ,  5-O ) :   1.0521 B(  3-P ,  8-S ) :   0.9538 B(  5-O ,  6-C ) :   0.9159
B(  6-C ,  7-C ) :   1.1643 B(  6-C , 24-H ) :   0.9332 B(  6-C , 25-H ) :   0.9096
B(  7-C , 26-H ) :   0.9470 B(  7-C , 27-H ) :   0.9392 B(  7-C , 28-H ) :   0.9360
B(  8-S ,  9-C ) :   1.0087 B(  9-C , 10-S ) :   0.9683 B(  9-C , 29-H ) :   0.9084
B(  9-C , 30-H ) :   0.9041 B( 10-S , 11-P ) :   0.9746 B( 10-S , 12-S ) :   0.1224
B( 11-P , 12-S ) :   1.5846 B( 11-P , 13-O ) :   1.1168 B( 11-P , 16-O ) :   1.0953
B( 13-O , 14-C ) :   0.8941 B( 14-C , 15-C ) :   1.1728 B( 14-C , 31-H ) :   0.9149
B( 14-C , 32-H ) :   0.9344 B( 15-C , 33-H ) :   0.9399 B( 15-C , 34-H ) :   0.9454
B( 15-C , 35-H ) :   0.9342 B( 16-O , 17-C ) :   0.9137 B( 17-C , 18-C ) :   1.1636
B( 17-C , 36-H ) :   0.9324 B( 17-C , 37-H ) :   0.9106 B( 18-C , 38-H ) :   0.9250
B( 18-C , 39-H ) :   0.9423 B( 18-C , 40-H ) :   0.9378

Dispersion correction           -0.069557370
FINAL SINGLE POINT ENERGY     -2929.510599943065

DIPOLE MOMENT
-------------

Method             : SCF
Type of density    : Electron Density
Multiplicity       :   1
Irrep              :   0
Energy             : -2929.6261569459470593 Eh
Relativity type    :
Basis              : AO
                                X                 Y                 Z
Electronic contribution:     -2.531105865       2.367983890       3.315794763
Nuclear contribution   :      2.416744990      -3.635135627      -2.890586033
                        -----------------------------------------
Total Dipole Moment    :     -0.114360875      -1.267151737       0.425208730
                        -----------------------------------------
Magnitude (a.u.)       :      1.341474711
Magnitude (Debye)      :      3.409757736

Rotational constants in cm-1:             0.011413             0.006272             0.005399
Rotational constants in MHz :           342.156768           188.016193           161.851088

                             ****ORCA TERMINATED NORMALLY****
TOTAL RUN TIME: 0 days 0 hours 0 minutes 22 seconds 49 msec
