                         Program Version 6.0.0  -   RELEASE  -
|  1> ! pbe def2-sv(p) def2/J RI DEFGRID1 loosescf d4 GCP(DFT/SV(P)) printgap
|  2> %output
|  3>     printlevel normal
|  4> end
|  5> * xyz 0 1
|  6> C 3.4150268851 2.1487318951 -1.4833478808
|  7> C 4.0187676512 1.6011819438 -0.2065447162
|  8> O 3.6190456166 0.2409194091 0.0202650698
|  9> P 2.1313368542 -0.1293048147 0.4481301719
| 10> S 1.362493328 1.1522552306 1.7249873962
| 11> O 2.2778101879 -1.6435777063 0.8850264914
| 12> C 3.3354955346 -2.141791292 1.7367343482
| 13> C 3.2874330051 -1.5409835597 3.1254838497
| 14> S 1.1135373351 -0.4201338075 -1.4041976836
| 15> C 0.0266294858 -1.7987732639 -0.9460024509
| 16> S -1.0095636366 -1.4546859107 0.4992485134
| 17> P -2.1533442397 0.0782188331 -0.403278784
| 18> S -2.5755425963 -0.152695318 -2.3073733691
| 19> O -1.2937254817 1.3658614463 -0.0776249544
| 20> C -1.2861492095 2.5382298449 -0.9108158347
| 21> C -2.5852882381 3.3045005669 -0.7841096089
| 22> O -3.3678382726 0.2771796725 0.5984928452
| 23> C -4.2266644232 -0.763926301 1.1000558258
| 24> C -4.7951114616 -1.6422662065 0.004683131
| 25> H 2.3280541513 2.1701357844 -1.3943016108
| 26> H 3.7758837921 3.1575939337 -1.6546525369
| 27> H 3.678327786 1.5188927301 -2.3289807473
| 28> H 3.708639595 2.2014520445 0.6557730667
| 29> H 5.1071383368 1.5555638904 -0.258641473
| 30> H 3.1523024673 -3.2173440202 1.7610845415
| 31> H 4.2917080392 -1.9353288218 1.2518013723
| 32> H 4.0448410094 -2.0086853025 3.7466622508
| 33> H 3.4756355744 -0.4692993452 3.0795040023
| 34> H 2.3076699946 -1.6979242554 3.5707630309
| 35> H 0.6205065634 -2.6763894851 -0.7073679908
| 36> H -0.6097071383 -1.9685329471 -1.816019606
| 37> H -0.4345709704 3.1141634623 -0.5438999592
| 38> H -1.1114116583 2.2303115882 -1.947655428
| 39> H -2.5321211529 4.2098299888 -1.3802432619
| 40> H -3.4083423888 2.6865759533 -1.1426128266
| 41> H -2.7668714733 3.5611068506 0.2562015281
| 42> H -3.6532538519 -1.359296567 1.8165277716
| 43> H -5.013356128 -0.2160328843 1.6220847584
| 44> H -3.995707251 -2.1964200411 -0.4856934308
| 45> H -5.4993385842 -2.3454975912 0.4374985673
| 46> H -5.3031927717 -1.0369943089 -0.7424003643
| 47> *
| 48>
| 49>                          ****END OF INPUT****

CARTESIAN COORDINATES (ANGSTROEM)
---------------------------------
  C      3.415027    2.148732   -1.483348
  C      4.018768    1.601182   -0.206545
  O      3.619046    0.240919    0.020265
  P      2.131337   -0.129305    0.448130
  S      1.362493    1.152255    1.724987
  O      2.277810   -1.643578    0.885026
  C      3.335496   -2.141791    1.736734
  C      3.287433   -1.540984    3.125484
  S      1.113537   -0.420134   -1.404198
  C      0.026629   -1.798773   -0.946002
  S     -1.009564   -1.454686    0.499249
  P     -2.153344    0.078219   -0.403279
  S     -2.575543   -0.152695   -2.307373
  O     -1.293725    1.365861   -0.077625
  C     -1.286149    2.538230   -0.910816
  C     -2.585288    3.304501   -0.784110
  O     -3.367838    0.277180    0.598493
  C     -4.226664   -0.763926    1.100056
  C     -4.795111   -1.642266    0.004683
  H      2.328054    2.170136   -1.394302
  H      3.775884    3.157594   -1.654653
  H      3.678328    1.518893   -2.328981
  H      3.708640    2.201452    0.655773
  H      5.107138    1.555564   -0.258641
  H      3.152302   -3.217344    1.761085
  H      4.291708   -1.935329    1.251801
  H      4.044841   -2.008685    3.746662
  H      3.475636   -0.469299    3.079504
  H      2.307670   -1.697924    3.570763
  H      0.620507   -2.676389   -0.707368
  H     -0.609707   -1.968533   -1.816020
  H     -0.434571    3.114163   -0.543900
  H     -1.111412    2.230312   -1.947655
  H     -2.532121    4.209830   -1.380243
  H     -3.408342    2.686576   -1.142613
  H     -2.766871    3.561107    0.256202
  H     -3.653254   -1.359297    1.816528
  H     -5.013356   -0.216033    1.622085
  H     -3.995707   -2.196420   -0.485693
  H     -5.499339   -2.345498    0.437499
  H     -5.303193   -1.036994   -0.742400

 Total Charge           Charge          ....    0
 Multiplicity           Mult            ....    1
 Number of Electrons    NEL             ....  202
 Basis Dimension        Dim             ....  334

ORBITAL ENERGIES
----------------

  NO   OCC          E(Eh)            E(eV)
   0   2.0000     -88.039976     -2395.6896
   1   2.0000     -88.035737     -2395.5742
   2   2.0000     -87.981733     -2394.1047
   3   2.0000     -87.979616     -2394.0471
   4   2.0000     -76.425074     -2079.6320
   5   2.0000     -76.421982     -2079.5478
   6   2.0000     -18.793890      -511.4078
   7   2.0000     -18.793040      -511.3846
   8   2.0000     -18.788976      -511.2740
   9   2.0000     -18.777267      -510.9554
  10   2.0000      -9.958685      -270.9896
  11   2.0000      -9.955345      -270.8987
  12   2.0000      -9.953583      -270.8508
  13   2.0000      -9.952864      -270.8312
  14   2.0000      -9.938810      -270.4488
  15   2.0000      -9.887508      -269.0528
  16   2.0000      -9.883671      -268.9484
  17   2.0000      -9.881123      -268.8790
  18   2.0000      -9.873760      -268.6787
  19   2.0000      -7.685087      -209.1218
  20   2.0000      -7.680697      -209.0024
  21   2.0000      -7.626731      -207.5339
  22   2.0000      -7.624621      -207.4765
  23   2.0000      -6.422323      -174.7603
  24   2.0000      -6.419130      -174.6734
  25   2.0000      -5.712859      -155.4548
  26   2.0000      -5.709654      -155.3676
  27   2.0000      -5.708844      -155.3456
  28   2.0000      -5.705347      -155.2504
  29   2.0000      -5.702066      -155.1611
  30   2.0000      -5.697276      -155.0308
  31   2.0000      -5.655535      -153.8949
  32   2.0000      -5.653485      -153.8391
  33   2.0000      -5.647543      -153.6775
  34   2.0000      -5.646818      -153.6577
  35   2.0000      -5.645293      -153.6162
  36   2.0000      -5.644823      -153.6034
  37   2.0000      -4.645515      -126.4109
  38   2.0000      -4.644035      -126.3706
  39   2.0000      -4.642282      -126.3229
  40   2.0000      -4.641582      -126.3039
  41   2.0000      -4.641007      -126.2882
  42   2.0000      -4.639669      -126.2518
  43   2.0000      -0.989515       -26.9261
  44   2.0000      -0.979882       -26.6639
  45   2.0000      -0.947061       -25.7708
  46   2.0000      -0.937605       -25.5135
  47   2.0000      -0.761528       -20.7222
  48   2.0000      -0.718167       -19.5423
  49   2.0000      -0.705076       -19.1861
  50   2.0000      -0.690469       -18.7886
  51   2.0000      -0.681243       -18.5376
  52   2.0000      -0.669521       -18.2186
  53   2.0000      -0.649806       -17.6821
  54   2.0000      -0.635840       -17.3021
  55   2.0000      -0.594637       -16.1809
  56   2.0000      -0.589874       -16.0513
  57   2.0000      -0.580366       -15.7926
  58   2.0000      -0.568661       -15.4741
  59   2.0000      -0.557924       -15.1819
  60   2.0000      -0.498901       -13.5758
  61   2.0000      -0.489018       -13.3069
  62   2.0000      -0.472834       -12.8665
  63   2.0000      -0.463825       -12.6213
  64   2.0000      -0.460856       -12.5405
  65   2.0000      -0.444520       -12.0960
  66   2.0000      -0.433414       -11.7938
  67   2.0000      -0.428238       -11.6529
  68   2.0000      -0.423004       -11.5105
  69   2.0000      -0.414978       -11.2921
  70   2.0000      -0.413451       -11.2506
  71   2.0000      -0.409037       -11.1305
  72   2.0000      -0.385155       -10.4806
  73   2.0000      -0.381468       -10.3803
  74   2.0000      -0.379853       -10.3363
  75   2.0000      -0.372766       -10.1435
  76   2.0000      -0.366045        -9.9606
  77   2.0000      -0.357377        -9.7247
  78   2.0000      -0.351878        -9.5751
  79   2.0000      -0.344626        -9.3778
  80   2.0000      -0.344040        -9.3618
  81   2.0000      -0.340999        -9.2791
  82   2.0000      -0.339833        -9.2473
  83   2.0000      -0.336240        -9.1495
  84   2.0000      -0.333645        -9.0789
  85   2.0000      -0.318392        -8.6639
  86   2.0000      -0.306350        -8.3362
  87   2.0000      -0.297406        -8.0928
  88   2.0000      -0.294127        -8.0036
  89   2.0000      -0.292128        -7.9492
  90   2.0000      -0.279019        -7.5925
  91   2.0000      -0.276370        -7.5204
  92   2.0000      -0.266455        -7.2506
  93   2.0000      -0.259117        -7.0509
  94   2.0000      -0.257020        -6.9939
  95   2.0000      -0.229669        -6.2496
  96   2.0000      -0.215427        -5.8621
  97   2.0000      -0.203489        -5.5372
  98   2.0000      -0.196542        -5.3482
  99   2.0000      -0.192958        -5.2506
 100   2.0000      -0.187694        -5.1074
 101   0.0000      -0.047878        -1.3028
 102   0.0000      -0.019918        -0.5420
 103   0.0000      -0.015873        -0.4319
 104   0.0000       0.002771         0.0754
 105   0.0000       0.020106         0.5471

MULLIKEN ATOMIC CHARGES
-----------------------
   0 C :   -0.332022
   1 C :   -0.003979
   2 O :   -0.378912
   3 P :    0.629251
   4 S :   -0.303370
   5 O :   -0.387179
   6 C :   -0.001176
   7 C :   -0.310458
   8 S :   -0.102580
   9 C :   -0.336671
  10 S :   -0.095740
  11 P :    0.620567
  12 S :   -0.341586
  13 O :   -0.341293
  14 C :   -0.012032
  15 C :   -0.298809
  16 O :   -0.370749
  17 C :   -0.008717
  18 C :   -0.310058
  19 H :    0.137242
  20 H :    0.116252
  21 H :    0.122922
  22 H :    0.109452
  23 H :    0.103694
  24 H :    0.105037
  25 H :    0.111842
  26 H :    0.109113
  27 H :    0.127709
  28 H :    0.124749
  29 H :    0.183709
  30 H :    0.192051
  31 H :    0.107774
  32 H :    0.110234
  33 H :    0.106493
  34 H :    0.119522
  35 H :    0.115263
  36 H :    0.113690
  37 H :    0.109335
  38 H :    0.122901
  39 H :    0.110105
  40 H :    0.126428
Sum of atomic charges:   -0.0000000

LOEWDIN ATOMIC CHARGES
----------------------
   0 C :   -0.369213
   1 C :   -0.123804
   2 O :   -0.246623
   3 P :    0.571345
   4 S :   -0.301411
   5 O :   -0.248490
   6 C :   -0.107890
   7 C :   -0.366996
   8 S :    0.078527
   9 C :   -0.477123
  10 S :    0.084022
  11 P :    0.576401
  12 S :   -0.324156
  13 O :   -0.225979
  14 C :   -0.120923
  15 C :   -0.363569
  16 O :   -0.242446
  17 C :   -0.112789
  18 C :   -0.370201
  19 H :    0.120595
  20 H :    0.132823
  21 H :    0.127222
  22 H :    0.107996
  23 H :    0.117836
  24 H :    0.119199
  25 H :    0.114363
  26 H :    0.128771
  27 H :    0.122293
  28 H :    0.130731
  29 H :    0.132350
  30 H :    0.129589
  31 H :    0.115609
  32 H :    0.106685
  33 H :    0.127751
  34 H :    0.121226
  35 H :    0.125924
  36 H :    0.110065
  37 H :    0.121701
  38 H :    0.119818
  39 H :    0.129250
  40 H :    0.129519

  Mayer bond orders larger than 0.100000
B(  0-C ,  1-C ) :   1.1629 B(  0-C , 19-H ) :   0.9290 B(  0-C , 20-H ) :   0.9388
B(  0-C , 21-H ) :   0.9441 B(  1-C ,  2-O ) :   0.9127 B(  1-C , 22-H ) :   0.9083
B(  1-C , 23-H ) :   0.9313 B(  2-O ,  3-P ) :   1.0721 B(  3-P ,  4-S ) :   1.6587
B(  3-P ,  5-O ) :   1.0969 B(  3-P ,  8-S ) :   0.9399 B(  4-S ,  8-S ) :   0.1124
B(  5-O ,  6-C ) :   0.9051 B(  6-C ,  7-C ) :   1.1682 B(  6-C , 24-H ) :   0.9357
B(  6-C , 25-H ) :   0.9282 B(  7-C , 26-H ) :   0.9354 B(  7-C , 27-H ) :   0.9334
B(  7-C , 28-H ) :   0.9452 B(  8-S ,  9-C ) :   1.0070 B(  9-C , 10-S ) :   1.0106
B(  9-C , 29-H ) :   0.9002 B(  9-C , 30-H ) :   0.8778 B( 10-S , 11-P ) :   0.9419
B( 10-S , 12-S ) :   0.1097 B( 11-P , 12-S ) :   1.5845 B( 11-P , 13-O ) :   1.1457
B( 11-P , 16-O ) :   1.1160 B( 13-O , 14-C ) :   0.9065 B( 14-C , 15-C ) :   1.1623
B( 14-C , 31-H ) :   0.9256 B( 14-C , 32-H ) :   0.9135 B( 15-C , 33-H ) :   0.9407
B( 15-C , 34-H ) :   0.9363 B( 15-C , 35-H ) :   0.9462 B( 16-O , 17-C ) :   0.9157
B( 17-C , 18-C ) :   1.1633 B( 17-C , 36-H ) :   0.9286 B( 17-C , 37-H ) :   0.9345
B( 18-C , 38-H ) :   0.9333 B( 18-C , 39-H ) :   0.9349 B( 18-C , 40-H ) :   0.9423

Dispersion correction           -0.067104442
FINAL SINGLE POINT ENERGY     -2929.513513217825

DIPOLE MOMENT
-------------

Method             : SCF
Type of density    : Electron Density
Multiplicity       :   1
Irrep              :   0
Energy             : -2929.6310688647245115 Eh
Relativity type    :
Basis              : AO
                                X                 Y                 Z
Electronic contribution:     -1.297264861      -5.451188969      -3.103286249
Nuclear contribution   :      2.099173124       5.026100888       3.584867991
                        -----------------------------------------
Total Dipole Moment    :      0.801908263      -0.425088081       0.481581742
                        -----------------------------------------
Magnitude (a.u.)       :      1.027461782
Magnitude (Debye)      :      2.611600303

Rotational constants in cm-1:             0.012425             0.005372             0.004732
Rotational constants in MHz :           372.490778           161.038120           141.848747

                             ****ORCA TERMINATED NORMALLY****
TOTAL RUN TIME: 0 days 0 hours 0 minutes 21 seconds 329 msec
