                         Program Version 6.0.1  -  RELEASE   -
|  1> ! pbe def2-sv(p) def2/J RI DEFGRID1 loosescf d4 GCP(DFT/SV(P)) printgap
|  2> %output
|  3>     printlevel normal
|  4> end
|  5> * xyz 0 1
|  6> C 2.8077874909 -4.0889953172 0.145813366
|  7> C 2.5860370929 -2.6412340379 0.534531443
|  8> O 2.1867224632 -1.9204363054 -0.6476468727
|  9> C 2.1144913724 -0.6126854718 -0.5893523571
| 10> O 2.3455649218 0.0535574441 0.401057519
| 11> C 1.7293379927 0.0030091925 -1.9222155703
| 12> C 0.5098615601 0.9163172941 -1.7605644016
| 13> H 0.4321451583 1.5881562035 -2.6180727005
| 14> C 0.6087180519 1.736503434 -0.4882583444
| 15> O -0.1559483423 1.575371661 0.4469520231
| 16> O 1.5558815405 2.6226075645 -0.5474407932
| 17> C 1.8097063195 3.4366248864 0.6192742533
| 18> C 0.8209151488 4.5862845373 0.714006427
| 19> S -1.0585298036 -0.0158203864 -1.7355850138
| 20> P -1.6170741842 -0.3062360557 0.2747228861
| 21> S -0.4938545931 -1.0557856816 1.7132286008
| 22> O -2.5972343633 0.9083000954 0.607500973
| 23> C -3.4753463874 0.8341567417 1.7398022086
| 24> O -2.7712393852 -1.3980029435 -0.0557803281
| 25> C -2.4841786599 -2.7800263199 -0.2630812533
| 26> H 3.1023570039 -4.6516423189 1.0250934073
| 27> H 1.8909996354 -4.508684587 -0.2566435131
| 28> H 3.588561703 -4.1585002168 -0.6056681357
| 29> H 3.4943192695 -2.17542592 0.9292782495
| 30> H 1.7941297208 -2.5326018667 1.2834205304
| 31> H 1.5187607961 -0.7821055824 -2.6463583189
| 32> H 2.5745553499 0.6074049953 -2.2578345396
| 33> H 1.7577165826 2.7918626653 1.500918138
| 34> H 2.8286839393 3.7930343757 0.4713719434
| 35> H 1.0813919607 5.2090838622 1.5632684526
| 36> H 0.8525388875 5.1838587829 -0.1927724334
| 37> H -0.1880548646 4.2045926113 0.8552851736
| 38> H -3.8790181167 1.8367028438 1.8567955309
| 39> H -2.9180311873 0.5396176668 2.6311100473
| 40> H -4.2699307209 0.1143776457 1.545260473
| 41> H -1.7728034837 -3.1277363073 0.4893928462
| 42> H -2.0741969007 -2.9291100122 -1.2617941668
| 43> H -3.4330949446 -3.2997710026 -0.1569864563
| 44> *
| 45>
| 46>                          ****END OF INPUT****

CARTESIAN COORDINATES (ANGSTROEM)
---------------------------------
  C      2.807787   -4.088995    0.145813
  C      2.586037   -2.641234    0.534531
  O      2.186722   -1.920436   -0.647647
  C      2.114491   -0.612685   -0.589352
  O      2.345565    0.053557    0.401058
  C      1.729338    0.003009   -1.922216
  C      0.509862    0.916317   -1.760564
  H      0.432145    1.588156   -2.618073
  C      0.608718    1.736503   -0.488258
  O     -0.155948    1.575372    0.446952
  O      1.555882    2.622608   -0.547441
  C      1.809706    3.436625    0.619274
  C      0.820915    4.586285    0.714006
  S     -1.058530   -0.015820   -1.735585
  P     -1.617074   -0.306236    0.274723
  S     -0.493855   -1.055786    1.713229
  O     -2.597234    0.908300    0.607501
  C     -3.475346    0.834157    1.739802
  O     -2.771239   -1.398003   -0.055780
  C     -2.484179   -2.780026   -0.263081
  H      3.102357   -4.651642    1.025093
  H      1.891000   -4.508685   -0.256644
  H      3.588562   -4.158500   -0.605668
  H      3.494319   -2.175426    0.929278
  H      1.794130   -2.532602    1.283421
  H      1.518761   -0.782106   -2.646358
  H      2.574555    0.607405   -2.257835
  H      1.757717    2.791863    1.500918
  H      2.828684    3.793034    0.471372
  H      1.081392    5.209084    1.563268
  H      0.852539    5.183859   -0.192772
  H     -0.188055    4.204593    0.855285
  H     -3.879018    1.836703    1.856796
  H     -2.918031    0.539618    2.631110
  H     -4.269931    0.114378    1.545260
  H     -1.772803   -3.127736    0.489393
  H     -2.074197   -2.929110   -1.261794
  H     -3.433095   -3.299771   -0.156986

 Total Charge           Charge          ....    0
 Multiplicity           Mult            ....    1
 Number of Electrons    NEL             ....  174
 Basis Dimension        Dim             ....  316

ORBITAL ENERGIES
----------------

  NO   OCC          E(Eh)            E(eV)
   0   2.0000     -88.035364     -2395.5641
   1   2.0000     -87.961101     -2393.5433
   2   2.0000     -76.414614     -2079.3474
   3   2.0000     -18.816866      -512.0329
   4   2.0000     -18.803054      -511.6571
   5   2.0000     -18.768600      -510.7196
   6   2.0000     -18.768151      -510.7074
   7   2.0000     -18.756028      -510.3775
   8   2.0000     -18.737131      -509.8633
   9   2.0000     -10.027261      -272.8556
  10   2.0000     -10.010282      -272.3936
  11   2.0000      -9.954997      -270.8893
  12   2.0000      -9.952235      -270.8141
  13   2.0000      -9.938813      -270.4489
  14   2.0000      -9.929694      -270.2007
  15   2.0000      -9.925566      -270.0884
  16   2.0000      -9.916847      -269.8511
  17   2.0000      -9.888963      -269.0924
  18   2.0000      -9.884207      -268.9629
  19   2.0000      -7.680651      -209.0011
  20   2.0000      -7.606095      -206.9724
  21   2.0000      -6.409647      -174.4154
  22   2.0000      -5.708920      -155.3476
  23   2.0000      -5.704821      -155.2361
  24   2.0000      -5.697483      -155.0364
  25   2.0000      -5.635162      -153.3406
  26   2.0000      -5.627243      -153.1251
  27   2.0000      -5.625520      -153.0782
  28   2.0000      -4.632659      -126.0611
  29   2.0000      -4.631508      -126.0297
  30   2.0000      -4.630165      -125.9932
  31   2.0000      -1.028664       -27.9914
  32   2.0000      -1.009731       -27.4762
  33   2.0000      -0.963572       -26.2201
  34   2.0000      -0.934428       -25.4271
  35   2.0000      -0.917179       -24.9577
  36   2.0000      -0.914460       -24.8837
  37   2.0000      -0.767571       -20.8867
  38   2.0000      -0.711662       -19.3653
  39   2.0000      -0.707598       -19.2547
  40   2.0000      -0.684344       -18.6219
  41   2.0000      -0.650319       -17.6961
  42   2.0000      -0.622805       -16.9474
  43   2.0000      -0.614383       -16.7182
  44   2.0000      -0.608477       -16.5575
  45   2.0000      -0.590276       -16.0622
  46   2.0000      -0.561723       -15.2853
  47   2.0000      -0.511024       -13.9057
  48   2.0000      -0.506316       -13.7775
  49   2.0000      -0.496487       -13.5101
  50   2.0000      -0.485312       -13.2060
  51   2.0000      -0.461625       -12.5614
  52   2.0000      -0.455798       -12.4029
  53   2.0000      -0.445288       -12.1169
  54   2.0000      -0.434844       -11.8327
  55   2.0000      -0.427214       -11.6251
  56   2.0000      -0.421504       -11.4697
  57   2.0000      -0.414058       -11.2671
  58   2.0000      -0.411134       -11.1875
  59   2.0000      -0.404491       -11.0068
  60   2.0000      -0.397934       -10.8283
  61   2.0000      -0.394131       -10.7248
  62   2.0000      -0.383573       -10.4375
  63   2.0000      -0.382411       -10.4059
  64   2.0000      -0.368632       -10.0310
  65   2.0000      -0.364129        -9.9085
  66   2.0000      -0.358381        -9.7520
  67   2.0000      -0.353263        -9.6128
  68   2.0000      -0.347826        -9.4648
  69   2.0000      -0.344020        -9.3613
  70   2.0000      -0.334376        -9.0988
  71   2.0000      -0.333041        -9.0625
  72   2.0000      -0.313111        -8.5202
  73   2.0000      -0.305282        -8.3071
  74   2.0000      -0.297826        -8.1043
  75   2.0000      -0.296027        -8.0553
  76   2.0000      -0.285144        -7.7592
  77   2.0000      -0.276145        -7.5143
  78   2.0000      -0.271859        -7.3976
  79   2.0000      -0.258055        -7.0220
  80   2.0000      -0.252434        -6.8691
  81   2.0000      -0.243468        -6.6251
  82   2.0000      -0.237700        -6.4681
  83   2.0000      -0.223428        -6.0798
  84   2.0000      -0.222908        -6.0656
  85   2.0000      -0.183119        -4.9829
  86   2.0000      -0.170508        -4.6398
  87   0.0000      -0.041109        -1.1186
  88   0.0000      -0.031287        -0.8514
  89   0.0000      -0.024614        -0.6698
  90   0.0000       0.004916         0.1338
  91   0.0000       0.035309         0.9608

MULLIKEN ATOMIC CHARGES
-----------------------
   0 C :   -0.273814
   1 C :   -0.040125
   2 O :   -0.217104
   3 C :    0.097250
   4 O :   -0.205279
   5 C :   -0.027395
   6 C :   -0.301139
   7 H :    0.147521
   8 C :    0.235753
   9 O :   -0.193959
  10 O :   -0.219183
  11 C :   -0.005225
  12 C :   -0.314046
  13 S :   -0.092147
  14 P :    0.652560
  15 S :   -0.346554
  16 O :   -0.379708
  17 C :   -0.090762
  18 O :   -0.408055
  19 C :   -0.096180
  20 H :    0.111419
  21 H :    0.115495
  22 H :    0.109203
  23 H :    0.101088
  24 H :    0.132520
  25 H :    0.114928
  26 H :    0.123919
  27 H :    0.129762
  28 H :    0.105137
  29 H :    0.116783
  30 H :    0.112218
  31 H :    0.136948
  32 H :    0.117635
  33 H :    0.113906
  34 H :    0.113711
  35 H :    0.106210
  36 H :    0.103215
  37 H :    0.113496
Sum of atomic charges:    0.0000000

LOEWDIN ATOMIC CHARGES
----------------------
   0 C :   -0.350274
   1 C :   -0.112111
   2 O :   -0.045340
   3 C :    0.025572
   4 O :   -0.157230
   5 C :   -0.246081
   6 C :   -0.259807
   7 H :    0.147649
   8 C :    0.027823
   9 O :   -0.139131
  10 O :   -0.033755
  11 C :   -0.101694
  12 C :   -0.358329
  13 S :    0.111721
  14 P :    0.585513
  15 S :   -0.330151
  16 O :   -0.255359
  17 C :   -0.209164
  18 O :   -0.277062
  19 C :   -0.224405
  20 H :    0.130983
  21 H :    0.126940
  22 H :    0.123278
  23 H :    0.115187
  24 H :    0.116996
  25 H :    0.135326
  26 H :    0.147973
  27 H :    0.131352
  28 H :    0.120333
  29 H :    0.133014
  30 H :    0.124164
  31 H :    0.133759
  32 H :    0.118818
  33 H :    0.111326
  34 H :    0.111083
  35 H :    0.100978
  36 H :    0.103791
  37 H :    0.116313

  Mayer bond orders larger than 0.100000
B(  0-C ,  1-C ) :   1.1545 B(  0-C , 20-H ) :   0.9444 B(  0-C , 21-H ) :   0.9488
B(  0-C , 22-H ) :   0.9514 B(  1-C ,  2-O ) :   0.8954 B(  1-C , 23-H ) :   0.9273
B(  1-C , 24-H ) :   0.9120 B(  2-O ,  3-C ) :   1.2697 B(  2-O ,  4-O ) :   0.1018
B(  3-C ,  4-O ) :   1.9685 B(  3-C ,  5-C ) :   1.0054 B(  4-O ,  8-C ) :   0.1019
B(  5-C ,  6-C ) :   1.0232 B(  5-C , 25-H ) :   0.9050 B(  5-C , 26-H ) :   0.8762
B(  6-C ,  7-H ) :   0.8784 B(  6-C ,  8-C ) :   0.9090 B(  6-C , 13-S ) :   1.0277
B(  8-C ,  9-O ) :   1.8799 B(  8-C , 10-O ) :   1.2765 B(  9-O , 14-P ) :   0.1753
B( 10-O , 11-C ) :   0.8958 B( 11-C , 12-C ) :   1.1719 B( 11-C , 27-H ) :   0.9173
B( 11-C , 28-H ) :   0.9384 B( 12-C , 29-H ) :   0.9437 B( 12-C , 30-H ) :   0.9470
B( 12-C , 31-H ) :   0.9429 B( 13-S , 14-P ) :   0.9562 B( 13-S , 15-S ) :   0.1173
B( 14-P , 15-S ) :   1.5720 B( 14-P , 16-O ) :   1.0957 B( 14-P , 18-O ) :   1.0106
B( 16-O , 17-C ) :   0.9354 B( 17-C , 32-H ) :   0.9596 B( 17-C , 33-H ) :   0.9361
B( 17-C , 34-H ) :   0.9493 B( 18-O , 19-C ) :   0.9500 B( 19-C , 35-H ) :   0.9231
B( 19-C , 36-H ) :   0.9499 B( 19-C , 37-H ) :   0.9591

Dispersion correction           -0.053161367
FINAL SINGLE POINT ENERGY     -1979.006762509781

DIPOLE MOMENT
-------------

Method             : SCF
Type of density    : Electron Density
Multiplicity       :   1
Irrep              :   0
Energy             : -1979.1362107739719249 Eh
Relativity type    :
Basis              : AO
                                X                 Y                 Z
Electronic contribution:     -6.852210415       2.209552416      -4.351740744
Nuclear contribution   :      7.484654056      -1.822955821       3.656373541
                        -----------------------------------------
Total Dipole Moment    :      0.632443641       0.386596594      -0.695367203
                        -----------------------------------------
Magnitude (a.u.)       :      1.016354974
Magnitude (Debye)      :      2.583369040

Rotational constants in cm-1:             0.010389             0.009894             0.006555
Rotational constants in MHz :           311.465564           296.604834           196.513690

                             ****ORCA TERMINATED NORMALLY****
TOTAL RUN TIME: 0 days 0 hours 0 minutes 38 seconds 822 msec
