                         Program Version 6.0.0  -   RELEASE  -
|  1> ! wb97x-v def2-tzvp def2/J RIJCOSX DEFGRID2 scfconv7 GCP(DFT/TZ) printgap
|  2> %output
|  3>     printlevel normal
|  4> end
|  5> * xyz 0 1
|  6> C 0.025915477932261302 -0.6378829803511338 3.170567801040262
|  7> C 1.1468807371616752 -0.05436614710759721 2.351279457185976
|  8> O 1.566743352308378 -1.0887573707714213 1.3872234070618354
|  9> P 2.45213398214959 -0.7321762141638165 0.10084822046050661
| 10> S 2.9223945930200945 -2.332873353608817 -0.8962507550755171
| 11> O 3.631696200803488 0.1388958334335456 0.7631708458172313
| 12> C 4.76943468801611 0.6181401456349543 -0.03794729622884198
| 13> C 5.862011476484464 1.0038407713387798 0.9238603961027055
| 14> S 1.45272615815105 0.7764868721510015 -1.0167836770284253
| 15> C 0.37431174465571804 -0.24723836939936855 -2.0911222777023606
| 16> S -1.0006832429337607 -1.1548952825964485 -1.280013168507211
| 17> P -2.2677563110761554 0.4635471421096986 -0.7465436723183002
| 18> S -2.5204443621373493 1.8429567893404462 -2.0932724242190606
| 19> O -1.628450966486543 0.9237121831566512 0.6549377382034822
| 20> C -1.8500507962474058 2.2616018932321396 1.2212125042615867
| 21> C -3.242629052248692 2.4106732782193534 1.7820611580868428
| 22> O -3.6403056389070643 -0.2990510756133225 -0.3943481972554284
| 23> C -3.732475506623833 -1.202858505977784 0.7708495422711232
| 24> C -5.118903310922366 -1.7893158709090613 0.7638085368124108
| 25> H -0.8240106667738505 -0.9088781696336236 2.5380208033864236
| 26> H 0.36210398745152483 -1.5232144846389473 3.7177317396632477
| 27> H -0.30718314400072805 0.11010914383862315 3.896951735936897
| 28> H 2.015517966401845 0.19727173070743437 2.9658197598638556
| 29> H 0.825080133470063 0.8324353082027945 1.7958338689282747
| 30> H 5.084530638441768 -0.18638864929240792 -0.710039064588634
| 31> H 4.42735581150484 1.4727176164312108 -0.6296636845128191
| 32> H 5.523530087682019 1.7869939540124755 1.6081020012756218
| 33> H 6.195388273453428 0.1391827466292917 1.5043614930933291
| 34> H 6.713580882252624 1.388246486127651 0.35418849915590417
| 35> H 0.9777161070013698 -1.0144068250199199 -2.5854248320348803
| 36> H -0.03392468879812852 0.43665022468664305 -2.841090209193366
| 37> H -1.0904929201789448 2.3368718587227684 2.002756915655538
| 38> H -1.6369247330763392 3.00125866092681 0.44337148301722934
| 39> H -3.328001698720182 3.398613331738862 2.2466167029607242
| 40> H -4.002782178454427 2.3386194714554915 0.9978839050888766
| 41> H -3.441736208618461 1.6536730391899948 2.5458574812370998
| 42> H -2.9669695441930126 -1.9804891972912033 0.6773703122275567
| 43> H -3.542873856256876 -0.614141167902036 1.6720499103375674
| 44> H -5.874307889131663 -1.0022220163854456 0.8404430777136351
| 45> H -5.295626587907157 -2.3702158614799846 -0.14545502739213947
| 46> H -5.22398515701555 -2.4544588667396128 1.6263859391288487
| 47> *
| 48>
| 49>                          ****END OF INPUT****

CARTESIAN COORDINATES (ANGSTROEM)
---------------------------------
  C      0.025915   -0.637883    3.170568
  C      1.146881   -0.054366    2.351279
  O      1.566743   -1.088757    1.387223
  P      2.452134   -0.732176    0.100848
  S      2.922395   -2.332873   -0.896251
  O      3.631696    0.138896    0.763171
  C      4.769435    0.618140   -0.037947
  C      5.862011    1.003841    0.923860
  S      1.452726    0.776487   -1.016784
  C      0.374312   -0.247238   -2.091122
  S     -1.000683   -1.154895   -1.280013
  P     -2.267756    0.463547   -0.746544
  S     -2.520444    1.842957   -2.093272
  O     -1.628451    0.923712    0.654938
  C     -1.850051    2.261602    1.221213
  C     -3.242629    2.410673    1.782061
  O     -3.640306   -0.299051   -0.394348
  C     -3.732476   -1.202859    0.770850
  C     -5.118903   -1.789316    0.763809
  H     -0.824011   -0.908878    2.538021
  H      0.362104   -1.523214    3.717732
  H     -0.307183    0.110109    3.896952
  H      2.015518    0.197272    2.965820
  H      0.825080    0.832435    1.795834
  H      5.084531   -0.186389   -0.710039
  H      4.427356    1.472718   -0.629664
  H      5.523530    1.786994    1.608102
  H      6.195388    0.139183    1.504361
  H      6.713581    1.388246    0.354188
  H      0.977716   -1.014407   -2.585425
  H     -0.033925    0.436650   -2.841090
  H     -1.090493    2.336872    2.002757
  H     -1.636925    3.001259    0.443371
  H     -3.328002    3.398613    2.246617
  H     -4.002782    2.338619    0.997884
  H     -3.441736    1.653673    2.545857
  H     -2.966970   -1.980489    0.677370
  H     -3.542874   -0.614141    1.672050
  H     -5.874308   -1.002222    0.840443
  H     -5.295627   -2.370216   -0.145455
  H     -5.223985   -2.454459    1.626386

 Total Charge           Charge          ....    0
 Multiplicity           Mult            ....    1
 Number of Electrons    NEL             ....  202
 Basis Dimension        Dim             ....  757

ORBITAL ENERGIES
----------------

  NO   OCC          E(Eh)            E(eV)
   0   2.0000     -94.144671     -2561.8067
   1   2.0000     -94.143637     -2561.7786
   2   2.0000     -94.083054     -2560.1301
   3   2.0000     -94.079270     -2560.0271
   4   2.0000     -82.122413     -2234.6645
   5   2.0000     -82.119062     -2234.5733
   6   2.0000     -21.716743      -590.9426
   7   2.0000     -21.715280      -590.9028
   8   2.0000     -21.714677      -590.8864
   9   2.0000     -21.709390      -590.7425
  10   2.0000     -12.125511      -329.9519
  11   2.0000     -12.124871      -329.9345
  12   2.0000     -12.124733      -329.9307
  13   2.0000     -12.119594      -329.7909
  14   2.0000     -12.117142      -329.7242
  15   2.0000     -12.058433      -328.1266
  16   2.0000     -12.055292      -328.0412
  17   2.0000     -12.052955      -327.9776
  18   2.0000     -12.050838      -327.9200
  19   2.0000      -9.656163      -262.7575
  20   2.0000      -9.654997      -262.7258
  21   2.0000      -9.595820      -261.1155
  22   2.0000      -9.592038      -261.0126
  23   2.0000      -8.235678      -224.1042
  24   2.0000      -8.232233      -224.0104
  25   2.0000      -7.633797      -207.7262
  26   2.0000      -7.633157      -207.7088
  27   2.0000      -7.632528      -207.6916
  28   2.0000      -7.632086      -207.6796
  29   2.0000      -7.631067      -207.6519
  30   2.0000      -7.630130      -207.6264
  31   2.0000      -7.573499      -206.0854
  32   2.0000      -7.571634      -206.0346
  33   2.0000      -7.571606      -206.0339
  34   2.0000      -7.569626      -205.9800
  35   2.0000      -7.567962      -205.9347
  36   2.0000      -7.567766      -205.9294
  37   2.0000      -6.400110      -174.1558
  38   2.0000      -6.399529      -174.1400
  39   2.0000      -6.399233      -174.1320
  40   2.0000      -6.396602      -174.0604
  41   2.0000      -6.396259      -174.0511
  42   2.0000      -6.395665      -174.0349
  43   2.0000      -1.726348       -46.9763
  44   2.0000      -1.723392       -46.8959
  45   2.0000      -1.703697       -46.3600
  46   2.0000      -1.698320       -46.2136
  47   2.0000      -1.331547       -36.2332
  48   2.0000      -1.319179       -35.8967
  49   2.0000      -1.307895       -35.5896
  50   2.0000      -1.300361       -35.3846
  51   2.0000      -1.294768       -35.2324
  52   2.0000      -1.254349       -34.1326
  53   2.0000      -1.230077       -33.4721
  54   2.0000      -1.208375       -32.8815
  55   2.0000      -1.178111       -32.0580
  56   2.0000      -1.165008       -31.7015
  57   2.0000      -1.156392       -31.4670
  58   2.0000      -1.150768       -31.3140
  59   2.0000      -1.121546       -30.5188
  60   2.0000      -1.086857       -29.5749
  61   2.0000      -1.078191       -29.3391
  62   2.0000      -1.057083       -28.7647
  63   2.0000      -1.055096       -28.7106
  64   2.0000      -1.006216       -27.3805
  65   2.0000      -0.994927       -27.0734
  66   2.0000      -0.988967       -26.9112
  67   2.0000      -0.986829       -26.8530
  68   2.0000      -0.982170       -26.7262
  69   2.0000      -0.973983       -26.5034
  70   2.0000      -0.965274       -26.2664
  71   2.0000      -0.962017       -26.1778
  72   2.0000      -0.922591       -25.1050
  73   2.0000      -0.896568       -24.3968
  74   2.0000      -0.886365       -24.1192
  75   2.0000      -0.879406       -23.9298
  76   2.0000      -0.878912       -23.9164
  77   2.0000      -0.870991       -23.7009
  78   2.0000      -0.866723       -23.5847
  79   2.0000      -0.853941       -23.2369
  80   2.0000      -0.849736       -23.1225
  81   2.0000      -0.848150       -23.0793
  82   2.0000      -0.845769       -23.0145
  83   2.0000      -0.836433       -22.7605
  84   2.0000      -0.833361       -22.6769
  85   2.0000      -0.831172       -22.6173
  86   2.0000      -0.828352       -22.5406
  87   2.0000      -0.826889       -22.5008
  88   2.0000      -0.825084       -22.4517
  89   2.0000      -0.799936       -21.7674
  90   2.0000      -0.796259       -21.6673
  91   2.0000      -0.793445       -21.5907
  92   2.0000      -0.789752       -21.4902
  93   2.0000      -0.777226       -21.1494
  94   2.0000      -0.753480       -20.5032
  95   2.0000      -0.690524       -18.7901
  96   2.0000      -0.675994       -18.3947
  97   2.0000      -0.645089       -17.5538
  98   2.0000      -0.642455       -17.4821
  99   2.0000      -0.639750       -17.4085
 100   2.0000      -0.634789       -17.2735
 101   0.0000      -0.318666        -8.6713
 102   0.0000      -0.314698        -8.5634
 103   0.0000      -0.273040        -7.4298
 104   0.0000      -0.245397        -6.6776
 105   0.0000      -0.234266        -6.3747

MULLIKEN ATOMIC CHARGES
-----------------------
   0 C :   -0.308464
   1 C :   -0.042651
   2 O :   -0.279535
   3 P :    0.612526
   4 S :   -0.401350
   5 O :   -0.308511
   6 C :   -0.058777
   7 C :   -0.316529
   8 S :   -0.153010
   9 C :   -0.192519
  10 S :   -0.116625
  11 P :    0.590977
  12 S :   -0.396398
  13 O :   -0.308022
  14 C :   -0.042261
  15 C :   -0.345382
  16 O :   -0.295452
  17 C :   -0.069798
  18 C :   -0.305479
  19 H :    0.113388
  20 H :    0.126849
  21 H :    0.103595
  22 H :    0.119887
  23 H :    0.102372
  24 H :    0.126035
  25 H :    0.116077
  26 H :    0.114788
  27 H :    0.124523
  28 H :    0.114569
  29 H :    0.180579
  30 H :    0.175751
  31 H :    0.104504
  32 H :    0.139537
  33 H :    0.126075
  34 H :    0.146260
  35 H :    0.110228
  36 H :    0.127408
  37 H :    0.102920
  38 H :    0.121349
  39 H :    0.127414
  40 H :    0.113154
Sum of atomic charges:   -0.0000000

LOEWDIN ATOMIC CHARGES
----------------------
   0 C :   -0.307436
   1 C :   -0.317480
   2 O :    0.037825
   3 P :   -0.037079
   4 S :   -0.110641
   5 O :    0.026482
   6 C :   -0.319163
   7 C :   -0.303601
   8 S :    0.340193
   9 C :   -0.701425
  10 S :    0.355223
  11 P :   -0.033135
  12 S :   -0.108266
  13 O :    0.022962
  14 C :   -0.321725
  15 C :   -0.309665
  16 O :    0.024240
  17 C :   -0.318584
  18 C :   -0.299874
  19 H :    0.120411
  20 H :    0.123666
  21 H :    0.123211
  22 H :    0.121761
  23 H :    0.114124
  24 H :    0.123277
  25 H :    0.119049
  26 H :    0.120925
  27 H :    0.123971
  28 H :    0.126557
  29 H :    0.116489
  30 H :    0.116224
  31 H :    0.122332
  32 H :    0.124735
  33 H :    0.129104
  34 H :    0.126291
  35 H :    0.116921
  36 H :    0.119811
  37 H :    0.116749
  38 H :    0.123802
  39 H :    0.125633
  40 H :    0.126104

  Mayer bond orders larger than 0.100000
B(  0-C ,  1-C ) :   1.0041 B(  0-C , 19-H ) :   0.9786 B(  0-C , 20-H ) :   0.9722
B(  0-C , 21-H ) :   0.9708 B(  1-C ,  2-O ) :   0.8931 B(  1-C , 22-H ) :   0.9685
B(  1-C , 23-H ) :   0.9627 B(  2-O ,  3-P ) :   1.2402 B(  3-P ,  4-S ) :   1.8807
B(  3-P ,  5-O ) :   1.1575 B(  3-P ,  8-S ) :   1.0454 B(  5-O ,  6-C ) :   0.8868
B(  6-C ,  7-C ) :   1.0088 B(  6-C , 24-H ) :   0.9591 B(  6-C , 25-H ) :   0.9662
B(  7-C , 26-H ) :   0.9750 B(  7-C , 27-H ) :   0.9755 B(  7-C , 28-H ) :   0.9688
B(  8-S ,  9-C ) :   1.0130 B(  9-C , 10-S ) :   1.0253 B(  9-C , 29-H ) :   0.9325
B(  9-C , 30-H ) :   0.9329 B( 10-S , 11-P ) :   1.0985 B( 11-P , 12-S ) :   1.8761
B( 11-P , 13-O ) :   1.1256 B( 11-P , 16-O ) :   1.2033 B( 13-O , 14-C ) :   0.8655
B( 14-C , 15-C ) :   0.9992 B( 14-C , 31-H ) :   0.9653 B( 14-C , 32-H ) :   0.9674
B( 15-C , 33-H ) :   0.9681 B( 15-C , 34-H ) :   0.9663 B( 15-C , 35-H ) :   0.9742
B( 16-O , 17-C ) :   0.8845 B( 17-C , 18-C ) :   1.0115 B( 17-C , 36-H ) :   0.9638
B( 17-C , 37-H ) :   0.9672 B( 18-C , 38-H ) :   0.9753 B( 18-C , 39-H ) :   0.9758
B( 18-C , 40-H ) :   0.9680

FINAL SINGLE POINT ENERGY     -2932.533973872195

DIPOLE MOMENT
-------------

Method             : SCF
Type of density    : Electron Density
Multiplicity       :   1
Irrep              :   0
Energy             : -2932.5640693712948632 Eh
Relativity type    :
Basis              : AO
                                X                 Y                 Z
Electronic contribution:      5.481393244      -6.163905952     -22.731572472
Nuclear contribution   :     -5.555692963       7.151420985      24.741401299
                        -----------------------------------------
Total Dipole Moment    :     -0.074299719       0.987515033       2.009828826
                        -----------------------------------------
Magnitude (a.u.)       :      2.240562050
Magnitude (Debye)      :      5.695056138

Rotational constants in cm-1:             0.012250             0.004457             0.004366
Rotational constants in MHz :           367.260228           133.627058           130.882723

                             ****ORCA TERMINATED NORMALLY****
TOTAL RUN TIME: 0 days 0 hours 15 minutes 44 seconds 487 msec
