                         Program Version 6.0.0  -   RELEASE  -
|  1> ! wb97x-v def2-tzvp def2/J RIJCOSX DEFGRID2 scfconv7 GCP(DFT/TZ) printgap
|  2> %output
|  3>     printlevel normal
|  4> end
|  5> %cpcm
|  6>     smd true
|  7>     smdsolvent "water"
|  8> end
|  9> * xyz 0 1
| 10> C 0.025915477932261302 -0.6378829803511338 3.170567801040262
| 11> C 1.1468807371616752 -0.05436614710759721 2.351279457185976
| 12> O 1.566743352308378 -1.0887573707714213 1.3872234070618354
| 13> P 2.45213398214959 -0.7321762141638165 0.10084822046050661
| 14> S 2.9223945930200945 -2.332873353608817 -0.8962507550755171
| 15> O 3.631696200803488 0.1388958334335456 0.7631708458172313
| 16> C 4.76943468801611 0.6181401456349543 -0.03794729622884198
| 17> C 5.862011476484464 1.0038407713387798 0.9238603961027055
| 18> S 1.45272615815105 0.7764868721510015 -1.0167836770284253
| 19> C 0.37431174465571804 -0.24723836939936855 -2.0911222777023606
| 20> S -1.0006832429337607 -1.1548952825964485 -1.280013168507211
| 21> P -2.2677563110761554 0.4635471421096986 -0.7465436723183002
| 22> S -2.5204443621373493 1.8429567893404462 -2.0932724242190606
| 23> O -1.628450966486543 0.9237121831566512 0.6549377382034822
| 24> C -1.8500507962474058 2.2616018932321396 1.2212125042615867
| 25> C -3.242629052248692 2.4106732782193534 1.7820611580868428
| 26> O -3.6403056389070643 -0.2990510756133225 -0.3943481972554284
| 27> C -3.732475506623833 -1.202858505977784 0.7708495422711232
| 28> C -5.118903310922366 -1.7893158709090613 0.7638085368124108
| 29> H -0.8240106667738505 -0.9088781696336236 2.5380208033864236
| 30> H 0.36210398745152483 -1.5232144846389473 3.7177317396632477
| 31> H -0.30718314400072805 0.11010914383862315 3.896951735936897
| 32> H 2.015517966401845 0.19727173070743437 2.9658197598638556
| 33> H 0.825080133470063 0.8324353082027945 1.7958338689282747
| 34> H 5.084530638441768 -0.18638864929240792 -0.710039064588634
| 35> H 4.42735581150484 1.4727176164312108 -0.6296636845128191
| 36> H 5.523530087682019 1.7869939540124755 1.6081020012756218
| 37> H 6.195388273453428 0.1391827466292917 1.5043614930933291
| 38> H 6.713580882252624 1.388246486127651 0.35418849915590417
| 39> H 0.9777161070013698 -1.0144068250199199 -2.5854248320348803
| 40> H -0.03392468879812852 0.43665022468664305 -2.841090209193366
| 41> H -1.0904929201789448 2.3368718587227684 2.002756915655538
| 42> H -1.6369247330763392 3.00125866092681 0.44337148301722934
| 43> H -3.328001698720182 3.398613331738862 2.2466167029607242
| 44> H -4.002782178454427 2.3386194714554915 0.9978839050888766
| 45> H -3.441736208618461 1.6536730391899948 2.5458574812370998
| 46> H -2.9669695441930126 -1.9804891972912033 0.6773703122275567
| 47> H -3.542873856256876 -0.614141167902036 1.6720499103375674
| 48> H -5.874307889131663 -1.0022220163854456 0.8404430777136351
| 49> H -5.295626587907157 -2.3702158614799846 -0.14545502739213947
| 50> H -5.22398515701555 -2.4544588667396128 1.6263859391288487
| 51> *
| 52>
| 53>                          ****END OF INPUT****

CARTESIAN COORDINATES (ANGSTROEM)
---------------------------------
  C      0.025915   -0.637883    3.170568
  C      1.146881   -0.054366    2.351279
  O      1.566743   -1.088757    1.387223
  P      2.452134   -0.732176    0.100848
  S      2.922395   -2.332873   -0.896251
  O      3.631696    0.138896    0.763171
  C      4.769435    0.618140   -0.037947
  C      5.862011    1.003841    0.923860
  S      1.452726    0.776487   -1.016784
  C      0.374312   -0.247238   -2.091122
  S     -1.000683   -1.154895   -1.280013
  P     -2.267756    0.463547   -0.746544
  S     -2.520444    1.842957   -2.093272
  O     -1.628451    0.923712    0.654938
  C     -1.850051    2.261602    1.221213
  C     -3.242629    2.410673    1.782061
  O     -3.640306   -0.299051   -0.394348
  C     -3.732476   -1.202859    0.770850
  C     -5.118903   -1.789316    0.763809
  H     -0.824011   -0.908878    2.538021
  H      0.362104   -1.523214    3.717732
  H     -0.307183    0.110109    3.896952
  H      2.015518    0.197272    2.965820
  H      0.825080    0.832435    1.795834
  H      5.084531   -0.186389   -0.710039
  H      4.427356    1.472718   -0.629664
  H      5.523530    1.786994    1.608102
  H      6.195388    0.139183    1.504361
  H      6.713581    1.388246    0.354188
  H      0.977716   -1.014407   -2.585425
  H     -0.033925    0.436650   -2.841090
  H     -1.090493    2.336872    2.002757
  H     -1.636925    3.001259    0.443371
  H     -3.328002    3.398613    2.246617
  H     -4.002782    2.338619    0.997884
  H     -3.441736    1.653673    2.545857
  H     -2.966970   -1.980489    0.677370
  H     -3.542874   -0.614141    1.672050
  H     -5.874308   -1.002222    0.840443
  H     -5.295627   -2.370216   -0.145455
  H     -5.223985   -2.454459    1.626386

 Total Charge           Charge          ....    0
 Multiplicity           Mult            ....    1
 Number of Electrons    NEL             ....  202
 Basis Dimension        Dim             ....  757

ORBITAL ENERGIES
----------------

  NO   OCC          E(Eh)            E(eV)
   0   2.0000     -94.148366     -2561.9073
   1   2.0000     -94.148190     -2561.9025
   2   2.0000     -94.091916     -2560.3712
   3   2.0000     -94.091617     -2560.3631
   4   2.0000     -82.126557     -2234.7772
   5   2.0000     -82.126123     -2234.7654
   6   2.0000     -21.715447      -590.9074
   7   2.0000     -21.713884      -590.8648
   8   2.0000     -21.713707      -590.8600
   9   2.0000     -21.711084      -590.7886
  10   2.0000     -12.124768      -329.9317
  11   2.0000     -12.107979      -329.4749
  12   2.0000     -12.107942      -329.4738
  13   2.0000     -12.105717      -329.4133
  14   2.0000     -12.105543      -329.4086
  15   2.0000     -12.035881      -327.5130
  16   2.0000     -12.035868      -327.5126
  17   2.0000     -12.035168      -327.4936
  18   2.0000     -12.034572      -327.4774
  19   2.0000      -9.659792      -262.8563
  20   2.0000      -9.659590      -262.8508
  21   2.0000      -9.605056      -261.3669
  22   2.0000      -9.604751      -261.3586
  23   2.0000      -8.239787      -224.2160
  24   2.0000      -8.239351      -224.2041
  25   2.0000      -7.637506      -207.8271
  26   2.0000      -7.637343      -207.8227
  27   2.0000      -7.636729      -207.8060
  28   2.0000      -7.636079      -207.7883
  29   2.0000      -7.635303      -207.7672
  30   2.0000      -7.634486      -207.7449
  31   2.0000      -7.582660      -206.3347
  32   2.0000      -7.582446      -206.3288
  33   2.0000      -7.581082      -206.2917
  34   2.0000      -7.580909      -206.2870
  35   2.0000      -7.580661      -206.2803
  36   2.0000      -7.580594      -206.2785
  37   2.0000      -6.404130      -174.2652
  38   2.0000      -6.403817      -174.2567
  39   2.0000      -6.403753      -174.2550
  40   2.0000      -6.403297      -174.2426
  41   2.0000      -6.403226      -174.2406
  42   2.0000      -6.402978      -174.2339
  43   2.0000      -1.726119       -46.9701
  44   2.0000      -1.722337       -46.8672
  45   2.0000      -1.701390       -46.2972
  46   2.0000      -1.699927       -46.2574
  47   2.0000      -1.331843       -36.2413
  48   2.0000      -1.312718       -35.7209
  49   2.0000      -1.300884       -35.3989
  50   2.0000      -1.284393       -34.9501
  51   2.0000      -1.283657       -34.9301
  52   2.0000      -1.252867       -34.0922
  53   2.0000      -1.231739       -33.5173
  54   2.0000      -1.214077       -33.0367
  55   2.0000      -1.169067       -31.8119
  56   2.0000      -1.161725       -31.6122
  57   2.0000      -1.146617       -31.2010
  58   2.0000      -1.144232       -31.1361
  59   2.0000      -1.120461       -30.4893
  60   2.0000      -1.080755       -29.4088
  61   2.0000      -1.072095       -29.1732
  62   2.0000      -1.054729       -28.7006
  63   2.0000      -1.044363       -28.4185
  64   2.0000      -0.999814       -27.2063
  65   2.0000      -0.994098       -27.0508
  66   2.0000      -0.985372       -26.8133
  67   2.0000      -0.980473       -26.6800
  68   2.0000      -0.974975       -26.5304
  69   2.0000      -0.972492       -26.4629
  70   2.0000      -0.961215       -26.1560
  71   2.0000      -0.957769       -26.0622
  72   2.0000      -0.923066       -25.1179
  73   2.0000      -0.892190       -24.2777
  74   2.0000      -0.874124       -23.7861
  75   2.0000      -0.867944       -23.6180
  76   2.0000      -0.867738       -23.6123
  77   2.0000      -0.861633       -23.4462
  78   2.0000      -0.859716       -23.3941
  79   2.0000      -0.842489       -22.9253
  80   2.0000      -0.840698       -22.8766
  81   2.0000      -0.835538       -22.7361
  82   2.0000      -0.834983       -22.7210
  83   2.0000      -0.831491       -22.6260
  84   2.0000      -0.828303       -22.5393
  85   2.0000      -0.811600       -22.0848
  86   2.0000      -0.811037       -22.0695
  87   2.0000      -0.810484       -22.0544
  88   2.0000      -0.810317       -22.0498
  89   2.0000      -0.787854       -21.4386
  90   2.0000      -0.779165       -21.2022
  91   2.0000      -0.777773       -21.1643
  92   2.0000      -0.776300       -21.1242
  93   2.0000      -0.775015       -21.0892
  94   2.0000      -0.758047       -20.6275
  95   2.0000      -0.694851       -18.9079
  96   2.0000      -0.681126       -18.5344
  97   2.0000      -0.656649       -17.8683
  98   2.0000      -0.655367       -17.8334
  99   2.0000      -0.649669       -17.6784
 100   2.0000      -0.648458       -17.6454
 101   0.0000      -0.323321        -8.7980
 102   0.0000      -0.318827        -8.6757
 103   0.0000      -0.275228        -7.4893
 104   0.0000      -0.247493        -6.7346
 105   0.0000      -0.236931        -6.4472

MULLIKEN ATOMIC CHARGES
-----------------------
   0 C :   -0.358429
   1 C :   -0.055346
   2 O :   -0.327413
   3 P :    0.628919
   4 S :   -0.458142
   5 O :   -0.325735
   6 C :   -0.047846
   7 C :   -0.365698
   8 S :   -0.149792
   9 C :   -0.195622
  10 S :   -0.144562
  11 P :    0.612648
  12 S :   -0.455068
  13 O :   -0.314066
  14 C :   -0.043801
  15 C :   -0.375251
  16 O :   -0.342678
  17 C :   -0.058472
  18 C :   -0.359572
  19 H :    0.121400
  20 H :    0.138475
  21 H :    0.138009
  22 H :    0.142710
  23 H :    0.134922
  24 H :    0.129631
  25 H :    0.138136
  26 H :    0.134175
  27 H :    0.133231
  28 H :    0.137849
  29 H :    0.200177
  30 H :    0.196542
  31 H :    0.143950
  32 H :    0.137363
  33 H :    0.147866
  34 H :    0.133595
  35 H :    0.137998
  36 H :    0.139798
  37 H :    0.143360
  38 H :    0.134810
  39 H :    0.133911
  40 H :    0.138018
Sum of atomic charges:   -0.0000000

LOEWDIN ATOMIC CHARGES
----------------------
   0 C :   -0.309833
   1 C :   -0.311571
   2 O :    0.015901
   3 P :   -0.035599
   4 S :   -0.153013
   5 O :    0.020842
   6 C :   -0.313673
   7 C :   -0.305393
   8 S :    0.346731
   9 C :   -0.697065
  10 S :    0.341822
  11 P :   -0.028601
  12 S :   -0.149686
  13 O :    0.023494
  14 C :   -0.313672
  15 C :   -0.309666
  16 O :    0.005484
  17 C :   -0.308537
  18 C :   -0.304045
  19 H :    0.120729
  20 H :    0.124951
  21 H :    0.134464
  22 H :    0.129111
  23 H :    0.120866
  24 H :    0.124502
  25 H :    0.126163
  26 H :    0.125073
  27 H :    0.124843
  28 H :    0.133682
  29 H :    0.121975
  30 H :    0.122158
  31 H :    0.134794
  32 H :    0.123695
  33 H :    0.134613
  34 H :    0.121881
  35 H :    0.125214
  36 H :    0.124297
  37 H :    0.128598
  38 H :    0.125487
  39 H :    0.125054
  40 H :    0.133927

  Mayer bond orders larger than 0.100000
B(  0-C ,  1-C ) :   1.0057 B(  0-C , 19-H ) :   0.9759 B(  0-C , 20-H ) :   0.9697
B(  0-C , 21-H ) :   0.9658 B(  1-C ,  2-O ) :   0.8517 B(  1-C , 22-H ) :   0.9639
B(  1-C , 23-H ) :   0.9616 B(  2-O ,  3-P ) :   1.2411 B(  3-P ,  4-S ) :   1.8444
B(  3-P ,  5-O ) :   1.1758 B(  3-P ,  8-S ) :   1.0634 B(  5-O ,  6-C ) :   0.8592
B(  6-C ,  7-C ) :   1.0149 B(  6-C , 24-H ) :   0.9570 B(  6-C , 25-H ) :   0.9612
B(  7-C , 26-H ) :   0.9717 B(  7-C , 27-H ) :   0.9727 B(  7-C , 28-H ) :   0.9644
B(  8-S ,  9-C ) :   1.0047 B(  9-C , 10-S ) :   1.0082 B(  9-C , 29-H ) :   0.9281
B(  9-C , 30-H ) :   0.9294 B( 10-S , 11-P ) :   1.1007 B( 11-P , 12-S ) :   1.8402
B( 11-P , 13-O ) :   1.1558 B( 11-P , 16-O ) :   1.2119 B( 13-O , 14-C ) :   0.8404
B( 14-C , 15-C ) :   1.0024 B( 14-C , 31-H ) :   0.9586 B( 14-C , 32-H ) :   0.9685
B( 15-C , 33-H ) :   0.9642 B( 15-C , 34-H ) :   0.9667 B( 15-C , 35-H ) :   0.9698
B( 16-O , 17-C ) :   0.8433 B( 17-C , 18-C ) :   1.0098 B( 17-C , 36-H ) :   0.9596
B( 17-C , 37-H ) :   0.9640 B( 18-C , 38-H ) :   0.9732 B( 18-C , 39-H ) :   0.9735
B( 18-C , 40-H ) :   0.9647

FINAL SINGLE POINT ENERGY     -2932.550344460791

DIPOLE MOMENT
-------------

Method             : SCF
Type of density    : Electron Density
Multiplicity       :   1
Irrep              :   0
Energy             : -2932.5804399598910095 Eh
Relativity type    :
Basis              : AO
                                X                 Y                 Z
Electronic contribution:      5.612690232      -5.634572059     -21.982566575
Nuclear contribution   :     -5.555692963       7.151420985      24.741401299
                        -----------------------------------------
Total Dipole Moment    :      0.056997268       1.516848926       2.758834723
                        -----------------------------------------
Magnitude (a.u.)       :      3.148848739
Magnitude (Debye)      :      8.003737428

Rotational constants in cm-1:             0.012250             0.004457             0.004366
Rotational constants in MHz :           367.260228           133.627058           130.882723

                             ****ORCA TERMINATED NORMALLY****
TOTAL RUN TIME: 0 days 0 hours 15 minutes 4 seconds 893 msec
