                         Program Version 6.0.0  -   RELEASE  -
|  1> ! pbe def2-sv(p) def2/J RI DEFGRID1 loosescf d4 GCP(DFT/SV(P)) printgap
|  2> %output
|  3>     printlevel normal
|  4> end
|  5> * xyz 0 1
|  6> C 3.422557011 2.3461999672 -1.4167634403
|  7> C 3.707228447 1.4414228822 -0.2348085583
|  8> O 3.0435849599 0.1733289177 -0.441294858
|  9> P 2.1230587243 -0.5291630475 0.6327505953
| 10> S 1.4325355313 0.6080588242 2.0781103508
| 11> O 3.0878009001 -1.6776416068 1.1713112278
| 12> C 2.8015996344 -2.4171183913 2.3681460143
| 13> C 1.5993234244 -3.3224230563 2.1904241772
| 14> S 0.8223918656 -1.5891627638 -0.6667391518
| 15> C 0.5068895799 -0.3006457907 -1.9074439395
| 16> S -0.1483517588 1.2390503541 -1.2082195081
| 17> P -1.9672548784 0.4334485361 -0.5142412666
| 18> S -2.8189856962 -0.9427198839 -1.6260653507
| 19> O -2.8675429492 1.7039264757 -0.203523576
| 20> C -3.7504427566 2.2808098586 -1.1823623765
| 21> C -2.9921243405 2.9419969732 -2.3152173315
| 22> O -1.5153135303 -0.0128451855 0.934951145
| 23> C -2.2308389992 -0.9898123734 1.7142669131
| 24> C -3.6187660882 -0.5134700223 2.0854911897
| 25> H 2.3542632942 2.5402370744 -1.4930497404
| 26> H 3.9459366312 3.2861276116 -1.275654495
| 27> H 3.7651592133 1.8802561239 -2.3362361343
| 28> H 3.3445879221 1.8828199585 0.699779559
| 29> H 4.7726567714 1.2219984832 -0.1438850958
| 30> H 3.7134046063 -2.9855481439 2.5549132344
| 31> H 2.6317003317 -1.7043276624 3.182312674
| 32> H 1.4473045705 -3.9086925496 3.0908309698
| 33> H 0.7101741387 -2.7184392919 2.0047587548
| 34> H 1.7473943048 -3.9873793269 1.3433273282
| 35> H -0.225656177 -0.7292969015 -2.5922262561
| 36> H 1.4317704017 -0.0498249046 -2.4198190554
| 37> H -4.4028648431 1.4900074624 -1.5666354724
| 38> H -4.3362230966 3.0030635253 -0.6123034549
| 39> H -2.2644347371 3.6471667289 -1.9211443058
| 40> H -2.468341635 2.1889912938 -2.9027718265
| 41> H -3.6921511715 3.4661253057 -2.957932811
| 42> H -2.277025282 -1.9209380537 1.1392137001
| 43> H -1.6008242877 -1.1260191672 2.5954913635
| 44> H -3.5618514901 0.4536000404 2.5787434363
| 45> H -4.229180591 -0.4178281586 1.1879066479
| 46> H -4.0803261769 -1.2352534767 2.7520061763
| 47> *
| 48>
| 49>                          ****END OF INPUT****

CARTESIAN COORDINATES (ANGSTROEM)
---------------------------------
  C      3.422557    2.346200   -1.416763
  C      3.707228    1.441423   -0.234809
  O      3.043585    0.173329   -0.441295
  P      2.123059   -0.529163    0.632751
  S      1.432536    0.608059    2.078110
  O      3.087801   -1.677642    1.171311
  C      2.801600   -2.417118    2.368146
  C      1.599323   -3.322423    2.190424
  S      0.822392   -1.589163   -0.666739
  C      0.506890   -0.300646   -1.907444
  S     -0.148352    1.239050   -1.208220
  P     -1.967255    0.433449   -0.514241
  S     -2.818986   -0.942720   -1.626065
  O     -2.867543    1.703926   -0.203524
  C     -3.750443    2.280810   -1.182362
  C     -2.992124    2.941997   -2.315217
  O     -1.515314   -0.012845    0.934951
  C     -2.230839   -0.989812    1.714267
  C     -3.618766   -0.513470    2.085491
  H      2.354263    2.540237   -1.493050
  H      3.945937    3.286128   -1.275654
  H      3.765159    1.880256   -2.336236
  H      3.344588    1.882820    0.699780
  H      4.772657    1.221998   -0.143885
  H      3.713405   -2.985548    2.554913
  H      2.631700   -1.704328    3.182313
  H      1.447305   -3.908693    3.090831
  H      0.710174   -2.718439    2.004759
  H      1.747394   -3.987379    1.343327
  H     -0.225656   -0.729297   -2.592226
  H      1.431770   -0.049825   -2.419819
  H     -4.402865    1.490007   -1.566635
  H     -4.336223    3.003064   -0.612303
  H     -2.264435    3.647167   -1.921144
  H     -2.468342    2.188991   -2.902772
  H     -3.692151    3.466125   -2.957933
  H     -2.277025   -1.920938    1.139214
  H     -1.600824   -1.126019    2.595491
  H     -3.561851    0.453600    2.578743
  H     -4.229181   -0.417828    1.187907
  H     -4.080326   -1.235253    2.752006

 Total Charge           Charge          ....    0
 Multiplicity           Mult            ....    1
 Number of Electrons    NEL             ....  202
 Basis Dimension        Dim             ....  334

ORBITAL ENERGIES
----------------

  NO   OCC          E(Eh)            E(eV)
   0   2.0000     -88.043258     -2395.7788
   1   2.0000     -88.038232     -2395.6421
   2   2.0000     -87.988359     -2394.2850
   3   2.0000     -87.980468     -2394.0703
   4   2.0000     -76.425409     -2079.6411
   5   2.0000     -76.422819     -2079.5706
   6   2.0000     -18.793680      -511.4020
   7   2.0000     -18.792638      -511.3737
   8   2.0000     -18.785382      -511.1762
   9   2.0000     -18.782893      -511.1085
  10   2.0000      -9.956195      -270.9218
  11   2.0000      -9.952932      -270.8330
  12   2.0000      -9.951993      -270.8075
  13   2.0000      -9.948932      -270.7242
  14   2.0000      -9.944831      -270.6126
  15   2.0000      -9.888231      -269.0724
  16   2.0000      -9.885478      -268.9975
  17   2.0000      -9.884893      -268.9816
  18   2.0000      -9.879117      -268.8244
  19   2.0000      -7.688079      -209.2033
  20   2.0000      -7.683261      -209.0722
  21   2.0000      -7.633301      -207.7127
  22   2.0000      -7.625462      -207.4994
  23   2.0000      -6.422912      -174.7763
  24   2.0000      -6.420299      -174.7052
  25   2.0000      -5.715895      -155.5374
  26   2.0000      -5.712761      -155.4521
  27   2.0000      -5.711438      -155.4161
  28   2.0000      -5.707746      -155.3157
  29   2.0000      -5.704914      -155.2386
  30   2.0000      -5.699958      -155.1037
  31   2.0000      -5.662021      -154.0714
  32   2.0000      -5.654263      -153.8603
  33   2.0000      -5.654074      -153.8552
  34   2.0000      -5.653534      -153.8405
  35   2.0000      -5.646344      -153.6448
  36   2.0000      -5.645490      -153.6216
  37   2.0000      -4.645279      -126.4045
  38   2.0000      -4.644605      -126.3861
  39   2.0000      -4.643641      -126.3599
  40   2.0000      -4.643011      -126.3428
  41   2.0000      -4.642081      -126.3174
  42   2.0000      -4.640587      -126.2768
  43   2.0000      -0.984616       -26.7928
  44   2.0000      -0.984052       -26.7774
  45   2.0000      -0.943910       -25.6851
  46   2.0000      -0.942866       -25.6567
  47   2.0000      -0.763699       -20.7813
  48   2.0000      -0.720504       -19.6059
  49   2.0000      -0.707288       -19.2463
  50   2.0000      -0.686265       -18.6742
  51   2.0000      -0.684997       -18.6397
  52   2.0000      -0.671707       -18.2781
  53   2.0000      -0.649849       -17.6833
  54   2.0000      -0.637784       -17.3550
  55   2.0000      -0.601714       -16.3735
  56   2.0000      -0.592628       -16.1262
  57   2.0000      -0.571690       -15.5565
  58   2.0000      -0.570202       -15.5160
  59   2.0000      -0.559543       -15.2259
  60   2.0000      -0.500799       -13.6274
  61   2.0000      -0.490556       -13.3487
  62   2.0000      -0.471528       -12.8309
  63   2.0000      -0.470601       -12.8057
  64   2.0000      -0.456325       -12.4172
  65   2.0000      -0.439834       -11.9685
  66   2.0000      -0.438517       -11.9327
  67   2.0000      -0.434591       -11.8258
  68   2.0000      -0.427645       -11.6368
  69   2.0000      -0.415630       -11.3099
  70   2.0000      -0.410273       -11.1641
  71   2.0000      -0.391557       -10.6548
  72   2.0000      -0.390657       -10.6303
  73   2.0000      -0.389278       -10.5928
  74   2.0000      -0.382390       -10.4054
  75   2.0000      -0.376546       -10.2463
  76   2.0000      -0.371153       -10.0996
  77   2.0000      -0.357912        -9.7393
  78   2.0000      -0.355074        -9.6620
  79   2.0000      -0.353359        -9.6154
  80   2.0000      -0.346295        -9.4232
  81   2.0000      -0.343697        -9.3525
  82   2.0000      -0.341918        -9.3041
  83   2.0000      -0.338441        -9.2094
  84   2.0000      -0.331597        -9.0232
  85   2.0000      -0.320734        -8.7276
  86   2.0000      -0.305916        -8.3244
  87   2.0000      -0.296002        -8.0546
  88   2.0000      -0.294306        -8.0085
  89   2.0000      -0.283847        -7.7239
  90   2.0000      -0.280179        -7.6241
  91   2.0000      -0.273201        -7.4342
  92   2.0000      -0.269096        -7.3225
  93   2.0000      -0.263261        -7.1637
  94   2.0000      -0.258197        -7.0259
  95   2.0000      -0.234928        -6.3927
  96   2.0000      -0.217172        -5.9095
  97   2.0000      -0.209676        -5.7056
  98   2.0000      -0.205227        -5.5845
  99   2.0000      -0.196042        -5.3346
 100   2.0000      -0.189664        -5.1610
 101   0.0000      -0.047506        -1.2927
 102   0.0000      -0.024619        -0.6699
 103   0.0000      -0.015818        -0.4304
 104   0.0000       0.004327         0.1177
 105   0.0000       0.018974         0.5163

MULLIKEN ATOMIC CHARGES
-----------------------
   0 C :   -0.308283
   1 C :   -0.003617
   2 O :   -0.377031
   3 P :    0.609796
   4 S :   -0.316316
   5 O :   -0.367437
   6 C :    0.001424
   7 C :   -0.341728
   8 S :   -0.093455
   9 C :   -0.348480
  10 S :   -0.089677
  11 P :    0.625843
  12 S :   -0.341770
  13 O :   -0.368655
  14 C :   -0.004409
  15 C :   -0.315174
  16 O :   -0.344247
  17 C :   -0.013837
  18 C :   -0.302236
  19 H :    0.131000
  20 H :    0.113824
  21 H :    0.116456
  22 H :    0.113088
  23 H :    0.106285
  24 H :    0.104868
  25 H :    0.107919
  26 H :    0.114700
  27 H :    0.140092
  28 H :    0.124000
  29 H :    0.190867
  30 H :    0.188737
  31 H :    0.111144
  32 H :    0.106871
  33 H :    0.118932
  34 H :    0.124862
  35 H :    0.113514
  36 H :    0.110837
  37 H :    0.113235
  38 H :    0.118804
  39 H :    0.119807
  40 H :    0.109448
Sum of atomic charges:    0.0000000

LOEWDIN ATOMIC CHARGES
----------------------
   0 C :   -0.358353
   1 C :   -0.115669
   2 O :   -0.243402
   3 P :    0.566911
   4 S :   -0.308823
   5 O :   -0.247595
   6 C :   -0.121709
   7 C :   -0.371600
   8 S :    0.085590
   9 C :   -0.476983
  10 S :    0.100064
  11 P :    0.576339
  12 S :   -0.328135
  13 O :   -0.240679
  14 C :   -0.118838
  15 C :   -0.369503
  16 O :   -0.227160
  17 C :   -0.117900
  18 C :   -0.365696
  19 H :    0.120022
  20 H :    0.132406
  21 H :    0.124468
  22 H :    0.108758
  23 H :    0.116966
  24 H :    0.118699
  25 H :    0.107794
  26 H :    0.131829
  27 H :    0.120347
  28 H :    0.126844
  29 H :    0.130440
  30 H :    0.133060
  31 H :    0.110487
  32 H :    0.119543
  33 H :    0.124845
  34 H :    0.120376
  35 H :    0.131290
  36 H :    0.109736
  37 H :    0.117975
  38 H :    0.127454
  39 H :    0.120440
  40 H :    0.129361

  Mayer bond orders larger than 0.100000
B(  0-C ,  1-C ) :   1.1647 B(  0-C , 19-H ) :   0.9382 B(  0-C , 20-H ) :   0.9397
B(  0-C , 21-H ) :   0.9478 B(  1-C ,  2-O ) :   0.8960 B(  1-C , 22-H ) :   0.9000
B(  1-C , 23-H ) :   0.9334 B(  2-O ,  3-P ) :   1.1160 B(  3-P ,  4-S ) :   1.6312
B(  3-P ,  5-O ) :   1.1052 B(  3-P ,  8-S ) :   0.9510 B(  4-S ,  8-S ) :   0.1070
B(  5-O ,  6-C ) :   0.9172 B(  6-C ,  7-C ) :   1.1602 B(  6-C , 24-H ) :   0.9327
B(  6-C , 25-H ) :   0.9117 B(  7-C , 26-H ) :   0.9386 B(  7-C , 27-H ) :   0.9291
B(  7-C , 28-H ) :   0.9430 B(  8-S ,  9-C ) :   1.0023 B(  9-C , 10-S ) :   1.0116
B(  9-C , 29-H ) :   0.8822 B(  9-C , 30-H ) :   0.8998 B( 10-S , 11-P ) :   0.9490
B( 10-S , 12-S ) :   0.1069 B( 11-P , 12-S ) :   1.5819 B( 11-P , 13-O ) :   1.1128
B( 11-P , 16-O ) :   1.1483 B( 13-O , 14-C ) :   0.9074 B( 14-C , 15-C ) :   1.1666
B( 14-C , 31-H ) :   0.9156 B( 14-C , 32-H ) :   0.9337 B( 15-C , 33-H ) :   0.9447
B( 15-C , 34-H ) :   0.9353 B( 15-C , 35-H ) :   0.9378 B( 16-O , 17-C ) :   0.9078
B( 17-C , 18-C ) :   1.1620 B( 17-C , 36-H ) :   0.9198 B( 17-C , 37-H ) :   0.9250
B( 18-C , 38-H ) :   0.9447 B( 18-C , 39-H ) :   0.9353 B( 18-C , 40-H ) :   0.9392

Dispersion correction           -0.067518485
FINAL SINGLE POINT ENERGY     -2929.520853334554

DIPOLE MOMENT
-------------

Method             : SCF
Type of density    : Electron Density
Multiplicity       :   1
Irrep              :   0
Energy             : -2929.6378243918761655 Eh
Relativity type    :
Basis              : AO
                                X                 Y                 Z
Electronic contribution:      3.433755999      -3.778711985      -2.693000795
Nuclear contribution   :     -3.164762425       4.120526084       2.684797037
                        -----------------------------------------
Total Dipole Moment    :      0.268993574       0.341814100      -0.008203758
                        -----------------------------------------
Magnitude (a.u.)       :      0.435042209
Magnitude (Debye)      :      1.105789417

Rotational constants in cm-1:             0.011373             0.005893             0.004863
Rotational constants in MHz :           340.955839           176.653108           145.779754

                             ****ORCA TERMINATED NORMALLY****
TOTAL RUN TIME: 0 days 0 hours 0 minutes 21 seconds 660 msec
