                         Program Version 6.0.1  -  RELEASE   -
|  1> ! pbe def2-sv(p) def2/J RI DEFGRID1 loosescf d4 GCP(DFT/SV(P)) printgap
|  2> %output
|  3>     printlevel normal
|  4> end
|  5> * xyz 0 1
|  6> C 3.5090946837 -3.0401103758 0.3141222921
|  7> C 3.0020018453 -1.6921610748 0.8006375641
|  8> O 2.7033930124 -0.819979206 -0.3062933345
|  9> C 1.5558292315 -0.9609710303 -0.9331532618
| 10> O 0.6947785774 -1.7657020797 -0.6390265098
| 11> C 1.4117114091 0.0249624847 -2.0749307265
| 12> C 0.2209788011 0.954969092 -1.8272599496
| 13> H 0.0823185145 1.6060616369 -2.6954534205
| 14> C 0.403673297 1.8252366548 -0.597539148
| 15> O -0.4863945611 1.9945340676 0.2145880971
| 16> O 1.5917332767 2.3573184024 -0.5436630833
| 17> C 1.9544863298 3.1447442522 0.6118804427
| 18> C 2.614528461 2.2609576455 1.6567705624
| 19> S -1.3614171603 0.0625602256 -1.6642088391
| 20> P -1.646487882 -0.2392682546 0.4331724861
| 21> S -0.3136239321 -0.3810190748 1.8649242381
| 22> O -2.798213359 0.7574265054 0.873199577
| 23> C -4.016661432 0.9401139185 0.1330981808
| 24> O -2.5367383694 -1.5792243588 0.3332234963
| 25> C -1.9946182234 -2.8828070325 0.1308482981
| 26> H 3.7882274349 -3.6443665217 1.1707186354
| 27> H 2.7291973405 -3.5561795527 -0.2410526412
| 28> H 4.3747220538 -2.90447979 -0.3285505133
| 29> H 3.7667263095 -1.1586299428 1.3646965294
| 30> H 2.1006825122 -1.8025975558 1.4109188354
| 31> H 1.2263610427 -0.5369032108 -2.9910249273
| 32> H 2.3242461499 0.6131073044 -2.1618531751
| 33> H 2.6468378323 3.8915352768 0.2231264706
| 34> H 1.0552317767 3.6200495946 1.0116789674
| 35> H 1.9114886652 1.5092173236 2.0142114996
| 36> H 3.4771221273 1.7582550991 1.2285868849
| 37> H 2.9306989303 2.8709320692 2.4960833741
| 38> H -4.5813973661 0.0093401505 0.1117009217
| 39> H -3.7934772618 1.2661293955 -0.8830203379
| 40> H -4.5593381682 1.7114485302 0.6734918627
| 41> H -1.6432627533 -2.9871370089 -0.8948975749
| 42> H -2.809241353 -3.5725700988 0.3369765764
| 43> H -1.1619411684 -3.0528884181 0.8141846517
| 44> *
| 45>
| 46>                          ****END OF INPUT****

CARTESIAN COORDINATES (ANGSTROEM)
---------------------------------
  C      3.509095   -3.040110    0.314122
  C      3.002002   -1.692161    0.800638
  O      2.703393   -0.819979   -0.306293
  C      1.555829   -0.960971   -0.933153
  O      0.694779   -1.765702   -0.639027
  C      1.411711    0.024962   -2.074931
  C      0.220979    0.954969   -1.827260
  H      0.082319    1.606062   -2.695453
  C      0.403673    1.825237   -0.597539
  O     -0.486395    1.994534    0.214588
  O      1.591733    2.357318   -0.543663
  C      1.954486    3.144744    0.611880
  C      2.614528    2.260958    1.656771
  S     -1.361417    0.062560   -1.664209
  P     -1.646488   -0.239268    0.433172
  S     -0.313624   -0.381019    1.864924
  O     -2.798213    0.757427    0.873200
  C     -4.016661    0.940114    0.133098
  O     -2.536738   -1.579224    0.333223
  C     -1.994618   -2.882807    0.130848
  H      3.788227   -3.644367    1.170719
  H      2.729197   -3.556180   -0.241053
  H      4.374722   -2.904480   -0.328551
  H      3.766726   -1.158630    1.364697
  H      2.100683   -1.802598    1.410919
  H      1.226361   -0.536903   -2.991025
  H      2.324246    0.613107   -2.161853
  H      2.646838    3.891535    0.223126
  H      1.055232    3.620050    1.011679
  H      1.911489    1.509217    2.014211
  H      3.477122    1.758255    1.228587
  H      2.930699    2.870932    2.496083
  H     -4.581397    0.009340    0.111701
  H     -3.793477    1.266129   -0.883020
  H     -4.559338    1.711449    0.673492
  H     -1.643263   -2.987137   -0.894898
  H     -2.809241   -3.572570    0.336977
  H     -1.161941   -3.052888    0.814185

 Total Charge           Charge          ....    0
 Multiplicity           Mult            ....    1
 Number of Electrons    NEL             ....  174
 Basis Dimension        Dim             ....  316

ORBITAL ENERGIES
----------------

  NO   OCC          E(Eh)            E(eV)
   0   2.0000     -88.030047     -2395.4194
   1   2.0000     -87.963747     -2393.6152
   2   2.0000     -76.413895     -2079.3278
   3   2.0000     -18.818816      -512.0860
   4   2.0000     -18.804495      -511.6963
   5   2.0000     -18.770425      -510.7692
   6   2.0000     -18.768757      -510.7238
   7   2.0000     -18.753830      -510.3177
   8   2.0000     -18.737959      -509.8858
   9   2.0000     -10.023942      -272.7653
  10   2.0000     -10.010290      -272.3938
  11   2.0000      -9.955190      -270.8945
  12   2.0000      -9.953856      -270.8582
  13   2.0000      -9.942056      -270.5371
  14   2.0000      -9.931522      -270.2505
  15   2.0000      -9.921635      -269.9814
  16   2.0000      -9.914203      -269.7792
  17   2.0000      -9.884449      -268.9695
  18   2.0000      -9.883374      -268.9403
  19   2.0000      -7.674880      -208.8441
  20   2.0000      -7.608929      -207.0495
  21   2.0000      -6.408951      -174.3964
  22   2.0000      -5.703144      -155.1904
  23   2.0000      -5.699471      -155.0905
  24   2.0000      -5.691356      -154.8697
  25   2.0000      -5.638315      -153.4264
  26   2.0000      -5.629325      -153.1817
  27   2.0000      -5.628693      -153.1645
  28   2.0000      -4.631824      -126.0383
  29   2.0000      -4.631163      -126.0203
  30   2.0000      -4.629289      -125.9693
  31   2.0000      -1.028406       -27.9844
  32   2.0000      -1.010554       -27.4986
  33   2.0000      -0.964512       -26.2457
  34   2.0000      -0.932760       -25.3817
  35   2.0000      -0.918547       -24.9949
  36   2.0000      -0.915542       -24.9132
  37   2.0000      -0.766112       -20.8470
  38   2.0000      -0.709745       -19.3132
  39   2.0000      -0.706433       -19.2230
  40   2.0000      -0.682223       -18.5642
  41   2.0000      -0.653867       -17.7926
  42   2.0000      -0.622643       -16.9430
  43   2.0000      -0.615402       -16.7459
  44   2.0000      -0.602775       -16.4023
  45   2.0000      -0.595467       -16.2035
  46   2.0000      -0.568319       -15.4647
  47   2.0000      -0.508901       -13.8479
  48   2.0000      -0.499982       -13.6052
  49   2.0000      -0.497618       -13.5409
  50   2.0000      -0.481301       -13.0969
  51   2.0000      -0.458194       -12.4681
  52   2.0000      -0.457337       -12.4448
  53   2.0000      -0.450585       -12.2610
  54   2.0000      -0.436064       -11.8659
  55   2.0000      -0.427449       -11.6315
  56   2.0000      -0.417864       -11.3707
  57   2.0000      -0.414612       -11.2822
  58   2.0000      -0.410381       -11.1670
  59   2.0000      -0.399594       -10.8735
  60   2.0000      -0.394265       -10.7285
  61   2.0000      -0.391290       -10.6475
  62   2.0000      -0.386563       -10.5189
  63   2.0000      -0.379173       -10.3178
  64   2.0000      -0.378330       -10.2949
  65   2.0000      -0.370106       -10.0711
  66   2.0000      -0.357585        -9.7304
  67   2.0000      -0.353864        -9.6291
  68   2.0000      -0.348319        -9.4782
  69   2.0000      -0.338250        -9.2043
  70   2.0000      -0.332901        -9.0587
  71   2.0000      -0.327367        -8.9081
  72   2.0000      -0.319777        -8.7016
  73   2.0000      -0.306344        -8.3361
  74   2.0000      -0.301283        -8.1983
  75   2.0000      -0.292389        -7.9563
  76   2.0000      -0.283906        -7.7255
  77   2.0000      -0.278588        -7.5808
  78   2.0000      -0.268208        -7.2983
  79   2.0000      -0.264359        -7.1936
  80   2.0000      -0.253488        -6.8978
  81   2.0000      -0.244723        -6.6592
  82   2.0000      -0.236437        -6.4338
  83   2.0000      -0.232202        -6.3185
  84   2.0000      -0.198700        -5.4069
  85   2.0000      -0.180218        -4.9040
  86   2.0000      -0.175290        -4.7699
  87   0.0000      -0.044180        -1.2022
  88   0.0000      -0.037628        -1.0239
  89   0.0000      -0.028517        -0.7760
  90   0.0000       0.004211         0.1146
  91   0.0000       0.036122         0.9829

MULLIKEN ATOMIC CHARGES
-----------------------
   0 C :   -0.305190
   1 C :   -0.030360
   2 O :   -0.224496
   3 C :    0.091390
   4 O :   -0.194283
   5 C :   -0.021758
   6 C :   -0.314686
   7 H :    0.155584
   8 C :    0.203559
   9 O :   -0.177290
  10 O :   -0.220596
  11 C :   -0.011996
  12 C :   -0.324313
  13 S :   -0.096508
  14 P :    0.642377
  15 S :   -0.327696
  16 O :   -0.361156
  17 C :   -0.101700
  18 O :   -0.401551
  19 C :   -0.089191
  20 H :    0.113708
  21 H :    0.126331
  22 H :    0.108712
  23 H :    0.100109
  24 H :    0.134103
  25 H :    0.119999
  26 H :    0.114274
  27 H :    0.104537
  28 H :    0.119617
  29 H :    0.150880
  30 H :    0.115855
  31 H :    0.111194
  32 H :    0.116965
  33 H :    0.111300
  34 H :    0.123386
  35 H :    0.113113
  36 H :    0.110287
  37 H :    0.115489
Sum of atomic charges:   -0.0000000

LOEWDIN ATOMIC CHARGES
----------------------
   0 C :   -0.357112
   1 C :   -0.115422
   2 O :   -0.048122
   3 C :    0.023782
   4 O :   -0.166069
   5 C :   -0.249093
   6 C :   -0.261043
   7 H :    0.152433
   8 C :    0.013286
   9 O :   -0.146765
  10 O :   -0.037683
  11 C :   -0.104292
  12 C :   -0.361740
  13 S :    0.102855
  14 P :    0.595866
  15 S :   -0.306594
  16 O :   -0.239683
  17 C :   -0.213458
  18 O :   -0.265635
  19 C :   -0.214511
  20 H :    0.131466
  21 H :    0.129415
  22 H :    0.122113
  23 H :    0.115886
  24 H :    0.120619
  25 H :    0.144606
  26 H :    0.138430
  27 H :    0.118592
  28 H :    0.125211
  29 H :    0.129523
  30 H :    0.123471
  31 H :    0.130657
  32 H :    0.111908
  33 H :    0.103769
  34 H :    0.122270
  35 H :    0.108371
  36 H :    0.113543
  37 H :    0.109149

  Mayer bond orders larger than 0.100000
B(  0-C ,  1-C ) :   1.1683 B(  0-C , 20-H ) :   0.9446 B(  0-C , 21-H ) :   0.9452
B(  0-C , 22-H ) :   0.9478 B(  1-C ,  2-O ) :   0.9081 B(  1-C , 23-H ) :   0.9360
B(  1-C , 24-H ) :   0.9049 B(  2-O ,  3-C ) :   1.2446 B(  3-C ,  4-O ) :   1.9795
B(  3-C ,  5-C ) :   1.0043 B(  5-C ,  6-C ) :   1.0265 B(  5-C , 25-H ) :   0.8904
B(  5-C , 26-H ) :   0.8838 B(  6-C ,  7-H ) :   0.8720 B(  6-C ,  8-C ) :   0.8952
B(  6-C , 13-S ) :   1.0445 B(  8-C ,  9-O ) :   1.9793 B(  8-C , 10-O ) :   1.2717
B(  9-O , 14-P ) :   0.1071 B( 10-O , 11-C ) :   0.8942 B( 11-C , 12-C ) :   1.1807
B( 11-C , 27-H ) :   0.9365 B( 11-C , 28-H ) :   0.9115 B( 12-C , 29-H ) :   0.9248
B( 12-C , 30-H ) :   0.9440 B( 12-C , 31-H ) :   0.9395 B( 13-S , 14-P ) :   0.9218
B( 13-S , 15-S ) :   0.1185 B( 14-P , 15-S ) :   1.5626 B( 14-P , 16-O ) :   1.1186
B( 14-P , 18-O ) :   1.0536 B( 16-O , 17-C ) :   0.9325 B( 17-C , 32-H ) :   0.9465
B( 17-C , 33-H ) :   0.9363 B( 17-C , 34-H ) :   0.9602 B( 18-O , 19-C ) :   0.9383
B( 19-C , 35-H ) :   0.9482 B( 19-C , 36-H ) :   0.9567 B( 19-C , 37-H ) :   0.9382

Dispersion correction           -0.056396903
FINAL SINGLE POINT ENERGY     -1979.001753579683

DIPOLE MOMENT
-------------

Method             : SCF
Type of density    : Electron Density
Multiplicity       :   1
Irrep              :   0
Energy             : -1979.1301875278495572 Eh
Relativity type    :
Basis              : AO
                                X                 Y                 Z
Electronic contribution:    -13.488151339       4.258185123      -3.145209485
Nuclear contribution   :     14.515259703      -3.853129728       2.102166408
                        -----------------------------------------
Total Dipole Moment    :      1.027108364       0.405055395      -1.043043077
                        -----------------------------------------
Magnitude (a.u.)       :      1.518868106
Magnitude (Debye)      :      3.860655915

Rotational constants in cm-1:             0.012803             0.009249             0.007391
Rotational constants in MHz :           383.829145           277.291420           221.579928

                             ****ORCA TERMINATED NORMALLY****
TOTAL RUN TIME: 0 days 0 hours 1 minutes 32 seconds 321 msec
