                         Program Version 6.0.0  -   RELEASE  -
|  1> ! pbe def2-sv(p) def2/J RI DEFGRID1 loosescf d4 GCP(DFT/SV(P)) printgap
|  2> %output
|  3>     printlevel normal
|  4> end
|  5> * xyz 0 1
|  6> C 3.9101449764 -1.6996018799 -2.212662771
|  7> C 4.3088372511 -0.7944976533 -1.0639940789
|  8> O 3.2383143575 -0.6096393269 -0.1261841326
|  9> P 1.9383651638 0.2508114695 -0.4750484783
| 10> S 2.2804455986 1.8211608398 -1.5897421264
| 11> O 1.3545979945 0.4654833428 0.9818857867
| 12> C 1.6200454085 1.6626769453 1.738677753
| 13> C 3.0844036969 1.7906817486 2.0969262977
| 14> S 0.5668408729 -1.1738952115 -1.23222791
| 15> C 0.3244183447 -2.1906783503 0.244237954
| 16> S -0.8316014818 -1.4999155257 1.4860694715
| 17> P -2.0095005216 -0.1876201351 0.3328793137
| 18> S -1.33462307 1.5575647323 -0.2961718124
| 19> O -3.3033427582 -0.0299143967 1.2446723635
| 20> C -3.4441251987 1.0102425746 2.2247538205
| 21> C -2.5276003732 0.7890856505 3.4107282168
| 22> O -2.5091046951 -1.199401323 -0.7765014707
| 23> C -3.0077427628 -0.7664835788 -2.0575461494
| 24> C -4.3569581996 -0.0914781492 -1.9302821498
| 25> H 3.1228851019 -1.2266503464 -2.7996909439
| 26> H 4.7711337624 -1.8685348616 -2.8512865988
| 27> H 3.5449404754 -2.6528678755 -1.8397194211
| 28> H 4.6108669108 0.1881367478 -1.4404639018
| 29> H 5.1119572026 -1.2285021614 -0.4668422313
| 30> H 1.2777286744 2.5227962097 1.1537387918
| 31> H 0.9938772492 1.5511937312 2.6258039267
| 32> H 3.674205217 1.9290373932 1.191372386
| 33> H 3.220502938 2.6531310634 2.7416765902
| 34> H 3.4244953139 0.894553357 2.6093117989
| 35> H 1.2764783962 -2.3332023064 0.751583035
| 36> H -0.0844733534 -3.1331914185 -0.112518044
| 37> H -3.2291678853 1.9709460394 1.7443164115
| 38> H -4.4955831258 0.9644382386 2.5109576199
| 39> H -2.6943933786 -0.1959184252 3.8387715461
| 40> H -1.4889964551 0.8559713238 3.0868129193
| 41> H -2.714814524 1.5498638705 4.1615695208
| 42> H -2.2727510377 -0.089852381 -2.506871667
| 43> H -3.0636956195 -1.6867517425 -2.6401795805
| 44> H -4.2533076621 0.8368156887 -1.3693694527
| 45> H -4.7419341477 0.1352608312 -2.919526354
| 46> H -5.0531439701 -0.742037366 -1.4077719475
| 47> *
| 48>
| 49>                          ****END OF INPUT****

CARTESIAN COORDINATES (ANGSTROEM)
---------------------------------
  C      3.910145   -1.699602   -2.212663
  C      4.308837   -0.794498   -1.063994
  O      3.238314   -0.609639   -0.126184
  P      1.938365    0.250811   -0.475048
  S      2.280446    1.821161   -1.589742
  O      1.354598    0.465483    0.981886
  C      1.620045    1.662677    1.738678
  C      3.084404    1.790682    2.096926
  S      0.566841   -1.173895   -1.232228
  C      0.324418   -2.190678    0.244238
  S     -0.831601   -1.499916    1.486069
  P     -2.009501   -0.187620    0.332879
  S     -1.334623    1.557565   -0.296172
  O     -3.303343   -0.029914    1.244672
  C     -3.444125    1.010243    2.224754
  C     -2.527600    0.789086    3.410728
  O     -2.509105   -1.199401   -0.776501
  C     -3.007743   -0.766484   -2.057546
  C     -4.356958   -0.091478   -1.930282
  H      3.122885   -1.226650   -2.799691
  H      4.771134   -1.868535   -2.851287
  H      3.544940   -2.652868   -1.839719
  H      4.610867    0.188137   -1.440464
  H      5.111957   -1.228502   -0.466842
  H      1.277729    2.522796    1.153739
  H      0.993877    1.551194    2.625804
  H      3.674205    1.929037    1.191372
  H      3.220503    2.653131    2.741677
  H      3.424495    0.894553    2.609312
  H      1.276478   -2.333202    0.751583
  H     -0.084473   -3.133191   -0.112518
  H     -3.229168    1.970946    1.744316
  H     -4.495583    0.964438    2.510958
  H     -2.694393   -0.195918    3.838772
  H     -1.488996    0.855971    3.086813
  H     -2.714815    1.549864    4.161570
  H     -2.272751   -0.089852   -2.506872
  H     -3.063696   -1.686752   -2.640180
  H     -4.253308    0.836816   -1.369369
  H     -4.741934    0.135261   -2.919526
  H     -5.053144   -0.742037   -1.407772

 Total Charge           Charge          ....    0
 Multiplicity           Mult            ....    1
 Number of Electrons    NEL             ....  202
 Basis Dimension        Dim             ....  334

ORBITAL ENERGIES
----------------

  NO   OCC          E(Eh)            E(eV)
   0   2.0000     -88.044639     -2395.8164
   1   2.0000     -88.036181     -2395.5863
   2   2.0000     -87.985678     -2394.2120
   3   2.0000     -87.979326     -2394.0392
   4   2.0000     -76.423952     -2079.6015
   5   2.0000     -76.423044     -2079.5767
   6   2.0000     -18.788483      -511.2606
   7   2.0000     -18.788125      -511.2509
   8   2.0000     -18.788036      -511.2485
   9   2.0000     -18.785086      -511.1682
  10   2.0000      -9.960313      -271.0339
  11   2.0000      -9.949663      -270.7441
  12   2.0000      -9.949386      -270.7366
  13   2.0000      -9.947255      -270.6786
  14   2.0000      -9.946169      -270.6490
  15   2.0000      -9.885578      -269.0003
  16   2.0000      -9.883173      -268.9348
  17   2.0000      -9.879465      -268.8339
  18   2.0000      -9.879363      -268.8311
  19   2.0000      -7.689154      -209.2325
  20   2.0000      -7.681477      -209.0236
  21   2.0000      -7.630799      -207.6446
  22   2.0000      -7.623825      -207.4548
  23   2.0000      -6.421298      -174.7324
  24   2.0000      -6.420020      -174.6976
  25   2.0000      -5.717514      -155.5815
  26   2.0000      -5.713470      -155.4714
  27   2.0000      -5.709718      -155.3693
  28   2.0000      -5.706034      -155.2691
  29   2.0000      -5.705825      -155.2634
  30   2.0000      -5.697976      -155.0498
  31   2.0000      -5.659809      -154.0112
  32   2.0000      -5.652818      -153.8210
  33   2.0000      -5.651568      -153.7870
  34   2.0000      -5.650741      -153.7645
  35   2.0000      -5.644432      -153.5928
  36   2.0000      -5.644007      -153.5812
  37   2.0000      -4.643564      -126.3578
  38   2.0000      -4.643258      -126.3495
  39   2.0000      -4.642620      -126.3321
  40   2.0000      -4.641908      -126.3127
  41   2.0000      -4.641868      -126.3117
  42   2.0000      -4.640470      -126.2736
  43   2.0000      -0.983553       -26.7638
  44   2.0000      -0.982894       -26.7459
  45   2.0000      -0.943278       -25.6679
  46   2.0000      -0.941117       -25.6091
  47   2.0000      -0.762221       -20.7411
  48   2.0000      -0.717239       -19.5171
  49   2.0000      -0.704489       -19.1701
  50   2.0000      -0.684918       -18.6376
  51   2.0000      -0.683033       -18.5863
  52   2.0000      -0.671166       -18.2634
  53   2.0000      -0.652806       -17.7638
  54   2.0000      -0.635483       -17.2924
  55   2.0000      -0.598759       -16.2930
  56   2.0000      -0.591753       -16.1024
  57   2.0000      -0.570002       -15.5105
  58   2.0000      -0.568343       -15.4654
  59   2.0000      -0.564699       -15.3662
  60   2.0000      -0.493684       -13.4338
  61   2.0000      -0.487595       -13.2681
  62   2.0000      -0.471267       -12.8238
  63   2.0000      -0.468115       -12.7381
  64   2.0000      -0.454960       -12.3801
  65   2.0000      -0.440514       -11.9870
  66   2.0000      -0.436960       -11.8903
  67   2.0000      -0.435870       -11.8606
  68   2.0000      -0.422306       -11.4915
  69   2.0000      -0.416542       -11.3347
  70   2.0000      -0.411371       -11.1940
  71   2.0000      -0.393157       -10.6984
  72   2.0000      -0.390331       -10.6214
  73   2.0000      -0.390151       -10.6165
  74   2.0000      -0.383586       -10.4379
  75   2.0000      -0.373992       -10.1768
  76   2.0000      -0.368368       -10.0238
  77   2.0000      -0.357020        -9.7150
  78   2.0000      -0.352522        -9.5926
  79   2.0000      -0.348080        -9.4717
  80   2.0000      -0.345608        -9.4045
  81   2.0000      -0.344313        -9.3692
  82   2.0000      -0.341648        -9.2967
  83   2.0000      -0.334648        -9.1062
  84   2.0000      -0.324913        -8.8413
  85   2.0000      -0.320350        -8.7172
  86   2.0000      -0.310634        -8.4528
  87   2.0000      -0.294303        -8.0084
  88   2.0000      -0.292049        -7.9471
  89   2.0000      -0.285187        -7.7603
  90   2.0000      -0.279043        -7.5931
  91   2.0000      -0.270221        -7.3531
  92   2.0000      -0.268749        -7.3130
  93   2.0000      -0.260422        -7.0864
  94   2.0000      -0.259063        -7.0495
  95   2.0000      -0.228566        -6.2196
  96   2.0000      -0.218500        -5.9457
  97   2.0000      -0.208027        -5.6607
  98   2.0000      -0.200403        -5.4532
  99   2.0000      -0.192878        -5.2485
 100   2.0000      -0.185520        -5.0483
 101   0.0000      -0.049531        -1.3478
 102   0.0000      -0.025948        -0.7061
 103   0.0000      -0.014560        -0.3962
 104   0.0000      -0.001606        -0.0437
 105   0.0000       0.024099         0.6558

MULLIKEN ATOMIC CHARGES
-----------------------
   0 C :   -0.306238
   1 C :   -0.006291
   2 O :   -0.378007
   3 P :    0.624387
   4 S :   -0.306326
   5 O :   -0.371092
   6 C :   -0.017488
   7 C :   -0.301098
   8 S :   -0.087425
   9 C :   -0.308739
  10 S :   -0.105249
  11 P :    0.608968
  12 S :   -0.317798
  13 O :   -0.368485
  14 C :   -0.000229
  15 C :   -0.342757
  16 O :   -0.373006
  17 C :   -0.002591
  18 C :   -0.302827
  19 H :    0.124467
  20 H :    0.111502
  21 H :    0.110009
  22 H :    0.109330
  23 H :    0.102303
  24 H :    0.119049
  25 H :    0.115347
  26 H :    0.122195
  27 H :    0.109725
  28 H :    0.111681
  29 H :    0.182190
  30 H :    0.185424
  31 H :    0.108313
  32 H :    0.104584
  33 H :    0.121005
  34 H :    0.145642
  35 H :    0.113816
  36 H :    0.116964
  37 H :    0.100555
  38 H :    0.122773
  39 H :    0.110723
  40 H :    0.114694
Sum of atomic charges:   -0.0000000

LOEWDIN ATOMIC CHARGES
----------------------
   0 C :   -0.367109
   1 C :   -0.122806
   2 O :   -0.251569
   3 P :    0.575682
   4 S :   -0.305838
   5 O :   -0.238263
   6 C :   -0.116909
   7 C :   -0.366614
   8 S :    0.109071
   9 C :   -0.466537
  10 S :    0.077463
  11 P :    0.564633
  12 S :   -0.310001
  13 O :   -0.244487
  14 C :   -0.121906
  15 C :   -0.371589
  16 O :   -0.243913
  17 C :   -0.118358
  18 C :   -0.364067
  19 H :    0.120214
  20 H :    0.129946
  21 H :    0.121590
  22 H :    0.108662
  23 H :    0.116858
  24 H :    0.112968
  25 H :    0.116163
  26 H :    0.121098
  27 H :    0.129665
  28 H :    0.124307
  29 H :    0.133049
  30 H :    0.137471
  31 H :    0.107930
  32 H :    0.118450
  33 H :    0.125850
  34 H :    0.120464
  35 H :    0.131387
  36 H :    0.111920
  37 H :    0.116808
  38 H :    0.122921
  39 H :    0.129798
  40 H :    0.125598

  Mayer bond orders larger than 0.100000
B(  0-C ,  1-C ) :   1.1650 B(  0-C , 19-H ) :   0.9366 B(  0-C , 20-H ) :   0.9388
B(  0-C , 21-H ) :   0.9462 B(  1-C ,  2-O ) :   0.9174 B(  1-C , 22-H ) :   0.9127
B(  1-C , 23-H ) :   0.9340 B(  2-O ,  3-P ) :   1.0671 B(  3-P ,  4-S ) :   1.6390
B(  3-P ,  5-O ) :   1.1194 B(  3-P ,  8-S ) :   0.9459 B(  5-O ,  6-C ) :   0.9001
B(  6-C ,  7-C ) :   1.1619 B(  6-C , 24-H ) :   0.9180 B(  6-C , 25-H ) :   0.9254
B(  7-C , 26-H ) :   0.9330 B(  7-C , 27-H ) :   0.9387 B(  7-C , 28-H ) :   0.9448
B(  8-S ,  9-C ) :   1.0119 B(  9-C , 10-S ) :   0.9654 B(  9-C , 29-H ) :   0.9029
B(  9-C , 30-H ) :   0.9095 B( 10-S , 11-P ) :   0.9823 B( 10-S , 12-S ) :   0.1159
B( 11-P , 12-S ) :   1.5809 B( 11-P , 13-O ) :   1.0997 B( 11-P , 16-O ) :   1.1140
B( 13-O , 14-C ) :   0.9129 B( 14-C , 15-C ) :   1.1642 B( 14-C , 31-H ) :   0.9096
B( 14-C , 32-H ) :   0.9327 B( 15-C , 33-H ) :   0.9428 B( 15-C , 34-H ) :   0.9266
B( 15-C , 35-H ) :   0.9382 B( 16-O , 17-C ) :   0.9007 B( 17-C , 18-C ) :   1.1667
B( 17-C , 36-H ) :   0.9147 B( 17-C , 37-H ) :   0.9350 B( 18-C , 38-H ) :   0.9357
B( 18-C , 39-H ) :   0.9396 B( 18-C , 40-H ) :   0.9461

Dispersion correction           -0.069295914
FINAL SINGLE POINT ENERGY     -2929.513951174651

DIPOLE MOMENT
-------------

Method             : SCF
Type of density    : Electron Density
Multiplicity       :   1
Irrep              :   0
Energy             : -2929.6301938937172054 Eh
Relativity type    :
Basis              : AO
                                X                 Y                 Z
Electronic contribution:     -0.867498691      -1.655333308      -5.190698856
Nuclear contribution   :      0.904672227       0.742113539       5.880771606
                        -----------------------------------------
Total Dipole Moment    :      0.037173536      -0.913219769       0.690072749
                        -----------------------------------------
Magnitude (a.u.)       :      1.145230377
Magnitude (Debye)      :      2.910944283

Rotational constants in cm-1:             0.012244             0.005781             0.005150
Rotational constants in MHz :           367.051845           173.299689           154.399947

                             ****ORCA TERMINATED NORMALLY****
TOTAL RUN TIME: 0 days 0 hours 0 minutes 22 seconds 12 msec
