                         Program Version 6.0.0  -   RELEASE  -
|  1> ! pbe def2-sv(p) def2/J RI DEFGRID1 loosescf d4 GCP(DFT/SV(P)) printgap
|  2> %output
|  3>     printlevel normal
|  4> end
|  5> * xyz 0 1
|  6> C 4.5762143952 -0.9666630831 -2.0383074054
|  7> C 3.7350857465 -2.0382144379 -1.376239837
|  8> O 3.105980945 -1.5898578163 -0.1617353274
|  9> P 2.2318395425 -0.2722643576 0.0051205049
| 10> S 3.1918464379 1.436612519 0.1369378449
| 11> O 1.4165808119 -0.6655237325 1.3030245531
| 12> C 1.6830896038 -0.1433666967 2.6230504322
| 13> C 0.3789214722 0.2814753763 3.2667130285
| 14> S 0.8028471805 -0.4516027544 -1.5436806122
| 15> C 0.2515035359 1.2720130784 -1.5407118764
| 16> S -0.6848831535 1.7292917049 -0.0609496343
| 17> P -2.2191695724 0.2818193204 -0.2853965092
| 18> S -2.7906105871 -0.1145300256 -2.1097077907
| 19> O -3.4254814631 0.8207899881 0.5852014096
| 20> C -3.3678528237 1.0592487105 2.0142584411
| 21> C -3.0939433733 2.5198676127 2.3108026719
| 22> O -1.5925288585 -0.9317086902 0.5476876876
| 23> C -1.7152360126 -2.3038690041 0.1391675065
| 24> C -3.0719132687 -2.8621107006 0.5180002529
| 25> H 5.0968382062 -1.3930755884 -2.8897545256
| 26> H 3.9432173774 -0.1501845581 -2.3833941751
| 27> H 5.3030172322 -0.5658811963 -1.3355819979
| 28> H 4.3475997909 -2.8810481165 -1.0507526488
| 29> H 2.9519736739 -2.3894905378 -2.0541512351
| 30> H 2.1611590193 -0.9491436693 3.1842380774
| 31> H 2.3758249045 0.700877475 2.5375532519
| 32> H -0.0557962621 1.1129450091 2.7177279848
| 33> H -0.3196357842 -0.5508293829 3.2671308738
| 34> H 0.572444637 0.591071128 4.2885530015
| 35> H -0.3790570072 1.3923942646 -2.4207919302
| 36> H 1.1173733836 1.9339905253 -1.5720612524
| 37> H -4.3555963181 0.7642958372 2.3727030139
| 38> H -2.6047458402 0.4128923631 2.452368863
| 39> H -2.1107463648 2.8097365905 1.9452202987
| 40> H -3.840375457 3.1441020597 1.8275457671
| 41> H -3.134600365 2.67689927 3.3840727756
| 42> H -1.5594405294 -2.366013626 -0.9428781387
| 43> H -0.8999175187 -2.8135490185 0.6558809551
| 44> H -3.8523295649 -2.3051884253 8.18911e-05
| 45> H -3.1275366608 -3.9050534985 0.2228698835
| 46> H -3.2316854306 -2.7812201051 1.5899075735
| 47> *
| 48>
| 49>                          ****END OF INPUT****

CARTESIAN COORDINATES (ANGSTROEM)
---------------------------------
  C      4.576214   -0.966663   -2.038307
  C      3.735086   -2.038214   -1.376240
  O      3.105981   -1.589858   -0.161735
  P      2.231840   -0.272264    0.005121
  S      3.191846    1.436613    0.136938
  O      1.416581   -0.665524    1.303025
  C      1.683090   -0.143367    2.623050
  C      0.378921    0.281475    3.266713
  S      0.802847   -0.451603   -1.543681
  C      0.251504    1.272013   -1.540712
  S     -0.684883    1.729292   -0.060950
  P     -2.219170    0.281819   -0.285397
  S     -2.790611   -0.114530   -2.109708
  O     -3.425481    0.820790    0.585201
  C     -3.367853    1.059249    2.014258
  C     -3.093943    2.519868    2.310803
  O     -1.592529   -0.931709    0.547688
  C     -1.715236   -2.303869    0.139168
  C     -3.071913   -2.862111    0.518000
  H      5.096838   -1.393076   -2.889755
  H      3.943217   -0.150185   -2.383394
  H      5.303017   -0.565881   -1.335582
  H      4.347600   -2.881048   -1.050753
  H      2.951974   -2.389491   -2.054151
  H      2.161159   -0.949144    3.184238
  H      2.375825    0.700877    2.537553
  H     -0.055796    1.112945    2.717728
  H     -0.319636   -0.550829    3.267131
  H      0.572445    0.591071    4.288553
  H     -0.379057    1.392394   -2.420792
  H      1.117373    1.933991   -1.572061
  H     -4.355596    0.764296    2.372703
  H     -2.604746    0.412892    2.452369
  H     -2.110746    2.809737    1.945220
  H     -3.840375    3.144102    1.827546
  H     -3.134600    2.676899    3.384073
  H     -1.559441   -2.366014   -0.942878
  H     -0.899918   -2.813549    0.655881
  H     -3.852330   -2.305188    0.000082
  H     -3.127537   -3.905053    0.222870
  H     -3.231685   -2.781220    1.589908

 Total Charge           Charge          ....    0
 Multiplicity           Mult            ....    1
 Number of Electrons    NEL             ....  202
 Basis Dimension        Dim             ....  334

ORBITAL ENERGIES
----------------

  NO   OCC          E(Eh)            E(eV)
   0   2.0000     -88.046691     -2395.8723
   1   2.0000     -88.042040     -2395.7457
   2   2.0000     -87.987215     -2394.2538
   3   2.0000     -87.987178     -2394.2528
   4   2.0000     -76.427291     -2079.6923
   5   2.0000     -76.426841     -2079.6801
   6   2.0000     -18.796301      -511.4733
   7   2.0000     -18.791895      -511.3535
   8   2.0000     -18.788255      -511.2544
   9   2.0000     -18.786655      -511.2109
  10   2.0000      -9.961383      -271.0630
  11   2.0000      -9.958056      -270.9725
  12   2.0000      -9.955772      -270.9103
  13   2.0000      -9.949385      -270.7365
  14   2.0000      -9.947286      -270.6794
  15   2.0000      -9.892279      -269.1826
  16   2.0000      -9.884155      -268.9615
  17   2.0000      -9.883421      -268.9416
  18   2.0000      -9.883390      -268.9407
  19   2.0000      -7.691357      -209.2925
  20   2.0000      -7.687025      -209.1746
  21   2.0000      -7.632441      -207.6893
  22   2.0000      -7.632217      -207.6832
  23   2.0000      -6.424544      -174.8207
  24   2.0000      -6.424409      -174.8171
  25   2.0000      -5.719165      -155.6264
  26   2.0000      -5.715840      -155.5359
  27   2.0000      -5.714834      -155.5085
  28   2.0000      -5.711693      -155.4231
  29   2.0000      -5.708454      -155.3349
  30   2.0000      -5.703884      -155.2106
  31   2.0000      -5.661506      -154.0574
  32   2.0000      -5.660994      -154.0435
  33   2.0000      -5.652978      -153.8254
  34   2.0000      -5.652972      -153.8252
  35   2.0000      -5.652484      -153.8119
  36   2.0000      -5.652381      -153.8091
  37   2.0000      -4.647294      -126.4593
  38   2.0000      -4.646970      -126.4505
  39   2.0000      -4.646485      -126.4373
  40   2.0000      -4.645796      -126.4185
  41   2.0000      -4.644994      -126.3967
  42   2.0000      -4.644988      -126.3965
  43   2.0000      -0.985889       -26.8274
  44   2.0000      -0.984572       -26.7916
  45   2.0000      -0.944114       -25.6907
  46   2.0000      -0.942370       -25.6432
  47   2.0000      -0.767204       -20.8767
  48   2.0000      -0.723444       -19.6859
  49   2.0000      -0.712456       -19.3869
  50   2.0000      -0.691988       -18.8300
  51   2.0000      -0.686427       -18.6786
  52   2.0000      -0.675069       -18.3696
  53   2.0000      -0.652215       -17.7477
  54   2.0000      -0.640696       -17.4342
  55   2.0000      -0.598691       -16.2912
  56   2.0000      -0.590016       -16.0552
  57   2.0000      -0.580245       -15.7893
  58   2.0000      -0.574457       -15.6318
  59   2.0000      -0.559766       -15.2320
  60   2.0000      -0.504948       -13.7403
  61   2.0000      -0.498388       -13.5618
  62   2.0000      -0.479653       -13.0520
  63   2.0000      -0.470090       -12.7918
  64   2.0000      -0.458852       -12.4860
  65   2.0000      -0.448116       -12.1939
  66   2.0000      -0.438393       -11.9293
  67   2.0000      -0.434524       -11.8240
  68   2.0000      -0.429899       -11.6981
  69   2.0000      -0.417439       -11.3591
  70   2.0000      -0.410972       -11.1831
  71   2.0000      -0.397644       -10.8205
  72   2.0000      -0.396193       -10.7810
  73   2.0000      -0.382350       -10.4043
  74   2.0000      -0.379182       -10.3181
  75   2.0000      -0.376420       -10.2429
  76   2.0000      -0.371995       -10.1225
  77   2.0000      -0.360194        -9.8014
  78   2.0000      -0.358047        -9.7429
  79   2.0000      -0.352682        -9.5970
  80   2.0000      -0.349540        -9.5115
  81   2.0000      -0.346265        -9.4223
  82   2.0000      -0.344799        -9.3825
  83   2.0000      -0.338873        -9.2212
  84   2.0000      -0.335843        -9.1387
  85   2.0000      -0.320685        -8.7263
  86   2.0000      -0.310952        -8.4614
  87   2.0000      -0.304927        -8.2975
  88   2.0000      -0.297258        -8.0888
  89   2.0000      -0.287682        -7.8282
  90   2.0000      -0.281859        -7.6698
  91   2.0000      -0.277365        -7.5475
  92   2.0000      -0.272934        -7.4269
  93   2.0000      -0.267263        -7.2726
  94   2.0000      -0.256063        -6.9678
  95   2.0000      -0.231956        -6.3119
  96   2.0000      -0.218018        -5.9326
  97   2.0000      -0.213816        -5.8182
  98   2.0000      -0.205967        -5.6046
  99   2.0000      -0.200056        -5.4438
 100   2.0000      -0.199328        -5.4240
 101   0.0000      -0.047059        -1.2805
 102   0.0000      -0.024809        -0.6751
 103   0.0000      -0.005035        -0.1370
 104   0.0000       0.000787         0.0214
 105   0.0000       0.004667         0.1270

MULLIKEN ATOMIC CHARGES
-----------------------
   0 C :   -0.311222
   1 C :   -0.008390
   2 O :   -0.373792
   3 P :    0.617787
   4 S :   -0.337806
   5 O :   -0.357563
   6 C :   -0.004026
   7 C :   -0.310570
   8 S :   -0.091408
   9 C :   -0.343452
  10 S :   -0.106567
  11 P :    0.626856
  12 S :   -0.314722
  13 O :   -0.364147
  14 C :   -0.040304
  15 C :   -0.305482
  16 O :   -0.379691
  17 C :   -0.007732
  18 C :   -0.300873
  19 H :    0.111493
  20 H :    0.124252
  21 H :    0.127203
  22 H :    0.108426
  23 H :    0.112588
  24 H :    0.100350
  25 H :    0.111016
  26 H :    0.129509
  27 H :    0.124197
  28 H :    0.104953
  29 H :    0.193818
  30 H :    0.192412
  31 H :    0.111842
  32 H :    0.122860
  33 H :    0.139714
  34 H :    0.125469
  35 H :    0.112907
  36 H :    0.114132
  37 H :    0.103096
  38 H :    0.124739
  39 H :    0.111051
  40 H :    0.107077
Sum of atomic charges:   -0.0000000

LOEWDIN ATOMIC CHARGES
----------------------
   0 C :   -0.369905
   1 C :   -0.114155
   2 O :   -0.247868
   3 P :    0.570520
   4 S :   -0.318456
   5 O :   -0.237886
   6 C :   -0.114513
   7 C :   -0.360203
   8 S :    0.096195
   9 C :   -0.479418
  10 S :    0.086804
  11 P :    0.572282
  12 S :   -0.308898
  13 O :   -0.241929
  14 C :   -0.116771
  15 C :   -0.360981
  16 O :   -0.246567
  17 C :   -0.123965
  18 C :   -0.363327
  19 H :    0.130005
  20 H :    0.120525
  21 H :    0.129755
  22 H :    0.121122
  23 H :    0.109018
  24 H :    0.113540
  25 H :    0.106491
  26 H :    0.118511
  27 H :    0.123309
  28 H :    0.127304
  29 H :    0.132986
  30 H :    0.130162
  31 H :    0.122579
  32 H :    0.112759
  33 H :    0.119156
  34 H :    0.131994
  35 H :    0.131899
  36 H :    0.106177
  37 H :    0.116099
  38 H :    0.124760
  39 H :    0.130187
  40 H :    0.120701

  Mayer bond orders larger than 0.100000
B(  0-C ,  1-C ) :   1.1638 B(  0-C , 19-H ) :   0.9350 B(  0-C , 20-H ) :   0.9341
B(  0-C , 21-H ) :   0.9424 B(  1-C ,  2-O ) :   0.9160 B(  1-C , 22-H ) :   0.9343
B(  1-C , 23-H ) :   0.9280 B(  2-O ,  3-P ) :   1.1191 B(  3-P ,  4-S ) :   1.6003
B(  3-P ,  5-O ) :   1.1360 B(  3-P ,  8-S ) :   0.9447 B(  4-S ,  8-S ) :   0.1066
B(  5-O ,  6-C ) :   0.9058 B(  6-C ,  7-C ) :   1.1644 B(  6-C , 24-H ) :   0.9339
B(  6-C , 25-H ) :   0.8998 B(  7-C , 26-H ) :   0.9370 B(  7-C , 27-H ) :   0.9401
B(  7-C , 28-H ) :   0.9372 B(  8-S ,  9-C ) :   1.0076 B(  9-C , 10-S ) :   1.0074
B(  9-C , 29-H ) :   0.8857 B(  9-C , 30-H ) :   0.8774 B( 10-S , 11-P ) :   0.9480
B( 10-S , 12-S ) :   0.1021 B( 11-P , 12-S ) :   1.6267 B( 11-P , 13-O ) :   1.1331
B( 11-P , 16-O ) :   1.0738 B( 13-O , 14-C ) :   0.8996 B( 14-C , 15-C ) :   1.1688
B( 14-C , 31-H ) :   0.9330 B( 14-C , 32-H ) :   0.9101 B( 15-C , 33-H ) :   0.9307
B( 15-C , 34-H ) :   0.9448 B( 15-C , 35-H ) :   0.9385 B( 16-O , 17-C ) :   0.9007
B( 17-C , 18-C ) :   1.1617 B( 17-C , 36-H ) :   0.9092 B( 17-C , 37-H ) :   0.9316
B( 18-C , 38-H ) :   0.9380 B( 18-C , 39-H ) :   0.9413 B( 18-C , 40-H ) :   0.9485

Dispersion correction           -0.067512992
FINAL SINGLE POINT ENERGY     -2929.520394275607

DIPOLE MOMENT
-------------

Method             : SCF
Type of density    : Electron Density
Multiplicity       :   1
Irrep              :   0
Energy             : -2929.6383930739593779 Eh
Relativity type    :
Basis              : AO
                                X                 Y                 Z
Electronic contribution:      1.655814505       6.284225902     -14.033594214
Nuclear contribution   :     -1.536652914      -7.165891362      15.207484815
                        -----------------------------------------
Total Dipole Moment    :      0.119161591      -0.881665459       1.173890600
                        -----------------------------------------
Magnitude (a.u.)       :      1.472940124
Magnitude (Debye)      :      3.743916261

Rotational constants in cm-1:             0.011829             0.005600             0.005094
Rotational constants in MHz :           354.624939           167.876654           152.722660

                             ****ORCA TERMINATED NORMALLY****
TOTAL RUN TIME: 0 days 0 hours 0 minutes 21 seconds 713 msec
