                         Program Version 6.0.0  -   RELEASE  -
|  1> ! pbe def2-sv(p) def2/J RI DEFGRID1 loosescf d4 GCP(DFT/SV(P)) printgap
|  2> %output
|  3>     printlevel normal
|  4> end
|  5> * xyz 0 1
|  6> C 2.0901986603 -1.9955963324 -2.6572867705
|  7> C 2.1854275045 -2.2577463538 -1.1668410662
|  8> O 2.9698959573 -1.232184773 -0.5238829608
|  9> P 2.2935842538 0.0176130949 0.1929286754
| 10> S 1.1331378416 1.1502251451 -0.9063171707
| 11> O 3.5359284728 0.8246296977 0.7176423936
| 12> C 4.5596990053 0.2532713457 1.5730549124
| 13> C 5.7343236391 -0.241697518 0.7549422366
| 14> S 1.4195412577 -0.8655929697 1.934447846
| 15> C -0.2656594722 -0.2334337882 1.8365375855
| 16> S -1.2238047836 -1.0104033886 0.4970418901
| 17> P -2.2755544059 0.686459533 -0.2576934419
| 18> S -1.9643188261 2.3514592029 0.7287492209
| 19> O -3.7783427668 0.1583003205 -0.3308876597
| 20> C -4.5092384964 -0.4334503269 0.757110558
| 21> C -4.8794481199 0.575000116 1.8260335365
| 22> O -1.9664161709 0.8860485364 -1.7851127162
| 23> C -2.4253367336 0.0369829611 -2.8666722323
| 24> C -1.9344907486 -1.3890015289 -2.7372614742
| 25> H 3.0835251411 -1.9640236937 -3.0957840151
| 26> H 1.513884766 -2.7864850128 -3.126675319
| 27> H 1.6052281393 -1.0377732589 -2.8370753231
| 28> H 2.7169121893 -3.18813129 -0.9590602537
| 29> H 1.1916272928 -2.2987254213 -0.7088669936
| 30> H 4.8497760084 1.0752539503 2.2298635199
| 31> H 4.1162381644 -0.5531677589 2.1637199815
| 32> H 6.5092772192 -0.5955212505 1.4277092908
| 33> H 5.4253450244 -1.0533479356 0.1025487622
| 34> H 6.1294113961 0.5665231775 0.1455562649
| 35> H -0.2642488262 0.8473126425 1.6707782792
| 36> H -0.7250983421 -0.4844843498 2.7894984867
| 37> H -5.3993056046 -0.8423507536 0.2749936107
| 38> H -3.9109538325 -1.2474415393 1.1773012799
| 39> H -3.9845264896 0.9786961275 2.2955723301
| 40> H -5.4346925515 1.4008141044 1.3885672834
| 41> H -5.4905661114 0.0898400938 2.5802420771
| 42> H -3.5159645693 0.0800432679 -2.8908192056
| 43> H -2.012074728 0.5250105378 -3.7508702247
| 44> H -2.2180108422 -1.9431634172 -3.6264428503
| 45> H -0.852495654 -1.4027249071 -2.6355879613
| 46> H -2.3753609164 -1.8671677854 -1.8638500534
| 47> *
| 48>
| 49>                          ****END OF INPUT****

CARTESIAN COORDINATES (ANGSTROEM)
---------------------------------
  C      2.090199   -1.995596   -2.657287
  C      2.185428   -2.257746   -1.166841
  O      2.969896   -1.232185   -0.523883
  P      2.293584    0.017613    0.192929
  S      1.133138    1.150225   -0.906317
  O      3.535928    0.824630    0.717642
  C      4.559699    0.253271    1.573055
  C      5.734324   -0.241698    0.754942
  S      1.419541   -0.865593    1.934448
  C     -0.265659   -0.233434    1.836538
  S     -1.223805   -1.010403    0.497042
  P     -2.275554    0.686460   -0.257693
  S     -1.964319    2.351459    0.728749
  O     -3.778343    0.158300   -0.330888
  C     -4.509238   -0.433450    0.757111
  C     -4.879448    0.575000    1.826034
  O     -1.966416    0.886049   -1.785113
  C     -2.425337    0.036983   -2.866672
  C     -1.934491   -1.389002   -2.737261
  H      3.083525   -1.964024   -3.095784
  H      1.513885   -2.786485   -3.126675
  H      1.605228   -1.037773   -2.837075
  H      2.716912   -3.188131   -0.959060
  H      1.191627   -2.298725   -0.708867
  H      4.849776    1.075254    2.229864
  H      4.116238   -0.553168    2.163720
  H      6.509277   -0.595521    1.427709
  H      5.425345   -1.053348    0.102549
  H      6.129411    0.566523    0.145556
  H     -0.264249    0.847313    1.670778
  H     -0.725098   -0.484484    2.789498
  H     -5.399306   -0.842351    0.274994
  H     -3.910954   -1.247442    1.177301
  H     -3.984526    0.978696    2.295572
  H     -5.434693    1.400814    1.388567
  H     -5.490566    0.089840    2.580242
  H     -3.515965    0.080043   -2.890819
  H     -2.012075    0.525011   -3.750870
  H     -2.218011   -1.943163   -3.626443
  H     -0.852496   -1.402725   -2.635588
  H     -2.375361   -1.867168   -1.863850

 Total Charge           Charge          ....    0
 Multiplicity           Mult            ....    1
 Number of Electrons    NEL             ....  202
 Basis Dimension        Dim             ....  334

ORBITAL ENERGIES
----------------

  NO   OCC          E(Eh)            E(eV)
   0   2.0000     -88.042705     -2395.7638
   1   2.0000     -88.041041     -2395.7185
   2   2.0000     -87.979722     -2394.0500
   3   2.0000     -87.977097     -2393.9785
   4   2.0000     -76.423213     -2079.5814
   5   2.0000     -76.422133     -2079.5520
   6   2.0000     -18.790042      -511.3030
   7   2.0000     -18.789890      -511.2989
   8   2.0000     -18.789873      -511.2984
   9   2.0000     -18.786798      -511.2148
  10   2.0000      -9.958128      -270.9744
  11   2.0000      -9.954882      -270.8861
  12   2.0000      -9.953876      -270.8587
  13   2.0000      -9.953535      -270.8495
  14   2.0000      -9.951233      -270.7868
  15   2.0000      -9.890634      -269.1378
  16   2.0000      -9.886682      -269.0303
  17   2.0000      -9.882665      -268.9210
  18   2.0000      -9.879640      -268.8387
  19   2.0000      -7.687705      -209.1931
  20   2.0000      -7.685070      -209.1214
  21   2.0000      -7.624455      -207.4720
  22   2.0000      -7.622308      -207.4136
  23   2.0000      -6.419942      -174.6955
  24   2.0000      -6.419733      -174.6898
  25   2.0000      -5.715599      -155.5294
  26   2.0000      -5.712915      -155.4563
  27   2.0000      -5.712011      -155.4317
  28   2.0000      -5.709617      -155.3666
  29   2.0000      -5.704899      -155.2382
  30   2.0000      -5.702219      -155.1653
  31   2.0000      -5.653625      -153.8430
  32   2.0000      -5.651480      -153.7846
  33   2.0000      -5.644872      -153.6048
  34   2.0000      -5.644622      -153.5980
  35   2.0000      -5.642703      -153.5458
  36   2.0000      -5.642378      -153.5369
  37   2.0000      -4.642824      -126.3377
  38   2.0000      -4.642473      -126.3281
  39   2.0000      -4.641773      -126.3091
  40   2.0000      -4.641566      -126.3034
  41   2.0000      -4.640178      -126.2657
  42   2.0000      -4.639945      -126.2593
  43   2.0000      -0.986854       -26.8537
  44   2.0000      -0.985081       -26.8054
  45   2.0000      -0.943957       -25.6864
  46   2.0000      -0.939701       -25.5706
  47   2.0000      -0.758910       -20.6510
  48   2.0000      -0.718959       -19.5639
  49   2.0000      -0.711359       -19.3571
  50   2.0000      -0.690862       -18.7993
  51   2.0000      -0.689354       -18.7583
  52   2.0000      -0.675260       -18.3748
  53   2.0000      -0.647797       -17.6274
  54   2.0000      -0.632657       -17.2155
  55   2.0000      -0.590437       -16.0666
  56   2.0000      -0.585231       -15.9249
  57   2.0000      -0.578917       -15.7531
  58   2.0000      -0.572834       -15.5876
  59   2.0000      -0.564985       -15.3740
  60   2.0000      -0.504951       -13.7404
  61   2.0000      -0.495376       -13.4799
  62   2.0000      -0.480214       -13.0673
  63   2.0000      -0.470628       -12.8065
  64   2.0000      -0.450250       -12.2519
  65   2.0000      -0.447216       -12.1694
  66   2.0000      -0.441149       -12.0043
  67   2.0000      -0.433599       -11.7988
  68   2.0000      -0.428084       -11.6487
  69   2.0000      -0.424695       -11.5565
  70   2.0000      -0.406230       -11.0541
  71   2.0000      -0.401730       -10.9316
  72   2.0000      -0.394137       -10.7250
  73   2.0000      -0.391551       -10.6547
  74   2.0000      -0.384595       -10.4654
  75   2.0000      -0.364946        -9.9307
  76   2.0000      -0.358798        -9.7634
  77   2.0000      -0.355844        -9.6830
  78   2.0000      -0.352518        -9.5925
  79   2.0000      -0.350499        -9.5376
  80   2.0000      -0.348556        -9.4847
  81   2.0000      -0.345462        -9.4005
  82   2.0000      -0.341195        -9.2844
  83   2.0000      -0.337054        -9.1717
  84   2.0000      -0.331567        -9.0224
  85   2.0000      -0.318021        -8.6538
  86   2.0000      -0.315024        -8.5722
  87   2.0000      -0.296207        -8.0602
  88   2.0000      -0.293036        -7.9739
  89   2.0000      -0.290821        -7.9137
  90   2.0000      -0.287356        -7.8194
  91   2.0000      -0.276430        -7.5220
  92   2.0000      -0.274391        -7.4665
  93   2.0000      -0.261750        -7.1226
  94   2.0000      -0.254699        -6.9307
  95   2.0000      -0.236640        -6.4393
  96   2.0000      -0.220144        -5.9904
  97   2.0000      -0.207118        -5.6360
  98   2.0000      -0.194813        -5.3011
  99   2.0000      -0.189086        -5.1453
 100   2.0000      -0.182052        -4.9539
 101   0.0000      -0.042061        -1.1445
 102   0.0000      -0.032538        -0.8854
 103   0.0000      -0.011644        -0.3168
 104   0.0000       0.007836         0.2132
 105   0.0000       0.011769         0.3203

MULLIKEN ATOMIC CHARGES
-----------------------
   0 C :   -0.296029
   1 C :   -0.024205
   2 O :   -0.380866
   3 P :    0.586078
   4 S :   -0.281885
   5 O :   -0.349979
   6 C :   -0.018705
   7 C :   -0.290022
   8 S :   -0.135022
   9 C :   -0.316974
  10 S :   -0.138908
  11 P :    0.628541
  12 S :   -0.293229
  13 O :   -0.383524
  14 C :   -0.009039
  15 C :   -0.301340
  16 O :   -0.352344
  17 C :    0.011010
  18 C :   -0.354737
  19 H :    0.112862
  20 H :    0.106741
  21 H :    0.141715
  22 H :    0.103140
  23 H :    0.114596
  24 H :    0.114458
  25 H :    0.107083
  26 H :    0.109305
  27 H :    0.123298
  28 H :    0.122140
  29 H :    0.207823
  30 H :    0.174997
  31 H :    0.102176
  32 H :    0.102805
  33 H :    0.123483
  34 H :    0.119908
  35 H :    0.106158
  36 H :    0.110378
  37 H :    0.112367
  38 H :    0.114713
  39 H :    0.147725
  40 H :    0.123305
Sum of atomic charges:    0.0000000

LOEWDIN ATOMIC CHARGES
----------------------
   0 C :   -0.364314
   1 C :   -0.118737
   2 O :   -0.250396
   3 P :    0.558569
   4 S :   -0.283652
   5 O :   -0.233150
   6 C :   -0.112445
   7 C :   -0.360042
   8 S :    0.056993
   9 C :   -0.480562
  10 S :    0.065103
  11 P :    0.571726
  12 S :   -0.287823
  13 O :   -0.249112
  14 C :   -0.120402
  15 C :   -0.367563
  16 O :   -0.226418
  17 C :   -0.105958
  18 C :   -0.372682
  19 H :    0.125989
  20 H :    0.126924
  21 H :    0.125347
  22 H :    0.116554
  23 H :    0.101522
  24 H :    0.123530
  25 H :    0.104145
  26 H :    0.129198
  27 H :    0.126483
  28 H :    0.130229
  29 H :    0.125201
  30 H :    0.133408
  31 H :    0.117079
  32 H :    0.100583
  33 H :    0.120324
  34 H :    0.129076
  35 H :    0.127614
  36 H :    0.114561
  37 H :    0.124430
  38 H :    0.132411
  39 H :    0.130839
  40 H :    0.115420

  Mayer bond orders larger than 0.100000
B(  0-C ,  1-C ) :   1.1738 B(  0-C , 19-H ) :   0.9435 B(  0-C , 20-H ) :   0.9374
B(  0-C , 21-H ) :   0.9195 B(  1-C ,  2-O ) :   0.9016 B(  1-C , 22-H ) :   0.9357
B(  1-C , 23-H ) :   0.9028 B(  2-O ,  3-P ) :   1.0707 B(  3-P ,  4-S ) :   1.6717
B(  3-P ,  5-O ) :   1.1463 B(  3-P ,  8-S ) :   0.9341 B(  4-S ,  8-S ) :   0.1153
B(  5-O ,  6-C ) :   0.8940 B(  6-C ,  7-C ) :   1.1643 B(  6-C , 24-H ) :   0.9359
B(  6-C , 25-H ) :   0.9154 B(  7-C , 26-H ) :   0.9394 B(  7-C , 27-H ) :   0.9405
B(  7-C , 28-H ) :   0.9465 B(  8-S ,  9-C ) :   1.0060 B(  9-C , 10-S ) :   0.9864
B(  9-C , 29-H ) :   0.8456 B(  9-C , 30-H ) :   0.9097 B( 10-S , 11-P ) :   0.9274
B( 10-S , 12-S ) :   0.1190 B( 11-P , 12-S ) :   1.6447 B( 11-P , 13-O ) :   1.0643
B( 11-P , 16-O ) :   1.1399 B( 12-S , 29-H ) :   0.1093 B( 13-O , 14-C ) :   0.9188
B( 14-C , 15-C ) :   1.1647 B( 14-C , 31-H ) :   0.9345 B( 14-C , 32-H ) :   0.9140
B( 15-C , 33-H ) :   0.9314 B( 15-C , 34-H ) :   0.9467 B( 15-C , 35-H ) :   0.9372
B( 16-O , 17-C ) :   0.9018 B( 17-C , 18-C ) :   1.1695 B( 17-C , 36-H ) :   0.9281
B( 17-C , 37-H ) :   0.9326 B( 18-C , 38-H ) :   0.9343 B( 18-C , 39-H ) :   0.9280
B( 18-C , 40-H ) :   0.9335

Dispersion correction           -0.065883947
FINAL SINGLE POINT ENERGY     -2929.512249181435

DIPOLE MOMENT
-------------

Method             : SCF
Type of density    : Electron Density
Multiplicity       :   1
Irrep              :   0
Energy             : -2929.6313024074206623 Eh
Relativity type    :
Basis              : AO
                                X                 Y                 Z
Electronic contribution:     -0.887029494      13.297733014       6.833633525
Nuclear contribution   :      0.912256106     -15.396969842      -6.836354037
                        -----------------------------------------
Total Dipole Moment    :      0.025226612      -2.099236828      -0.002720512
                        -----------------------------------------
Magnitude (a.u.)       :      2.099390159
Magnitude (Debye)      :      5.336225708

Rotational constants in cm-1:             0.013522             0.004912             0.004408
Rotational constants in MHz :           405.387320           147.247031           132.153056

                             ****ORCA TERMINATED NORMALLY****
TOTAL RUN TIME: 0 days 0 hours 0 minutes 21 seconds 84 msec
