                         Program Version 6.0.0  -   RELEASE  -
|  1> ! r2scan-3c def2/J RI DEFGRID2 scfconv6 printgap
|  2> %output
|  3>     printlevel normal
|  4> end
|  5> * xyz 0 1
|  6> C -0.9783797877 0.7042457544 1.97035e-05
|  7> C -0.9777153642 -0.705106538 -0.0001197474
|  8> C 0.3306507984 -1.10652484 9.08499e-05
|  9> N 1.1156146505 0.00047409 -8.87795e-05
| 10> C 0.32969497 1.1068364162 3.48363e-05
| 11> H -1.842252464 1.3401948578 0.0001400303
| 12> H -1.8408330064 -1.3417723844 0.0001886171
| 13> H 0.7503456901 -2.0926536037 0.0004341704
| 14> H 2.1215304064 0.0008969653 -9.33976e-05
| 15> H 0.7485274458 2.0932904584 0.0002587344
| 16> *
| 17>
| 18>                          ****END OF INPUT****

CARTESIAN COORDINATES (ANGSTROEM)
---------------------------------
  C     -0.978380    0.704246    0.000020
  C     -0.977715   -0.705107   -0.000120
  C      0.330651   -1.106525    0.000091
  N      1.115615    0.000474   -0.000089
  C      0.329695    1.106836    0.000035
  H     -1.842252    1.340195    0.000140
  H     -1.840833   -1.341772    0.000189
  H      0.750346   -2.092654    0.000434
  H      2.121530    0.000897   -0.000093
  H      0.748527    2.093290    0.000259

 Total Charge           Charge          ....    0
 Multiplicity           Mult            ....    1
 Number of Electrons    NEL             ....   36
 Basis Dimension        Dim             ....  125

ORBITAL ENERGIES
----------------

  NO   OCC          E(Eh)            E(eV)
   0   2.0000     -14.205513      -386.5517
   1   2.0000     -10.044634      -273.3284
   2   2.0000     -10.044626      -273.3282
   3   2.0000     -10.009113      -272.3618
   4   2.0000     -10.008737      -272.3516
   5   2.0000      -0.948213       -25.8022
   6   2.0000      -0.740801       -20.1582
   7   2.0000      -0.687133       -18.6978
   8   2.0000      -0.559117       -15.2143
   9   2.0000      -0.532883       -14.5005
  10   2.0000      -0.512152       -13.9364
  11   2.0000      -0.399208       -10.8630
  12   2.0000      -0.389971       -10.6116
  13   2.0000      -0.380646       -10.3579
  14   2.0000      -0.354175        -9.6376
  15   2.0000      -0.339798        -9.2464
  16   2.0000      -0.223001        -6.0682
  17   2.0000      -0.191024        -5.1980
  18   0.0000       0.014405         0.3920
  19   0.0000       0.055849         1.5197
  20   0.0000       0.072192         1.9644
  21   0.0000       0.124291         3.3821
  22   0.0000       0.133608         3.6357

MULLIKEN ATOMIC CHARGES
-----------------------
   0 C :   -0.164656
   1 C :   -0.164681
   2 C :   -0.207527
   3 N :   -0.036669
   4 C :   -0.207576
   5 H :    0.141459
   6 H :    0.141426
   7 H :    0.131075
   8 H :    0.236077
   9 H :    0.131072
Sum of atomic charges:    0.0000000

LOEWDIN ATOMIC CHARGES
----------------------
   0 C :   -0.174374
   1 C :   -0.174363
   2 C :    0.023899
   3 N :   -0.673291
   4 C :    0.023897
   5 H :    0.166958
   6 H :    0.166924
   7 H :    0.182342
   8 H :    0.275674
   9 H :    0.182334

  Mayer bond orders larger than 0.100000
B(  0-C ,  1-C ) :   1.3037 B(  0-C ,  4-C ) :   1.5517 B(  0-C ,  5-H ) :   0.9393
B(  1-C ,  2-C ) :   1.5517 B(  1-C ,  6-H ) :   0.9393 B(  2-C ,  3-N ) :   1.2309
B(  2-C ,  4-C ) :   0.1163 B(  2-C ,  7-H ) :   0.9576 B(  3-N ,  4-C ) :   1.2309
B(  3-N ,  8-H ) :   0.9143 B(  4-C ,  9-H ) :   0.9576

Dispersion correction           -0.002316242
FINAL SINGLE POINT ENERGY      -210.111383642890

DIPOLE MOMENT
-------------

Method             : SCF
Type of density    : Electron Density
Multiplicity       :   1
Irrep              :   0
Energy             :  -210.1141710414210308 Eh
Relativity type    :
Basis              : AO
                                X                 Y                 Z
Electronic contribution:      0.801511127       0.000315780      -0.000505191
Nuclear contribution   :     -0.052662366      -0.000038393       0.000870281
                        -----------------------------------------
Total Dipole Moment    :      0.748848761       0.000277387       0.000365091
                        -----------------------------------------
Magnitude (a.u.)       :      0.748848902
Magnitude (Debye)      :      1.903422640

Rotational constants in cm-1:             0.313306             0.303541             0.154173
Rotational constants in MHz :          9392.670271          9099.916682          4621.988164

                             ****ORCA TERMINATED NORMALLY****
TOTAL RUN TIME: 0 days 0 hours 0 minutes 11 seconds 119 msec
