                         Program Version 6.0.0  -   RELEASE  -
|  1> ! r2scan-3c def2/J RI DEFGRID2 scfconv6 printgap
|  2> %output
|  3>     printlevel normal
|  4> end
|  5> %cpcm
|  6>     smd true
|  7>     smdsolvent "water"
|  8> end
|  9> * xyz 0 1
| 10> C -0.9783797877 0.7042457544 1.97035e-05
| 11> C -0.9777153642 -0.705106538 -0.0001197474
| 12> C 0.3306507984 -1.10652484 9.08499e-05
| 13> N 1.1156146505 0.00047409 -8.87795e-05
| 14> C 0.32969497 1.1068364162 3.48363e-05
| 15> H -1.842252464 1.3401948578 0.0001400303
| 16> H -1.8408330064 -1.3417723844 0.0001886171
| 17> H 0.7503456901 -2.0926536037 0.0004341704
| 18> H 2.1215304064 0.0008969653 -9.33976e-05
| 19> H 0.7485274458 2.0932904584 0.0002587344
| 20> *
| 21>
| 22>                          ****END OF INPUT****

CARTESIAN COORDINATES (ANGSTROEM)
---------------------------------
  C     -0.978380    0.704246    0.000020
  C     -0.977715   -0.705107   -0.000120
  C      0.330651   -1.106525    0.000091
  N      1.115615    0.000474   -0.000089
  C      0.329695    1.106836    0.000035
  H     -1.842252    1.340195    0.000140
  H     -1.840833   -1.341772    0.000189
  H      0.750346   -2.092654    0.000434
  H      2.121530    0.000897   -0.000093
  H      0.748527    2.093290    0.000259

 Total Charge           Charge          ....    0
 Multiplicity           Mult            ....    1
 Number of Electrons    NEL             ....   36
 Basis Dimension        Dim             ....  125

ORBITAL ENERGIES
----------------

  NO   OCC          E(Eh)            E(eV)
   0   2.0000     -14.201078      -386.4310
   1   2.0000     -10.044658      -273.3290
   2   2.0000     -10.044649      -273.3288
   3   2.0000     -10.010702      -272.4051
   4   2.0000     -10.010326      -272.3948
   5   2.0000      -0.946658       -25.7599
   6   2.0000      -0.741049       -20.1650
   7   2.0000      -0.687236       -18.7007
   8   2.0000      -0.554090       -15.0776
   9   2.0000      -0.532881       -14.5004
  10   2.0000      -0.509269       -13.8579
  11   2.0000      -0.396741       -10.7959
  12   2.0000      -0.385834       -10.4991
  13   2.0000      -0.383776       -10.4431
  14   2.0000      -0.354619        -9.6497
  15   2.0000      -0.340242        -9.2584
  16   2.0000      -0.228489        -6.2175
  17   2.0000      -0.196832        -5.3561
  18   0.0000       0.011555         0.3144
  19   0.0000       0.049433         1.3451
  20   0.0000       0.093921         2.5557
  21   0.0000       0.121000         3.2926
  22   0.0000       0.149501         4.0681

MULLIKEN ATOMIC CHARGES
-----------------------
   0 C :   -0.230051
   1 C :   -0.230047
   2 C :   -0.228561
   3 N :   -0.061434
   4 C :   -0.228610
   5 H :    0.170094
   6 H :    0.170051
   7 H :    0.169318
   8 H :    0.299928
   9 H :    0.169313
Sum of atomic charges:    0.0000000

LOEWDIN ATOMIC CHARGES
----------------------
   0 C :   -0.207316
   1 C :   -0.207298
   2 C :    0.017429
   3 N :   -0.655193
   4 C :    0.017424
   5 H :    0.174443
   6 H :    0.174403
   7 H :    0.195855
   8 H :    0.294407
   9 H :    0.195846

  Mayer bond orders larger than 0.100000
B(  0-C ,  1-C ) :   1.2467 B(  0-C ,  4-C ) :   1.5066 B(  0-C ,  5-H ) :   0.9518
B(  1-C ,  2-C ) :   1.5066 B(  1-C ,  6-H ) :   0.9519 B(  2-C ,  3-N ) :   1.2149
B(  2-C ,  4-C ) :   0.1111 B(  2-C ,  7-H ) :   0.9707 B(  3-N ,  4-C ) :   1.2149
B(  3-N ,  8-H ) :   0.8901 B(  4-C ,  9-H ) :   0.9707

Dispersion correction           -0.002316242
FINAL SINGLE POINT ENERGY      -210.118450017419

DIPOLE MOMENT
-------------

Method             : SCF
Type of density    : Electron Density
Multiplicity       :   1
Irrep              :   0
Energy             :  -210.1212374159497358 Eh
Relativity type    :
Basis              : AO
                                X                 Y                 Z
Electronic contribution:      1.137048903       0.000437006      -0.000360811
Nuclear contribution   :     -0.052662366      -0.000038393       0.000870281
                        -----------------------------------------
Total Dipole Moment    :      1.084386537       0.000398613       0.000509470
                        -----------------------------------------
Magnitude (a.u.)       :      1.084386730
Magnitude (Debye)      :      2.756292021

Rotational constants in cm-1:             0.313306             0.303541             0.154173
Rotational constants in MHz :          9392.670271          9099.916682          4621.988164

                             ****ORCA TERMINATED NORMALLY****
TOTAL RUN TIME: 0 days 0 hours 0 minutes 11 seconds 996 msec
