                         Program Version 6.0.0  -   RELEASE  -
|  1> ! pbe def2-sv(p) def2/J RI DEFGRID1 loosescf d4 GCP(DFT/SV(P)) printgap
|  2> %output
|  3>     printlevel normal
|  4> end
|  5> * xyz 0 1
|  6> C 4.7131205508 -0.7043703619 0.9953906181
|  7> C 4.2070971251 -1.6077052923 -0.1077810064
|  8> O 3.4064888915 -0.904669843 -1.087850866
|  9> P 2.1116708029 -0.0459002955 -0.8144880839
| 10> S 1.1229171463 0.1985480958 -2.4854485786
| 11> O 2.7074993579 1.2700921646 -0.1610597066
| 12> C 2.040027797 2.5405155998 -0.1064001751
| 13> C 3.0923350679 3.6259766293 -0.208319838
| 14> S 1.1039247773 -1.074628021 0.7599163339
| 15> C -0.1788880468 -1.8960838075 -0.2437649657
| 16> S -1.7949295069 -1.9721696833 0.5683997513
| 17> P -2.4359574049 0.0604366747 0.5187590028
| 18> S -1.097924638 1.456566804 0.1613376885
| 19> O -3.2217699304 0.2616804902 1.874615379
| 20> C -2.5776905787 0.7699846728 3.0560870442
| 21> C -1.6177939402 -0.2381304237 3.6570369662
| 22> O -3.7240581267 0.0440512909 -0.4038428999
| 23> C -3.7891496118 -0.5374840803 -1.7162605633
| 24> C -2.9732393941 0.2341341451 -2.735725539
| 25> H 5.3774224466 -1.2706835766 1.640852155
| 26> H 5.2517622618 0.1403266418 0.5744056009
| 27> H 3.8781059188 -0.3311565664 1.585785515
| 28> H 3.6049412236 -2.4211442835 0.3051881785
| 29> H 5.0241955178 -2.01609619 -0.7042154177
| 30> H 1.3174990497 2.6031881504 -0.9269492784
| 31> H 1.493329586 2.5959812395 0.8379824929
| 32> H 3.6183522074 3.5469891274 -1.1559688247
| 33> H 2.6074683125 4.5946011589 -0.1473501242
| 34> H 3.8067428346 3.5275192903 0.603641164
| 35> H 0.1059609997 -2.9339720928 -0.3966362832
| 36> H -0.2506503617 -1.3621564474 -1.1952951295
| 37> H -2.0542589802 1.6965275718 2.7969514017
| 38> H -3.4058826922 0.9896937953 3.7311570396
| 39> H -2.1195386778 -1.1902137999 3.8098034421
| 40> H -0.767108875 -0.39167875 2.9930160214
| 41> H -1.2548675151 0.1353009635 4.6091564297
| 42> H -3.4604721365 -1.5801271479 -1.6579797583
| 43> H -4.8528208977 -0.5030909879 -1.9587965839
| 44> H -3.2685063494 1.2804875555 -2.7397064164
| 45> H -1.9082679176 0.1838908711 -2.5091630037
| 46> H -3.1355446825 -0.1873889667 -3.7225060031
| 47> *
| 48>
| 49>                          ****END OF INPUT****

CARTESIAN COORDINATES (ANGSTROEM)
---------------------------------
  C      4.713121   -0.704370    0.995391
  C      4.207097   -1.607705   -0.107781
  O      3.406489   -0.904670   -1.087851
  P      2.111671   -0.045900   -0.814488
  S      1.122917    0.198548   -2.485449
  O      2.707499    1.270092   -0.161060
  C      2.040028    2.540516   -0.106400
  C      3.092335    3.625977   -0.208320
  S      1.103925   -1.074628    0.759916
  C     -0.178888   -1.896084   -0.243765
  S     -1.794930   -1.972170    0.568400
  P     -2.435957    0.060437    0.518759
  S     -1.097925    1.456567    0.161338
  O     -3.221770    0.261680    1.874615
  C     -2.577691    0.769985    3.056087
  C     -1.617794   -0.238130    3.657037
  O     -3.724058    0.044051   -0.403843
  C     -3.789150   -0.537484   -1.716261
  C     -2.973239    0.234134   -2.735726
  H      5.377422   -1.270684    1.640852
  H      5.251762    0.140327    0.574406
  H      3.878106   -0.331157    1.585786
  H      3.604941   -2.421144    0.305188
  H      5.024196   -2.016096   -0.704215
  H      1.317499    2.603188   -0.926949
  H      1.493330    2.595981    0.837982
  H      3.618352    3.546989   -1.155969
  H      2.607468    4.594601   -0.147350
  H      3.806743    3.527519    0.603641
  H      0.105961   -2.933972   -0.396636
  H     -0.250650   -1.362156   -1.195295
  H     -2.054259    1.696528    2.796951
  H     -3.405883    0.989694    3.731157
  H     -2.119539   -1.190214    3.809803
  H     -0.767109   -0.391679    2.993016
  H     -1.254868    0.135301    4.609156
  H     -3.460472   -1.580127   -1.657980
  H     -4.852821   -0.503091   -1.958797
  H     -3.268506    1.280488   -2.739706
  H     -1.908268    0.183891   -2.509163
  H     -3.135545   -0.187389   -3.722506

 Total Charge           Charge          ....    0
 Multiplicity           Mult            ....    1
 Number of Electrons    NEL             ....  202
 Basis Dimension        Dim             ....  334

ORBITAL ENERGIES
----------------

  NO   OCC          E(Eh)            E(eV)
   0   2.0000     -88.048948     -2395.9337
   1   2.0000     -88.042564     -2395.7600
   2   2.0000     -87.984616     -2394.1831
   3   2.0000     -87.983048     -2394.1405
   4   2.0000     -76.425544     -2079.6448
   5   2.0000     -76.425269     -2079.6373
   6   2.0000     -18.792852      -511.3795
   7   2.0000     -18.788151      -511.2516
   8   2.0000     -18.786550      -511.2080
   9   2.0000     -18.786248      -511.1998
  10   2.0000      -9.956952      -270.9424
  11   2.0000      -9.956194      -270.9218
  12   2.0000      -9.950810      -270.7753
  13   2.0000      -9.948691      -270.7176
  14   2.0000      -9.947148      -270.6757
  15   2.0000      -9.889134      -269.0970
  16   2.0000      -9.884094      -268.9599
  17   2.0000      -9.880716      -268.8679
  18   2.0000      -9.875568      -268.7279
  19   2.0000      -7.693554      -209.3522
  20   2.0000      -7.686826      -209.1692
  21   2.0000      -7.629215      -207.6015
  22   2.0000      -7.628153      -207.5726
  23   2.0000      -6.422899      -174.7760
  24   2.0000      -6.422379      -174.7618
  25   2.0000      -5.721368      -155.6863
  26   2.0000      -5.717890      -155.5917
  27   2.0000      -5.714661      -155.5038
  28   2.0000      -5.711522      -155.4184
  29   2.0000      -5.710825      -155.3995
  30   2.0000      -5.703769      -155.2075
  31   2.0000      -5.658088      -153.9644
  32   2.0000      -5.657134      -153.9384
  33   2.0000      -5.649835      -153.7398
  34   2.0000      -5.649489      -153.7304
  35   2.0000      -5.648947      -153.7157
  36   2.0000      -5.647997      -153.6898
  37   2.0000      -4.645577      -126.4126
  38   2.0000      -4.644677      -126.3881
  39   2.0000      -4.644662      -126.3877
  40   2.0000      -4.644610      -126.3863
  41   2.0000      -4.643292      -126.3504
  42   2.0000      -4.642687      -126.3339
  43   2.0000      -0.985950       -26.8291
  44   2.0000      -0.985397       -26.8140
  45   2.0000      -0.943648       -25.6780
  46   2.0000      -0.941701       -25.6250
  47   2.0000      -0.761551       -20.7229
  48   2.0000      -0.720949       -19.6180
  49   2.0000      -0.710384       -19.3305
  50   2.0000      -0.691715       -18.8225
  51   2.0000      -0.678887       -18.4735
  52   2.0000      -0.676882       -18.4189
  53   2.0000      -0.650803       -17.7092
  54   2.0000      -0.635943       -17.3049
  55   2.0000      -0.598359       -16.2822
  56   2.0000      -0.592337       -16.1183
  57   2.0000      -0.572183       -15.5699
  58   2.0000      -0.567473       -15.4417
  59   2.0000      -0.560087       -15.2407
  60   2.0000      -0.504193       -13.7198
  61   2.0000      -0.493477       -13.4282
  62   2.0000      -0.476927       -12.9778
  63   2.0000      -0.465785       -12.6746
  64   2.0000      -0.452799       -12.3213
  65   2.0000      -0.450618       -12.2619
  66   2.0000      -0.435004       -11.8371
  67   2.0000      -0.431565       -11.7435
  68   2.0000      -0.422889       -11.5074
  69   2.0000      -0.418860       -11.3978
  70   2.0000      -0.410828       -11.1792
  71   2.0000      -0.405076       -11.0227
  72   2.0000      -0.404448       -11.0056
  73   2.0000      -0.383121       -10.4253
  74   2.0000      -0.378972       -10.3124
  75   2.0000      -0.367778       -10.0078
  76   2.0000      -0.365140        -9.9360
  77   2.0000      -0.356261        -9.6944
  78   2.0000      -0.351930        -9.5765
  79   2.0000      -0.350019        -9.5245
  80   2.0000      -0.347931        -9.4677
  81   2.0000      -0.343252        -9.3404
  82   2.0000      -0.338227        -9.2036
  83   2.0000      -0.337834        -9.1929
  84   2.0000      -0.333135        -9.0651
  85   2.0000      -0.311755        -8.4833
  86   2.0000      -0.310745        -8.4558
  87   2.0000      -0.296484        -8.0677
  88   2.0000      -0.293763        -7.9937
  89   2.0000      -0.290124        -7.8947
  90   2.0000      -0.285391        -7.7659
  91   2.0000      -0.272858        -7.4248
  92   2.0000      -0.268519        -7.3068
  93   2.0000      -0.260361        -7.0848
  94   2.0000      -0.259003        -7.0478
  95   2.0000      -0.239035        -6.5045
  96   2.0000      -0.225351        -6.1321
  97   2.0000      -0.212652        -5.7865
  98   2.0000      -0.202496        -5.5102
  99   2.0000      -0.189764        -5.1637
 100   2.0000      -0.187801        -5.1103
 101   0.0000      -0.047499        -1.2925
 102   0.0000      -0.035107        -0.9553
 103   0.0000      -0.017788        -0.4840
 104   0.0000       0.002016         0.0549
 105   0.0000       0.019423         0.5285

MULLIKEN ATOMIC CHARGES
-----------------------
   0 C :   -0.308743
   1 C :   -0.001763
   2 O :   -0.360613
   3 P :    0.619458
   4 S :   -0.301569
   5 O :   -0.376898
   6 C :   -0.033933
   7 C :   -0.272087
   8 S :   -0.118347
   9 C :   -0.332854
  10 S :   -0.119205
  11 P :    0.603676
  12 S :   -0.327109
  13 O :   -0.354375
  14 C :   -0.000790
  15 C :   -0.325821
  16 O :   -0.351255
  17 C :   -0.010810
  18 C :   -0.329220
  19 H :    0.113435
  20 H :    0.123618
  21 H :    0.120554
  22 H :    0.106042
  23 H :    0.110366
  24 H :    0.124471
  25 H :    0.112793
  26 H :    0.117908
  27 H :    0.112812
  28 H :    0.111355
  29 H :    0.179611
  30 H :    0.198879
  31 H :    0.108581
  32 H :    0.105533
  33 H :    0.116469
  34 H :    0.135984
  35 H :    0.109118
  36 H :    0.105078
  37 H :    0.107134
  38 H :    0.120006
  39 H :    0.154434
  40 H :    0.108075
Sum of atomic charges:   -0.0000000

LOEWDIN ATOMIC CHARGES
----------------------
   0 C :   -0.365661
   1 C :   -0.115980
   2 O :   -0.240297
   3 P :    0.574578
   4 S :   -0.292610
   5 O :   -0.238334
   6 C :   -0.123108
   7 C :   -0.351143
   8 S :    0.065658
   9 C :   -0.479716
  10 S :    0.083148
  11 P :    0.564601
  12 S :   -0.299301
  13 O :   -0.233960
  14 C :   -0.119270
  15 C :   -0.371704
  16 O :   -0.232037
  17 C :   -0.119403
  18 C :   -0.370019
  19 H :    0.131184
  20 H :    0.129224
  21 H :    0.118413
  22 H :    0.106507
  23 H :    0.122389
  24 H :    0.109271
  25 H :    0.110486
  26 H :    0.128057
  27 H :    0.131518
  28 H :    0.124085
  29 H :    0.135251
  30 H :    0.119990
  31 H :    0.108128
  32 H :    0.118841
  33 H :    0.124357
  34 H :    0.115297
  35 H :    0.129242
  36 H :    0.101748
  37 H :    0.120348
  38 H :    0.129490
  39 H :    0.121752
  40 H :    0.128981

  Mayer bond orders larger than 0.100000
B(  0-C ,  1-C ) :   1.1705 B(  0-C , 19-H ) :   0.9358 B(  0-C , 20-H ) :   0.9438
B(  0-C , 21-H ) :   0.9382 B(  1-C ,  2-O ) :   0.9072 B(  1-C , 22-H ) :   0.9180
B(  1-C , 23-H ) :   0.9334 B(  2-O ,  3-P ) :   1.1381 B(  3-P ,  4-S ) :   1.6233
B(  3-P ,  5-O ) :   1.1085 B(  3-P ,  8-S ) :   0.9342 B(  4-S ,  8-S ) :   0.1142
B(  4-S , 30-H ) :   0.1185 B(  5-O ,  6-C ) :   0.8972 B(  6-C ,  7-C ) :   1.1532
B(  6-C , 24-H ) :   0.9071 B(  6-C , 25-H ) :   0.9276 B(  7-C , 26-H ) :   0.9494
B(  7-C , 27-H ) :   0.9421 B(  7-C , 28-H ) :   0.9506 B(  8-S ,  9-C ) :   0.9941
B(  9-C , 10-S ) :   0.9994 B(  9-C , 29-H ) :   0.9090 B(  9-C , 30-H ) :   0.8476
B( 10-S , 11-P ) :   0.9276 B( 10-S , 12-S ) :   0.1252 B( 11-P , 12-S ) :   1.6328
B( 11-P , 13-O ) :   1.1323 B( 11-P , 16-O ) :   1.1323 B( 13-O , 14-C ) :   0.9124
B( 14-C , 15-C ) :   1.1631 B( 14-C , 31-H ) :   0.9121 B( 14-C , 32-H ) :   0.9340
B( 15-C , 33-H ) :   0.9445 B( 15-C , 34-H ) :   0.9296 B( 15-C , 35-H ) :   0.9382
B( 16-O , 17-C ) :   0.9225 B( 17-C , 18-C ) :   1.1579 B( 17-C , 36-H ) :   0.9154
B( 17-C , 37-H ) :   0.9342 B( 18-C , 38-H ) :   0.9442 B( 18-C , 39-H ) :   0.9243
B( 18-C , 40-H ) :   0.9370

Dispersion correction           -0.065937971
FINAL SINGLE POINT ENERGY     -2929.513973726575

DIPOLE MOMENT
-------------

Method             : SCF
Type of density    : Electron Density
Multiplicity       :   1
Irrep              :   0
Energy             : -2929.6321623638800702 Eh
Relativity type    :
Basis              : AO
                                X                 Y                 Z
Electronic contribution:     -8.803290090      -7.134000089      -5.351046551
Nuclear contribution   :      9.310535746       6.704633998       6.275665357
                        -----------------------------------------
Total Dipole Moment    :      0.507245656      -0.429366091       0.924618806
                        -----------------------------------------
Magnitude (a.u.)       :      1.138671741
Magnitude (Debye)      :      2.894273553

Rotational constants in cm-1:             0.011219             0.005220             0.005002
Rotational constants in MHz :           336.349558           156.492138           149.960667

                             ****ORCA TERMINATED NORMALLY****
TOTAL RUN TIME: 0 days 0 hours 0 minutes 20 seconds 963 msec
