                         Program Version 6.0.0  -   RELEASE  -
|  1> ! r2scan-3c def2/J RI DEFGRID2 scfconv6 printgap
|  2> %output
|  3>     printlevel normal
|  4> end
|  5> * xyz 0 1
|  6> C 5.7608497813 -0.9985445585 -0.398742125
|  7> C 4.9361362686 -0.3589729465 -1.4961129369
|  8> O 3.5431043671 -0.7271198153 -1.4154200184
|  9> P 2.6075550443 -0.2462588739 -0.2322696805
| 10> S 2.939735054 1.5692456543 0.4384684174
| 11> O 2.8177477003 -1.4034220925 0.8396037295
| 12> C 2.4450301656 -1.2648320555 2.2199700228
| 13> C 0.9600975715 -1.4833400981 2.4267550748
| 14> S 0.7482937727 -0.6469457422 -1.1661566049
| 15> C 0.0816834726 1.0438342653 -1.1870873798
| 16> S -0.7897697561 1.4911165995 0.339033062
| 17> P -2.4768379472 0.266319428 -0.0004484569
| 18> S -3.1344006513 0.1476145903 -1.8482130575
| 19> O -3.545458369 0.7484180735 1.0709649133
| 20> C -4.5067617735 1.7815299672 0.7936807078
| 21> C -3.855026736 3.1398531006 0.6329656617
| 22> O -1.9575236279 -1.083745525 0.6426681829
| 23> C -2.5227717001 -2.3646380124 0.3004825705
| 24> C -3.9365119629 -2.5111683175 0.8226542599
| 25> H 5.4752435478 -0.5876079027 0.5684437793
| 26> H 5.5996495768 -2.0732459861 -0.3865431346
| 27> H 6.8121416336 -0.7915837538 -0.5731105456
| 28> H 5.2381970347 -0.7066917703 -2.4848312293
| 29> H 5.0074658921 0.7322011208 -1.4462863874
| 30> H 3.0343197597 -2.0265927566 2.7328518569
| 31> H 2.7430186837 -0.268838349 2.5649420202
| 32> H 0.7406699419 -1.4884476961 3.4895338789
| 33> H 0.3872337573 -0.6856819484 1.9563084267
| 34> H 0.6579018752 -2.4321221892 1.9909166712
| 35> H -0.6161589236 1.0929161103 -2.0227650367
| 36> H 0.8935663576 1.7598893826 -1.3003359447
| 37> H -5.0547163758 1.5093681165 -0.1142591117
| 38> H -5.1756417362 1.7546565152 1.6548958763
| 39> H -3.2199688389 3.3581069593 1.4879565099
| 40> H -3.2438269308 3.1560969074 -0.2685946406
| 41> H -4.6242293341 3.9009794866 0.550020853
| 42> H -2.4948808448 -2.4757155419 -0.7882785285
| 43> H -1.8434692209 -3.0829832683 0.7607069008
| 44> H -4.5937474471 -1.808814994 0.3113764263
| 45> H -4.287164079 -3.5214781683 0.6366975872
| 46> H -3.9648218552 -2.3062296584 1.8895143617
| 47> *
| 48>
| 49>                          ****END OF INPUT****

CARTESIAN COORDINATES (ANGSTROEM)
---------------------------------
  C      5.760850   -0.998545   -0.398742
  C      4.936136   -0.358973   -1.496113
  O      3.543104   -0.727120   -1.415420
  P      2.607555   -0.246259   -0.232270
  S      2.939735    1.569246    0.438468
  O      2.817748   -1.403422    0.839604
  C      2.445030   -1.264832    2.219970
  C      0.960098   -1.483340    2.426755
  S      0.748294   -0.646946   -1.166157
  C      0.081683    1.043834   -1.187087
  S     -0.789770    1.491117    0.339033
  P     -2.476838    0.266319   -0.000448
  S     -3.134401    0.147615   -1.848213
  O     -3.545458    0.748418    1.070965
  C     -4.506762    1.781530    0.793681
  C     -3.855027    3.139853    0.632966
  O     -1.957524   -1.083746    0.642668
  C     -2.522772   -2.364638    0.300483
  C     -3.936512   -2.511168    0.822654
  H      5.475244   -0.587608    0.568444
  H      5.599650   -2.073246   -0.386543
  H      6.812142   -0.791584   -0.573111
  H      5.238197   -0.706692   -2.484831
  H      5.007466    0.732201   -1.446286
  H      3.034320   -2.026593    2.732852
  H      2.743019   -0.268838    2.564942
  H      0.740670   -1.488448    3.489534
  H      0.387234   -0.685682    1.956308
  H      0.657902   -2.432122    1.990917
  H     -0.616159    1.092916   -2.022765
  H      0.893566    1.759889   -1.300336
  H     -5.054716    1.509368   -0.114259
  H     -5.175642    1.754657    1.654896
  H     -3.219969    3.358107    1.487957
  H     -3.243827    3.156097   -0.268595
  H     -4.624229    3.900979    0.550021
  H     -2.494881   -2.475716   -0.788279
  H     -1.843469   -3.082983    0.760707
  H     -4.593747   -1.808815    0.311376
  H     -4.287164   -3.521478    0.636698
  H     -3.964822   -2.306230    1.889514

 Total Charge           Charge          ....    0
 Multiplicity           Mult            ....    1
 Number of Electrons    NEL             ....  202
 Basis Dimension        Dim             ....  539

ORBITAL ENERGIES
----------------

  NO   OCC          E(Eh)            E(eV)
   0   2.0000     -88.574057     -2410.2226
   1   2.0000     -88.572290     -2410.1745
   2   2.0000     -88.524410     -2408.8717
   3   2.0000     -88.522982     -2408.8328
   4   2.0000     -76.914163     -2092.9408
   5   2.0000     -76.913643     -2092.9266
   6   2.0000     -18.995025      -516.8809
   7   2.0000     -18.990933      -516.7695
   8   2.0000     -18.989860      -516.7404
   9   2.0000     -18.987870      -516.6862
  10   2.0000     -10.102658      -274.9073
  11   2.0000     -10.100449      -274.8472
  12   2.0000     -10.097368      -274.7634
  13   2.0000     -10.097195      -274.7586
  14   2.0000     -10.095479      -274.7119
  15   2.0000     -10.029367      -272.9130
  16   2.0000     -10.029356      -272.9127
  17   2.0000     -10.028677      -272.8942
  18   2.0000     -10.022268      -272.7198
  19   2.0000      -7.868282      -214.1068
  20   2.0000      -7.866495      -214.0582
  21   2.0000      -7.819152      -212.7699
  22   2.0000      -7.817726      -212.7311
  23   2.0000      -6.592905      -179.4021
  24   2.0000      -6.592243      -179.3840
  25   2.0000      -5.815130      -158.2377
  26   2.0000      -5.813450      -158.1920
  27   2.0000      -5.812181      -158.1575
  28   2.0000      -5.810516      -158.1122
  29   2.0000      -5.805404      -157.9731
  30   2.0000      -5.803373      -157.9178
  31   2.0000      -5.766749      -156.9212
  32   2.0000      -5.765255      -156.8806
  33   2.0000      -5.759496      -156.7239
  34   2.0000      -5.759141      -156.7142
  35   2.0000      -5.758032      -156.6840
  36   2.0000      -5.757828      -156.6785
  37   2.0000      -4.738295      -128.9356
  38   2.0000      -4.737763      -128.9211
  39   2.0000      -4.737434      -128.9121
  40   2.0000      -4.737106      -128.9032
  41   2.0000      -4.736768      -128.8940
  42   2.0000      -4.736313      -128.8816
  43   2.0000      -1.051616       -28.6159
  44   2.0000      -1.048451       -28.5298
  45   2.0000      -1.012965       -27.5642
  46   2.0000      -1.009549       -27.4712
  47   2.0000      -0.799209       -21.7476
  48   2.0000      -0.758440       -20.6382
  49   2.0000      -0.747291       -20.3348
  50   2.0000      -0.732292       -19.9267
  51   2.0000      -0.729395       -19.8478
  52   2.0000      -0.710752       -19.3406
  53   2.0000      -0.686963       -18.6932
  54   2.0000      -0.669509       -18.2183
  55   2.0000      -0.636696       -17.3254
  56   2.0000      -0.627582       -17.0774
  57   2.0000      -0.606712       -16.5095
  58   2.0000      -0.603140       -16.4123
  59   2.0000      -0.587532       -15.9876
  60   2.0000      -0.520915       -14.1748
  61   2.0000      -0.516312       -14.0496
  62   2.0000      -0.494831       -13.4650
  63   2.0000      -0.491784       -13.3821
  64   2.0000      -0.476004       -12.9527
  65   2.0000      -0.461108       -12.5474
  66   2.0000      -0.459489       -12.5033
  67   2.0000      -0.455378       -12.3915
  68   2.0000      -0.446453       -12.1486
  69   2.0000      -0.432189       -11.7605
  70   2.0000      -0.420137       -11.4325
  71   2.0000      -0.412205       -11.2167
  72   2.0000      -0.410207       -11.1623
  73   2.0000      -0.407313       -11.0835
  74   2.0000      -0.402165       -10.9435
  75   2.0000      -0.392750       -10.6873
  76   2.0000      -0.381428       -10.3792
  77   2.0000      -0.372492       -10.1360
  78   2.0000      -0.369921       -10.0661
  79   2.0000      -0.365711        -9.9515
  80   2.0000      -0.362968        -9.8769
  81   2.0000      -0.359640        -9.7863
  82   2.0000      -0.355603        -9.6765
  83   2.0000      -0.352258        -9.5854
  84   2.0000      -0.347560        -9.4576
  85   2.0000      -0.333196        -9.0667
  86   2.0000      -0.322889        -8.7863
  87   2.0000      -0.311665        -8.4808
  88   2.0000      -0.307512        -8.3678
  89   2.0000      -0.300226        -8.1696
  90   2.0000      -0.298764        -8.1298
  91   2.0000      -0.289992        -7.8911
  92   2.0000      -0.287263        -7.8168
  93   2.0000      -0.280643        -7.6367
  94   2.0000      -0.275562        -7.4984
  95   2.0000      -0.242525        -6.5994
  96   2.0000      -0.231629        -6.3030
  97   2.0000      -0.227342        -6.1863
  98   2.0000      -0.220956        -6.0125
  99   2.0000      -0.218348        -5.9415
 100   2.0000      -0.215300        -5.8586
 101   0.0000      -0.044742        -1.2175
 102   0.0000      -0.028978        -0.7885
 103   0.0000      -0.005724        -0.1558
 104   0.0000       0.003349         0.0911
 105   0.0000       0.016971         0.4618

MULLIKEN ATOMIC CHARGES
-----------------------
   0 C :   -0.434762
   1 C :   -0.156456
   2 O :   -0.293288
   3 P :    0.667568
   4 S :   -0.479212
   5 O :   -0.276966
   6 C :   -0.154472
   7 C :   -0.439544
   8 S :   -0.103954
   9 C :   -0.245727
  10 S :   -0.103944
  11 P :    0.685621
  12 S :   -0.486901
  13 O :   -0.306077
  14 C :   -0.150993
  15 C :   -0.452841
  16 O :   -0.276155
  17 C :   -0.149991
  18 C :   -0.442465
  19 H :    0.164893
  20 H :    0.156638
  21 H :    0.146926
  22 H :    0.150000
  23 H :    0.169773
  24 H :    0.145969
  25 H :    0.169848
  26 H :    0.144602
  27 H :    0.184285
  28 H :    0.145192
  29 H :    0.217383
  30 H :    0.206741
  31 H :    0.171069
  32 H :    0.148729
  33 H :    0.157248
  34 H :    0.177711
  35 H :    0.148254
  36 H :    0.173415
  37 H :    0.150994
  38 H :    0.166815
  39 H :    0.147330
  40 H :    0.156744
Sum of atomic charges:   -0.0000000

LOEWDIN ATOMIC CHARGES
----------------------
   0 C :   -0.399634
   1 C :    0.023207
   2 O :   -0.667972
   3 P :    0.387598
   4 S :   -0.126370
   5 O :   -0.664928
   6 C :    0.019258
   7 C :   -0.403933
   8 S :    0.185855
   9 C :   -0.421048
  10 S :    0.163250
  11 P :    0.376106
  12 S :   -0.136339
  13 O :   -0.660110
  14 C :    0.020449
  15 C :   -0.406404
  16 O :   -0.678228
  17 C :    0.019192
  18 C :   -0.398836
  19 H :    0.164072
  20 H :    0.161753
  21 H :    0.159147
  22 H :    0.180512
  23 H :    0.179059
  24 H :    0.177881
  25 H :    0.180260
  26 H :    0.158551
  27 H :    0.172615
  28 H :    0.158515
  29 H :    0.192244
  30 H :    0.192379
  31 H :    0.179391
  32 H :    0.179788
  33 H :    0.161019
  34 H :    0.166024
  35 H :    0.159643
  36 H :    0.181064
  37 H :    0.179846
  38 H :    0.164539
  39 H :    0.159493
  40 H :    0.161092

  Mayer bond orders larger than 0.100000
B(  0-C ,  1-C ) :   0.9279 B(  0-C , 19-H ) :   0.9602 B(  0-C , 20-H ) :   0.9706
B(  0-C , 21-H ) :   0.9615 B(  1-C ,  2-O ) :   0.8132 B(  1-C , 22-H ) :   0.9608
B(  1-C , 23-H ) :   0.9663 B(  2-O ,  3-P ) :   1.1859 B(  3-P ,  4-S ) :   1.7320
B(  3-P ,  5-O ) :   1.0699 B(  3-P ,  8-S ) :   1.0915 B(  5-O ,  6-C ) :   0.7933
B(  6-C ,  7-C ) :   0.9432 B(  6-C , 24-H ) :   0.9623 B(  6-C , 25-H ) :   0.9604
B(  7-C , 26-H ) :   0.9622 B(  7-C , 27-H ) :   0.9499 B(  7-C , 28-H ) :   0.9702
B(  8-S ,  9-C ) :   0.9000 B(  9-C , 10-S ) :   0.9159 B(  9-C , 29-H ) :   0.9060
B(  9-C , 30-H ) :   0.9057 B( 10-S , 11-P ) :   1.0961 B( 11-P , 12-S ) :   1.7465
B( 11-P , 13-O ) :   1.0643 B( 11-P , 16-O ) :   1.1391 B( 13-O , 14-C ) :   0.8136
B( 14-C , 15-C ) :   0.9229 B( 14-C , 31-H ) :   0.9664 B( 14-C , 32-H ) :   0.9583
B( 15-C , 33-H ) :   0.9684 B( 15-C , 34-H ) :   0.9616 B( 15-C , 35-H ) :   0.9583
B( 16-O , 17-C ) :   0.7885 B( 17-C , 18-C ) :   0.9214 B( 17-C , 36-H ) :   0.9627
B( 17-C , 37-H ) :   0.9630 B( 18-C , 38-H ) :   0.9601 B( 18-C , 39-H ) :   0.9621
B( 18-C , 40-H ) :   0.9726

Dispersion correction           -0.021311594
FINAL SINGLE POINT ENERGY     -2932.464850830027

DIPOLE MOMENT
-------------

Method             : SCF
Type of density    : Electron Density
Multiplicity       :   1
Irrep              :   0
Energy             : -2932.4900382774044374 Eh
Relativity type    :
Basis              : AO
                                X                 Y                 Z
Electronic contribution:      2.417147824       6.078287371      -9.992981771
Nuclear contribution   :     -2.470096129      -6.688106752      10.805655717
                        -----------------------------------------
Total Dipole Moment    :     -0.052948305      -0.609819381       0.812673946
                        -----------------------------------------
Magnitude (a.u.)       :      1.017409526
Magnitude (Debye)      :      2.586049498

Rotational constants in cm-1:             0.014522             0.004285             0.004062
Rotational constants in MHz :           435.352616           128.475484           121.784139

                             ****ORCA TERMINATED NORMALLY****
TOTAL RUN TIME: 0 days 0 hours 1 minutes 16 seconds 875 msec
