                         Program Version 6.0.0  -   RELEASE  -
|  1> ! r2scan-3c def2/J RI DEFGRID2 scfconv6 printgap
|  2> %output
|  3>     printlevel normal
|  4> end
|  5> %cpcm
|  6>     smd true
|  7>     smdsolvent "water"
|  8> end
|  9> * xyz 0 1
| 10> C 5.7608497813 -0.9985445585 -0.398742125
| 11> C 4.9361362686 -0.3589729465 -1.4961129369
| 12> O 3.5431043671 -0.7271198153 -1.4154200184
| 13> P 2.6075550443 -0.2462588739 -0.2322696805
| 14> S 2.939735054 1.5692456543 0.4384684174
| 15> O 2.8177477003 -1.4034220925 0.8396037295
| 16> C 2.4450301656 -1.2648320555 2.2199700228
| 17> C 0.9600975715 -1.4833400981 2.4267550748
| 18> S 0.7482937727 -0.6469457422 -1.1661566049
| 19> C 0.0816834726 1.0438342653 -1.1870873798
| 20> S -0.7897697561 1.4911165995 0.339033062
| 21> P -2.4768379472 0.266319428 -0.0004484569
| 22> S -3.1344006513 0.1476145903 -1.8482130575
| 23> O -3.545458369 0.7484180735 1.0709649133
| 24> C -4.5067617735 1.7815299672 0.7936807078
| 25> C -3.855026736 3.1398531006 0.6329656617
| 26> O -1.9575236279 -1.083745525 0.6426681829
| 27> C -2.5227717001 -2.3646380124 0.3004825705
| 28> C -3.9365119629 -2.5111683175 0.8226542599
| 29> H 5.4752435478 -0.5876079027 0.5684437793
| 30> H 5.5996495768 -2.0732459861 -0.3865431346
| 31> H 6.8121416336 -0.7915837538 -0.5731105456
| 32> H 5.2381970347 -0.7066917703 -2.4848312293
| 33> H 5.0074658921 0.7322011208 -1.4462863874
| 34> H 3.0343197597 -2.0265927566 2.7328518569
| 35> H 2.7430186837 -0.268838349 2.5649420202
| 36> H 0.7406699419 -1.4884476961 3.4895338789
| 37> H 0.3872337573 -0.6856819484 1.9563084267
| 38> H 0.6579018752 -2.4321221892 1.9909166712
| 39> H -0.6161589236 1.0929161103 -2.0227650367
| 40> H 0.8935663576 1.7598893826 -1.3003359447
| 41> H -5.0547163758 1.5093681165 -0.1142591117
| 42> H -5.1756417362 1.7546565152 1.6548958763
| 43> H -3.2199688389 3.3581069593 1.4879565099
| 44> H -3.2438269308 3.1560969074 -0.2685946406
| 45> H -4.6242293341 3.9009794866 0.550020853
| 46> H -2.4948808448 -2.4757155419 -0.7882785285
| 47> H -1.8434692209 -3.0829832683 0.7607069008
| 48> H -4.5937474471 -1.808814994 0.3113764263
| 49> H -4.287164079 -3.5214781683 0.6366975872
| 50> H -3.9648218552 -2.3062296584 1.8895143617
| 51> *
| 52>
| 53>                          ****END OF INPUT****

CARTESIAN COORDINATES (ANGSTROEM)
---------------------------------
  C      5.760850   -0.998545   -0.398742
  C      4.936136   -0.358973   -1.496113
  O      3.543104   -0.727120   -1.415420
  P      2.607555   -0.246259   -0.232270
  S      2.939735    1.569246    0.438468
  O      2.817748   -1.403422    0.839604
  C      2.445030   -1.264832    2.219970
  C      0.960098   -1.483340    2.426755
  S      0.748294   -0.646946   -1.166157
  C      0.081683    1.043834   -1.187087
  S     -0.789770    1.491117    0.339033
  P     -2.476838    0.266319   -0.000448
  S     -3.134401    0.147615   -1.848213
  O     -3.545458    0.748418    1.070965
  C     -4.506762    1.781530    0.793681
  C     -3.855027    3.139853    0.632966
  O     -1.957524   -1.083746    0.642668
  C     -2.522772   -2.364638    0.300483
  C     -3.936512   -2.511168    0.822654
  H      5.475244   -0.587608    0.568444
  H      5.599650   -2.073246   -0.386543
  H      6.812142   -0.791584   -0.573111
  H      5.238197   -0.706692   -2.484831
  H      5.007466    0.732201   -1.446286
  H      3.034320   -2.026593    2.732852
  H      2.743019   -0.268838    2.564942
  H      0.740670   -1.488448    3.489534
  H      0.387234   -0.685682    1.956308
  H      0.657902   -2.432122    1.990917
  H     -0.616159    1.092916   -2.022765
  H      0.893566    1.759889   -1.300336
  H     -5.054716    1.509368   -0.114259
  H     -5.175642    1.754657    1.654896
  H     -3.219969    3.358107    1.487957
  H     -3.243827    3.156097   -0.268595
  H     -4.624229    3.900979    0.550021
  H     -2.494881   -2.475716   -0.788279
  H     -1.843469   -3.082983    0.760707
  H     -4.593747   -1.808815    0.311376
  H     -4.287164   -3.521478    0.636698
  H     -3.964822   -2.306230    1.889514

 Total Charge           Charge          ....    0
 Multiplicity           Mult            ....    1
 Number of Electrons    NEL             ....  202
 Basis Dimension        Dim             ....  539

ORBITAL ENERGIES
----------------

  NO   OCC          E(Eh)            E(eV)
   0   2.0000     -88.579157     -2410.3614
   1   2.0000     -88.578909     -2410.3546
   2   2.0000     -88.532047     -2409.0795
   3   2.0000     -88.529766     -2409.0174
   4   2.0000     -76.920050     -2093.1010
   5   2.0000     -76.919177     -2093.0772
   6   2.0000     -18.996915      -516.9323
   7   2.0000     -18.994971      -516.8794
   8   2.0000     -18.992974      -516.8251
   9   2.0000     -18.992953      -516.8245
  10   2.0000     -10.105006      -274.9712
  11   2.0000     -10.090412      -274.5741
  12   2.0000     -10.089610      -274.5522
  13   2.0000     -10.089108      -274.5386
  14   2.0000     -10.088861      -274.5319
  15   2.0000     -10.018935      -272.6291
  16   2.0000     -10.018729      -272.6235
  17   2.0000     -10.018704      -272.6228
  18   2.0000     -10.016159      -272.5535
  19   2.0000      -7.873449      -214.2474
  20   2.0000      -7.873195      -214.2405
  21   2.0000      -7.827014      -212.9839
  22   2.0000      -7.824773      -212.9229
  23   2.0000      -6.598707      -179.5600
  24   2.0000      -6.597952      -179.5394
  25   2.0000      -5.820278      -158.3778
  26   2.0000      -5.820108      -158.3732
  27   2.0000      -5.817345      -158.2980
  28   2.0000      -5.817169      -158.2932
  29   2.0000      -5.810593      -158.1143
  30   2.0000      -5.810162      -158.1025
  31   2.0000      -5.774581      -157.1343
  32   2.0000      -5.772258      -157.0711
  33   2.0000      -5.767341      -156.9373
  34   2.0000      -5.767008      -156.9283
  35   2.0000      -5.765065      -156.8754
  36   2.0000      -5.764884      -156.8705
  37   2.0000      -4.743880      -129.0875
  38   2.0000      -4.743556      -129.0787
  39   2.0000      -4.743288      -129.0714
  40   2.0000      -4.742826      -129.0589
  41   2.0000      -4.742812      -129.0585
  42   2.0000      -4.741892      -129.0334
  43   2.0000      -1.053719       -28.6731
  44   2.0000      -1.052686       -28.6450
  45   2.0000      -1.014429       -27.6040
  46   2.0000      -1.013157       -27.5694
  47   2.0000      -0.803400       -21.8616
  48   2.0000      -0.757019       -20.5995
  49   2.0000      -0.742640       -20.2083
  50   2.0000      -0.723923       -19.6989
  51   2.0000      -0.723347       -19.6833
  52   2.0000      -0.710637       -19.3374
  53   2.0000      -0.690864       -18.7994
  54   2.0000      -0.676252       -18.4017
  55   2.0000      -0.636324       -17.3153
  56   2.0000      -0.625045       -17.0084
  57   2.0000      -0.599950       -16.3255
  58   2.0000      -0.598669       -16.2906
  59   2.0000      -0.588392       -16.0110
  60   2.0000      -0.518311       -14.1040
  61   2.0000      -0.513641       -13.9769
  62   2.0000      -0.492757       -13.4086
  63   2.0000      -0.489521       -13.3205
  64   2.0000      -0.476906       -12.9773
  65   2.0000      -0.458974       -12.4893
  66   2.0000      -0.455183       -12.3862
  67   2.0000      -0.453009       -12.3270
  68   2.0000      -0.444211       -12.0876
  69   2.0000      -0.429653       -11.6914
  70   2.0000      -0.418814       -11.3965
  71   2.0000      -0.408455       -11.1146
  72   2.0000      -0.407452       -11.0873
  73   2.0000      -0.405642       -11.0381
  74   2.0000      -0.402438       -10.9509
  75   2.0000      -0.392185       -10.6719
  76   2.0000      -0.381300       -10.3757
  77   2.0000      -0.367184        -9.9916
  78   2.0000      -0.365979        -9.9588
  79   2.0000      -0.363414        -9.8890
  80   2.0000      -0.354657        -9.6507
  81   2.0000      -0.352558        -9.5936
  82   2.0000      -0.349463        -9.5094
  83   2.0000      -0.347501        -9.4560
  84   2.0000      -0.344775        -9.3818
  85   2.0000      -0.331008        -9.0072
  86   2.0000      -0.321996        -8.7619
  87   2.0000      -0.306743        -8.3469
  88   2.0000      -0.304779        -8.2935
  89   2.0000      -0.300738        -8.1835
  90   2.0000      -0.297264        -8.0890
  91   2.0000      -0.289340        -7.8733
  92   2.0000      -0.288226        -7.8430
  93   2.0000      -0.280708        -7.6384
  94   2.0000      -0.277965        -7.5638
  95   2.0000      -0.247441        -6.7332
  96   2.0000      -0.239208        -6.5092
  97   2.0000      -0.234900        -6.3920
  98   2.0000      -0.228849        -6.2273
  99   2.0000      -0.226191        -6.1550
 100   2.0000      -0.222159        -6.0453
 101   0.0000      -0.051749        -1.4082
 102   0.0000      -0.036079        -0.9818
 103   0.0000      -0.010325        -0.2810
 104   0.0000      -0.002075        -0.0565
 105   0.0000       0.013263         0.3609

MULLIKEN ATOMIC CHARGES
-----------------------
   0 C :   -0.474985
   1 C :   -0.152242
   2 O :   -0.328018
   3 P :    0.704433
   4 S :   -0.514810
   5 O :   -0.301513
   6 C :   -0.147378
   7 C :   -0.483866
   8 S :   -0.129683
   9 C :   -0.253865
  10 S :   -0.118276
  11 P :    0.722486
  12 S :   -0.531062
  13 O :   -0.330276
  14 C :   -0.151866
  15 C :   -0.488348
  16 O :   -0.303085
  17 C :   -0.148371
  18 C :   -0.483780
  19 H :    0.167543
  20 H :    0.169122
  21 H :    0.172278
  22 H :    0.175206
  23 H :    0.176028
  24 H :    0.174328
  25 H :    0.173182
  26 H :    0.170861
  27 H :    0.169159
  28 H :    0.168214
  29 H :    0.234586
  30 H :    0.226599
  31 H :    0.178182
  32 H :    0.176071
  33 H :    0.170021
  34 H :    0.172816
  35 H :    0.173313
  36 H :    0.176780
  37 H :    0.179346
  38 H :    0.168254
  39 H :    0.172239
  40 H :    0.170378
Sum of atomic charges:   -0.0000000

LOEWDIN ATOMIC CHARGES
----------------------
   0 C :   -0.402645
   1 C :    0.027927
   2 O :   -0.685636
   3 P :    0.392082
   4 S :   -0.147692
   5 O :   -0.675596
   6 C :    0.025489
   7 C :   -0.408796
   8 S :    0.171486
   9 C :   -0.415246
  10 S :    0.155009
  11 P :    0.381296
  12 S :   -0.162591
  13 O :   -0.670583
  14 C :    0.026401
  15 C :   -0.409589
  16 O :   -0.691975
  17 C :    0.023177
  18 C :   -0.402022
  19 H :    0.162698
  20 H :    0.164420
  21 H :    0.168837
  22 H :    0.190991
  23 H :    0.181576
  24 H :    0.190054
  25 H :    0.181715
  26 H :    0.168049
  27 H :    0.164650
  28 H :    0.164005
  29 H :    0.197193
  30 H :    0.198908
  31 H :    0.181760
  32 H :    0.191408
  33 H :    0.163854
  34 H :    0.161657
  35 H :    0.168788
  36 H :    0.182025
  37 H :    0.190967
  38 H :    0.162710
  39 H :    0.168826
  40 H :    0.164417

  Mayer bond orders larger than 0.100000
B(  0-C ,  1-C ) :   0.9153 B(  0-C , 19-H ) :   0.9588 B(  0-C , 20-H ) :   0.9699
B(  0-C , 21-H ) :   0.9553 B(  1-C ,  2-O ) :   0.8018 B(  1-C , 22-H ) :   0.9512
B(  1-C , 23-H ) :   0.9615 B(  2-O ,  3-P ) :   1.1875 B(  3-P ,  4-S ) :   1.7073
B(  3-P ,  5-O ) :   1.0772 B(  3-P ,  8-S ) :   1.0924 B(  5-O ,  6-C ) :   0.7822
B(  6-C ,  7-C ) :   0.9295 B(  6-C , 24-H ) :   0.9529 B(  6-C , 25-H ) :   0.9583
B(  7-C , 26-H ) :   0.9560 B(  7-C , 27-H ) :   0.9549 B(  7-C , 28-H ) :   0.9670
B(  8-S ,  9-C ) :   0.8922 B(  9-C , 10-S ) :   0.9098 B(  9-C , 29-H ) :   0.9022
B(  9-C , 30-H ) :   0.9005 B( 10-S , 11-P ) :   1.1034 B( 11-P , 12-S ) :   1.7065
B( 11-P , 13-O ) :   1.0742 B( 11-P , 16-O ) :   1.1472 B( 13-O , 14-C ) :   0.8015
B( 14-C , 15-C ) :   0.9089 B( 14-C , 31-H ) :   0.9652 B( 14-C , 32-H ) :   0.9485
B( 15-C , 33-H ) :   0.9657 B( 15-C , 34-H ) :   0.9630 B( 15-C , 35-H ) :   0.9530
B( 16-O , 17-C ) :   0.7757 B( 17-C , 18-C ) :   0.9108 B( 17-C , 36-H ) :   0.9586
B( 17-C , 37-H ) :   0.9526 B( 18-C , 38-H ) :   0.9591 B( 18-C , 39-H ) :   0.9560
B( 18-C , 40-H ) :   0.9715

Dispersion correction           -0.021311594
FINAL SINGLE POINT ENERGY     -2932.472029750068

DIPOLE MOMENT
-------------

Method             : SCF
Type of density    : Electron Density
Multiplicity       :   1
Irrep              :   0
Energy             : -2932.4972171974454795 Eh
Relativity type    :
Basis              : AO
                                X                 Y                 Z
Electronic contribution:      2.431794281       5.924869351      -9.733383676
Nuclear contribution   :     -2.470096129      -6.688106752      10.805655717
                        -----------------------------------------
Total Dipole Moment    :     -0.038301848      -0.763237402       1.072272041
                        -----------------------------------------
Magnitude (a.u.)       :      1.316725367
Magnitude (Debye)      :      3.346849905

Rotational constants in cm-1:             0.014522             0.004285             0.004062
Rotational constants in MHz :           435.352616           128.475484           121.784139

                             ****ORCA TERMINATED NORMALLY****
TOTAL RUN TIME: 0 days 0 hours 1 minutes 46 seconds 514 msec
