                         Program Version 6.0.0  -   RELEASE  -
|  1> ! pbe def2-sv(p) def2/J RI DEFGRID1 loosescf d4 GCP(DFT/SV(P)) printgap
|  2> %output
|  3>     printlevel normal
|  4> end
|  5> * xyz 0 1
|  6> C 5.2622165356 0.1141858949 -1.1003736822
|  7> C 4.4688887868 1.2766892389 -0.5381223733
|  8> O 3.457856092 0.8260581366 0.3835511717
|  9> P 1.9864652018 0.4584101105 -0.0774255879
| 10> S 1.1209571146 1.7566788461 -1.2644040258
| 11> O 1.2209355006 0.3391101488 1.2967430331
| 12> C 1.7779677114 -0.1380450755 2.549771493
| 13> C 2.3054509825 -1.5539436694 2.4650281942
| 14> S 2.1276136061 -1.4859775948 -0.9316182191
| 15> C 0.3842005912 -1.6806784996 -1.3401566346
| 16> S -0.6624943369 -1.9431714466 0.1356786485
| 17> P -2.0747116251 -0.404726909 -0.0761188477
| 18> S -2.2847500985 0.3506240655 -1.877497232
| 19> O -1.8198568285 0.6667013902 1.077585637
| 20> C -1.5962957869 2.0699003632 0.8784614788
| 21> C -2.7398072275 2.8567806421 1.4870115573
| 22> O -3.2611173267 -1.270947307 0.52807329
| 23> C -4.4764337198 -0.7074240427 1.0591224904
| 24> C -5.3810207601 -0.1703116829 -0.0321239598
| 25> H 4.6206252729 -0.5367693078 -1.6901921224
| 26> H 6.0540790624 0.500817144 -1.7338638931
| 27> H 5.7004927733 -0.4652303705 -0.2929036838
| 28> H 3.9866339046 1.8537165209 -1.333834154
| 29> H 5.1011589934 1.9369906832 0.0582199181
| 30> H 2.5641983156 0.5567020082 2.8503899278
| 31> H 0.9313961786 -0.0674902799 3.2351100264
| 32> H 3.1620774501 -1.6012060406 1.7964207461
| 33> H 2.6130537572 -1.870763841 3.4568472657
| 34> H 1.5333243292 -2.2274232153 2.0991574819
| 35> H 0.3153703226 -2.5679814438 -1.9640715251
| 36> H 0.02258654 -0.7967597013 -1.8750523806
| 37> H -0.6442723934 2.3003754428 1.3614275699
| 38> H -1.5056166916 2.2723558702 -0.1944016169
| 39> H -3.6671664957 2.6378660948 0.9623046499
| 40> H -2.8528801142 2.6013527354 2.5370682946
| 41> H -2.5247650864 3.9165032192 1.3959383175
| 42> H -4.9394717001 -1.5459978703 1.5821935111
| 43> H -4.2153184283 0.0758541268 1.7756322093
| 44> H -4.8971204343 0.6526983383 -0.5562811992
| 45> H -5.6009652318 -0.9510316236 -0.755765121
| 46> H -6.3076531639 0.1838581217 0.4085939125
| 47> *
| 48>
| 49>                          ****END OF INPUT****

CARTESIAN COORDINATES (ANGSTROEM)
---------------------------------
  C      5.262217    0.114186   -1.100374
  C      4.468889    1.276689   -0.538122
  O      3.457856    0.826058    0.383551
  P      1.986465    0.458410   -0.077426
  S      1.120957    1.756679   -1.264404
  O      1.220936    0.339110    1.296743
  C      1.777968   -0.138045    2.549771
  C      2.305451   -1.553944    2.465028
  S      2.127614   -1.485978   -0.931618
  C      0.384201   -1.680678   -1.340157
  S     -0.662494   -1.943171    0.135679
  P     -2.074712   -0.404727   -0.076119
  S     -2.284750    0.350624   -1.877497
  O     -1.819857    0.666701    1.077586
  C     -1.596296    2.069900    0.878461
  C     -2.739807    2.856781    1.487012
  O     -3.261117   -1.270947    0.528073
  C     -4.476434   -0.707424    1.059122
  C     -5.381021   -0.170312   -0.032124
  H      4.620625   -0.536769   -1.690192
  H      6.054079    0.500817   -1.733864
  H      5.700493   -0.465230   -0.292904
  H      3.986634    1.853717   -1.333834
  H      5.101159    1.936991    0.058220
  H      2.564198    0.556702    2.850390
  H      0.931396   -0.067490    3.235110
  H      3.162077   -1.601206    1.796421
  H      2.613054   -1.870764    3.456847
  H      1.533324   -2.227423    2.099157
  H      0.315370   -2.567981   -1.964072
  H      0.022587   -0.796760   -1.875052
  H     -0.644272    2.300375    1.361428
  H     -1.505617    2.272356   -0.194402
  H     -3.667166    2.637866    0.962305
  H     -2.852880    2.601353    2.537068
  H     -2.524765    3.916503    1.395938
  H     -4.939472   -1.545998    1.582194
  H     -4.215318    0.075854    1.775632
  H     -4.897120    0.652698   -0.556281
  H     -5.600965   -0.951032   -0.755765
  H     -6.307653    0.183858    0.408594

 Total Charge           Charge          ....    0
 Multiplicity           Mult            ....    1
 Number of Electrons    NEL             ....  202
 Basis Dimension        Dim             ....  334

ORBITAL ENERGIES
----------------

  NO   OCC          E(Eh)            E(eV)
   0   2.0000     -88.042784     -2395.7660
   1   2.0000     -88.035772     -2395.5751
   2   2.0000     -87.980236     -2394.0639
   3   2.0000     -87.980062     -2394.0592
   4   2.0000     -76.427410     -2079.6955
   5   2.0000     -76.419961     -2079.4929
   6   2.0000     -18.801441      -511.6132
   7   2.0000     -18.792452      -511.3686
   8   2.0000     -18.785657      -511.1837
   9   2.0000     -18.783635      -511.1287
  10   2.0000      -9.958162      -270.9754
  11   2.0000      -9.957117      -270.9469
  12   2.0000      -9.951888      -270.8046
  13   2.0000      -9.950558      -270.7685
  14   2.0000      -9.935209      -270.3508
  15   2.0000      -9.890457      -269.1330
  16   2.0000      -9.885510      -268.9984
  17   2.0000      -9.880366      -268.8584
  18   2.0000      -9.880215      -268.8543
  19   2.0000      -7.687762      -209.1947
  20   2.0000      -7.681140      -209.0145
  21   2.0000      -7.625309      -207.4952
  22   2.0000      -7.624940      -207.4852
  23   2.0000      -6.424725      -174.8257
  24   2.0000      -6.417525      -174.6297
  25   2.0000      -5.715575      -155.5287
  26   2.0000      -5.712249      -155.4382
  27   2.0000      -5.709124      -155.3532
  28   2.0000      -5.705683      -155.2595
  29   2.0000      -5.704819      -155.2360
  30   2.0000      -5.697853      -155.0465
  31   2.0000      -5.654211      -153.8589
  32   2.0000      -5.653819      -153.8482
  33   2.0000      -5.646139      -153.6392
  34   2.0000      -5.645874      -153.6320
  35   2.0000      -5.645221      -153.6143
  36   2.0000      -5.644816      -153.6032
  37   2.0000      -4.647911      -126.4761
  38   2.0000      -4.646347      -126.4335
  39   2.0000      -4.644745      -126.3899
  40   2.0000      -4.640194      -126.2661
  41   2.0000      -4.638861      -126.2298
  42   2.0000      -4.638326      -126.2153
  43   2.0000      -0.992570       -27.0092
  44   2.0000      -0.979328       -26.6489
  45   2.0000      -0.947974       -25.7957
  46   2.0000      -0.935653       -25.4604
  47   2.0000      -0.760294       -20.6886
  48   2.0000      -0.722029       -19.6474
  49   2.0000      -0.709510       -19.3067
  50   2.0000      -0.694523       -18.8989
  51   2.0000      -0.681707       -18.5502
  52   2.0000      -0.673012       -18.3136
  53   2.0000      -0.649048       -17.6615
  54   2.0000      -0.629821       -17.1383
  55   2.0000      -0.599666       -16.3177
  56   2.0000      -0.588418       -16.0117
  57   2.0000      -0.580168       -15.7872
  58   2.0000      -0.569066       -15.4851
  59   2.0000      -0.555486       -15.1156
  60   2.0000      -0.502042       -13.6613
  61   2.0000      -0.492034       -13.3889
  62   2.0000      -0.475566       -12.9408
  63   2.0000      -0.469680       -12.7806
  64   2.0000      -0.454952       -12.3799
  65   2.0000      -0.448436       -12.2026
  66   2.0000      -0.442074       -12.0294
  67   2.0000      -0.431834       -11.7508
  68   2.0000      -0.424491       -11.5510
  69   2.0000      -0.416067       -11.3217
  70   2.0000      -0.405622       -11.0375
  71   2.0000      -0.400164       -10.8890
  72   2.0000      -0.391749       -10.6600
  73   2.0000      -0.385992       -10.5034
  74   2.0000      -0.380231       -10.3466
  75   2.0000      -0.369416       -10.0523
  76   2.0000      -0.367666       -10.0047
  77   2.0000      -0.359977        -9.7955
  78   2.0000      -0.352973        -9.6049
  79   2.0000      -0.346579        -9.4309
  80   2.0000      -0.344957        -9.3868
  81   2.0000      -0.344000        -9.3607
  82   2.0000      -0.337287        -9.1780
  83   2.0000      -0.335183        -9.1208
  84   2.0000      -0.333858        -9.0847
  85   2.0000      -0.323904        -8.8139
  86   2.0000      -0.309023        -8.4089
  87   2.0000      -0.298119        -8.1122
  88   2.0000      -0.296446        -8.0667
  89   2.0000      -0.287088        -7.8120
  90   2.0000      -0.282160        -7.6780
  91   2.0000      -0.277017        -7.5380
  92   2.0000      -0.269161        -7.3243
  93   2.0000      -0.261803        -7.1240
  94   2.0000      -0.255380        -6.9493
  95   2.0000      -0.232123        -6.3164
  96   2.0000      -0.216026        -5.8784
  97   2.0000      -0.213688        -5.8147
  98   2.0000      -0.198207        -5.3935
  99   2.0000      -0.189126        -5.1464
 100   2.0000      -0.184960        -5.0330
 101   0.0000      -0.039244        -1.0679
 102   0.0000      -0.027958        -0.7608
 103   0.0000      -0.010161        -0.2765
 104   0.0000       0.008376         0.2279
 105   0.0000       0.022512         0.6126

MULLIKEN ATOMIC CHARGES
-----------------------
   0 C :   -0.313925
   1 C :   -0.007122
   2 O :   -0.380369
   3 P :    0.602775
   4 S :   -0.302253
   5 O :   -0.357610
   6 C :    0.012201
   7 C :   -0.327137
   8 S :   -0.109049
   9 C :   -0.362721
  10 S :   -0.093524
  11 P :    0.639047
  12 S :   -0.316316
  13 O :   -0.380247
  14 C :   -0.025189
  15 C :   -0.291629
  16 O :   -0.377771
  17 C :   -0.015184
  18 C :   -0.314959
  19 H :    0.132897
  20 H :    0.116187
  21 H :    0.116841
  22 H :    0.109793
  23 H :    0.107986
  24 H :    0.107897
  25 H :    0.109340
  26 H :    0.121833
  27 H :    0.111360
  28 H :    0.134957
  29 H :    0.185419
  30 H :    0.215306
  31 H :    0.104879
  32 H :    0.133042
  33 H :    0.112459
  34 H :    0.109609
  35 H :    0.112688
  36 H :    0.106462
  37 H :    0.108092
  38 H :    0.135365
  39 H :    0.121491
  40 H :    0.107077
Sum of atomic charges:    0.0000000

LOEWDIN ATOMIC CHARGES
----------------------
   0 C :   -0.366192
   1 C :   -0.117811
   2 O :   -0.245043
   3 P :    0.564898
   4 S :   -0.294764
   5 O :   -0.233098
   6 C :   -0.106111
   7 C :   -0.373293
   8 S :    0.078089
   9 C :   -0.481711
  10 S :    0.087783
  11 P :    0.566293
  12 S :   -0.298566
  13 O :   -0.243412
  14 C :   -0.127850
  15 C :   -0.358151
  16 O :   -0.248899
  17 C :   -0.114533
  18 C :   -0.367028
  19 H :    0.120499
  20 H :    0.133407
  21 H :    0.125548
  22 H :    0.110792
  23 H :    0.119975
  24 H :    0.114027
  25 H :    0.122456
  26 H :    0.116890
  27 H :    0.130532
  28 H :    0.122878
  29 H :    0.138537
  30 H :    0.125423
  31 H :    0.110925
  32 H :    0.106241
  33 H :    0.120894
  34 H :    0.120840
  35 H :    0.131308
  36 H :    0.119905
  37 H :    0.109326
  38 H :    0.120986
  39 H :    0.130152
  40 H :    0.127859

  Mayer bond orders larger than 0.100000
B(  0-C ,  1-C ) :   1.1672 B(  0-C , 19-H ) :   0.9318 B(  0-C , 20-H ) :   0.9391
B(  0-C , 21-H ) :   0.9477 B(  1-C ,  2-O ) :   0.9031 B(  1-C , 22-H ) :   0.9058
B(  1-C , 23-H ) :   0.9341 B(  2-O ,  3-P ) :   1.0814 B(  3-P ,  4-S ) :   1.6622
B(  3-P ,  5-O ) :   1.1301 B(  3-P ,  8-S ) :   0.9431 B(  4-S ,  8-S ) :   0.1047
B(  5-O ,  6-C ) :   0.8889 B(  6-C ,  7-C ) :   1.1723 B(  6-C , 24-H ) :   0.9303
B(  6-C , 25-H ) :   0.9326 B(  7-C , 26-H ) :   0.9383 B(  7-C , 27-H ) :   0.9342
B(  7-C , 28-H ) :   0.9347 B(  8-S ,  9-C ) :   1.0028 B(  9-C , 10-S ) :   0.9972
B(  9-C , 29-H ) :   0.9113 B(  9-C , 30-H ) :   0.8414 B( 10-S , 11-P ) :   0.9681
B( 10-S , 12-S ) :   0.1142 B( 11-P , 12-S ) :   1.6270 B( 11-P , 13-O ) :   1.0984
B( 11-P , 16-O ) :   1.1072 B( 13-O , 14-C ) :   0.9049 B( 14-C , 15-C ) :   1.1535
B( 14-C , 31-H ) :   0.9270 B( 14-C , 32-H ) :   0.8971 B( 15-C , 33-H ) :   0.9416
B( 15-C , 34-H ) :   0.9465 B( 15-C , 35-H ) :   0.9414 B( 16-O , 17-C ) :   0.9173
B( 17-C , 18-C ) :   1.1636 B( 17-C , 36-H ) :   0.9355 B( 17-C , 37-H ) :   0.9215
B( 18-C , 38-H ) :   0.9303 B( 18-C , 39-H ) :   0.9450 B( 18-C , 40-H ) :   0.9380

Dispersion correction           -0.067574874
FINAL SINGLE POINT ENERGY     -2929.515777590556

DIPOLE MOMENT
-------------

Method             : SCF
Type of density    : Electron Density
Multiplicity       :   1
Irrep              :   0
Energy             : -2929.6348079215963480 Eh
Relativity type    :
Basis              : AO
                                X                 Y                 Z
Electronic contribution:      1.167923148      -6.499770828     -11.139245327
Nuclear contribution   :     -0.452043148       6.432996800      12.611418518
                        -----------------------------------------
Total Dipole Moment    :      0.715880000      -0.066774028       1.472173191
                        -----------------------------------------
Magnitude (a.u.)       :      1.638364077
Magnitude (Debye)      :      4.164390534

Rotational constants in cm-1:             0.013915             0.005057             0.004897
Rotational constants in MHz :           417.169233           151.598417           146.804214

                             ****ORCA TERMINATED NORMALLY****
TOTAL RUN TIME: 0 days 0 hours 0 minutes 21 seconds 723 msec
