                         Program Version 6.0.0  -   RELEASE  -
|  1> ! pbe def2-sv(p) def2/J RI DEFGRID1 loosescf d4 GCP(DFT/SV(P)) printgap
|  2> %output
|  3>     printlevel normal
|  4> end
|  5> * xyz 0 1
|  6> C 1.077370749 -1.6028060537 -2.2473542975
|  7> C 2.4596361962 -1.0239388956 -2.0208187192
|  8> O 2.455211485 0.0197154334 -1.0191672224
|  9> P 2.5186516716 -0.1610340601 0.5481277992
| 10> S 3.0029829651 1.5554351262 1.3565615509
| 11> O 3.5297405676 -1.3795443739 0.6796537665
| 12> C 3.6971717729 -2.1969396398 1.854670716
| 13> C 4.0219566136 -1.3864173489 3.0913662823
| 14> S 0.6850485624 -0.9812787574 1.2619851333
| 15> C -0.1828722187 0.5908695598 1.4353380802
| 16> S -0.4357111674 1.4505191957 -0.1502073632
| 17> P -2.2228138089 0.4942782175 -0.7430675208
| 18> S -2.9272855011 1.0455895809 -2.4871560416
| 19> O -3.2618477316 0.6635806951 0.4625568336
| 20> C -4.2056716681 1.7443412006 0.4972670562
| 21> C -3.5326406056 3.0683410152 0.7985335574
| 22> O -1.7707160053 -1.0080788129 -0.5382646974
| 23> C -2.6796190046 -2.1325970687 -0.5546139738
| 24> C -2.9326353692 -2.6188424478 -1.9673189861
| 25> H 0.7333866704 -2.1406744873 -1.3667958606
| 26> H 0.3670635885 -0.8078810666 -2.4710896214
| 27> H 1.1161178267 -2.2866524044 -3.0898692672
| 28> H 2.8246237069 -0.5140049812 -2.9141569256
| 29> H 3.168245093 -1.797127165 -1.7191163722
| 30> H 2.780801922 -2.7751960312 2.0003923288
| 31> H 4.5196287926 -2.8626601465 1.5867940026
| 32> H 4.2222120238 -2.0581453659 3.919802511
| 33> H 4.8929302064 -0.7593371667 2.9163689928
| 34> H 3.1834762516 -0.741665098 3.3497399797
| 35> H 0.4233780707 1.2641678622 2.0418914948
| 36> H -1.1430350963 0.3805787524 1.8991270593
| 37> H -4.71856501 1.7877286302 -0.4690213642
| 38> H -4.9091506406 1.4604454547 1.2812274525
| 39> H -4.2860128185 3.8452183073 0.8793860156
| 40> H -2.9736751509 3.0119868861 1.7292091192
| 41> H -2.8462955517 3.3264338156 -0.0079843691
| 42> H -2.1661865077 -2.88829682 0.0431635562
| 43> H -3.6108693102 -1.8438479454 -0.0624466069
| 44> H -3.4186509375 -1.8420627008 -2.5542254664
| 45> H -1.9941745352 -2.880081739 -2.4484913478
| 46> H -3.5754851312 -3.4927779091 -1.9345414422
| 47> *
| 48>
| 49>                          ****END OF INPUT****

CARTESIAN COORDINATES (ANGSTROEM)
---------------------------------
  C      1.077371   -1.602806   -2.247354
  C      2.459636   -1.023939   -2.020819
  O      2.455211    0.019715   -1.019167
  P      2.518652   -0.161034    0.548128
  S      3.002983    1.555435    1.356562
  O      3.529741   -1.379544    0.679654
  C      3.697172   -2.196940    1.854671
  C      4.021957   -1.386417    3.091366
  S      0.685049   -0.981279    1.261985
  C     -0.182872    0.590870    1.435338
  S     -0.435711    1.450519   -0.150207
  P     -2.222814    0.494278   -0.743068
  S     -2.927286    1.045590   -2.487156
  O     -3.261848    0.663581    0.462557
  C     -4.205672    1.744341    0.497267
  C     -3.532641    3.068341    0.798534
  O     -1.770716   -1.008079   -0.538265
  C     -2.679619   -2.132597   -0.554614
  C     -2.932635   -2.618842   -1.967319
  H      0.733387   -2.140674   -1.366796
  H      0.367064   -0.807881   -2.471090
  H      1.116118   -2.286652   -3.089869
  H      2.824624   -0.514005   -2.914157
  H      3.168245   -1.797127   -1.719116
  H      2.780802   -2.775196    2.000392
  H      4.519629   -2.862660    1.586794
  H      4.222212   -2.058145    3.919803
  H      4.892930   -0.759337    2.916369
  H      3.183476   -0.741665    3.349740
  H      0.423378    1.264168    2.041891
  H     -1.143035    0.380579    1.899127
  H     -4.718565    1.787729   -0.469021
  H     -4.909151    1.460445    1.281227
  H     -4.286013    3.845218    0.879386
  H     -2.973675    3.011987    1.729209
  H     -2.846296    3.326434   -0.007984
  H     -2.166187   -2.888297    0.043164
  H     -3.610869   -1.843848   -0.062447
  H     -3.418651   -1.842063   -2.554225
  H     -1.994175   -2.880082   -2.448491
  H     -3.575485   -3.492778   -1.934541

 Total Charge           Charge          ....    0
 Multiplicity           Mult            ....    1
 Number of Electrons    NEL             ....  202
 Basis Dimension        Dim             ....  334

ORBITAL ENERGIES
----------------

  NO   OCC          E(Eh)            E(eV)
   0   2.0000     -88.043808     -2395.7938
   1   2.0000     -88.042645     -2395.7622
   2   2.0000     -87.988863     -2394.2987
   3   2.0000     -87.981153     -2394.0889
   4   2.0000     -76.428219     -2079.7176
   5   2.0000     -76.427003     -2079.6845
   6   2.0000     -18.798516      -511.5336
   7   2.0000     -18.797156      -511.4966
   8   2.0000     -18.794363      -511.4206
   9   2.0000     -18.786304      -511.2013
  10   2.0000      -9.962266      -271.0870
  11   2.0000      -9.959192      -271.0034
  12   2.0000      -9.956758      -270.9372
  13   2.0000      -9.953779      -270.8561
  14   2.0000      -9.950269      -270.7606
  15   2.0000      -9.885255      -268.9915
  16   2.0000      -9.885146      -268.9885
  17   2.0000      -9.884963      -268.9835
  18   2.0000      -9.878689      -268.8128
  19   2.0000      -7.688624      -209.2181
  20   2.0000      -7.687518      -209.1880
  21   2.0000      -7.633901      -207.7290
  22   2.0000      -7.626507      -207.5278
  23   2.0000      -6.425668      -174.8513
  24   2.0000      -6.423870      -174.8024
  25   2.0000      -5.716302      -155.5485
  26   2.0000      -5.715751      -155.5335
  27   2.0000      -5.713211      -155.4644
  28   2.0000      -5.711885      -155.4283
  29   2.0000      -5.705752      -155.2614
  30   2.0000      -5.704305      -155.2220
  31   2.0000      -5.662837      -154.0936
  32   2.0000      -5.655549      -153.8953
  33   2.0000      -5.654527      -153.8675
  34   2.0000      -5.654069      -153.8550
  35   2.0000      -5.647124      -153.6661
  36   2.0000      -5.646509      -153.6493
  37   2.0000      -4.648426      -126.4901
  38   2.0000      -4.647511      -126.4652
  39   2.0000      -4.646912      -126.4489
  40   2.0000      -4.645904      -126.4215
  41   2.0000      -4.645782      -126.4182
  42   2.0000      -4.643867      -126.3660
  43   2.0000      -0.991328       -26.9754
  44   2.0000      -0.988364       -26.8948
  45   2.0000      -0.948221       -25.8024
  46   2.0000      -0.942691       -25.6519
  47   2.0000      -0.765282       -20.8244
  48   2.0000      -0.723468       -19.6866
  49   2.0000      -0.710974       -19.3466
  50   2.0000      -0.690360       -18.7856
  51   2.0000      -0.689321       -18.7574
  52   2.0000      -0.676909       -18.4196
  53   2.0000      -0.654234       -17.8026
  54   2.0000      -0.637028       -17.3344
  55   2.0000      -0.595132       -16.1944
  56   2.0000      -0.590185       -16.0597
  57   2.0000      -0.580967       -15.8089
  58   2.0000      -0.577405       -15.7120
  59   2.0000      -0.563311       -15.3285
  60   2.0000      -0.504297       -13.7226
  61   2.0000      -0.500661       -13.6237
  62   2.0000      -0.473714       -12.8904
  63   2.0000      -0.471436       -12.8284
  64   2.0000      -0.466071       -12.6824
  65   2.0000      -0.445536       -12.1237
  66   2.0000      -0.440817       -11.9952
  67   2.0000      -0.435516       -11.8510
  68   2.0000      -0.431252       -11.7350
  69   2.0000      -0.420414       -11.4400
  70   2.0000      -0.414420       -11.2769
  71   2.0000      -0.406991       -11.0748
  72   2.0000      -0.398188       -10.8352
  73   2.0000      -0.388060       -10.5596
  74   2.0000      -0.382792       -10.4163
  75   2.0000      -0.368437       -10.0257
  76   2.0000      -0.360641        -9.8135
  77   2.0000      -0.357545        -9.7293
  78   2.0000      -0.353798        -9.6273
  79   2.0000      -0.350170        -9.5286
  80   2.0000      -0.347897        -9.4667
  81   2.0000      -0.345087        -9.3903
  82   2.0000      -0.341516        -9.2931
  83   2.0000      -0.340329        -9.2608
  84   2.0000      -0.332527        -9.0485
  85   2.0000      -0.323765        -8.8101
  86   2.0000      -0.316617        -8.6156
  87   2.0000      -0.300408        -8.1745
  88   2.0000      -0.297981        -8.1085
  89   2.0000      -0.295049        -8.0287
  90   2.0000      -0.288016        -7.8373
  91   2.0000      -0.279575        -7.6076
  92   2.0000      -0.274954        -7.4819
  93   2.0000      -0.267260        -7.2725
  94   2.0000      -0.257237        -6.9998
  95   2.0000      -0.232997        -6.3402
  96   2.0000      -0.217912        -5.9297
  97   2.0000      -0.208007        -5.6601
  98   2.0000      -0.203098        -5.5266
  99   2.0000      -0.201451        -5.4818
 100   2.0000      -0.194814        -5.3012
 101   0.0000      -0.043563        -1.1854
 102   0.0000      -0.024231        -0.6594
 103   0.0000      -0.011561        -0.3146
 104   0.0000       0.000759         0.0206
 105   0.0000       0.004543         0.1236

MULLIKEN ATOMIC CHARGES
-----------------------
   0 C :   -0.330917
   1 C :    0.001016
   2 O :   -0.348117
   3 P :    0.618082
   4 S :   -0.314700
   5 O :   -0.384558
   6 C :   -0.011370
   7 C :   -0.307394
   8 S :   -0.107496
   9 C :   -0.364586
  10 S :   -0.038323
  11 P :    0.608134
  12 S :   -0.319741
  13 O :   -0.387028
  14 C :   -0.009182
  15 C :   -0.310154
  16 O :   -0.371427
  17 C :   -0.005175
  18 C :   -0.306528
  19 H :    0.126123
  20 H :    0.136076
  21 H :    0.105850
  22 H :    0.110192
  23 H :    0.103558
  24 H :    0.111912
  25 H :    0.109548
  26 H :    0.111025
  27 H :    0.128338
  28 H :    0.124954
  29 H :    0.197040
  30 H :    0.181449
  31 H :    0.112725
  32 H :    0.102579
  33 H :    0.113852
  34 H :    0.113469
  35 H :    0.129778
  36 H :    0.104609
  37 H :    0.104549
  38 H :    0.131072
  39 H :    0.122841
  40 H :    0.107924
Sum of atomic charges:   -0.0000000

LOEWDIN ATOMIC CHARGES
----------------------
   0 C :   -0.370102
   1 C :   -0.110223
   2 O :   -0.230990
   3 P :    0.567770
   4 S :   -0.309555
   5 O :   -0.244995
   6 C :   -0.114380
   7 C :   -0.368857
   8 S :    0.072648
   9 C :   -0.482735
  10 S :    0.114441
  11 P :    0.561907
  12 S :   -0.318765
  13 O :   -0.251292
  14 C :   -0.124081
  15 C :   -0.366233
  16 O :   -0.238293
  17 C :   -0.111107
  18 C :   -0.364035
  19 H :    0.115046
  20 H :    0.127311
  21 H :    0.126738
  22 H :    0.122714
  23 H :    0.109454
  24 H :    0.107119
  25 H :    0.121220
  26 H :    0.130039
  27 H :    0.131505
  28 H :    0.121151
  29 H :    0.131094
  30 H :    0.130528
  31 H :    0.109573
  32 H :    0.116652
  33 H :    0.131505
  34 H :    0.123554
  35 H :    0.123401
  36 H :    0.117116
  37 H :    0.111074
  38 H :    0.125187
  39 H :    0.128077
  40 H :    0.128817

  Mayer bond orders larger than 0.100000
B(  0-C ,  1-C ) :   1.1655 B(  0-C , 19-H ) :   0.9375 B(  0-C , 20-H ) :   0.9359
B(  0-C , 21-H ) :   0.9364 B(  1-C ,  2-O ) :   0.9023 B(  1-C , 22-H ) :   0.9334
B(  1-C , 23-H ) :   0.9233 B(  2-O ,  3-P ) :   1.1410 B(  3-P ,  4-S ) :   1.6393
B(  3-P ,  5-O ) :   1.0836 B(  3-P ,  8-S ) :   0.9353 B(  4-S ,  8-S ) :   0.1119
B(  5-O ,  6-C ) :   0.9113 B(  6-C ,  7-C ) :   1.1671 B(  6-C , 24-H ) :   0.9259
B(  6-C , 25-H ) :   0.9332 B(  7-C , 26-H ) :   0.9349 B(  7-C , 27-H ) :   0.9432
B(  7-C , 28-H ) :   0.9316 B(  8-S ,  9-C ) :   1.0068 B(  9-C , 10-S ) :   0.9843
B(  9-C , 29-H ) :   0.8726 B(  9-C , 30-H ) :   0.8917 B( 10-S , 11-P ) :   0.9877
B( 11-P , 12-S ) :   1.6438 B( 11-P , 13-O ) :   1.0495 B( 11-P , 16-O ) :   1.1036
B( 13-O , 14-C ) :   0.9096 B( 14-C , 15-C ) :   1.1638 B( 14-C , 31-H ) :   0.9108
B( 14-C , 32-H ) :   0.9331 B( 15-C , 33-H ) :   0.9389 B( 15-C , 34-H ) :   0.9474
B( 15-C , 35-H ) :   0.9351 B( 16-O , 17-C ) :   0.8981 B( 17-C , 18-C ) :   1.1706
B( 17-C , 36-H ) :   0.9332 B( 17-C , 37-H ) :   0.9219 B( 18-C , 38-H ) :   0.9323
B( 18-C , 39-H ) :   0.9464 B( 18-C , 40-H ) :   0.9385

Dispersion correction           -0.065800499
FINAL SINGLE POINT ENERGY     -2929.517257446748

DIPOLE MOMENT
-------------

Method             : SCF
Type of density    : Electron Density
Multiplicity       :   1
Irrep              :   0
Energy             : -2929.6375103390109871 Eh
Relativity type    :
Basis              : AO
                                X                 Y                 Z
Electronic contribution:      6.543348935      12.229209975      -1.734824800
Nuclear contribution   :     -7.211711454     -14.122175776       2.616606396
                        -----------------------------------------
Total Dipole Moment    :     -0.668362519      -1.892965801       0.881781595
                        -----------------------------------------
Magnitude (a.u.)       :      2.192616419
Magnitude (Debye)      :      5.573188029

Rotational constants in cm-1:             0.012820             0.004880             0.004398
Rotational constants in MHz :           384.344820           146.284050           131.850927

                             ****ORCA TERMINATED NORMALLY****
TOTAL RUN TIME: 0 days 0 hours 0 minutes 21 seconds 380 msec
