                         Program Version 6.0.0  -   RELEASE  -
|  1> ! wb97x-v def2-tzvp def2/J RIJCOSX DEFGRID2 scfconv7 GCP(DFT/TZ) printgap
|  2> %output
|  3>     printlevel normal
|  4> end
|  5> * xyz 0 1
|  6> C 0.19896060593975765 1.5185964976370234 -7.082952918247465e-05
|  7> C 1.096766204631589 0.5150551434493468 -0.00010987286213217648
|  8> C 0.6992836300623236 -0.8688196669827539 -6.204762535713626e-05
|  9> O 1.4652879569716166 -1.832962217543528 -7.74252848171597e-05
| 10> N -0.6849860488538645 -1.0319753023065406 -3.0353993833949397e-05
| 11> C -1.6488150943562025 -0.041280532981603675 1.2202517338015498e-05
| 12> O -2.8534046426984285 -0.2835298973532538 9.477591390477755e-05
| 13> N -1.1394142906431608 1.2365794650374635 -3.612015236518105e-05
| 14> F 2.4174995244607738 0.7674461990631111 -0.00014409410247954828
| 15> H 0.4844769644871226 2.5640061869826063 -7.329740373697929e-05
| 16> H -1.031138976976992 -1.9862253736791462 8.41691027907364e-06
| 17> H -1.8090398851424148 1.9956426022550853 5.0074833821263034e-05
| 18> *
| 19>
| 20>                          ****END OF INPUT****

CARTESIAN COORDINATES (ANGSTROEM)
---------------------------------
  C      0.198961    1.518596   -0.000071
  C      1.096766    0.515055   -0.000110
  C      0.699284   -0.868820   -0.000062
  O      1.465288   -1.832962   -0.000077
  N     -0.684986   -1.031975   -0.000030
  C     -1.648815   -0.041281    0.000012
  O     -2.853405   -0.283530    0.000095
  N     -1.139414    1.236579   -0.000036
  F      2.417500    0.767446   -0.000144
  H      0.484477    2.564006   -0.000073
  H     -1.031139   -1.986225    0.000008
  H     -1.809040    1.995643    0.000050

 Total Charge           Charge          ....    0
 Multiplicity           Mult            ....    1
 Number of Electrons    NEL             ....   66
 Basis Dimension        Dim             ....  297

ORBITAL ENERGIES
----------------

  NO   OCC          E(Eh)            E(eV)
   0   2.0000     -27.596943      -750.9510
   1   2.0000     -21.667682      -589.6076
   2   2.0000     -21.666095      -589.5644
   3   2.0000     -16.618658      -452.2167
   4   2.0000     -16.604116      -451.8210
   5   2.0000     -12.220988      -332.5500
   6   2.0000     -12.191798      -331.7557
   7   2.0000     -12.161798      -330.9394
   8   2.0000     -12.149801      -330.6129
   9   2.0000      -2.017739       -54.9055
  10   2.0000      -1.734567       -47.2000
  11   2.0000      -1.719946       -46.8021
  12   2.0000      -1.610209       -43.8160
  13   2.0000      -1.552850       -42.2552
  14   2.0000      -1.391247       -37.8578
  15   2.0000      -1.278837       -34.7989
  16   2.0000      -1.254219       -34.1290
  17   2.0000      -1.218258       -33.1505
  18   2.0000      -1.174894       -31.9705
  19   2.0000      -1.157766       -31.5044
  20   2.0000      -1.105609       -30.0852
  21   2.0000      -1.103044       -30.0153
  22   2.0000      -1.072309       -29.1790
  23   2.0000      -1.056083       -28.7375
  24   2.0000      -1.035535       -28.1783
  25   2.0000      -0.979552       -26.6550
  26   2.0000      -0.966582       -26.3020
  27   2.0000      -0.927637       -25.2423
  28   2.0000      -0.891775       -24.2664
  29   2.0000      -0.882242       -24.0070
  30   2.0000      -0.874727       -23.8025
  31   2.0000      -0.839958       -22.8564
  32   2.0000      -0.725226       -19.7344
  33   0.0000      -0.362748        -9.8709
  34   0.0000      -0.322148        -8.7661
  35   0.0000      -0.270985        -7.3739
  36   0.0000      -0.186154        -5.0655
  37   0.0000      -0.161580        -4.3968

MULLIKEN ATOMIC CHARGES
-----------------------
   0 C :   -0.018137
   1 C :    0.141243
   2 C :    0.185935
   3 O :   -0.326038
   4 N :   -0.209493
   5 C :    0.294245
   6 O :   -0.359405
   7 N :   -0.225192
   8 F :   -0.171450
   9 H :    0.170638
  10 H :    0.261035
  11 H :    0.256617
Sum of atomic charges:   -0.0000000

LOEWDIN ATOMIC CHARGES
----------------------
   0 C :   -0.144486
   1 C :   -0.276752
   2 C :   -0.391271
   3 O :    0.082674
   4 N :    0.207221
   5 C :   -0.483897
   6 O :    0.044775
   7 N :    0.180025
   8 F :    0.203360
   9 H :    0.155866
  10 H :    0.213625
  11 H :    0.208859

  Mayer bond orders larger than 0.100000
B(  0-C ,  1-C ) :   1.7361 B(  0-C ,  7-N ) :   1.1047 B(  0-C ,  9-H ) :   0.9277
B(  1-C ,  2-C ) :   1.0538 B(  1-C ,  8-F ) :   1.1041 B(  2-C ,  3-O ) :   2.1523
B(  2-C ,  4-N ) :   1.1019 B(  4-N ,  5-C ) :   1.1480 B(  4-N , 10-H ) :   0.8860
B(  5-C ,  6-O ) :   2.1220 B(  5-C ,  7-N ) :   1.1346 B(  7-N , 11-H ) :   0.9040

FINAL SINGLE POINT ENERGY      -514.091106943771

DIPOLE MOMENT
-------------

Method             : SCF
Type of density    : Electron Density
Multiplicity       :   1
Irrep              :   0
Energy             :  -514.0986595015707508 Eh
Relativity type    :
Basis              : AO
                                X                 Y                 Z
Electronic contribution:      4.024688673      -0.029214238      -0.000189410
Nuclear contribution   :     -4.479769595       1.677932877       0.000211062
                        -----------------------------------------
Total Dipole Moment    :     -0.455080922       1.648718639       0.000021652
                        -----------------------------------------
Magnitude (a.u.)       :      1.710371830
Magnitude (Debye)      :      4.347419696

Rotational constants in cm-1:             0.107272             0.047028             0.032695
Rotational constants in MHz :          3215.947124          1409.853250           980.157624

                             ****ORCA TERMINATED NORMALLY****
TOTAL RUN TIME: 0 days 0 hours 2 minutes 20 seconds 801 msec
