                         Program Version 6.0.0  -   RELEASE  -
|  1> ! wb97x-v def2-tzvp def2/J RIJCOSX DEFGRID2 scfconv7 GCP(DFT/TZ) printgap
|  2> %output
|  3>     printlevel normal
|  4> end
|  5> %cpcm
|  6>     smd true
|  7>     smdsolvent "water"
|  8> end
|  9> * xyz 0 1
| 10> C 0.19896060593975765 1.5185964976370234 -7.082952918247465e-05
| 11> C 1.096766204631589 0.5150551434493468 -0.00010987286213217648
| 12> C 0.6992836300623236 -0.8688196669827539 -6.204762535713626e-05
| 13> O 1.4652879569716166 -1.832962217543528 -7.74252848171597e-05
| 14> N -0.6849860488538645 -1.0319753023065406 -3.0353993833949397e-05
| 15> C -1.6488150943562025 -0.041280532981603675 1.2202517338015498e-05
| 16> O -2.8534046426984285 -0.2835298973532538 9.477591390477755e-05
| 17> N -1.1394142906431608 1.2365794650374635 -3.612015236518105e-05
| 18> F 2.4174995244607738 0.7674461990631111 -0.00014409410247954828
| 19> H 0.4844769644871226 2.5640061869826063 -7.329740373697929e-05
| 20> H -1.031138976976992 -1.9862253736791462 8.41691027907364e-06
| 21> H -1.8090398851424148 1.9956426022550853 5.0074833821263034e-05
| 22> *
| 23>
| 24>                          ****END OF INPUT****

CARTESIAN COORDINATES (ANGSTROEM)
---------------------------------
  C      0.198961    1.518596   -0.000071
  C      1.096766    0.515055   -0.000110
  C      0.699284   -0.868820   -0.000062
  O      1.465288   -1.832962   -0.000077
  N     -0.684986   -1.031975   -0.000030
  C     -1.648815   -0.041281    0.000012
  O     -2.853405   -0.283530    0.000095
  N     -1.139414    1.236579   -0.000036
  F      2.417500    0.767446   -0.000144
  H      0.484477    2.564006   -0.000073
  H     -1.031139   -1.986225    0.000008
  H     -1.809040    1.995643    0.000050

 Total Charge           Charge          ....    0
 Multiplicity           Mult            ....    1
 Number of Electrons    NEL             ....   66
 Basis Dimension        Dim             ....  297

ORBITAL ENERGIES
----------------

  NO   OCC          E(Eh)            E(eV)
   0   2.0000     -27.591707      -750.8085
   1   2.0000     -21.670461      -589.6832
   2   2.0000     -21.666406      -589.5729
   3   2.0000     -16.599493      -451.6952
   4   2.0000     -16.594618      -451.5625
   5   2.0000     -12.215938      -332.4126
   6   2.0000     -12.191206      -331.7396
   7   2.0000     -12.145274      -330.4897
   8   2.0000     -12.130455      -330.0865
   9   2.0000      -2.013405       -54.7875
  10   2.0000      -1.735378       -47.2220
  11   2.0000      -1.725860       -46.9630
  12   2.0000      -1.594855       -43.3982
  13   2.0000      -1.538749       -41.8715
  14   2.0000      -1.377994       -37.4971
  15   2.0000      -1.267569       -34.4923
  16   2.0000      -1.244474       -33.8639
  17   2.0000      -1.205387       -32.8003
  18   2.0000      -1.168519       -31.7970
  19   2.0000      -1.154569       -31.4174
  20   2.0000      -1.097669       -29.8691
  21   2.0000      -1.095776       -29.8176
  22   2.0000      -1.071206       -29.1490
  23   2.0000      -1.054802       -28.7026
  24   2.0000      -1.021844       -27.8058
  25   2.0000      -0.973559       -26.4919
  26   2.0000      -0.949589       -25.8396
  27   2.0000      -0.935064       -25.4444
  28   2.0000      -0.891636       -24.2627
  29   2.0000      -0.878366       -23.9016
  30   2.0000      -0.870963       -23.7001
  31   2.0000      -0.832454       -22.6522
  32   2.0000      -0.710819       -19.3424
  33   0.0000      -0.347939        -9.4679
  34   0.0000      -0.311678        -8.4812
  35   0.0000      -0.257220        -6.9993
  36   0.0000      -0.171379        -4.6635
  37   0.0000      -0.154680        -4.2091

MULLIKEN ATOMIC CHARGES
-----------------------
   0 C :   -0.012424
   1 C :    0.147380
   2 C :    0.254636
   3 O :   -0.475523
   4 N :   -0.197993
   5 C :    0.346648
   6 O :   -0.486143
   7 N :   -0.204493
   8 F :   -0.204178
   9 H :    0.222508
  10 H :    0.299177
  11 H :    0.310407
Sum of atomic charges:   -0.0000000

LOEWDIN ATOMIC CHARGES
----------------------
   0 C :   -0.095566
   1 C :   -0.280979
   2 C :   -0.380921
   3 O :   -0.006200
   4 N :    0.225115
   5 C :   -0.464613
   6 O :   -0.026964
   7 N :    0.210769
   8 F :    0.183099
   9 H :    0.177061
  10 H :    0.228045
  11 H :    0.231155

  Mayer bond orders larger than 0.100000
B(  0-C ,  1-C ) :   1.6818 B(  0-C ,  7-N ) :   1.1453 B(  0-C ,  9-H ) :   0.9240
B(  1-C ,  2-C ) :   1.0938 B(  1-C ,  8-F ) :   1.0595 B(  2-C ,  3-O ) :   2.0004
B(  2-C ,  4-N ) :   1.1313 B(  4-N ,  5-C ) :   1.1639 B(  4-N , 10-H ) :   0.8628
B(  5-C ,  6-O ) :   2.0020 B(  5-C ,  7-N ) :   1.1777 B(  7-N , 11-H ) :   0.8723

FINAL SINGLE POINT ENERGY      -514.115839207234

DIPOLE MOMENT
-------------

Method             : SCF
Type of density    : Electron Density
Multiplicity       :   1
Irrep              :   0
Energy             :  -514.1233917650343983 Eh
Relativity type    :
Basis              : AO
                                X                 Y                 Z
Electronic contribution:      3.792806142       0.763400964      -0.000181439
Nuclear contribution   :     -4.479769595       1.677932877       0.000211062
                        -----------------------------------------
Total Dipole Moment    :     -0.686963453       2.441333840       0.000029623
                        -----------------------------------------
Magnitude (a.u.)       :      2.536144654
Magnitude (Debye)      :      6.446367410

Rotational constants in cm-1:             0.107272             0.047028             0.032695
Rotational constants in MHz :          3215.947124          1409.853250           980.157624

                             ****ORCA TERMINATED NORMALLY****
TOTAL RUN TIME: 0 days 0 hours 2 minutes 27 seconds 95 msec
