                         Program Version 6.0.0  -   RELEASE  -
|  1> ! pbe def2-sv(p) def2/J RI DEFGRID1 loosescf d4 GCP(DFT/SV(P)) printgap
|  2> %output
|  3>     printlevel normal
|  4> end
|  5> * xyz 0 1
|  6> C 1.3785641425 -2.1168167034 1.9827447013
|  7> C 2.8651897727 -1.9265081028 1.7639665015
|  8> O 3.1804105063 -0.605329711 1.2887823586
|  9> P 2.7930071034 -0.0976184097 -0.1705292307
| 10> S 2.9795875336 -1.4106780512 -1.6057078002
| 11> O 3.7727288565 1.1239184367 -0.344164031
| 12> C 3.8668104058 2.1897186834 0.6361695182
| 13> C 4.5388699042 3.3711030828 -0.0308835956
| 14> S 0.8691733207 0.8373005615 0.0324765603
| 15> C -0.0298990485 -0.0320024154 -1.2762287705
| 16> S -1.2414666531 -1.2109524956 -0.6370974769
| 17> P -2.7295010755 0.2463439321 -0.1720003162
| 18> S -2.9959820653 1.6439728311 -1.5132650883
| 19> O -2.3048936634 0.8494703672 1.218703281
| 20> C -2.0968168024 0.0414238787 2.4070443646
| 21> C -1.1495760361 0.7958554792 3.3165796096
| 22> O -4.0056127531 -0.6196995718 0.2147264021
| 23> C -4.970418916 -1.0707165667 -0.7533992172
| 24> C -4.3777837734 -2.0483497117 -1.7471730374
| 25> H 0.9883557216 -1.327443876 2.6197925174
| 26> H 0.8539905093 -2.1014172297 1.0277108928
| 27> H 1.2069783005 -3.0784500999 2.4554527325
| 28> H 3.2458559239 -2.6541974003 1.0407579406
| 29> H 3.4225988354 -2.0047363455 2.6985385367
| 30> H 2.8568875283 2.4409299856 0.9739061557
| 31> H 4.4489535668 1.8161363824 1.480400794
| 32> H 5.5190990559 3.0816744629 -0.3985849395
| 33> H 3.940767444 3.7188860844 -0.8685838861
| 34> H 4.646843461 4.1743198208 0.6907693983
| 35> H 0.68346566 -0.5961452926 -1.8815652812
| 36> H -0.5560268014 0.714917543 -1.8721768417
| 37> H -3.0709122128 -0.1122621716 2.8745041062
| 38> H -1.6847728598 -0.9260958175 2.104944555
| 39> H -1.5773700257 1.758059244 3.5821775428
| 40> H -0.9813129382 0.215234078 4.2179862101
| 41> H -0.203962135 0.9689630321 2.8086390713
| 42> H -5.7474995501 -1.5356896004 -0.1450234355
| 43> H -5.3750361361 -0.1950203384 -1.269876629
| 44> H -5.1711583793 -2.4540481592 -2.366691499
| 45> H -3.6582725126 -1.5400133795 -2.3875875465
| 46> H -3.87376993 -2.8596559571 -1.2277603529
| 47> *
| 48>
| 49>                          ****END OF INPUT****

CARTESIAN COORDINATES (ANGSTROEM)
---------------------------------
  C      1.378564   -2.116817    1.982745
  C      2.865190   -1.926508    1.763967
  O      3.180411   -0.605330    1.288782
  P      2.793007   -0.097618   -0.170529
  S      2.979588   -1.410678   -1.605708
  O      3.772729    1.123918   -0.344164
  C      3.866810    2.189719    0.636170
  C      4.538870    3.371103   -0.030884
  S      0.869173    0.837301    0.032477
  C     -0.029899   -0.032002   -1.276229
  S     -1.241467   -1.210952   -0.637097
  P     -2.729501    0.246344   -0.172000
  S     -2.995982    1.643973   -1.513265
  O     -2.304894    0.849470    1.218703
  C     -2.096817    0.041424    2.407044
  C     -1.149576    0.795855    3.316580
  O     -4.005613   -0.619700    0.214726
  C     -4.970419   -1.070717   -0.753399
  C     -4.377784   -2.048350   -1.747173
  H      0.988356   -1.327444    2.619793
  H      0.853991   -2.101417    1.027711
  H      1.206978   -3.078450    2.455453
  H      3.245856   -2.654197    1.040758
  H      3.422599   -2.004736    2.698539
  H      2.856888    2.440930    0.973906
  H      4.448954    1.816136    1.480401
  H      5.519099    3.081674   -0.398585
  H      3.940767    3.718886   -0.868584
  H      4.646843    4.174320    0.690769
  H      0.683466   -0.596145   -1.881565
  H     -0.556027    0.714918   -1.872177
  H     -3.070912   -0.112262    2.874504
  H     -1.684773   -0.926096    2.104945
  H     -1.577370    1.758059    3.582178
  H     -0.981313    0.215234    4.217986
  H     -0.203962    0.968963    2.808639
  H     -5.747500   -1.535690   -0.145023
  H     -5.375036   -0.195020   -1.269877
  H     -5.171158   -2.454048   -2.366691
  H     -3.658273   -1.540013   -2.387588
  H     -3.873770   -2.859656   -1.227760

 Total Charge           Charge          ....    0
 Multiplicity           Mult            ....    1
 Number of Electrons    NEL             ....  202
 Basis Dimension        Dim             ....  334

ORBITAL ENERGIES
----------------

  NO   OCC          E(Eh)            E(eV)
   0   2.0000     -88.044891     -2395.8233
   1   2.0000     -88.042741     -2395.7648
   2   2.0000     -87.993257     -2394.4183
   3   2.0000     -87.987440     -2394.2600
   4   2.0000     -76.428726     -2079.7314
   5   2.0000     -76.427463     -2079.6970
   6   2.0000     -18.796974      -511.4917
   7   2.0000     -18.794886      -511.4349
   8   2.0000     -18.793624      -511.4005
   9   2.0000     -18.793380      -511.3939
  10   2.0000      -9.960087      -271.0278
  11   2.0000      -9.956890      -270.9407
  12   2.0000      -9.956680      -270.9350
  13   2.0000      -9.956316      -270.9251
  14   2.0000      -9.949335      -270.7352
  15   2.0000      -9.890686      -269.1392
  16   2.0000      -9.888810      -269.0882
  17   2.0000      -9.887446      -269.0511
  18   2.0000      -9.886483      -269.0249
  19   2.0000      -7.689283      -209.2360
  20   2.0000      -7.687311      -209.1824
  21   2.0000      -7.638377      -207.8508
  22   2.0000      -7.632689      -207.6960
  23   2.0000      -6.426543      -174.8751
  24   2.0000      -6.425184      -174.8381
  25   2.0000      -5.716892      -155.5645
  26   2.0000      -5.715099      -155.5158
  27   2.0000      -5.713875      -155.4824
  28   2.0000      -5.711848      -155.4273
  29   2.0000      -5.706546      -155.2830
  30   2.0000      -5.704412      -155.2250
  31   2.0000      -5.667278      -154.2145
  32   2.0000      -5.661651      -154.0614
  33   2.0000      -5.658933      -153.9874
  34   2.0000      -5.658586      -153.9780
  35   2.0000      -5.653261      -153.8331
  36   2.0000      -5.652827      -153.8213
  37   2.0000      -4.649272      -126.5131
  38   2.0000      -4.648109      -126.4815
  39   2.0000      -4.648047      -126.4798
  40   2.0000      -4.647077      -126.4534
  41   2.0000      -4.646821      -126.4464
  42   2.0000      -4.645411      -126.4080
  43   2.0000      -0.991080       -26.9687
  44   2.0000      -0.991009       -26.9667
  45   2.0000      -0.947781       -25.7904
  46   2.0000      -0.947044       -25.7704
  47   2.0000      -0.762462       -20.7476
  48   2.0000      -0.725164       -19.7327
  49   2.0000      -0.715572       -19.4717
  50   2.0000      -0.692816       -18.8525
  51   2.0000      -0.691922       -18.8281
  52   2.0000      -0.679228       -18.4827
  53   2.0000      -0.652870       -17.7655
  54   2.0000      -0.640119       -17.4185
  55   2.0000      -0.600088       -16.3292
  56   2.0000      -0.592229       -16.1154
  57   2.0000      -0.575730       -15.6664
  58   2.0000      -0.574398       -15.6302
  59   2.0000      -0.559207       -15.2168
  60   2.0000      -0.511564       -13.9204
  61   2.0000      -0.505707       -13.7610
  62   2.0000      -0.478290       -13.0149
  63   2.0000      -0.476952       -12.9785
  64   2.0000      -0.463692       -12.6177
  65   2.0000      -0.447945       -12.1892
  66   2.0000      -0.441054       -12.0017
  67   2.0000      -0.440573       -11.9886
  68   2.0000      -0.436566       -11.8796
  69   2.0000      -0.427762       -11.6400
  70   2.0000      -0.410991       -11.1836
  71   2.0000      -0.396991       -10.8027
  72   2.0000      -0.393756       -10.7147
  73   2.0000      -0.390647       -10.6300
  74   2.0000      -0.378391       -10.2965
  75   2.0000      -0.369751       -10.0614
  76   2.0000      -0.366409        -9.9705
  77   2.0000      -0.362074        -9.8525
  78   2.0000      -0.358567        -9.7571
  79   2.0000      -0.358087        -9.7441
  80   2.0000      -0.350563        -9.5393
  81   2.0000      -0.345676        -9.4063
  82   2.0000      -0.342402        -9.3172
  83   2.0000      -0.341302        -9.2873
  84   2.0000      -0.337691        -9.1890
  85   2.0000      -0.319971        -8.7069
  86   2.0000      -0.316342        -8.6081
  87   2.0000      -0.306024        -8.3273
  88   2.0000      -0.304155        -8.2765
  89   2.0000      -0.299844        -8.1592
  90   2.0000      -0.296721        -8.0742
  91   2.0000      -0.275183        -7.4881
  92   2.0000      -0.271829        -7.3968
  93   2.0000      -0.266136        -7.2419
  94   2.0000      -0.258139        -7.0243
  95   2.0000      -0.233663        -6.3583
  96   2.0000      -0.221916        -6.0386
  97   2.0000      -0.214351        -5.8328
  98   2.0000      -0.209481        -5.7003
  99   2.0000      -0.206924        -5.6307
 100   2.0000      -0.200574        -5.4579
 101   0.0000      -0.043433        -1.1819
 102   0.0000      -0.033154        -0.9022
 103   0.0000      -0.016445        -0.4475
 104   0.0000       0.003506         0.0954
 105   0.0000       0.013308         0.3621

MULLIKEN ATOMIC CHARGES
-----------------------
   0 C :   -0.345329
   1 C :    0.008606
   2 O :   -0.385808
   3 P :    0.602186
   4 S :   -0.300043
   5 O :   -0.358707
   6 C :   -0.021453
   7 C :   -0.277495
   8 S :   -0.109065
   9 C :   -0.358277
  10 S :   -0.098846
  11 P :    0.598095
  12 S :   -0.307267
  13 O :   -0.356002
  14 C :   -0.018109
  15 C :   -0.292346
  16 O :   -0.385361
  17 C :    0.001045
  18 C :   -0.323086
  19 H :    0.123972
  20 H :    0.135863
  21 H :    0.111608
  22 H :    0.112852
  23 H :    0.103190
  24 H :    0.109373
  25 H :    0.110446
  26 H :    0.123847
  27 H :    0.124490
  28 H :    0.111834
  29 H :    0.194659
  30 H :    0.195776
  31 H :    0.108469
  32 H :    0.110267
  33 H :    0.120552
  34 H :    0.108157
  35 H :    0.134949
  36 H :    0.105693
  37 H :    0.114066
  38 H :    0.115890
  39 H :    0.132794
  40 H :    0.118517
Sum of atomic charges:    0.0000000

LOEWDIN ATOMIC CHARGES
----------------------
   0 C :   -0.373528
   1 C :   -0.115003
   2 O :   -0.251409
   3 P :    0.569734
   4 S :   -0.292797
   5 O :   -0.239616
   6 C :   -0.114568
   7 C :   -0.349247
   8 S :    0.071185
   9 C :   -0.491486
  10 S :    0.087947
  11 P :    0.568884
  12 S :   -0.307349
  13 O :   -0.236467
  14 C :   -0.114900
  15 C :   -0.356236
  16 O :   -0.249351
  17 C :   -0.114853
  18 C :   -0.371697
  19 H :    0.124130
  20 H :    0.113836
  21 H :    0.130962
  22 H :    0.112352
  23 H :    0.118129
  24 H :    0.104677
  25 H :    0.115813
  26 H :    0.131059
  27 H :    0.131553
  28 H :    0.131039
  29 H :    0.125813
  30 H :    0.127558
  31 H :    0.116206
  32 H :    0.104178
  33 H :    0.129885
  34 H :    0.128288
  35 H :    0.122074
  36 H :    0.119087
  37 H :    0.114418
  38 H :    0.132653
  39 H :    0.123539
  40 H :    0.123513

  Mayer bond orders larger than 0.100000
B(  0-C ,  1-C ) :   1.1613 B(  0-C , 19-H ) :   0.9365 B(  0-C , 20-H ) :   0.9266
B(  0-C , 21-H ) :   0.9363 B(  1-C ,  2-O ) :   0.9139 B(  1-C , 22-H ) :   0.9177
B(  1-C , 23-H ) :   0.9334 B(  2-O ,  3-P ) :   1.0809 B(  3-P ,  4-S ) :   1.6348
B(  3-P ,  5-O ) :   1.1419 B(  3-P ,  8-S ) :   0.9456 B(  4-S ,  8-S ) :   0.1151
B(  4-S , 29-H ) :   0.1177 B(  5-O ,  6-C ) :   0.8937 B(  6-C ,  7-C ) :   1.1652
B(  6-C , 24-H ) :   0.9136 B(  6-C , 25-H ) :   0.9289 B(  7-C , 26-H ) :   0.9498
B(  7-C , 27-H ) :   0.9494 B(  7-C , 28-H ) :   0.9404 B(  8-S ,  9-C ) :   1.0065
B(  9-C , 10-S ) :   1.0052 B(  9-C , 29-H ) :   0.8491 B(  9-C , 30-H ) :   0.8641
B( 10-S , 11-P ) :   0.9481 B( 10-S , 12-S ) :   0.1070 B( 11-P , 12-S ) :   1.6409
B( 11-P , 13-O ) :   1.1429 B( 11-P , 16-O ) :   1.0906 B( 13-O , 14-C ) :   0.8861
B( 14-C , 15-C ) :   1.1703 B( 14-C , 31-H ) :   0.9306 B( 14-C , 32-H ) :   0.9075
B( 15-C , 33-H ) :   0.9459 B( 15-C , 34-H ) :   0.9388 B( 15-C , 35-H ) :   0.9335
B( 16-O , 17-C ) :   0.9057 B( 17-C , 18-C ) :   1.1658 B( 17-C , 36-H ) :   0.9344
B( 17-C , 37-H ) :   0.9201 B( 18-C , 38-H ) :   0.9368 B( 18-C , 39-H ) :   0.9343
B( 18-C , 40-H ) :   0.9434

Dispersion correction           -0.062936023
FINAL SINGLE POINT ENERGY     -2929.520681021156

DIPOLE MOMENT
-------------

Method             : SCF
Type of density    : Electron Density
Multiplicity       :   1
Irrep              :   0
Energy             : -2929.6424647474027552 Eh
Relativity type    :
Basis              : AO
                                X                 Y                 Z
Electronic contribution:     -0.057478324       1.953990998     -13.806531784
Nuclear contribution   :     -0.116935939      -2.459469267      15.607785802
                        -----------------------------------------
Total Dipole Moment    :     -0.174414264      -0.505478269       1.801254018
                        -----------------------------------------
Magnitude (a.u.)       :      1.878947752
Magnitude (Debye)      :      4.775905638

Rotational constants in cm-1:             0.012240             0.004272             0.004215
Rotational constants in MHz :           366.949662           128.073906           126.367463

                             ****ORCA TERMINATED NORMALLY****
TOTAL RUN TIME: 0 days 0 hours 0 minutes 20 seconds 724 msec
