                         Program Version 6.0.0  -   RELEASE  -
|  1> ! pbe def2-sv(p) def2/J RI DEFGRID1 loosescf d4 GCP(DFT/SV(P)) printgap
|  2> %output
|  3>     printlevel normal
|  4> end
|  5> * xyz 0 1
|  6> C 3.4443294357 2.0095945559 -1.2088433096
|  7> C 2.0318824145 1.6603465127 -0.7860697028
|  8> O 1.8897013114 0.2392124764 -0.6491286874
|  9> P 2.0920584249 -0.5755728905 0.7045497751
| 10> S 2.8289747443 0.4623977414 2.1858295242
| 11> O 3.0141402084 -1.791557274 0.306615875
| 12> C 2.6138085131 -2.9495693559 -0.4640859889
| 13> C 2.1994939311 -2.5950523883 -1.8760704612
| 14> S 0.2180350332 -1.5156054936 1.0795915511
| 15> C -0.4762770496 -0.2182517925 2.1239532751
| 16> S -0.8414328496 1.31881563 1.2253759442
| 17> P -2.0034515926 0.5345525084 -0.3698386303
| 18> S -1.1253550675 -0.069023192 -2.0195574427
| 19> O -3.0815376075 1.6735573072 -0.6524346826
| 20> C -2.8474831662 2.7385411296 -1.5860757546
| 21> C -1.8680002122 3.7534600664 -1.0322929293
| 22> O -2.8611879721 -0.5146331942 0.4433717426
| 23> C -3.6704373899 -1.5190069998 -0.2158534308
| 24> C -2.9060804486 -2.8202937656 -0.3533814474
| 25> H 3.519960845 3.0824697748 -1.35305539
| 26> H 4.1451596403 1.7032746351 -0.4341724183
| 27> H 3.6953720394 1.5005801465 -2.1351057258
| 28> H 1.3027723411 1.9368120826 -1.5514759615
| 29> H 1.7808604512 2.1465300536 0.1622767551
| 30> H 3.5064727097 -3.5770476993 -0.451549044
| 31> H 1.800698089 -3.4511314465 0.0679652139
| 32> H 1.3133169193 -1.9624810709 -1.8698277554
| 33> H 3.0003266573 -2.0628849248 -2.3823200876
| 34> H 1.9752296809 -3.5074068403 -2.4198653371
| 35> H 0.2469663199 0.0566559042 2.8936061783
| 36> H -1.3913207884 -0.6128838619 2.5572425455
| 37> H -2.4735218443 2.3056641062 -2.520549544
| 38> H -3.83380257 3.1749512755 -1.7483072013
| 39> H -2.2254876881 4.1448373657 -0.0835968888
| 40> H -0.8993107499 3.2807495015 -0.8669273733
| 41> H -1.7491855223 4.5681454389 -1.7391659883
| 42> H -4.5402329115 -1.6304592901 0.4334255586
| 43> H -3.9860042976 -1.1428533134 -1.1924885561
| 44> H -2.0581651834 -2.6897366992 -1.0217559693
| 45> H -2.5346350825 -3.1437563652 0.6152490044
| 46> H -3.5654501169 -3.5796256085 -0.7610699162
| 47> *
| 48>
| 49>                          ****END OF INPUT****

CARTESIAN COORDINATES (ANGSTROEM)
---------------------------------
  C      3.444329    2.009595   -1.208843
  C      2.031882    1.660347   -0.786070
  O      1.889701    0.239212   -0.649129
  P      2.092058   -0.575573    0.704550
  S      2.828975    0.462398    2.185830
  O      3.014140   -1.791557    0.306616
  C      2.613809   -2.949569   -0.464086
  C      2.199494   -2.595052   -1.876070
  S      0.218035   -1.515605    1.079592
  C     -0.476277   -0.218252    2.123953
  S     -0.841433    1.318816    1.225376
  P     -2.003452    0.534553   -0.369839
  S     -1.125355   -0.069023   -2.019557
  O     -3.081538    1.673557   -0.652435
  C     -2.847483    2.738541   -1.586076
  C     -1.868000    3.753460   -1.032293
  O     -2.861188   -0.514633    0.443372
  C     -3.670437   -1.519007   -0.215853
  C     -2.906080   -2.820294   -0.353381
  H      3.519961    3.082470   -1.353055
  H      4.145160    1.703275   -0.434172
  H      3.695372    1.500580   -2.135106
  H      1.302772    1.936812   -1.551476
  H      1.780860    2.146530    0.162277
  H      3.506473   -3.577048   -0.451549
  H      1.800698   -3.451131    0.067965
  H      1.313317   -1.962481   -1.869828
  H      3.000327   -2.062885   -2.382320
  H      1.975230   -3.507407   -2.419865
  H      0.246966    0.056656    2.893606
  H     -1.391321   -0.612884    2.557243
  H     -2.473522    2.305664   -2.520550
  H     -3.833803    3.174951   -1.748307
  H     -2.225488    4.144837   -0.083597
  H     -0.899311    3.280750   -0.866927
  H     -1.749186    4.568145   -1.739166
  H     -4.540233   -1.630459    0.433426
  H     -3.986004   -1.142853   -1.192489
  H     -2.058165   -2.689737   -1.021756
  H     -2.534635   -3.143756    0.615249
  H     -3.565450   -3.579626   -0.761070

 Total Charge           Charge          ....    0
 Multiplicity           Mult            ....    1
 Number of Electrons    NEL             ....  202
 Basis Dimension        Dim             ....  334

ORBITAL ENERGIES
----------------

  NO   OCC          E(Eh)            E(eV)
   0   2.0000     -88.043895     -2395.7962
   1   2.0000     -88.041572     -2395.7330
   2   2.0000     -87.988986     -2394.3020
   3   2.0000     -87.982447     -2394.1241
   4   2.0000     -76.430363     -2079.7759
   5   2.0000     -76.423504     -2079.5893
   6   2.0000     -18.798112      -511.5226
   7   2.0000     -18.793070      -511.3854
   8   2.0000     -18.790469      -511.3147
   9   2.0000     -18.782048      -511.0855
  10   2.0000      -9.960049      -271.0267
  11   2.0000      -9.957607      -270.9603
  12   2.0000      -9.957135      -270.9474
  13   2.0000      -9.954220      -270.8681
  14   2.0000      -9.939755      -270.4745
  15   2.0000      -9.890540      -269.1353
  16   2.0000      -9.885318      -268.9932
  17   2.0000      -9.881784      -268.8970
  18   2.0000      -9.874261      -268.6923
  19   2.0000      -7.688726      -209.2209
  20   2.0000      -7.686320      -209.1554
  21   2.0000      -7.633746      -207.7248
  22   2.0000      -7.627674      -207.5596
  23   2.0000      -6.427804      -174.9094
  24   2.0000      -6.420928      -174.7223
  25   2.0000      -5.716899      -155.5647
  26   2.0000      -5.714181      -155.4908
  27   2.0000      -5.713238      -155.4651
  28   2.0000      -5.710870      -155.4007
  29   2.0000      -5.705416      -155.2523
  30   2.0000      -5.703277      -155.1941
  31   2.0000      -5.662503      -154.0845
  32   2.0000      -5.656662      -153.9256
  33   2.0000      -5.654597      -153.8694
  34   2.0000      -5.653840      -153.8488
  35   2.0000      -5.648449      -153.7021
  36   2.0000      -5.647544      -153.6775
  37   2.0000      -4.650565      -126.5483
  38   2.0000      -4.649576      -126.5214
  39   2.0000      -4.648096      -126.4811
  40   2.0000      -4.643627      -126.3595
  41   2.0000      -4.642519      -126.3294
  42   2.0000      -4.641495      -126.3015
  43   2.0000      -0.991379       -26.9768
  44   2.0000      -0.980729       -26.6870
  45   2.0000      -0.950093       -25.8534
  46   2.0000      -0.939448       -25.5637
  47   2.0000      -0.765399       -20.8276
  48   2.0000      -0.721972       -19.6459
  49   2.0000      -0.709413       -19.3041
  50   2.0000      -0.690767       -18.7967
  51   2.0000      -0.685065       -18.6416
  52   2.0000      -0.672150       -18.2901
  53   2.0000      -0.652577       -17.7575
  54   2.0000      -0.638525       -17.3752
  55   2.0000      -0.599248       -16.3064
  56   2.0000      -0.590512       -16.0686
  57   2.0000      -0.579227       -15.7616
  58   2.0000      -0.569648       -15.5009
  59   2.0000      -0.562323       -15.3016
  60   2.0000      -0.505677       -13.7602
  61   2.0000      -0.492915       -13.4129
  62   2.0000      -0.474397       -12.9090
  63   2.0000      -0.474003       -12.8983
  64   2.0000      -0.461325       -12.5533
  65   2.0000      -0.446107       -12.1392
  66   2.0000      -0.441545       -12.0150
  67   2.0000      -0.432828       -11.7778
  68   2.0000      -0.424724       -11.5573
  69   2.0000      -0.417769       -11.3681
  70   2.0000      -0.403667       -10.9843
  71   2.0000      -0.402527       -10.9533
  72   2.0000      -0.393163       -10.6985
  73   2.0000      -0.383802       -10.4438
  74   2.0000      -0.378307       -10.2942
  75   2.0000      -0.376206       -10.2371
  76   2.0000      -0.371950       -10.1213
  77   2.0000      -0.360934        -9.8215
  78   2.0000      -0.356068        -9.6891
  79   2.0000      -0.349742        -9.5170
  80   2.0000      -0.348119        -9.4728
  81   2.0000      -0.346138        -9.4189
  82   2.0000      -0.340819        -9.2742
  83   2.0000      -0.338375        -9.2076
  84   2.0000      -0.332941        -9.0598
  85   2.0000      -0.314330        -8.5534
  86   2.0000      -0.307916        -8.3788
  87   2.0000      -0.300442        -8.1755
  88   2.0000      -0.294770        -8.0211
  89   2.0000      -0.292167        -7.9503
  90   2.0000      -0.283319        -7.7095
  91   2.0000      -0.277456        -7.5500
  92   2.0000      -0.271169        -7.3789
  93   2.0000      -0.264780        -7.2050
  94   2.0000      -0.258620        -7.0374
  95   2.0000      -0.236213        -6.4277
  96   2.0000      -0.219970        -5.9857
  97   2.0000      -0.206725        -5.6253
  98   2.0000      -0.201775        -5.4906
  99   2.0000      -0.198585        -5.4038
 100   2.0000      -0.194780        -5.3002
 101   0.0000      -0.051985        -1.4146
 102   0.0000      -0.025723        -0.7000
 103   0.0000      -0.022272        -0.6061
 104   0.0000       0.003915         0.1065
 105   0.0000       0.015825         0.4306

MULLIKEN ATOMIC CHARGES
-----------------------
   0 C :   -0.282648
   1 C :   -0.030965
   2 O :   -0.367252
   3 P :    0.632530
   4 S :   -0.321149
   5 O :   -0.363275
   6 C :   -0.024378
   7 C :   -0.322423
   8 S :   -0.127458
   9 C :   -0.324252
  10 S :   -0.103785
  11 P :    0.616369
  12 S :   -0.314283
  13 O :   -0.367288
  14 C :   -0.005838
  15 C :   -0.334827
  16 O :   -0.376978
  17 C :   -0.002182
  18 C :   -0.296857
  19 H :    0.104194
  20 H :    0.118503
  21 H :    0.108353
  22 H :    0.111135
  23 H :    0.115265
  24 H :    0.113428
  25 H :    0.118930
  26 H :    0.154797
  27 H :    0.117874
  28 H :    0.109824
  29 H :    0.193925
  30 H :    0.186111
  31 H :    0.109319
  32 H :    0.106371
  33 H :    0.123878
  34 H :    0.136338
  35 H :    0.116871
  36 H :    0.109667
  37 H :    0.106462
  38 H :    0.132436
  39 H :    0.113678
  40 H :    0.109579
Sum of atomic charges:   -0.0000000

LOEWDIN ATOMIC CHARGES
----------------------
   0 C :   -0.359897
   1 C :   -0.128921
   2 O :   -0.236515
   3 P :    0.576218
   4 S :   -0.312004
   5 O :   -0.237894
   6 C :   -0.114352
   7 C :   -0.369823
   8 S :    0.077467
   9 C :   -0.474894
  10 S :    0.089578
  11 P :    0.570130
  12 S :   -0.306149
  13 O :   -0.245108
  14 C :   -0.123508
  15 C :   -0.368423
  16 O :   -0.243041
  17 C :   -0.109402
  18 C :   -0.364775
  19 H :    0.127334
  20 H :    0.123959
  21 H :    0.122185
  22 H :    0.110107
  23 H :    0.101769
  24 H :    0.123588
  25 H :    0.107311
  26 H :    0.126191
  27 H :    0.127931
  28 H :    0.130055
  29 H :    0.130830
  30 H :    0.133856
  31 H :    0.107047
  32 H :    0.119446
  33 H :    0.128281
  34 H :    0.119308
  35 H :    0.133022
  36 H :    0.120428
  37 H :    0.112424
  38 H :    0.124644
  39 H :    0.122163
  40 H :    0.129436

  Mayer bond orders larger than 0.100000
B(  0-C ,  1-C ) :   1.1598 B(  0-C , 19-H ) :   0.9417 B(  0-C , 20-H ) :   0.9407
B(  0-C , 21-H ) :   0.9475 B(  1-C ,  2-O ) :   0.9002 B(  1-C , 22-H ) :   0.9164
B(  1-C , 23-H ) :   0.9040 B(  2-O ,  3-P ) :   1.1014 B(  3-P ,  4-S ) :   1.6200
B(  3-P ,  5-O ) :   1.1501 B(  3-P ,  8-S ) :   0.9249 B(  5-O ,  6-C ) :   0.9041
B(  6-C ,  7-C ) :   1.1666 B(  6-C , 24-H ) :   0.9341 B(  6-C , 25-H ) :   0.9172
B(  7-C , 26-H ) :   0.9252 B(  7-C , 27-H ) :   0.9445 B(  7-C , 28-H ) :   0.9355
B(  8-S ,  9-C ) :   1.0282 B(  9-C , 10-S ) :   0.9929 B(  9-C , 29-H ) :   0.8740
B(  9-C , 30-H ) :   0.9016 B( 10-S , 11-P ) :   0.9518 B( 10-S , 12-S ) :   0.1071
B( 11-P , 12-S ) :   1.6146 B( 11-P , 13-O ) :   1.1024 B( 11-P , 16-O ) :   1.1175
B( 13-O , 14-C ) :   0.9153 B( 14-C , 15-C ) :   1.1608 B( 14-C , 31-H ) :   0.9088
B( 14-C , 32-H ) :   0.9318 B( 15-C , 33-H ) :   0.9441 B( 15-C , 34-H ) :   0.9289
B( 15-C , 35-H ) :   0.9390 B( 16-O , 17-C ) :   0.8856 B( 17-C , 18-C ) :   1.1728
B( 17-C , 36-H ) :   0.9347 B( 17-C , 37-H ) :   0.9159 B( 18-C , 38-H ) :   0.9337
B( 18-C , 39-H ) :   0.9435 B( 18-C , 40-H ) :   0.9385

Dispersion correction           -0.068443892
FINAL SINGLE POINT ENERGY     -2929.518608950045

DIPOLE MOMENT
-------------

Method             : SCF
Type of density    : Electron Density
Multiplicity       :   1
Irrep              :   0
Energy             : -2929.6355464515340827 Eh
Relativity type    :
Basis              : AO
                                X                 Y                 Z
Electronic contribution:      1.649170118      -0.804773832      14.406815071
Nuclear contribution   :     -2.912178679       0.532125711     -15.203262325
                        -----------------------------------------
Total Dipole Moment    :     -1.263008561      -0.272648120      -0.796447254
                        -----------------------------------------
Magnitude (a.u.)       :      1.517845793
Magnitude (Debye)      :      3.858057401

Rotational constants in cm-1:             0.010639             0.006293             0.005433
Rotational constants in MHz :           318.934726           188.666793           162.884433

                             ****ORCA TERMINATED NORMALLY****
TOTAL RUN TIME: 0 days 0 hours 0 minutes 22 seconds 38 msec
