                         Program Version 6.0.0  -   RELEASE  -
|  1> ! pbe def2-sv(p) def2/J RI DEFGRID1 loosescf d4 GCP(DFT/SV(P)) printgap
|  2> %output
|  3>     printlevel normal
|  4> end
|  5> * xyz 0 1
|  6> C -1.0917166889 0.189062764 0.0020753522
|  7> C -0.1890128463 -1.0915901163 -0.0021427519
|  8> C 1.0917974396 -0.1890473323 0.0021641307
|  9> C 0.1890562176 1.0916145175 -0.002104859
| 10> F 0.321783193 1.8574216698 -1.0878801252
| 11> F 0.3236412027 1.8679224339 1.0757821785
| 12> F 1.8682125156 -0.3237024112 -1.0756624351
| 13> F 1.8574953944 -0.3218223026 1.0880167687
| 14> F -0.3239630152 -1.8678969275 1.0757030621
| 15> F -0.3216932525 -1.8573534927 -1.0879466063
| 16> F -1.8575776902 0.3217062428 1.0878212053
| 17> F -1.8679768172 0.3236996052 -1.0758289096
| 18> *
| 19>
| 20>                          ****END OF INPUT****

CARTESIAN COORDINATES (ANGSTROEM)
---------------------------------
  C     -1.091717    0.189063    0.002075
  C     -0.189013   -1.091590   -0.002143
  C      1.091797   -0.189047    0.002164
  C      0.189056    1.091615   -0.002105
  F      0.321783    1.857422   -1.087880
  F      0.323641    1.867922    1.075782
  F      1.868213   -0.323702   -1.075662
  F      1.857495   -0.321822    1.088017
  F     -0.323963   -1.867897    1.075703
  F     -0.321693   -1.857353   -1.087947
  F     -1.857578    0.321706    1.087821
  F     -1.867977    0.323700   -1.075829

 Total Charge           Charge          ....    0
 Multiplicity           Mult            ....    1
 Number of Electrons    NEL             ....   96
 Basis Dimension        Dim             ....  168

ORBITAL ENERGIES
----------------

  NO   OCC          E(Eh)            E(eV)
   0   2.0000     -24.317486      -661.7124
   1   2.0000     -24.317282      -661.7069
   2   2.0000     -24.317219      -661.7052
   3   2.0000     -24.317213      -661.7050
   4   2.0000     -24.317151      -661.7033
   5   2.0000     -24.317145      -661.7032
   6   2.0000     -24.316992      -661.6990
   7   2.0000     -24.316973      -661.6985
   8   2.0000     -10.090409      -274.5740
   9   2.0000     -10.090243      -274.5695
  10   2.0000     -10.090242      -274.5694
  11   2.0000     -10.090063      -274.5646
  12   2.0000      -1.206578       -32.8327
  13   2.0000      -1.187641       -32.3173
  14   2.0000      -1.187638       -32.3173
  15   2.0000      -1.173540       -31.9337
  16   2.0000      -1.136063       -30.9139
  17   2.0000      -1.124648       -30.6032
  18   2.0000      -1.124645       -30.6032
  19   2.0000      -1.114956       -30.3395
  20   2.0000      -0.821089       -22.3430
  21   2.0000      -0.650381       -17.6978
  22   2.0000      -0.650359       -17.6972
  23   2.0000      -0.588793       -16.0219
  24   2.0000      -0.577833       -15.7236
  25   2.0000      -0.565580       -15.3902
  26   2.0000      -0.565568       -15.3899
  27   2.0000      -0.531179       -14.4541
  28   2.0000      -0.531175       -14.4540
  29   2.0000      -0.526818       -14.3354
  30   2.0000      -0.526791       -14.3347
  31   2.0000      -0.509365       -13.8605
  32   2.0000      -0.432395       -11.7661
  33   2.0000      -0.432388       -11.7659
  34   2.0000      -0.423757       -11.5310
  35   2.0000      -0.419155       -11.4058
  36   2.0000      -0.416989       -11.3469
  37   2.0000      -0.416449       -11.3321
  38   2.0000      -0.402750       -10.9594
  39   2.0000      -0.402745       -10.9593
  40   2.0000      -0.394858       -10.7446
  41   2.0000      -0.378781       -10.3072
  42   2.0000      -0.373236       -10.1563
  43   2.0000      -0.373234       -10.1562
  44   2.0000      -0.366134        -9.9630
  45   2.0000      -0.334339        -9.0978
  46   2.0000      -0.334303        -9.0968
  47   2.0000      -0.277492        -7.5509
  48   0.0000      -0.073266        -1.9937
  49   0.0000       0.027085         0.7370
  50   0.0000       0.083310         2.2670
  51   0.0000       0.083344         2.2679
  52   0.0000       0.119502         3.2518

MULLIKEN ATOMIC CHARGES
-----------------------
   0 C :    0.242745
   1 C :    0.242024
   2 C :    0.242857
   3 C :    0.242024
   4 F :   -0.120998
   5 F :   -0.121417
   6 F :   -0.121422
   7 F :   -0.120999
   8 F :   -0.121419
   9 F :   -0.120996
  10 F :   -0.120991
  11 F :   -0.121409
Sum of atomic charges:    0.0000000

LOEWDIN ATOMIC CHARGES
----------------------
   0 C :    0.042015
   1 C :    0.042014
   2 C :    0.042053
   3 C :    0.042021
   4 F :   -0.021060
   5 F :   -0.020970
   6 F :   -0.020976
   7 F :   -0.021058
   8 F :   -0.020973
   9 F :   -0.021057
  10 F :   -0.021053
  11 F :   -0.020958

  Mayer bond orders larger than 0.100000
B(  0-C ,  1-C ) :   0.9394 B(  0-C ,  3-C ) :   0.9394 B(  0-C , 10-F ) :   1.1653
B(  0-C , 11-F ) :   1.1636 B(  1-C ,  2-C ) :   0.9395 B(  1-C ,  8-F ) :   1.1635
B(  1-C ,  9-F ) :   1.1652 B(  2-C ,  3-C ) :   0.9395 B(  2-C ,  6-F ) :   1.1636
B(  2-C ,  7-F ) :   1.1652 B(  3-C ,  4-F ) :   1.1652 B(  3-C ,  5-F ) :   1.1635

Dispersion correction           -0.011892411
FINAL SINGLE POINT ENERGY      -949.377794041694

DIPOLE MOMENT
-------------

Method             : SCF
Type of density    : Electron Density
Multiplicity       :   1
Irrep              :   0
Energy             :  -949.4777124370950787 Eh
Relativity type    :
Basis              : AO
                                X                 Y                 Z
Electronic contribution:      0.000034257       0.000026669      -0.000003621
Nuclear contribution   :      0.000072707       0.000023333      -0.000004761
                        -----------------------------------------
Total Dipole Moment    :      0.000106964       0.000050002      -0.000008383
                        -----------------------------------------
Magnitude (a.u.)       :      0.000118371
Magnitude (Debye)      :      0.000300876

Rotational constants in cm-1:             0.035198             0.035194             0.027995
Rotational constants in MHz :          1055.219953          1055.094233           839.277575

                             ****ORCA TERMINATED NORMALLY****
TOTAL RUN TIME: 0 days 0 hours 0 minutes 11 seconds 263 msec
