                         Program Version 6.0.0  -   RELEASE  -
|  1> ! pbe def2-sv(p) def2/J RI DEFGRID1 loosescf d4 GCP(DFT/SV(P)) printgap
|  2> %output
|  3>     printlevel normal
|  4> end
|  5> * xyz 0 1
|  6> C 3.4953376716 2.0563324294 1.9382926519
|  7> C 2.3820601269 2.135755448 0.9149482367
|  8> O 2.4817620319 1.0865657484 -0.0687074894
|  9> P 2.2410448043 -0.4389977086 0.2720737828
| 10> S 0.9223457636 -0.8209162639 1.6810735187
| 11> O 3.7151718086 -0.9348503344 0.5971299989
| 12> C 3.9907506967 -2.1882964478 1.2443305299
| 13> C 3.6307940649 -3.3740393224 0.3723426737
| 14> S 1.8827863036 -1.1619552467 -1.6783675299
| 15> C 0.0812616761 -1.0141068039 -1.6916132125
| 16> S -0.4707601673 0.6863693933 -1.3454469335
| 17> P -2.3708009287 0.2136030903 -0.4734080655
| 18> S -2.5636603734 -1.5881975699 0.2560567895
| 19> O -3.4177757617 0.4573814783 -1.622957964
| 20> C -3.5290028175 1.6932126143 -2.3719317063
| 21> C -4.5854070264 2.597696367 -1.7714789397
| 22> O -2.6220539639 1.4506757723 0.4914608718
| 23> C -1.9618762921 1.5988130828 1.7638159448
| 24> C -2.8367169478 1.0714332933 2.8835105411
| 25> H 3.4434963483 2.9183959878 2.5958472783
| 26> H 3.386832431 1.1496955397 2.5325421354
| 27> H 4.4609542603 2.0359581315 1.4402064072
| 28> H 2.4343650152 3.0504220102 0.3233134775
| 29> H 1.4037553139 2.0630976491 1.4013179056
| 30> H 5.061712609 -2.1478340046 1.4473829065
| 31> H 3.4335239864 -2.2217687979 2.1863582811
| 32> H 4.0971970977 -3.2797466839 -0.6051499316
| 33> H 3.9700584608 -4.2880572881 0.8492475127
| 34> H 2.5503583577 -3.4267351383 0.2406850882
| 35> H -0.3553400194 -1.6703144694 -0.9325775775
| 36> H -0.2373715598 -1.304777029 -2.6898309063
| 37> H -2.5506947949 2.1820379326 -2.3935925298
| 38> H -3.8054165491 1.3733167711 -3.3781467791
| 39> H -4.6973414947 3.4765578686 -2.3987912978
| 40> H -5.5350475108 2.0727423854 -1.715785027
| 41> H -4.2957916637 2.904824092 -0.7704733267
| 42> H -1.0059141562 1.0683496782 1.7457731869
| 43> H -1.7863779168 2.6716904744 1.8637219937
| 44> H -3.7999040242 1.5736327947 2.8776191548
| 45> H -2.994852187 0.0020270816 2.7591369042
| 46> H -2.3421082461 1.2437627963 3.8339148833
| 47> *
| 48>
| 49>                          ****END OF INPUT****

CARTESIAN COORDINATES (ANGSTROEM)
---------------------------------
  C      3.495338    2.056332    1.938293
  C      2.382060    2.135755    0.914948
  O      2.481762    1.086566   -0.068707
  P      2.241045   -0.438998    0.272074
  S      0.922346   -0.820916    1.681074
  O      3.715172   -0.934850    0.597130
  C      3.990751   -2.188296    1.244331
  C      3.630794   -3.374039    0.372343
  S      1.882786   -1.161955   -1.678368
  C      0.081262   -1.014107   -1.691613
  S     -0.470760    0.686369   -1.345447
  P     -2.370801    0.213603   -0.473408
  S     -2.563660   -1.588198    0.256057
  O     -3.417776    0.457381   -1.622958
  C     -3.529003    1.693213   -2.371932
  C     -4.585407    2.597696   -1.771479
  O     -2.622054    1.450676    0.491461
  C     -1.961876    1.598813    1.763816
  C     -2.836717    1.071433    2.883511
  H      3.443496    2.918396    2.595847
  H      3.386832    1.149696    2.532542
  H      4.460954    2.035958    1.440206
  H      2.434365    3.050422    0.323313
  H      1.403755    2.063098    1.401318
  H      5.061713   -2.147834    1.447383
  H      3.433524   -2.221769    2.186358
  H      4.097197   -3.279747   -0.605150
  H      3.970058   -4.288057    0.849248
  H      2.550358   -3.426735    0.240685
  H     -0.355340   -1.670314   -0.932578
  H     -0.237372   -1.304777   -2.689831
  H     -2.550695    2.182038   -2.393593
  H     -3.805417    1.373317   -3.378147
  H     -4.697341    3.476558   -2.398791
  H     -5.535048    2.072742   -1.715785
  H     -4.295792    2.904824   -0.770473
  H     -1.005914    1.068350    1.745773
  H     -1.786378    2.671690    1.863722
  H     -3.799904    1.573633    2.877619
  H     -2.994852    0.002027    2.759137
  H     -2.342108    1.243763    3.833915

 Total Charge           Charge          ....    0
 Multiplicity           Mult            ....    1
 Number of Electrons    NEL             ....  202
 Basis Dimension        Dim             ....  334

ORBITAL ENERGIES
----------------

  NO   OCC          E(Eh)            E(eV)
   0   2.0000     -88.044895     -2395.8234
   1   2.0000     -88.038441     -2395.6478
   2   2.0000     -87.988540     -2394.2899
   3   2.0000     -87.981815     -2394.1069
   4   2.0000     -76.427627     -2079.7015
   5   2.0000     -76.423022     -2079.5762
   6   2.0000     -18.794186      -511.4158
   7   2.0000     -18.792950      -511.3822
   8   2.0000     -18.789255      -511.2816
   9   2.0000     -18.789174      -511.2794
  10   2.0000      -9.955020      -270.8899
  11   2.0000      -9.953480      -270.8480
  12   2.0000      -9.953253      -270.8418
  13   2.0000      -9.951247      -270.7872
  14   2.0000      -9.948111      -270.7019
  15   2.0000      -9.885433      -268.9963
  16   2.0000      -9.885223      -268.9906
  17   2.0000      -9.884363      -268.9672
  18   2.0000      -9.876818      -268.7619
  19   2.0000      -7.690288      -209.2634
  20   2.0000      -7.682903      -209.0624
  21   2.0000      -7.632993      -207.7043
  22   2.0000      -7.627112      -207.5443
  23   2.0000      -6.424987      -174.8328
  24   2.0000      -6.420560      -174.7123
  25   2.0000      -5.718238      -155.6012
  26   2.0000      -5.714853      -155.5090
  27   2.0000      -5.710733      -155.3970
  28   2.0000      -5.707500      -155.3090
  29   2.0000      -5.707078      -155.2975
  30   2.0000      -5.699958      -155.1037
  31   2.0000      -5.661780      -154.0649
  32   2.0000      -5.656081      -153.9098
  33   2.0000      -5.653716      -153.8454
  34   2.0000      -5.653251      -153.8328
  35   2.0000      -5.647626      -153.6797
  36   2.0000      -5.647252      -153.6696
  37   2.0000      -4.647369      -126.4613
  38   2.0000      -4.646782      -126.4454
  39   2.0000      -4.645622      -126.4138
  40   2.0000      -4.643418      -126.3538
  41   2.0000      -4.642254      -126.3222
  42   2.0000      -4.640841      -126.2837
  43   2.0000      -0.987722       -26.8773
  44   2.0000      -0.986680       -26.8489
  45   2.0000      -0.946737       -25.7620
  46   2.0000      -0.943677       -25.6788
  47   2.0000      -0.761583       -20.7237
  48   2.0000      -0.720577       -19.6079
  49   2.0000      -0.708885       -19.2897
  50   2.0000      -0.688119       -18.7247
  51   2.0000      -0.687461       -18.7068
  52   2.0000      -0.673094       -18.3158
  53   2.0000      -0.651362       -17.7245
  54   2.0000      -0.635931       -17.3046
  55   2.0000      -0.601712       -16.3734
  56   2.0000      -0.586055       -15.9474
  57   2.0000      -0.573844       -15.6151
  58   2.0000      -0.570901       -15.5350
  59   2.0000      -0.560837       -15.2611
  60   2.0000      -0.504182       -13.7195
  61   2.0000      -0.492273       -13.3954
  62   2.0000      -0.478028       -13.0078
  63   2.0000      -0.473079       -12.8731
  64   2.0000      -0.447909       -12.1882
  65   2.0000      -0.446415       -12.1476
  66   2.0000      -0.440444       -11.9851
  67   2.0000      -0.435069       -11.8388
  68   2.0000      -0.427059       -11.6209
  69   2.0000      -0.422383       -11.4936
  70   2.0000      -0.409941       -11.1551
  71   2.0000      -0.395703       -10.7676
  72   2.0000      -0.392560       -10.6821
  73   2.0000      -0.386268       -10.5109
  74   2.0000      -0.382453       -10.4071
  75   2.0000      -0.374706       -10.1963
  76   2.0000      -0.362552        -9.8655
  77   2.0000      -0.356605        -9.7037
  78   2.0000      -0.354707        -9.6521
  79   2.0000      -0.350953        -9.5499
  80   2.0000      -0.349336        -9.5059
  81   2.0000      -0.342853        -9.3295
  82   2.0000      -0.341092        -9.2816
  83   2.0000      -0.337318        -9.1789
  84   2.0000      -0.331277        -9.0145
  85   2.0000      -0.316136        -8.6025
  86   2.0000      -0.313899        -8.5416
  87   2.0000      -0.296812        -8.0767
  88   2.0000      -0.291835        -7.9412
  89   2.0000      -0.290105        -7.8942
  90   2.0000      -0.284020        -7.7286
  91   2.0000      -0.276429        -7.5220
  92   2.0000      -0.272279        -7.4091
  93   2.0000      -0.265389        -7.2216
  94   2.0000      -0.257809        -7.0153
  95   2.0000      -0.234037        -6.3685
  96   2.0000      -0.223577        -6.0838
  97   2.0000      -0.210865        -5.7379
  98   2.0000      -0.199577        -5.4308
  99   2.0000      -0.197588        -5.3766
 100   2.0000      -0.191997        -5.2245
 101   0.0000      -0.043523        -1.1843
 102   0.0000      -0.030090        -0.8188
 103   0.0000      -0.009737        -0.2649
 104   0.0000       0.011360         0.3091
 105   0.0000       0.017571         0.4781

MULLIKEN ATOMIC CHARGES
-----------------------
   0 C :   -0.307086
   1 C :   -0.005509
   2 O :   -0.359519
   3 P :    0.608086
   4 S :   -0.319959
   5 O :   -0.369680
   6 C :   -0.004007
   7 C :   -0.318980
   8 S :   -0.083507
   9 C :   -0.347635
  10 S :   -0.121378
  11 P :    0.602397
  12 S :   -0.294182
  13 O :   -0.354981
  14 C :   -0.012484
  15 C :   -0.290140
  16 O :   -0.382543
  17 C :   -0.055239
  18 C :   -0.284618
  19 H :    0.110504
  20 H :    0.121903
  21 H :    0.118893
  22 H :    0.105753
  23 H :    0.111009
  24 H :    0.105735
  25 H :    0.111199
  26 H :    0.119045
  27 H :    0.114499
  28 H :    0.131909
  29 H :    0.208648
  30 H :    0.180976
  31 H :    0.102192
  32 H :    0.108920
  33 H :    0.108280
  34 H :    0.119830
  35 H :    0.122403
  36 H :    0.154551
  37 H :    0.099688
  38 H :    0.108770
  39 H :    0.129320
  40 H :    0.106941
Sum of atomic charges:   -0.0000000

LOEWDIN ATOMIC CHARGES
----------------------
   0 C :   -0.364709
   1 C :   -0.115044
   2 O :   -0.238508
   3 P :    0.569756
   4 S :   -0.306235
   5 O :   -0.243253
   6 C :   -0.119335
   7 C :   -0.369521
   8 S :    0.096894
   9 C :   -0.479891
  10 S :    0.053278
  11 P :    0.567113
  12 S :   -0.286387
  13 O :   -0.238018
  14 C :   -0.114944
  15 C :   -0.360039
  16 O :   -0.245703
  17 C :   -0.125565
  18 C :   -0.359312
  19 H :    0.129469
  20 H :    0.122554
  21 H :    0.127447
  22 H :    0.119704
  23 H :    0.109063
  24 H :    0.118981
  25 H :    0.110589
  26 H :    0.124522
  27 H :    0.131820
  28 H :    0.123198
  29 H :    0.122139
  30 H :    0.134626
  31 H :    0.102712
  32 H :    0.120922
  33 H :    0.128658
  34 H :    0.128928
  35 H :    0.125870
  36 H :    0.104994
  37 H :    0.113827
  38 H :    0.122910
  39 H :    0.127336
  40 H :    0.129151

  Mayer bond orders larger than 0.100000
B(  0-C ,  1-C ) :   1.1639 B(  0-C , 19-H ) :   0.9391 B(  0-C , 20-H ) :   0.9367
B(  0-C , 21-H ) :   0.9457 B(  1-C ,  2-O ) :   0.9072 B(  1-C , 22-H ) :   0.9346
B(  1-C , 23-H ) :   0.9156 B(  2-O ,  3-P ) :   1.1269 B(  3-P ,  4-S ) :   1.5902
B(  3-P ,  5-O ) :   1.1100 B(  3-P ,  8-S ) :   0.9578 B(  4-S ,  8-S ) :   0.1130
B(  5-O ,  6-C ) :   0.9075 B(  6-C ,  7-C ) :   1.1666 B(  6-C , 24-H ) :   0.9337
B(  6-C , 25-H ) :   0.9156 B(  7-C , 26-H ) :   0.9442 B(  7-C , 27-H ) :   0.9377
B(  7-C , 28-H ) :   0.9357 B(  8-S ,  9-C ) :   1.0055 B(  9-C , 10-S ) :   0.9874
B(  9-C , 29-H ) :   0.8495 B(  9-C , 30-H ) :   0.9110 B( 10-S , 11-P ) :   0.9406
B( 10-S , 12-S ) :   0.1192 B( 11-P , 12-S ) :   1.6550 B( 11-P , 13-O ) :   1.1387
B( 11-P , 16-O ) :   1.0881 B( 13-O , 14-C ) :   0.8976 B( 14-C , 15-C ) :   1.1634
B( 14-C , 31-H ) :   0.9123 B( 14-C , 32-H ) :   0.9366 B( 15-C , 33-H ) :   0.9398
B( 15-C , 34-H ) :   0.9469 B( 15-C , 35-H ) :   0.9413 B( 16-O , 17-C ) :   0.8896
B( 17-C , 18-C ) :   1.1691 B( 17-C , 36-H ) :   0.8830 B( 17-C , 37-H ) :   0.9360
B( 18-C , 38-H ) :   0.9483 B( 18-C , 39-H ) :   0.9332 B( 18-C , 40-H ) :   0.9398

Dispersion correction           -0.065025048
FINAL SINGLE POINT ENERGY     -2929.520852823968

DIPOLE MOMENT
-------------

Method             : SCF
Type of density    : Electron Density
Multiplicity       :   1
Irrep              :   0
Energy             : -2929.6399065252389846 Eh
Relativity type    :
Basis              : AO
                                X                 Y                 Z
Electronic contribution:     -0.199366417      -9.830972374     -10.775980156
Nuclear contribution   :      0.909301445      11.054914237      10.721875574
                        -----------------------------------------
Total Dipole Moment    :      0.709935027       1.223941863      -0.054104583
                        -----------------------------------------
Magnitude (a.u.)       :      1.415969185
Magnitude (Debye)      :      3.599107643

Rotational constants in cm-1:             0.012585             0.004815             0.004584
Rotational constants in MHz :           377.283719           144.364200           137.418748

                             ****ORCA TERMINATED NORMALLY****
TOTAL RUN TIME: 0 days 0 hours 0 minutes 21 seconds 31 msec
