                         Program Version 6.0.0  -   RELEASE  -
|  1> ! r2scan-3c def2/J RI DEFGRID2 scfconv6 printgap
|  2> %output
|  3>     printlevel normal
|  4> end
|  5> * xyz 0 1
|  6> C 1.4731509435 -0.2412635176 -3.0893935309
|  7> C 2.4492102492 0.4716735052 -2.1746566717
|  8> O 2.8675597051 -0.4000583208 -1.1092905455
|  9> P 2.3852782074 -0.2899208902 0.3876357816
| 10> S 2.3797573108 1.4884779787 1.2222692448
| 11> O 3.4719277947 -1.2906635051 0.954525542
| 12> C 3.5403514954 -1.5697826482 2.3676236042
| 13> C 4.9030935561 -2.1653762049 2.6579911206
| 14> S 0.5669864596 -1.3851620171 0.5459763415
| 15> C -0.3728806557 -0.3015279061 1.6854791774
| 16> S -2.1316572078 -0.2980537386 1.3035022127
| 17> P -2.0054072616 0.5433007156 -0.6498617463
| 18> S -0.6299016392 1.911715762 -0.9280142889
| 19> O -3.4862658374 1.0222796927 -0.9675326453
| 20> C -3.9736454085 2.3291666599 -0.6217788108
| 21> C -4.0598835212 2.5353838444 0.8769447758
| 22> O -1.8113183306 -0.6648170422 -1.6443992615
| 23> C -2.3811778005 -1.9914929492 -1.5200810818
| 24> C -3.8870654718 -1.9739673276 -1.3787480163
| 25> H 1.2726339758 0.3876268968 -3.9508892912
| 26> H 1.8961162371 -1.1865198975 -3.4170600964
| 27> H 0.5344317054 -0.4317092686 -2.5730237321
| 28> H 2.0086868687 1.3830355324 -1.755741456
| 29> H 3.3689140315 0.7287325276 -2.7041175883
| 30> H 3.3872430328 -0.6349680695 2.9189155522
| 31> H 2.7391568703 -2.2722608537 2.6162806689
| 32> H 5.6822863283 -1.4537360659 2.4004878541
| 33> H 4.9700300549 -2.4059206165 3.7138709582
| 34> H 5.0439815705 -3.0677327999 2.0704663486
| 35> H 0.0351249904 0.7102709339 1.6033099521
| 36> H -0.2837337658 -0.6821280701 2.6997489064
| 37> H -3.3141926035 3.0763062461 -1.0749662442
| 38> H -4.9575632447 2.3710442901 -1.0910648475
| 39> H -4.558244113 3.4778379807 1.0803161442
| 40> H -4.6159877909 1.7246362973 1.3405029004
| 41> H -3.0601090297 2.5684262829 1.3075752203
| 42> H -2.0677917084 -2.4816052123 -2.4429968597
| 43> H -1.9077394457 -2.482566712 -0.6646555391
| 44> H -4.2539802123 -2.995587956 -1.3934319658
| 45> H -4.1733349142 -1.5080625468 -0.4380781524
| 46> H -4.3352051896 -1.4179115263 -2.1979099596
| 47> *
| 48>
| 49>                          ****END OF INPUT****

CARTESIAN COORDINATES (ANGSTROEM)
---------------------------------
  C      1.473151   -0.241264   -3.089394
  C      2.449210    0.471674   -2.174657
  O      2.867560   -0.400058   -1.109291
  P      2.385278   -0.289921    0.387636
  S      2.379757    1.488478    1.222269
  O      3.471928   -1.290664    0.954526
  C      3.540351   -1.569783    2.367624
  C      4.903094   -2.165376    2.657991
  S      0.566986   -1.385162    0.545976
  C     -0.372881   -0.301528    1.685479
  S     -2.131657   -0.298054    1.303502
  P     -2.005407    0.543301   -0.649862
  S     -0.629902    1.911716   -0.928014
  O     -3.486266    1.022280   -0.967533
  C     -3.973645    2.329167   -0.621779
  C     -4.059884    2.535384    0.876945
  O     -1.811318   -0.664817   -1.644399
  C     -2.381178   -1.991493   -1.520081
  C     -3.887065   -1.973967   -1.378748
  H      1.272634    0.387627   -3.950889
  H      1.896116   -1.186520   -3.417060
  H      0.534432   -0.431709   -2.573024
  H      2.008687    1.383036   -1.755741
  H      3.368914    0.728733   -2.704118
  H      3.387243   -0.634968    2.918916
  H      2.739157   -2.272261    2.616281
  H      5.682286   -1.453736    2.400488
  H      4.970030   -2.405921    3.713871
  H      5.043982   -3.067733    2.070466
  H      0.035125    0.710271    1.603310
  H     -0.283734   -0.682128    2.699749
  H     -3.314193    3.076306   -1.074966
  H     -4.957563    2.371044   -1.091065
  H     -4.558244    3.477838    1.080316
  H     -4.615988    1.724636    1.340503
  H     -3.060109    2.568426    1.307575
  H     -2.067792   -2.481605   -2.442997
  H     -1.907739   -2.482567   -0.664656
  H     -4.253980   -2.995588   -1.393432
  H     -4.173335   -1.508063   -0.438078
  H     -4.335205   -1.417912   -2.197910

 Total Charge           Charge          ....    0
 Multiplicity           Mult            ....    1
 Number of Electrons    NEL             ....  202
 Basis Dimension        Dim             ....  539

ORBITAL ENERGIES
----------------

  NO   OCC          E(Eh)            E(eV)
   0   2.0000     -88.581668     -2410.4297
   1   2.0000     -88.573646     -2410.2114
   2   2.0000     -88.516702     -2408.6619
   3   2.0000     -88.515915     -2408.6405
   4   2.0000     -76.916353     -2093.0004
   5   2.0000     -76.908783     -2092.7944
   6   2.0000     -18.994905      -516.8777
   7   2.0000     -18.992718      -516.8181
   8   2.0000     -18.985740      -516.6282
   9   2.0000     -18.982802      -516.5483
  10   2.0000     -10.105553      -274.9861
  11   2.0000     -10.104676      -274.9622
  12   2.0000     -10.100418      -274.8464
  13   2.0000     -10.094393      -274.6824
  14   2.0000     -10.087002      -274.4813
  15   2.0000     -10.035420      -273.0776
  16   2.0000     -10.030320      -272.9389
  17   2.0000     -10.028788      -272.8972
  18   2.0000     -10.013984      -272.4944
  19   2.0000      -7.876109      -214.3198
  20   2.0000      -7.867781      -214.0932
  21   2.0000      -7.811479      -212.5611
  22   2.0000      -7.810591      -212.5370
  23   2.0000      -6.594556      -179.4470
  24   2.0000      -6.587289      -179.2492
  25   2.0000      -5.823041      -158.4530
  26   2.0000      -5.819753      -158.3635
  27   2.0000      -5.814560      -158.2222
  28   2.0000      -5.813358      -158.1895
  29   2.0000      -5.811653      -158.1431
  30   2.0000      -5.805030      -157.9629
  31   2.0000      -5.759264      -156.7175
  32   2.0000      -5.758188      -156.6883
  33   2.0000      -5.751654      -156.5105
  34   2.0000      -5.751446      -156.5048
  35   2.0000      -5.750944      -156.4911
  36   2.0000      -5.750585      -156.4814
  37   2.0000      -4.740251      -128.9888
  38   2.0000      -4.739643      -128.9722
  39   2.0000      -4.737988      -128.9272
  40   2.0000      -4.732571      -128.7798
  41   2.0000      -4.732408      -128.7754
  42   2.0000      -4.731026      -128.7378
  43   2.0000      -1.052301       -28.6346
  44   2.0000      -1.046811       -28.4852
  45   2.0000      -1.013288       -27.5730
  46   2.0000      -1.003399       -27.3039
  47   2.0000      -0.800451       -21.7814
  48   2.0000      -0.758324       -20.6350
  49   2.0000      -0.750959       -20.4346
  50   2.0000      -0.736881       -20.0515
  51   2.0000      -0.721850       -19.6425
  52   2.0000      -0.711939       -19.3728
  53   2.0000      -0.685145       -18.6437
  54   2.0000      -0.662423       -18.0255
  55   2.0000      -0.630759       -17.1638
  56   2.0000      -0.622596       -16.9417
  57   2.0000      -0.612211       -16.6591
  58   2.0000      -0.595359       -16.2005
  59   2.0000      -0.586971       -15.9723
  60   2.0000      -0.527241       -14.3470
  61   2.0000      -0.518396       -14.1063
  62   2.0000      -0.493353       -13.4248
  63   2.0000      -0.488842       -13.3021
  64   2.0000      -0.468888       -12.7591
  65   2.0000      -0.464933       -12.6515
  66   2.0000      -0.462640       -12.5891
  67   2.0000      -0.453336       -12.3359
  68   2.0000      -0.450605       -12.2616
  69   2.0000      -0.431532       -11.7426
  70   2.0000      -0.429267       -11.6809
  71   2.0000      -0.418294       -11.3824
  72   2.0000      -0.410864       -11.1802
  73   2.0000      -0.397075       -10.8050
  74   2.0000      -0.389685       -10.6039
  75   2.0000      -0.387878       -10.5547
  76   2.0000      -0.382607       -10.4113
  77   2.0000      -0.373970       -10.1763
  78   2.0000      -0.370664       -10.0863
  79   2.0000      -0.367350        -9.9961
  80   2.0000      -0.363576        -9.8934
  81   2.0000      -0.356969        -9.7136
  82   2.0000      -0.352545        -9.5933
  83   2.0000      -0.350112        -9.5270
  84   2.0000      -0.339961        -9.2508
  85   2.0000      -0.329335        -8.9617
  86   2.0000      -0.322643        -8.7796
  87   2.0000      -0.313306        -8.5255
  88   2.0000      -0.311719        -8.4823
  89   2.0000      -0.308498        -8.3947
  90   2.0000      -0.296360        -8.0644
  91   2.0000      -0.291821        -7.9409
  92   2.0000      -0.279902        -7.6165
  93   2.0000      -0.276774        -7.5314
  94   2.0000      -0.269258        -7.3269
  95   2.0000      -0.248388        -6.7590
  96   2.0000      -0.236482        -6.4350
  97   2.0000      -0.223716        -6.0876
  98   2.0000      -0.214450        -5.8355
  99   2.0000      -0.211555        -5.7567
 100   2.0000      -0.201902        -5.4940
 101   0.0000      -0.048029        -1.3069
 102   0.0000      -0.035024        -0.9531
 103   0.0000      -0.012974        -0.3530
 104   0.0000       0.012355         0.3362
 105   0.0000       0.013786         0.3751

MULLIKEN ATOMIC CHARGES
-----------------------
   0 C :   -0.443865
   1 C :   -0.137880
   2 O :   -0.300520
   3 P :    0.692482
   4 S :   -0.450028
   5 O :   -0.280352
   6 C :   -0.141644
   7 C :   -0.443896
   8 S :   -0.170236
   9 C :   -0.223347
  10 S :   -0.160466
  11 P :    0.647081
  12 S :   -0.428678
  13 O :   -0.271128
  14 C :   -0.163272
  15 C :   -0.449944
  16 O :   -0.268544
  17 C :   -0.136651
  18 C :   -0.439603
  19 H :    0.144724
  20 H :    0.145371
  21 H :    0.181084
  22 H :    0.172510
  23 H :    0.146079
  24 H :    0.164958
  25 H :    0.149367
  26 H :    0.159367
  27 H :    0.143401
  28 H :    0.153650
  29 H :    0.226703
  30 H :    0.187564
  31 H :    0.176405
  32 H :    0.148264
  33 H :    0.149127
  34 H :    0.152243
  35 H :    0.180898
  36 H :    0.154942
  37 H :    0.162278
  38 H :    0.150571
  39 H :    0.158694
  40 H :    0.162292
Sum of atomic charges:   -0.0000000

LOEWDIN ATOMIC CHARGES
----------------------
   0 C :   -0.403669
   1 C :    0.024780
   2 O :   -0.640217
   3 P :    0.378435
   4 S :   -0.120843
   5 O :   -0.659059
   6 C :    0.016028
   7 C :   -0.385019
   8 S :    0.134680
   9 C :   -0.418309
  10 S :    0.133359
  11 P :    0.384107
  12 S :   -0.087970
  13 O :   -0.669253
  14 C :    0.021478
  15 C :   -0.408011
  16 O :   -0.672919
  17 C :    0.018605
  18 C :   -0.399736
  19 H :    0.161272
  20 H :    0.155732
  21 H :    0.175211
  22 H :    0.184013
  23 H :    0.175914
  24 H :    0.178266
  25 H :    0.169839
  26 H :    0.162113
  27 H :    0.158313
  28 H :    0.160131
  29 H :    0.201136
  30 H :    0.177103
  31 H :    0.181465
  32 H :    0.179500
  33 H :    0.159925
  34 H :    0.158659
  35 H :    0.166536
  36 H :    0.183661
  37 H :    0.176600
  38 H :    0.160416
  39 H :    0.163091
  40 H :    0.164640

  Mayer bond orders larger than 0.100000
B(  0-C ,  1-C ) :   0.9516 B(  0-C , 19-H ) :   0.9652 B(  0-C , 20-H ) :   0.9741
B(  0-C , 21-H ) :   0.9506 B(  1-C ,  2-O ) :   0.7611 B(  1-C , 22-H ) :   0.9581
B(  1-C , 23-H ) :   0.9641 B(  2-O ,  3-P ) :   1.1785 B(  3-P ,  4-S ) :   1.7697
B(  3-P ,  5-O ) :   1.1343 B(  3-P ,  8-S ) :   1.0309 B(  5-O ,  6-C ) :   0.7822
B(  6-C ,  7-C ) :   0.9636 B(  6-C , 24-H ) :   0.9506 B(  6-C , 25-H ) :   0.9435
B(  7-C , 26-H ) :   0.9722 B(  7-C , 27-H ) :   0.9650 B(  7-C , 28-H ) :   0.9720
B(  8-S ,  9-C ) :   0.8900 B(  9-C , 10-S ) :   0.9196 B(  9-C , 29-H ) :   0.8989
B(  9-C , 30-H ) :   0.9131 B( 10-S , 11-P ) :   1.0035 B( 11-P , 12-S ) :   1.8168
B( 11-P , 13-O ) :   1.0545 B( 11-P , 16-O ) :   1.1445 B( 13-O , 14-C ) :   0.8127
B( 14-C , 15-C ) :   0.9115 B( 14-C , 31-H ) :   0.9677 B( 14-C , 32-H ) :   0.9613
B( 15-C , 33-H ) :   0.9573 B( 15-C , 34-H ) :   0.9688 B( 15-C , 35-H ) :   0.9629
B( 16-O , 17-C ) :   0.8115 B( 17-C , 18-C ) :   0.9211 B( 17-C , 36-H ) :   0.9554
B( 17-C , 37-H ) :   0.9614 B( 18-C , 38-H ) :   0.9583 B( 18-C , 39-H ) :   0.9616
B( 18-C , 40-H ) :   0.9694

Dispersion correction           -0.021822666
FINAL SINGLE POINT ENERGY     -2932.458726617722

DIPOLE MOMENT
-------------

Method             : SCF
Type of density    : Electron Density
Multiplicity       :   1
Irrep              :   0
Energy             : -2932.4834927936594795 Eh
Relativity type    :
Basis              : AO
                                X                 Y                 Z
Electronic contribution:      5.237159980       5.370424279       1.892863249
Nuclear contribution   :     -6.511219846      -6.481015889      -1.700474284
                        -----------------------------------------
Total Dipole Moment    :     -1.274059866      -1.110591611       0.192388965
                        -----------------------------------------
Magnitude (a.u.)       :      1.701074890
Magnitude (Debye)      :      4.323788753

Rotational constants in cm-1:             0.012876             0.004785             0.004738
Rotational constants in MHz :           386.020561           143.465148           142.056235

                             ****ORCA TERMINATED NORMALLY****
TOTAL RUN TIME: 0 days 0 hours 1 minutes 17 seconds 660 msec
