                         Program Version 6.0.0  -   RELEASE  -
|  1> ! r2scan-3c def2/J RI DEFGRID2 scfconv6 printgap
|  2> %output
|  3>     printlevel normal
|  4> end
|  5> %cpcm
|  6>     smd true
|  7>     smdsolvent "water"
|  8> end
|  9> * xyz 0 1
| 10> C 1.4731509435 -0.2412635176 -3.0893935309
| 11> C 2.4492102492 0.4716735052 -2.1746566717
| 12> O 2.8675597051 -0.4000583208 -1.1092905455
| 13> P 2.3852782074 -0.2899208902 0.3876357816
| 14> S 2.3797573108 1.4884779787 1.2222692448
| 15> O 3.4719277947 -1.2906635051 0.954525542
| 16> C 3.5403514954 -1.5697826482 2.3676236042
| 17> C 4.9030935561 -2.1653762049 2.6579911206
| 18> S 0.5669864596 -1.3851620171 0.5459763415
| 19> C -0.3728806557 -0.3015279061 1.6854791774
| 20> S -2.1316572078 -0.2980537386 1.3035022127
| 21> P -2.0054072616 0.5433007156 -0.6498617463
| 22> S -0.6299016392 1.911715762 -0.9280142889
| 23> O -3.4862658374 1.0222796927 -0.9675326453
| 24> C -3.9736454085 2.3291666599 -0.6217788108
| 25> C -4.0598835212 2.5353838444 0.8769447758
| 26> O -1.8113183306 -0.6648170422 -1.6443992615
| 27> C -2.3811778005 -1.9914929492 -1.5200810818
| 28> C -3.8870654718 -1.9739673276 -1.3787480163
| 29> H 1.2726339758 0.3876268968 -3.9508892912
| 30> H 1.8961162371 -1.1865198975 -3.4170600964
| 31> H 0.5344317054 -0.4317092686 -2.5730237321
| 32> H 2.0086868687 1.3830355324 -1.755741456
| 33> H 3.3689140315 0.7287325276 -2.7041175883
| 34> H 3.3872430328 -0.6349680695 2.9189155522
| 35> H 2.7391568703 -2.2722608537 2.6162806689
| 36> H 5.6822863283 -1.4537360659 2.4004878541
| 37> H 4.9700300549 -2.4059206165 3.7138709582
| 38> H 5.0439815705 -3.0677327999 2.0704663486
| 39> H 0.0351249904 0.7102709339 1.6033099521
| 40> H -0.2837337658 -0.6821280701 2.6997489064
| 41> H -3.3141926035 3.0763062461 -1.0749662442
| 42> H -4.9575632447 2.3710442901 -1.0910648475
| 43> H -4.558244113 3.4778379807 1.0803161442
| 44> H -4.6159877909 1.7246362973 1.3405029004
| 45> H -3.0601090297 2.5684262829 1.3075752203
| 46> H -2.0677917084 -2.4816052123 -2.4429968597
| 47> H -1.9077394457 -2.482566712 -0.6646555391
| 48> H -4.2539802123 -2.995587956 -1.3934319658
| 49> H -4.1733349142 -1.5080625468 -0.4380781524
| 50> H -4.3352051896 -1.4179115263 -2.1979099596
| 51> *
| 52>
| 53>                          ****END OF INPUT****

CARTESIAN COORDINATES (ANGSTROEM)
---------------------------------
  C      1.473151   -0.241264   -3.089394
  C      2.449210    0.471674   -2.174657
  O      2.867560   -0.400058   -1.109291
  P      2.385278   -0.289921    0.387636
  S      2.379757    1.488478    1.222269
  O      3.471928   -1.290664    0.954526
  C      3.540351   -1.569783    2.367624
  C      4.903094   -2.165376    2.657991
  S      0.566986   -1.385162    0.545976
  C     -0.372881   -0.301528    1.685479
  S     -2.131657   -0.298054    1.303502
  P     -2.005407    0.543301   -0.649862
  S     -0.629902    1.911716   -0.928014
  O     -3.486266    1.022280   -0.967533
  C     -3.973645    2.329167   -0.621779
  C     -4.059884    2.535384    0.876945
  O     -1.811318   -0.664817   -1.644399
  C     -2.381178   -1.991493   -1.520081
  C     -3.887065   -1.973967   -1.378748
  H      1.272634    0.387627   -3.950889
  H      1.896116   -1.186520   -3.417060
  H      0.534432   -0.431709   -2.573024
  H      2.008687    1.383036   -1.755741
  H      3.368914    0.728733   -2.704118
  H      3.387243   -0.634968    2.918916
  H      2.739157   -2.272261    2.616281
  H      5.682286   -1.453736    2.400488
  H      4.970030   -2.405921    3.713871
  H      5.043982   -3.067733    2.070466
  H      0.035125    0.710271    1.603310
  H     -0.283734   -0.682128    2.699749
  H     -3.314193    3.076306   -1.074966
  H     -4.957563    2.371044   -1.091065
  H     -4.558244    3.477838    1.080316
  H     -4.615988    1.724636    1.340503
  H     -3.060109    2.568426    1.307575
  H     -2.067792   -2.481605   -2.442997
  H     -1.907739   -2.482567   -0.664656
  H     -4.253980   -2.995588   -1.393432
  H     -4.173335   -1.508063   -0.438078
  H     -4.335205   -1.417912   -2.197910

 Total Charge           Charge          ....    0
 Multiplicity           Mult            ....    1
 Number of Electrons    NEL             ....  202
 Basis Dimension        Dim             ....  539

ORBITAL ENERGIES
----------------

  NO   OCC          E(Eh)            E(eV)
   0   2.0000     -88.581794     -2410.4332
   1   2.0000     -88.578088     -2410.3323
   2   2.0000     -88.528185     -2408.9744
   3   2.0000     -88.523649     -2408.8510
   4   2.0000     -76.919333     -2093.0815
   5   2.0000     -76.918844     -2093.0682
   6   2.0000     -18.996592      -516.9235
   7   2.0000     -18.994603      -516.8694
   8   2.0000     -18.993253      -516.8327
   9   2.0000     -18.991475      -516.7843
  10   2.0000     -10.103421      -274.9281
  11   2.0000     -10.092726      -274.6370
  12   2.0000     -10.089722      -274.5553
  13   2.0000     -10.089238      -274.5421
  14   2.0000     -10.089068      -274.5375
  15   2.0000     -10.020551      -272.6731
  16   2.0000     -10.019269      -272.6382
  17   2.0000     -10.018427      -272.6153
  18   2.0000     -10.014711      -272.5141
  19   2.0000      -7.876127      -214.3203
  20   2.0000      -7.872147      -214.2120
  21   2.0000      -7.823175      -212.8794
  22   2.0000      -7.818763      -212.7594
  23   2.0000      -6.597608      -179.5300
  24   2.0000      -6.597448      -179.5257
  25   2.0000      -5.823103      -158.4547
  26   2.0000      -5.819806      -158.3650
  27   2.0000      -5.818956      -158.3418
  28   2.0000      -5.816038      -158.2624
  29   2.0000      -5.813313      -158.1883
  30   2.0000      -5.809369      -158.0810
  31   2.0000      -5.770685      -157.0283
  32   2.0000      -5.766435      -156.9127
  33   2.0000      -5.763513      -156.8332
  34   2.0000      -5.763213      -156.8250
  35   2.0000      -5.759032      -156.7112
  36   2.0000      -5.758685      -156.7018
  37   2.0000      -4.743262      -129.0707
  38   2.0000      -4.742774      -129.0574
  39   2.0000      -4.742668      -129.0546
  40   2.0000      -4.742522      -129.0506
  41   2.0000      -4.741203      -129.0147
  42   2.0000      -4.741143      -129.0131
  43   2.0000      -1.056687       -28.7539
  44   2.0000      -1.052195       -28.6317
  45   2.0000      -1.012533       -27.5524
  46   2.0000      -1.012265       -27.5451
  47   2.0000      -0.800758       -21.7897
  48   2.0000      -0.756724       -20.5915
  49   2.0000      -0.746986       -20.3265
  50   2.0000      -0.726243       -19.7621
  51   2.0000      -0.720070       -19.5941
  52   2.0000      -0.712766       -19.3953
  53   2.0000      -0.688510       -18.7353
  54   2.0000      -0.669878       -18.2283
  55   2.0000      -0.629734       -17.1359
  56   2.0000      -0.623196       -16.9580
  57   2.0000      -0.604106       -16.4386
  58   2.0000      -0.592564       -16.1245
  59   2.0000      -0.586092       -15.9484
  60   2.0000      -0.529294       -14.4028
  61   2.0000      -0.513309       -13.9678
  62   2.0000      -0.494340       -13.4517
  63   2.0000      -0.487349       -13.2614
  64   2.0000      -0.468425       -12.7465
  65   2.0000      -0.465533       -12.6678
  66   2.0000      -0.457827       -12.4581
  67   2.0000      -0.453045       -12.3280
  68   2.0000      -0.444541       -12.0966
  69   2.0000      -0.431453       -11.7404
  70   2.0000      -0.424661       -11.5556
  71   2.0000      -0.416467       -11.3327
  72   2.0000      -0.410107       -11.1596
  73   2.0000      -0.394985       -10.7481
  74   2.0000      -0.390073       -10.6144
  75   2.0000      -0.388623       -10.5750
  76   2.0000      -0.379849       -10.3362
  77   2.0000      -0.370764       -10.0890
  78   2.0000      -0.363401        -9.8886
  79   2.0000      -0.359228        -9.7751
  80   2.0000      -0.355166        -9.6646
  81   2.0000      -0.353323        -9.6144
  82   2.0000      -0.348711        -9.4889
  83   2.0000      -0.346243        -9.4218
  84   2.0000      -0.341726        -9.2988
  85   2.0000      -0.326231        -8.8772
  86   2.0000      -0.321496        -8.7484
  87   2.0000      -0.314295        -8.5524
  88   2.0000      -0.307703        -8.3730
  89   2.0000      -0.304726        -8.2920
  90   2.0000      -0.299629        -8.1533
  91   2.0000      -0.289264        -7.8713
  92   2.0000      -0.283059        -7.7024
  93   2.0000      -0.276858        -7.5337
  94   2.0000      -0.274786        -7.4773
  95   2.0000      -0.251306        -6.8384
  96   2.0000      -0.242975        -6.6117
  97   2.0000      -0.234263        -6.3746
  98   2.0000      -0.221735        -6.0337
  99   2.0000      -0.220439        -5.9985
 100   2.0000      -0.212377        -5.7791
 101   0.0000      -0.050401        -1.3715
 102   0.0000      -0.041426        -1.1273
 103   0.0000      -0.016166        -0.4399
 104   0.0000       0.006559         0.1785
 105   0.0000       0.012858         0.3499

MULLIKEN ATOMIC CHARGES
-----------------------
   0 C :   -0.490465
   1 C :   -0.126178
   2 O :   -0.327580
   3 P :    0.714734
   4 S :   -0.502811
   5 O :   -0.320434
   6 C :   -0.127672
   7 C :   -0.483836
   8 S :   -0.168159
   9 C :   -0.219790
  10 S :   -0.152000
  11 P :    0.664323
  12 S :   -0.483605
  13 O :   -0.292024
  14 C :   -0.158596
  15 C :   -0.487260
  16 O :   -0.296553
  17 C :   -0.129733
  18 C :   -0.478926
  19 H :    0.169105
  20 H :    0.163229
  21 H :    0.172620
  22 H :    0.168221
  23 H :    0.172335
  24 H :    0.168800
  25 H :    0.170142
  26 H :    0.166073
  27 H :    0.168954
  28 H :    0.165532
  29 H :    0.218181
  30 H :    0.231473
  31 H :    0.178453
  32 H :    0.175282
  33 H :    0.172733
  34 H :    0.169316
  35 H :    0.174302
  36 H :    0.179912
  37 H :    0.170255
  38 H :    0.176073
  39 H :    0.163594
  40 H :    0.171979
Sum of atomic charges:    0.0000000

LOEWDIN ATOMIC CHARGES
----------------------
   0 C :   -0.408210
   1 C :    0.026788
   2 O :   -0.658268
   3 P :    0.380261
   4 S :   -0.157780
   5 O :   -0.680994
   6 C :    0.022896
   7 C :   -0.389190
   8 S :    0.142237
   9 C :   -0.410594
  10 S :    0.146845
  11 P :    0.386889
  12 S :   -0.127495
  13 O :   -0.678394
  14 C :    0.025856
  15 C :   -0.410999
  16 O :   -0.689242
  17 C :    0.024788
  18 C :   -0.401505
  19 H :    0.168762
  20 H :    0.161969
  21 H :    0.170022
  22 H :    0.182822
  23 H :    0.186363
  24 H :    0.180997
  25 H :    0.179320
  26 H :    0.162604
  27 H :    0.168572
  28 H :    0.163144
  29 H :    0.198262
  30 H :    0.194095
  31 H :    0.181454
  32 H :    0.190922
  33 H :    0.168309
  34 H :    0.163493
  35 H :    0.161617
  36 H :    0.193809
  37 H :    0.180235
  38 H :    0.170313
  39 H :    0.162742
  40 H :    0.166283

  Mayer bond orders larger than 0.100000
B(  0-C ,  1-C ) :   0.9389 B(  0-C , 19-H ) :   0.9625 B(  0-C , 20-H ) :   0.9699
B(  0-C , 21-H ) :   0.9560 B(  1-C ,  2-O ) :   0.7531 B(  1-C , 22-H ) :   0.9552
B(  1-C , 23-H ) :   0.9547 B(  2-O ,  3-P ) :   1.1719 B(  3-P ,  4-S ) :   1.7325
B(  3-P ,  5-O ) :   1.1351 B(  3-P ,  8-S ) :   1.0608 B(  5-O ,  6-C ) :   0.7782
B(  6-C ,  7-C ) :   0.9547 B(  6-C , 24-H ) :   0.9467 B(  6-C , 25-H ) :   0.9349
B(  7-C , 26-H ) :   0.9705 B(  7-C , 27-H ) :   0.9587 B(  7-C , 28-H ) :   0.9692
B(  8-S ,  9-C ) :   0.8829 B(  9-C , 10-S ) :   0.9154 B(  9-C , 29-H ) :   0.9034
B(  9-C , 30-H ) :   0.8978 B( 10-S , 11-P ) :   1.0204 B( 11-P , 12-S ) :   1.7881
B( 11-P , 13-O ) :   1.0610 B( 11-P , 16-O ) :   1.1514 B( 13-O , 14-C ) :   0.8023
B( 14-C , 15-C ) :   0.9006 B( 14-C , 31-H ) :   0.9664 B( 14-C , 32-H ) :   0.9511
B( 15-C , 33-H ) :   0.9523 B( 15-C , 34-H ) :   0.9656 B( 15-C , 35-H ) :   0.9649
B( 16-O , 17-C ) :   0.8007 B( 17-C , 18-C ) :   0.9110 B( 17-C , 36-H ) :   0.9453
B( 17-C , 37-H ) :   0.9541 B( 18-C , 38-H ) :   0.9517 B( 18-C , 39-H ) :   0.9596
B( 18-C , 40-H ) :   0.9688

Dispersion correction           -0.021822666
FINAL SINGLE POINT ENERGY     -2932.467160907625

DIPOLE MOMENT
-------------

Method             : SCF
Type of density    : Electron Density
Multiplicity       :   1
Irrep              :   0
Energy             : -2932.4919270835630414 Eh
Relativity type    :
Basis              : AO
                                X                 Y                 Z
Electronic contribution:      4.649600998       4.810718123       2.205875096
Nuclear contribution   :     -6.511219846      -6.481015889      -1.700474284
                        -----------------------------------------
Total Dipole Moment    :     -1.861618848      -1.670297766       0.505400813
                        -----------------------------------------
Magnitude (a.u.)       :      2.551656196
Magnitude (Debye)      :      6.485794617

Rotational constants in cm-1:             0.012876             0.004785             0.004738
Rotational constants in MHz :           386.020561           143.465148           142.056235

                             ****ORCA TERMINATED NORMALLY****
TOTAL RUN TIME: 0 days 0 hours 1 minutes 50 seconds 247 msec
