                         Program Version 6.0.0  -   RELEASE  -
|  1> ! pbe def2-sv(p) def2/J RI DEFGRID1 loosescf d4 GCP(DFT/SV(P)) printgap
|  2> %output
|  3>     printlevel normal
|  4> end
|  5> * xyz 0 1
|  6> C 5.4125466341 0.5075928072 -0.4713053696
|  7> C 4.7050684361 -0.8133621459 -0.6870297308
|  8> O 3.5044982344 -0.912955655 0.1064829715
|  9> P 2.2302569839 -0.0198968558 -0.1783149704
| 10> S 1.8924714011 0.3530135003 -2.0774640243
| 11> O 2.4912092464 1.2160462189 0.7849694013
| 12> C 1.6847319553 2.4099960706 0.7974616148
| 13> C 2.3045858899 3.4819433787 -0.0776500475
| 14> S 0.7912302643 -1.1621993233 0.8682291522
| 15> C -0.059513814 -1.9245600829 -0.5562474881
| 16> S -1.81230852 -2.2162099974 -0.2182746248
| 17> P -2.3822994552 -0.2360614222 0.2088997323
| 18> S -1.5122150669 1.2378858557 -0.7608309255
| 19> O -2.1994561565 -0.2358279623 1.7782851586
| 20> C -2.1121628159 0.9691299395 2.5715930508
| 21> C -1.0498562934 0.7697709446 3.6340256653
| 22> O -3.9679390792 -0.2365331035 0.0832607098
| 23> C -4.6549833781 0.0572109798 -1.1458587922
| 24> C -4.4160629121 -1.0032717932 -2.2010977898
| 25> H 6.358118799 0.5025368211 -1.0044036182
| 26> H 4.795524556 1.3208096378 -0.8511548294
| 27> H 5.5926020981 0.6679872953 0.5883802607
| 28> H 5.3083630926 -1.6583440196 -0.353131
| 29> H 4.4339974292 -0.9388637661 -1.7402149472
| 30> H 0.6721983216 2.1764344383 0.4573355826
| 31> H 1.6591366162 2.7160229015 1.8449842621
| 32> H 2.3140102646 3.1567907977 -1.1160872061
| 33> H 1.7130803797 4.3885739459 -0.0022114858
| 34> H 3.3228224556 3.6857310785 0.2420146517
| 35> H 0.3724866674 -2.9013123339 -0.7596003703
| 36> H 0.0494703954 -1.2569195978 -1.4161167924
| 37> H -1.8666212988 1.8096982508 1.9127390908
| 38> H -3.0962067837 1.1343071575 3.015253347
| 39> H -1.2967567342 -0.0930783843 4.245252494
| 40> H -0.0812356601 0.5979680962 3.1704107073
| 41> H -1.0002766319 1.6551633115 4.2593996929
| 42> H -5.7043922465 0.1061766499 -0.852504095
| 43> H -4.3211805658 1.0373402294 -1.5017024839
| 44> H -3.3744483003 -0.9840325191 -2.5200674281
| 45> H -4.6411462238 -1.9895043063 -1.8030813163
| 46> H -5.0494349387 -0.8052923361 -3.0599109794
| 47> *
| 48>
| 49>                          ****END OF INPUT****

CARTESIAN COORDINATES (ANGSTROEM)
---------------------------------
  C      5.412547    0.507593   -0.471305
  C      4.705068   -0.813362   -0.687030
  O      3.504498   -0.912956    0.106483
  P      2.230257   -0.019897   -0.178315
  S      1.892471    0.353014   -2.077464
  O      2.491209    1.216046    0.784969
  C      1.684732    2.409996    0.797462
  C      2.304586    3.481943   -0.077650
  S      0.791230   -1.162199    0.868229
  C     -0.059514   -1.924560   -0.556247
  S     -1.812309   -2.216210   -0.218275
  P     -2.382299   -0.236061    0.208900
  S     -1.512215    1.237886   -0.760831
  O     -2.199456   -0.235828    1.778285
  C     -2.112163    0.969130    2.571593
  C     -1.049856    0.769771    3.634026
  O     -3.967939   -0.236533    0.083261
  C     -4.654983    0.057211   -1.145859
  C     -4.416063   -1.003272   -2.201098
  H      6.358119    0.502537   -1.004404
  H      4.795525    1.320810   -0.851155
  H      5.592602    0.667987    0.588380
  H      5.308363   -1.658344   -0.353131
  H      4.433997   -0.938864   -1.740215
  H      0.672198    2.176434    0.457336
  H      1.659137    2.716023    1.844984
  H      2.314010    3.156791   -1.116087
  H      1.713080    4.388574   -0.002211
  H      3.322822    3.685731    0.242015
  H      0.372487   -2.901312   -0.759600
  H      0.049470   -1.256920   -1.416117
  H     -1.866621    1.809698    1.912739
  H     -3.096207    1.134307    3.015253
  H     -1.296757   -0.093078    4.245252
  H     -0.081236    0.597968    3.170411
  H     -1.000277    1.655163    4.259400
  H     -5.704392    0.106177   -0.852504
  H     -4.321181    1.037340   -1.501702
  H     -3.374448   -0.984033   -2.520067
  H     -4.641146   -1.989504   -1.803081
  H     -5.049435   -0.805292   -3.059911

 Total Charge           Charge          ....    0
 Multiplicity           Mult            ....    1
 Number of Electrons    NEL             ....  202
 Basis Dimension        Dim             ....  334

ORBITAL ENERGIES
----------------

  NO   OCC          E(Eh)            E(eV)
   0   2.0000     -88.046450     -2395.8657
   1   2.0000     -88.038464     -2395.6484
   2   2.0000     -87.986797     -2394.2425
   3   2.0000     -87.986659     -2394.2387
   4   2.0000     -76.426714     -2079.6766
   5   2.0000     -76.423704     -2079.5947
   6   2.0000     -18.792060      -511.3580
   7   2.0000     -18.790964      -511.3281
   8   2.0000     -18.788075      -511.2495
   9   2.0000     -18.785860      -511.1892
  10   2.0000      -9.953162      -270.8393
  11   2.0000      -9.951797      -270.8022
  12   2.0000      -9.950775      -270.7744
  13   2.0000      -9.948935      -270.7243
  14   2.0000      -9.947041      -270.6727
  15   2.0000      -9.883804      -268.9520
  16   2.0000      -9.883745      -268.9504
  17   2.0000      -9.882226      -268.9090
  18   2.0000      -9.878352      -268.8036
  19   2.0000      -7.691930      -209.3081
  20   2.0000      -7.683362      -209.0749
  21   2.0000      -7.631658      -207.6680
  22   2.0000      -7.631272      -207.6575
  23   2.0000      -6.424189      -174.8111
  24   2.0000      -6.421406      -174.7353
  25   2.0000      -5.719934      -155.6473
  26   2.0000      -5.716395      -155.5510
  27   2.0000      -5.711281      -155.4119
  28   2.0000      -5.708744      -155.3428
  29   2.0000      -5.708046      -155.3238
  30   2.0000      -5.700101      -155.1076
  31   2.0000      -5.660400      -154.0273
  32   2.0000      -5.660027      -154.0172
  33   2.0000      -5.652422      -153.8102
  34   2.0000      -5.652017      -153.7992
  35   2.0000      -5.651851      -153.7947
  36   2.0000      -5.651493      -153.7850
  37   2.0000      -4.646599      -126.4404
  38   2.0000      -4.645986      -126.4237
  39   2.0000      -4.644762      -126.3904
  40   2.0000      -4.643796      -126.3641
  41   2.0000      -4.643034      -126.3434
  42   2.0000      -4.642156      -126.3195
  43   2.0000      -0.985395       -26.8139
  44   2.0000      -0.983812       -26.7709
  45   2.0000      -0.943844       -25.6833
  46   2.0000      -0.942344       -25.6425
  47   2.0000      -0.763058       -20.7639
  48   2.0000      -0.721724       -19.6391
  49   2.0000      -0.707692       -19.2573
  50   2.0000      -0.686004       -18.6671
  51   2.0000      -0.683660       -18.6033
  52   2.0000      -0.672702       -18.3052
  53   2.0000      -0.651144       -17.7185
  54   2.0000      -0.636121       -17.3097
  55   2.0000      -0.601543       -16.3688
  56   2.0000      -0.592282       -16.1168
  57   2.0000      -0.572366       -15.5749
  58   2.0000      -0.565639       -15.3918
  59   2.0000      -0.556223       -15.1356
  60   2.0000      -0.502756       -13.6807
  61   2.0000      -0.495792       -13.4912
  62   2.0000      -0.473289       -12.8788
  63   2.0000      -0.470498       -12.8029
  64   2.0000      -0.445981       -12.1357
  65   2.0000      -0.443927       -12.0799
  66   2.0000      -0.439668       -11.9640
  67   2.0000      -0.434350       -11.8193
  68   2.0000      -0.427584       -11.6352
  69   2.0000      -0.415739       -11.3128
  70   2.0000      -0.409153       -11.1336
  71   2.0000      -0.398527       -10.8445
  72   2.0000      -0.389699       -10.6042
  73   2.0000      -0.387403       -10.5418
  74   2.0000      -0.382776       -10.4159
  75   2.0000      -0.374236       -10.1835
  76   2.0000      -0.367518       -10.0007
  77   2.0000      -0.354599        -9.6491
  78   2.0000      -0.353715        -9.6251
  79   2.0000      -0.351110        -9.5542
  80   2.0000      -0.345934        -9.4134
  81   2.0000      -0.339962        -9.2508
  82   2.0000      -0.338979        -9.2241
  83   2.0000      -0.336197        -9.1484
  84   2.0000      -0.330777        -9.0009
  85   2.0000      -0.312927        -8.5152
  86   2.0000      -0.310237        -8.4420
  87   2.0000      -0.296256        -8.0615
  88   2.0000      -0.292964        -7.9720
  89   2.0000      -0.285542        -7.7700
  90   2.0000      -0.282512        -7.6875
  91   2.0000      -0.275875        -7.5069
  92   2.0000      -0.270644        -7.3646
  93   2.0000      -0.264235        -7.1902
  94   2.0000      -0.260522        -7.0892
  95   2.0000      -0.232824        -6.3355
  96   2.0000      -0.223817        -6.0904
  97   2.0000      -0.213451        -5.8083
  98   2.0000      -0.200136        -5.4460
  99   2.0000      -0.199801        -5.4368
 100   2.0000      -0.192714        -5.2440
 101   0.0000      -0.044108        -1.2002
 102   0.0000      -0.031989        -0.8705
 103   0.0000      -0.010323        -0.2809
 104   0.0000       0.010749         0.2925
 105   0.0000       0.019173         0.5217

MULLIKEN ATOMIC CHARGES
-----------------------
   0 C :   -0.312923
   1 C :   -0.003719
   2 O :   -0.365882
   3 P :    0.620356
   4 S :   -0.320672
   5 O :   -0.377576
   6 C :   -0.040435
   7 C :   -0.293590
   8 S :   -0.094545
   9 C :   -0.354348
  10 S :   -0.081713
  11 P :    0.607284
  12 S :   -0.321186
  13 O :   -0.362671
  14 C :   -0.004946
  15 C :   -0.294568
  16 O :   -0.372021
  17 C :   -0.001425
  18 C :   -0.320514
  19 H :    0.110709
  20 H :    0.128036
  21 H :    0.117327
  22 H :    0.104517
  23 H :    0.109534
  24 H :    0.138722
  25 H :    0.101688
  26 H :    0.129343
  27 H :    0.108431
  28 H :    0.112225
  29 H :    0.182261
  30 H :    0.209538
  31 H :    0.102395
  32 H :    0.103944
  33 H :    0.117303
  34 H :    0.133479
  35 H :    0.106257
  36 H :    0.104954
  37 H :    0.111311
  38 H :    0.130315
  39 H :    0.118700
  40 H :    0.114107
Sum of atomic charges:   -0.0000000

LOEWDIN ATOMIC CHARGES
----------------------
   0 C :   -0.365440
   1 C :   -0.117524
   2 O :   -0.244790
   3 P :    0.570594
   4 S :   -0.301135
   5 O :   -0.244346
   6 C :   -0.123278
   7 C :   -0.361301
   8 S :    0.082621
   9 C :   -0.477767
  10 S :    0.098684
  11 P :    0.567255
  12 S :   -0.305164
  13 O :   -0.241761
  14 C :   -0.114276
  15 C :   -0.354767
  16 O :   -0.247329
  17 C :   -0.118843
  18 C :   -0.369809
  19 H :    0.129781
  20 H :    0.123497
  21 H :    0.126583
  22 H :    0.118493
  23 H :    0.109355
  24 H :    0.104930
  25 H :    0.114973
  26 H :    0.125414
  27 H :    0.129594
  28 H :    0.122527
  29 H :    0.135213
  30 H :    0.122674
  31 H :    0.104142
  32 H :    0.114761
  33 H :    0.128046
  34 H :    0.123282
  35 H :    0.127593
  36 H :    0.118710
  37 H :    0.110675
  38 H :    0.122338
  39 H :    0.124235
  40 H :    0.131560

  Mayer bond orders larger than 0.100000
B(  0-C ,  1-C ) :   1.1631 B(  0-C , 19-H ) :   0.9380 B(  0-C , 20-H ) :   0.9345
B(  0-C , 21-H ) :   0.9462 B(  1-C ,  2-O ) :   0.9121 B(  1-C , 22-H ) :   0.9349
B(  1-C , 23-H ) :   0.9157 B(  2-O ,  3-P ) :   1.1321 B(  3-P ,  4-S ) :   1.6012
B(  3-P ,  5-O ) :   1.1175 B(  3-P ,  8-S ) :   0.9576 B(  4-S ,  8-S ) :   0.1201
B(  5-O ,  6-C ) :   0.8918 B(  6-C ,  7-C ) :   1.1719 B(  6-C , 24-H ) :   0.8933
B(  6-C , 25-H ) :   0.9328 B(  7-C , 26-H ) :   0.9334 B(  7-C , 27-H ) :   0.9397
B(  7-C , 28-H ) :   0.9451 B(  8-S ,  9-C ) :   0.9927 B(  9-C , 10-S ) :   1.0045
B(  9-C , 29-H ) :   0.9096 B(  9-C , 30-H ) :   0.8520 B( 10-S , 11-P ) :   0.9636
B( 10-S , 12-S ) :   0.1112 B( 11-P , 12-S ) :   1.5955 B( 11-P , 13-O ) :   1.1335
B( 11-P , 16-O ) :   1.1144 B( 13-O , 14-C ) :   0.8980 B( 14-C , 15-C ) :   1.1653
B( 14-C , 31-H ) :   0.9035 B( 14-C , 32-H ) :   0.9336 B( 15-C , 33-H ) :   0.9490
B( 15-C , 34-H ) :   0.9418 B( 15-C , 35-H ) :   0.9410 B( 16-O , 17-C ) :   0.9088
B( 17-C , 18-C ) :   1.1647 B( 17-C , 36-H ) :   0.9339 B( 17-C , 37-H ) :   0.9158
B( 18-C , 38-H ) :   0.9356 B( 18-C , 39-H ) :   0.9445 B( 18-C , 40-H ) :   0.9378

Dispersion correction           -0.065513962
FINAL SINGLE POINT ENERGY     -2929.522462381723

DIPOLE MOMENT
-------------

Method             : SCF
Type of density    : Electron Density
Multiplicity       :   1
Irrep              :   0
Energy             : -2929.6404306650210856 Eh
Relativity type    :
Basis              : AO
                                X                 Y                 Z
Electronic contribution:     -6.028194126     -13.459632320      -2.146778957
Nuclear contribution   :      5.931101016      13.720243585       2.662001953
                        -----------------------------------------
Total Dipole Moment    :     -0.097093110       0.260611266       0.515222996
                        -----------------------------------------
Magnitude (a.u.)       :      0.585491280
Magnitude (Debye)      :      1.488200565

Rotational constants in cm-1:             0.012825             0.004912             0.004634
Rotational constants in MHz :           384.470726           147.265931           138.917129

                             ****ORCA TERMINATED NORMALLY****
TOTAL RUN TIME: 0 days 0 hours 0 minutes 21 seconds 328 msec
