                         Program Version 6.0.0  -   RELEASE  -
|  1> ! pbe def2-sv(p) def2/J RI DEFGRID1 loosescf d4 GCP(DFT/SV(P)) printgap
|  2> %output
|  3>     printlevel normal
|  4> end
|  5> * xyz 0 1
|  6> C 2.393247907 -2.7024754812 -1.7881270555
|  7> C 3.5440194278 -2.2159638692 -0.9342645436
|  8> O 3.5513931964 -0.7750378568 -0.7835073727
|  9> P 2.4235907955 0.0936392832 -0.1063758894
| 10> S 3.099491391 1.8092342948 0.5418850376
| 11> O 1.8348039875 -0.884341453 1.006043688
| 12> C 1.3693535638 -0.468281069 2.3018037952
| 13> C 2.1537158105 -1.2087100608 3.3668926549
| 14> S 0.9329185178 0.2438914694 -1.6295110261
| 15> C 0.1810831632 1.7955328587 -1.0899738435
| 16> S -0.6509409198 1.6624839556 0.5169443963
| 17> P -2.0585111493 0.1910094474 -0.0591964056
| 18> S -2.7884466268 0.3001855533 -1.878263657
| 19> O -3.1364415016 0.2118253064 1.1073707189
| 20> C -4.3124471352 1.0378563596 1.0590049586
| 21> C -3.9797928158 2.5116393891 1.1720227695
| 22> O -1.2379824429 -1.1165927271 0.3046070823
| 23> C -1.5267624625 -2.3950938515 -0.2976310332
| 24> C -2.8818339947 -2.9234365161 0.1229759438
| 25> H 2.3975229565 -2.2022673656 -2.7535987512
| 26> H 2.4868668481 -3.7734857103 -1.9381680647
| 27> H 1.446324602 -2.4934848109 -1.2938188346
| 28> H 4.50839807 -2.4198574421 -1.4018007696
| 29> H 3.5089414323 -2.6636819108 0.0608250582
| 30> H 1.5014198047 0.6143664193 2.4011623863
| 31> H 0.3042400682 -0.7080477311 2.3442260619
| 32> H 2.0495461554 -2.2818353658 3.2343289747
| 33> H 3.2064853148 -0.9427941632 3.3046313053
| 34> H 1.7742276909 -0.9287552248 4.3441623464
| 35> H -0.5428997326 2.0689496887 -1.8565854998
| 36> H 0.9509875929 2.5580838591 -0.974504764
| 37> H -4.8392120252 0.8345290299 0.1211004656
| 38> H -4.909735966 0.6934849417 1.904232774
| 39> H -4.8989650613 3.0831525802 1.2517291652
| 40> H -3.3625015079 2.6944867206 2.0480628292
| 41> H -3.4359637188 2.8402891924 0.2872243169
| 42> H -1.4724869768 -2.2842455879 -1.3855821485
| 43> H -0.7169397667 -3.0375592815 0.0519957322
| 44> H -3.0169589075 -3.9243974879 -0.274637045
| 45> H -2.9568937324 -2.9491684173 1.2069515522
| 46> H -3.6671923358 -2.2782913333 -0.2693440108
| 47> *
| 48>
| 49>                          ****END OF INPUT****

CARTESIAN COORDINATES (ANGSTROEM)
---------------------------------
  C      2.393248   -2.702475   -1.788127
  C      3.544019   -2.215964   -0.934265
  O      3.551393   -0.775038   -0.783507
  P      2.423591    0.093639   -0.106376
  S      3.099491    1.809234    0.541885
  O      1.834804   -0.884341    1.006044
  C      1.369354   -0.468281    2.301804
  C      2.153716   -1.208710    3.366893
  S      0.932919    0.243891   -1.629511
  C      0.181083    1.795533   -1.089974
  S     -0.650941    1.662484    0.516944
  P     -2.058511    0.191009   -0.059196
  S     -2.788447    0.300186   -1.878264
  O     -3.136442    0.211825    1.107371
  C     -4.312447    1.037856    1.059005
  C     -3.979793    2.511639    1.172023
  O     -1.237982   -1.116593    0.304607
  C     -1.526762   -2.395094   -0.297631
  C     -2.881834   -2.923437    0.122976
  H      2.397523   -2.202267   -2.753599
  H      2.486867   -3.773486   -1.938168
  H      1.446325   -2.493485   -1.293819
  H      4.508398   -2.419857   -1.401801
  H      3.508941   -2.663682    0.060825
  H      1.501420    0.614366    2.401162
  H      0.304240   -0.708048    2.344226
  H      2.049546   -2.281835    3.234329
  H      3.206485   -0.942794    3.304631
  H      1.774228   -0.928755    4.344162
  H     -0.542900    2.068950   -1.856585
  H      0.950988    2.558084   -0.974505
  H     -4.839212    0.834529    0.121100
  H     -4.909736    0.693485    1.904233
  H     -4.898965    3.083153    1.251729
  H     -3.362502    2.694487    2.048063
  H     -3.435964    2.840289    0.287224
  H     -1.472487   -2.284246   -1.385582
  H     -0.716940   -3.037559    0.051996
  H     -3.016959   -3.924397   -0.274637
  H     -2.956894   -2.949168    1.206952
  H     -3.667192   -2.278291   -0.269344

 Total Charge           Charge          ....    0
 Multiplicity           Mult            ....    1
 Number of Electrons    NEL             ....  202
 Basis Dimension        Dim             ....  334

ORBITAL ENERGIES
----------------

  NO   OCC          E(Eh)            E(eV)
   0   2.0000     -88.044387     -2395.8096
   1   2.0000     -88.037448     -2395.6207
   2   2.0000     -87.993597     -2394.4275
   3   2.0000     -87.983045     -2394.1404
   4   2.0000     -76.430474     -2079.7789
   5   2.0000     -76.425012     -2079.6303
   6   2.0000     -18.798223      -511.5257
   7   2.0000     -18.793252      -511.3904
   8   2.0000     -18.792981      -511.3830
   9   2.0000     -18.789715      -511.2941
  10   2.0000      -9.960132      -271.0290
  11   2.0000      -9.956402      -270.9275
  12   2.0000      -9.955136      -270.8930
  13   2.0000      -9.951857      -270.8038
  14   2.0000      -9.943794      -270.5844
  15   2.0000      -9.893213      -269.2080
  16   2.0000      -9.887502      -269.0526
  17   2.0000      -9.886799      -269.0335
  18   2.0000      -9.883184      -268.9351
  19   2.0000      -7.689052      -209.2298
  20   2.0000      -7.682109      -209.0408
  21   2.0000      -7.638476      -207.8535
  22   2.0000      -7.628308      -207.5768
  23   2.0000      -6.427867      -174.9111
  24   2.0000      -6.422353      -174.7611
  25   2.0000      -5.716915      -155.5652
  26   2.0000      -5.713698      -155.4776
  27   2.0000      -5.710098      -155.3797
  28   2.0000      -5.706647      -155.2858
  29   2.0000      -5.705928      -155.2662
  30   2.0000      -5.699010      -155.0780
  31   2.0000      -5.667272      -154.2143
  32   2.0000      -5.659123      -153.9926
  33   2.0000      -5.658776      -153.9831
  34   2.0000      -5.657279      -153.9424
  35   2.0000      -5.648730      -153.7098
  36   2.0000      -5.648554      -153.7050
  37   2.0000      -4.650271      -126.5403
  38   2.0000      -4.649635      -126.5230
  39   2.0000      -4.648483      -126.4917
  40   2.0000      -4.645356      -126.4066
  41   2.0000      -4.643783      -126.3638
  42   2.0000      -4.642779      -126.3364
  43   2.0000      -0.991249       -26.9732
  44   2.0000      -0.985728       -26.8230
  45   2.0000      -0.949997       -25.8507
  46   2.0000      -0.941838       -25.6287
  47   2.0000      -0.764100       -20.7922
  48   2.0000      -0.722861       -19.6700
  49   2.0000      -0.711573       -19.3629
  50   2.0000      -0.692153       -18.8344
  51   2.0000      -0.690094       -18.7784
  52   2.0000      -0.674706       -18.3597
  53   2.0000      -0.653117       -17.7722
  54   2.0000      -0.638252       -17.3677
  55   2.0000      -0.604824       -16.4581
  56   2.0000      -0.594303       -16.1718
  57   2.0000      -0.575925       -15.6717
  58   2.0000      -0.574658       -15.6373
  59   2.0000      -0.560464       -15.2510
  60   2.0000      -0.501107       -13.6358
  61   2.0000      -0.493928       -13.4405
  62   2.0000      -0.477600       -12.9962
  63   2.0000      -0.476444       -12.9647
  64   2.0000      -0.457180       -12.4405
  65   2.0000      -0.446882       -12.1603
  66   2.0000      -0.444102       -12.0846
  67   2.0000      -0.441094       -12.0028
  68   2.0000      -0.426648       -11.6097
  69   2.0000      -0.418522       -11.3886
  70   2.0000      -0.410549       -11.1716
  71   2.0000      -0.398423       -10.8416
  72   2.0000      -0.392493       -10.6803
  73   2.0000      -0.388350       -10.5675
  74   2.0000      -0.379835       -10.3358
  75   2.0000      -0.376582       -10.2473
  76   2.0000      -0.372231       -10.1289
  77   2.0000      -0.361214        -9.8291
  78   2.0000      -0.358773        -9.7627
  79   2.0000      -0.352803        -9.6003
  80   2.0000      -0.352270        -9.5858
  81   2.0000      -0.350202        -9.5295
  82   2.0000      -0.345313        -9.3964
  83   2.0000      -0.341549        -9.2940
  84   2.0000      -0.334336        -9.0977
  85   2.0000      -0.322077        -8.7642
  86   2.0000      -0.309598        -8.4246
  87   2.0000      -0.300083        -8.1657
  88   2.0000      -0.298909        -8.1337
  89   2.0000      -0.289353        -7.8737
  90   2.0000      -0.287257        -7.8166
  91   2.0000      -0.279624        -7.6089
  92   2.0000      -0.270674        -7.3654
  93   2.0000      -0.268009        -7.2929
  94   2.0000      -0.255265        -6.9461
  95   2.0000      -0.234813        -6.3896
  96   2.0000      -0.217384        -5.9153
  97   2.0000      -0.213081        -5.7982
  98   2.0000      -0.209179        -5.6921
  99   2.0000      -0.200271        -5.4496
 100   2.0000      -0.196607        -5.3499
 101   0.0000      -0.045699        -1.2435
 102   0.0000      -0.024551        -0.6681
 103   0.0000       0.000057         0.0016
 104   0.0000       0.001465         0.0399
 105   0.0000       0.005952         0.1620

MULLIKEN ATOMIC CHARGES
-----------------------
   0 C :   -0.364724
   1 C :    0.010160
   2 O :   -0.366962
   3 P :    0.629345
   4 S :   -0.319018
   5 O :   -0.390216
   6 C :   -0.022120
   7 C :   -0.276250
   8 S :   -0.105621
   9 C :   -0.345279
  10 S :   -0.082241
  11 P :    0.615343
  12 S :   -0.331061
  13 O :   -0.373165
  14 C :   -0.005281
  15 C :   -0.315034
  16 O :   -0.362669
  17 C :   -0.028104
  18 C :   -0.288469
  19 H :    0.133362
  20 H :    0.117403
  21 H :    0.155536
  22 H :    0.113100
  23 H :    0.107571
  24 H :    0.114100
  25 H :    0.107612
  26 H :    0.106964
  27 H :    0.115016
  28 H :    0.109097
  29 H :    0.188518
  30 H :    0.194016
  31 H :    0.111468
  32 H :    0.106239
  33 H :    0.114614
  34 H :    0.119307
  35 H :    0.127659
  36 H :    0.117476
  37 H :    0.113968
  38 H :    0.111548
  39 H :    0.114588
  40 H :    0.122207
Sum of atomic charges:    0.0000000

LOEWDIN ATOMIC CHARGES
----------------------
   0 C :   -0.376074
   1 C :   -0.106646
   2 O :   -0.240718
   3 P :    0.573807
   4 S :   -0.310209
   5 O :   -0.248340
   6 C :   -0.127867
   7 C :   -0.354440
   8 S :    0.079941
   9 C :   -0.482539
  10 S :    0.102185
  11 P :    0.573330
  12 S :   -0.321875
  13 O :   -0.243997
  14 C :   -0.119095
  15 C :   -0.369018
  16 O :   -0.234515
  17 C :   -0.119679
  18 C :   -0.364782
  19 H :    0.130142
  20 H :    0.133589
  21 H :    0.122305
  22 H :    0.123717
  23 H :    0.113829
  24 H :    0.103617
  25 H :    0.108241
  26 H :    0.120850
  27 H :    0.125875
  28 H :    0.129696
  29 H :    0.130891
  30 H :    0.131320
  31 H :    0.110718
  32 H :    0.119203
  33 H :    0.131828
  34 H :    0.125124
  35 H :    0.121703
  36 H :    0.112070
  37 H :    0.116973
  38 H :    0.130589
  39 H :    0.125911
  40 H :    0.122338

  Mayer bond orders larger than 0.100000
B(  0-C ,  1-C ) :   1.1695 B(  0-C , 19-H ) :   0.9392 B(  0-C , 20-H ) :   0.9348
B(  0-C , 21-H ) :   0.9238 B(  1-C ,  2-O ) :   0.9007 B(  1-C , 22-H ) :   0.9340
B(  1-C , 23-H ) :   0.9268 B(  2-O ,  3-P ) :   1.1401 B(  3-P ,  4-S ) :   1.6397
B(  3-P ,  5-O ) :   1.0719 B(  3-P ,  8-S ) :   0.9369 B(  4-S ,  8-S ) :   0.1061
B(  5-O ,  6-C ) :   0.8983 B(  6-C ,  7-C ) :   1.1572 B(  6-C , 24-H ) :   0.9012
B(  6-C , 25-H ) :   0.9219 B(  7-C , 26-H ) :   0.9503 B(  7-C , 27-H ) :   0.9481
B(  7-C , 28-H ) :   0.9419 B(  8-S ,  9-C ) :   1.0180 B(  9-C , 10-S ) :   0.9925
B(  9-C , 29-H ) :   0.8863 B(  9-C , 30-H ) :   0.8781 B( 10-S , 11-P ) :   0.9588
B( 10-S , 12-S ) :   0.1085 B( 11-P , 12-S ) :   1.5880 B( 11-P , 13-O ) :   1.1099
B( 11-P , 16-O ) :   1.1094 B( 13-O , 14-C ) :   0.9070 B( 14-C , 15-C ) :   1.1664
B( 14-C , 31-H ) :   0.9163 B( 14-C , 32-H ) :   0.9338 B( 15-C , 33-H ) :   0.9377
B( 15-C , 34-H ) :   0.9445 B( 15-C , 35-H ) :   0.9357 B( 16-O , 17-C ) :   0.9035
B( 17-C , 18-C ) :   1.1603 B( 17-C , 36-H ) :   0.9163 B( 17-C , 37-H ) :   0.9257
B( 18-C , 38-H ) :   0.9389 B( 18-C , 39-H ) :   0.9450 B( 18-C , 40-H ) :   0.9330

Dispersion correction           -0.067549845
FINAL SINGLE POINT ENERGY     -2929.523458562053

DIPOLE MOMENT
-------------

Method             : SCF
Type of density    : Electron Density
Multiplicity       :   1
Irrep              :   0
Energy             : -2929.6422422704204109 Eh
Relativity type    :
Basis              : AO
                                X                 Y                 Z
Electronic contribution:      8.577507722      15.362188831      -9.333904417
Nuclear contribution   :     -9.414378535     -16.827060020      10.011838567
                        -----------------------------------------
Total Dipole Moment    :     -0.836870813      -1.464871189       0.677934150
                        -----------------------------------------
Magnitude (a.u.)       :      1.818184553
Magnitude (Debye)      :      4.621457862

Rotational constants in cm-1:             0.011660             0.005566             0.005176
Rotational constants in MHz :           349.558196           166.866569           155.160299

                             ****ORCA TERMINATED NORMALLY****
TOTAL RUN TIME: 0 days 0 hours 0 minutes 21 seconds 518 msec
