                         Program Version 6.0.0  -   RELEASE  -
|  1> ! pbe def2-sv(p) def2/J RI DEFGRID1 loosescf d4 GCP(DFT/SV(P)) printgap
|  2> %output
|  3>     printlevel normal
|  4> end
|  5> * xyz 0 1
|  6> C 3.3914635187 -0.6747693449 -2.5653097926
|  7> C 1.9580256239 -0.2437741451 -2.3439328962
|  8> O 1.5168320429 -0.5292920812 -1.003343685
|  9> P 2.1090931426 0.2340412118 0.2537762146
| 10> S 2.7771140546 2.0553016138 0.0079616106
| 11> O 3.2131140975 -0.8217312237 0.7207473158
| 12> C 4.2655446222 -0.4741825642 1.6337493436
| 13> C 3.7484434393 -0.2536804977 3.0413592949
| 14> S 0.5282282762 -0.0280435055 1.6338457714
| 15> C 0.0642555812 -1.7346779505 1.2532705706
| 16> S -0.968044067 -1.9414942556 -0.2463522595
| 17> P -1.860602706 -0.0423726434 -0.4508434077
| 18> S -0.8980232764 1.5281365934 -1.1226838093
| 19> O -2.5151138342 0.0943946726 1.0014422291
| 20> C -2.788759394 1.3702743401 1.6077627794
| 21> C -4.0175359594 2.0118331761 0.9966156103
| 22> O -3.0317129185 -0.3671490516 -1.4681232061
| 23> C -4.0489047136 -1.3688635668 -1.2047882182
| 24> C -5.354742816 -0.8827651163 -1.7998626656
| 25> H 4.0554642453 -0.07403374 -1.9446052368
| 26> H 3.5120750807 -1.7229260296 -2.3045567405
| 27> H 3.6523643343 -0.5260944139 -3.608298459
| 28> H 1.2594867658 -0.8016531556 -2.9704954916
| 29> H 1.8332764421 0.8288849837 -2.5268744379
| 30> H 4.9506960612 -1.321410711 1.5818407545
| 31> H 4.7585831245 0.4299726106 1.2625691098
| 32> H 3.1992477928 -1.1249302569 3.3883075403
| 33> H 4.586458967 -0.0679630668 3.7053781354
| 34> H 3.0853287235 0.6111074344 3.0599233412
| 35> H -0.5081475668 -2.0829360549 2.1097054063
| 36> H 0.9592062455 -2.3338429884 1.0982371664
| 37> H -2.9271845738 1.1392183591 2.6646342753
| 38> H -1.9114407157 2.0135418232 1.4833476827
| 39> H -3.8436432445 2.1959605212 -0.0636863116
| 40> H -4.8802323693 1.3602822034 1.1092600848
| 41> H -4.2139269375 2.9582955793 1.4901811
| 42> H -3.7163975602 -2.2971250684 -1.6741312721
| 43> H -4.1303470913 -1.5164152191 -0.125264296
| 44> H -6.1173267856 -1.6402023741 -1.6498828044
| 45> H -5.6671990547 0.0424839442 -1.3233003515
| 46> H -5.2318216804 -0.7004864002 -2.8636129417
| 47> *
| 48>
| 49>                          ****END OF INPUT****

CARTESIAN COORDINATES (ANGSTROEM)
---------------------------------
  C      3.391464   -0.674769   -2.565310
  C      1.958026   -0.243774   -2.343933
  O      1.516832   -0.529292   -1.003344
  P      2.109093    0.234041    0.253776
  S      2.777114    2.055302    0.007962
  O      3.213114   -0.821731    0.720747
  C      4.265545   -0.474183    1.633749
  C      3.748443   -0.253680    3.041359
  S      0.528228   -0.028044    1.633846
  C      0.064256   -1.734678    1.253271
  S     -0.968044   -1.941494   -0.246352
  P     -1.860603   -0.042373   -0.450843
  S     -0.898023    1.528137   -1.122684
  O     -2.515114    0.094395    1.001442
  C     -2.788759    1.370274    1.607763
  C     -4.017536    2.011833    0.996616
  O     -3.031713   -0.367149   -1.468123
  C     -4.048905   -1.368864   -1.204788
  C     -5.354743   -0.882765   -1.799863
  H      4.055464   -0.074034   -1.944605
  H      3.512075   -1.722926   -2.304557
  H      3.652364   -0.526094   -3.608298
  H      1.259487   -0.801653   -2.970495
  H      1.833276    0.828885   -2.526874
  H      4.950696   -1.321411    1.581841
  H      4.758583    0.429973    1.262569
  H      3.199248   -1.124930    3.388308
  H      4.586459   -0.067963    3.705378
  H      3.085329    0.611107    3.059923
  H     -0.508148   -2.082936    2.109705
  H      0.959206   -2.333843    1.098237
  H     -2.927185    1.139218    2.664634
  H     -1.911441    2.013542    1.483348
  H     -3.843643    2.195961   -0.063686
  H     -4.880232    1.360282    1.109260
  H     -4.213927    2.958296    1.490181
  H     -3.716398   -2.297125   -1.674131
  H     -4.130347   -1.516415   -0.125264
  H     -6.117327   -1.640202   -1.649883
  H     -5.667199    0.042484   -1.323300
  H     -5.231822   -0.700486   -2.863613

 Total Charge           Charge          ....    0
 Multiplicity           Mult            ....    1
 Number of Electrons    NEL             ....  202
 Basis Dimension        Dim             ....  334

ORBITAL ENERGIES
----------------

  NO   OCC          E(Eh)            E(eV)
   0   2.0000     -88.044723     -2395.8187
   1   2.0000     -88.036416     -2395.5927
   2   2.0000     -87.984729     -2394.1862
   3   2.0000     -87.974462     -2393.9068
   4   2.0000     -76.422629     -2079.5655
   5   2.0000     -76.420640     -2079.5113
   6   2.0000     -18.790029      -511.3027
   7   2.0000     -18.789071      -511.2766
   8   2.0000     -18.787426      -511.2319
   9   2.0000     -18.781724      -511.0767
  10   2.0000      -9.961060      -271.0542
  11   2.0000      -9.954191      -270.8673
  12   2.0000      -9.949288      -270.7339
  13   2.0000      -9.947757      -270.6922
  14   2.0000      -9.941106      -270.5112
  15   2.0000      -9.889711      -269.1127
  16   2.0000      -9.883209      -268.9358
  17   2.0000      -9.883155      -268.9343
  18   2.0000      -9.876385      -268.7501
  19   2.0000      -7.689220      -209.2343
  20   2.0000      -7.681706      -209.0299
  21   2.0000      -7.629851      -207.6188
  22   2.0000      -7.619419      -207.3349
  23   2.0000      -6.420013      -174.6974
  24   2.0000      -6.417823      -174.6378
  25   2.0000      -5.717586      -155.5834
  26   2.0000      -5.713500      -155.4723
  27   2.0000      -5.709924      -155.3749
  28   2.0000      -5.706159      -155.2725
  29   2.0000      -5.705921      -155.2660
  30   2.0000      -5.698346      -155.0599
  31   2.0000      -5.658822      -153.9844
  32   2.0000      -5.650628      -153.7614
  33   2.0000      -5.649825      -153.7396
  34   2.0000      -5.648685      -153.7085
  35   2.0000      -5.639837      -153.4678
  36   2.0000      -5.639420      -153.4564
  37   2.0000      -4.642255      -126.3222
  38   2.0000      -4.641981      -126.3147
  39   2.0000      -4.640960      -126.2869
  40   2.0000      -4.640640      -126.2782
  41   2.0000      -4.639374      -126.2438
  42   2.0000      -4.638055      -126.2079
  43   2.0000      -0.981830       -26.7170
  44   2.0000      -0.981033       -26.6953
  45   2.0000      -0.941824       -25.6283
  46   2.0000      -0.939023       -25.5521
  47   2.0000      -0.762307       -20.7434
  48   2.0000      -0.718482       -19.5509
  49   2.0000      -0.705501       -19.1977
  50   2.0000      -0.689479       -18.7617
  51   2.0000      -0.681504       -18.5447
  52   2.0000      -0.669719       -18.2240
  53   2.0000      -0.650120       -17.6907
  54   2.0000      -0.635597       -17.2955
  55   2.0000      -0.595461       -16.2033
  56   2.0000      -0.584888       -15.9156
  57   2.0000      -0.571797       -15.5594
  58   2.0000      -0.566547       -15.4165
  59   2.0000      -0.564351       -15.3568
  60   2.0000      -0.502392       -13.6708
  61   2.0000      -0.488691       -13.2980
  62   2.0000      -0.478225       -13.0132
  63   2.0000      -0.466719       -12.7001
  64   2.0000      -0.454345       -12.3633
  65   2.0000      -0.441579       -12.0160
  66   2.0000      -0.437441       -11.9034
  67   2.0000      -0.436352       -11.8737
  68   2.0000      -0.420903       -11.4533
  69   2.0000      -0.412855       -11.2344
  70   2.0000      -0.404495       -11.0069
  71   2.0000      -0.395750       -10.7689
  72   2.0000      -0.393164       -10.6985
  73   2.0000      -0.386575       -10.5192
  74   2.0000      -0.385159       -10.4807
  75   2.0000      -0.370254       -10.0751
  76   2.0000      -0.363184        -9.8827
  77   2.0000      -0.356857        -9.7106
  78   2.0000      -0.354227        -9.6390
  79   2.0000      -0.346024        -9.4158
  80   2.0000      -0.344980        -9.3874
  81   2.0000      -0.343366        -9.3435
  82   2.0000      -0.342318        -9.3149
  83   2.0000      -0.336086        -9.1454
  84   2.0000      -0.323909        -8.8140
  85   2.0000      -0.318938        -8.6787
  86   2.0000      -0.313092        -8.5197
  87   2.0000      -0.306723        -8.3464
  88   2.0000      -0.292485        -7.9589
  89   2.0000      -0.282969        -7.7000
  90   2.0000      -0.277444        -7.5496
  91   2.0000      -0.267014        -7.2658
  92   2.0000      -0.266441        -7.2502
  93   2.0000      -0.265194        -7.2163
  94   2.0000      -0.258679        -7.0390
  95   2.0000      -0.227927        -6.2022
  96   2.0000      -0.216747        -5.8980
  97   2.0000      -0.207014        -5.6331
  98   2.0000      -0.199671        -5.4333
  99   2.0000      -0.190007        -5.1704
 100   2.0000      -0.182449        -4.9647
 101   0.0000      -0.049198        -1.3387
 102   0.0000      -0.024753        -0.6736
 103   0.0000      -0.009325        -0.2537
 104   0.0000      -0.000674        -0.0183
 105   0.0000       0.024937         0.6786

MULLIKEN ATOMIC CHARGES
-----------------------
   0 C :   -0.302937
   1 C :    0.001550
   2 O :   -0.371051
   3 P :    0.625626
   4 S :   -0.306205
   5 O :   -0.377595
   6 C :   -0.006679
   7 C :   -0.306346
   8 S :   -0.089733
   9 C :   -0.309725
  10 S :   -0.110029
  11 P :    0.607797
  12 S :   -0.295746
  13 O :   -0.393415
  14 C :   -0.007311
  15 C :   -0.313695
  16 O :   -0.367924
  17 C :   -0.026825
  18 C :   -0.282359
  19 H :    0.119956
  20 H :    0.110911
  21 H :    0.110198
  22 H :    0.102110
  23 H :    0.119322
  24 H :    0.102370
  25 H :    0.109961
  26 H :    0.109401
  27 H :    0.111614
  28 H :    0.124490
  29 H :    0.183424
  30 H :    0.183122
  31 H :    0.098584
  32 H :    0.120627
  33 H :    0.132486
  34 H :    0.111453
  35 H :    0.113165
  36 H :    0.110347
  37 H :    0.107376
  38 H :    0.109943
  39 H :    0.118853
  40 H :    0.122889
Sum of atomic charges:    0.0000000

LOEWDIN ATOMIC CHARGES
----------------------
   0 C :   -0.366188
   1 C :   -0.116027
   2 O :   -0.238049
   3 P :    0.575414
   4 S :   -0.305027
   5 O :   -0.251314
   6 C :   -0.122662
   7 C :   -0.367363
   8 S :    0.109638
   9 C :   -0.465781
  10 S :    0.068542
  11 P :    0.557140
  12 S :   -0.296622
  13 O :   -0.257747
  14 C :   -0.123324
  15 C :   -0.365182
  16 O :   -0.247064
  17 C :   -0.122447
  18 C :   -0.351181
  19 H :    0.120370
  20 H :    0.123734
  21 H :    0.129610
  22 H :    0.117893
  23 H :    0.112663
  24 H :    0.116930
  25 H :    0.109017
  26 H :    0.121312
  27 H :    0.129971
  28 H :    0.120181
  29 H :    0.136198
  30 H :    0.133483
  31 H :    0.115119
  32 H :    0.111604
  33 H :    0.126427
  34 H :    0.120159
  35 H :    0.131514
  36 H :    0.113894
  37 H :    0.108162
  38 H :    0.129686
  39 H :    0.126615
  40 H :    0.130702

  Mayer bond orders larger than 0.100000
B(  0-C ,  1-C ) :   1.1603 B(  0-C , 19-H ) :   0.9350 B(  0-C , 20-H ) :   0.9453
B(  0-C , 21-H ) :   0.9396 B(  1-C ,  2-O ) :   0.8958 B(  1-C , 22-H ) :   0.9333
B(  1-C , 23-H ) :   0.9181 B(  2-O ,  3-P ) :   1.1214 B(  3-P ,  4-S ) :   1.6407
B(  3-P ,  5-O ) :   1.0678 B(  3-P ,  8-S ) :   0.9441 B(  5-O ,  6-C ) :   0.9173
B(  6-C ,  7-C ) :   1.1649 B(  6-C , 24-H ) :   0.9341 B(  6-C , 25-H ) :   0.9128
B(  7-C , 26-H ) :   0.9462 B(  7-C , 27-H ) :   0.9387 B(  7-C , 28-H ) :   0.9364
B(  8-S ,  9-C ) :   1.0127 B(  9-C , 10-S ) :   0.9652 B(  9-C , 29-H ) :   0.9108
B(  9-C , 30-H ) :   0.9026 B( 10-S , 11-P ) :   0.9855 B( 10-S , 12-S ) :   0.1115
B( 11-P , 12-S ) :   1.6285 B( 11-P , 13-O ) :   1.0543 B( 11-P , 16-O ) :   1.1171
B( 13-O , 14-C ) :   0.9016 B( 14-C , 15-C ) :   1.1645 B( 14-C , 31-H ) :   0.9346
B( 14-C , 32-H ) :   0.9096 B( 15-C , 33-H ) :   0.9337 B( 15-C , 34-H ) :   0.9439
B( 15-C , 35-H ) :   0.9393 B( 16-O , 17-C ) :   0.8975 B( 17-C , 18-C ) :   1.1636
B( 17-C , 36-H ) :   0.9315 B( 17-C , 37-H ) :   0.9153 B( 18-C , 38-H ) :   0.9409
B( 18-C , 39-H ) :   0.9476 B( 18-C , 40-H ) :   0.9485

Dispersion correction           -0.068110871
FINAL SINGLE POINT ENERGY     -2929.512244475983

DIPOLE MOMENT
-------------

Method             : SCF
Type of density    : Electron Density
Multiplicity       :   1
Irrep              :   0
Energy             : -2929.6294023996833857 Eh
Relativity type    :
Basis              : AO
                                X                 Y                 Z
Electronic contribution:      6.467716488       3.100101962      -1.126016181
Nuclear contribution   :     -7.120202035      -4.586013827       1.938372172
                        -----------------------------------------
Total Dipole Moment    :     -0.652485547      -1.485911864       0.812355991
                        -----------------------------------------
Magnitude (a.u.)       :      1.814826083
Magnitude (Debye)      :      4.612921309

Rotational constants in cm-1:             0.013754             0.005070             0.004831
Rotational constants in MHz :           412.338442           151.985866           144.823618

                             ****ORCA TERMINATED NORMALLY****
TOTAL RUN TIME: 0 days 0 hours 0 minutes 21 seconds 674 msec
