                         Program Version 6.0.0  -   RELEASE  -
|  1> ! pbe def2-sv(p) def2/J RI DEFGRID1 loosescf d4 GCP(DFT/SV(P)) printgap
|  2> %output
|  3>     printlevel normal
|  4> end
|  5> * xyz 0 1
|  6> C 3.0044232785 -0.5587086335 -2.6162667061
|  7> C 3.2056289493 0.8020977724 -1.9859393201
|  8> O 2.2186612717 1.0857287186 -0.9624063825
|  9> P 2.036578167 0.2993996324 0.3811715226
| 10> S 1.0338113559 1.3155794869 1.7234913203
| 11> O 3.5552339777 0.0297660079 0.7856631609
| 12> C 3.8929931395 -0.6279915983 2.0216136065
| 13> C 5.3927563336 -0.5213534328 2.2094351576
| 14> S 1.2935229494 -1.67232486 0.0167710334
| 15> C -0.0393488311 -1.7726544893 1.2446058382
| 16> S -1.6962999264 -1.9759752068 0.5277898514
| 17> P -2.0789899081 -0.0487851267 -0.2180438956
| 18> S -0.8244660015 0.7516111877 -1.5054983395
| 19> O -2.3310912904 0.7434733451 1.1252074116
| 20> C -2.3477102364 2.1828029251 1.1876147431
| 21> C -3.525825894 2.7636496928 0.4367615953
| 22> O -3.5468613064 -0.2241531484 -0.7965337918
| 23> C -3.7969364837 -0.7995099358 -2.094574452
| 24> C -5.1800233084 -0.3679165114 -2.5387514832
| 25> H 3.6849061236 -0.6669460297 -3.4549831429
| 26> H 3.2030519688 -1.347829433 -1.8923332782
| 27> H 1.9802869973 -0.6571521834 -2.9696122606
| 28> H 3.0442212741 1.6052435863 -2.7066066423
| 29> H 4.1966147403 0.8906982944 -1.5370762418
| 30> H 3.3495269728 -0.1375088449 2.8360307748
| 31> H 3.5723651763 -1.6717421998 1.9531862385
| 32> H 5.906589834 -1.0007919142 1.3814907313
| 33> H 5.6897123002 0.5227536493 2.2524965902
| 34> H 5.6700125743 -1.0110993217 3.1369849661
| 35> H -0.018469006 -0.8699256592 1.861793534
| 36> H 0.1244545826 -2.667565391 1.8388898434
| 37> H -2.3930391103 2.3942086593 2.2567909552
| 38> H -1.4008276871 2.5597156534 0.786808614
| 39> H -3.4168051747 2.565219252 -0.6288981664
| 40> H -4.4507561615 2.3134834042 0.7872375395
| 41> H -3.5585770956 3.8369759258 0.5954912742
| 42> H -3.0230345939 -0.4485640928 -2.785893851
| 43> H -3.7287833714 -1.8865082747 -2.001913138
| 44> H -5.917792961 -0.6865200858 -1.8082607957
| 45> H -5.2240776083 0.7132590442 -2.635452507
| 46> H -5.4027109014 -0.8225247498 -3.4983819231
| 47> *
| 48>
| 49>                          ****END OF INPUT****

CARTESIAN COORDINATES (ANGSTROEM)
---------------------------------
  C      3.004423   -0.558709   -2.616267
  C      3.205629    0.802098   -1.985939
  O      2.218661    1.085729   -0.962406
  P      2.036578    0.299400    0.381172
  S      1.033811    1.315579    1.723491
  O      3.555234    0.029766    0.785663
  C      3.892993   -0.627992    2.021614
  C      5.392756   -0.521353    2.209435
  S      1.293523   -1.672325    0.016771
  C     -0.039349   -1.772654    1.244606
  S     -1.696300   -1.975975    0.527790
  P     -2.078990   -0.048785   -0.218044
  S     -0.824466    0.751611   -1.505498
  O     -2.331091    0.743473    1.125207
  C     -2.347710    2.182803    1.187615
  C     -3.525826    2.763650    0.436762
  O     -3.546861   -0.224153   -0.796534
  C     -3.796936   -0.799510   -2.094574
  C     -5.180023   -0.367917   -2.538751
  H      3.684906   -0.666946   -3.454983
  H      3.203052   -1.347829   -1.892333
  H      1.980287   -0.657152   -2.969612
  H      3.044221    1.605244   -2.706607
  H      4.196615    0.890698   -1.537076
  H      3.349527   -0.137509    2.836031
  H      3.572365   -1.671742    1.953186
  H      5.906590   -1.000792    1.381491
  H      5.689712    0.522754    2.252497
  H      5.670013   -1.011099    3.136985
  H     -0.018469   -0.869926    1.861794
  H      0.124455   -2.667565    1.838890
  H     -2.393039    2.394209    2.256791
  H     -1.400828    2.559716    0.786809
  H     -3.416805    2.565219   -0.628898
  H     -4.450756    2.313483    0.787238
  H     -3.558577    3.836976    0.595491
  H     -3.023035   -0.448564   -2.785894
  H     -3.728783   -1.886508   -2.001913
  H     -5.917793   -0.686520   -1.808261
  H     -5.224078    0.713259   -2.635453
  H     -5.402711   -0.822525   -3.498382

 Total Charge           Charge          ....    0
 Multiplicity           Mult            ....    1
 Number of Electrons    NEL             ....  202
 Basis Dimension        Dim             ....  334

ORBITAL ENERGIES
----------------

  NO   OCC          E(Eh)            E(eV)
   0   2.0000     -88.038413     -2395.6470
   1   2.0000     -88.035613     -2395.5708
   2   2.0000     -87.981432     -2394.0965
   3   2.0000     -87.976239     -2393.9552
   4   2.0000     -76.423886     -2079.5997
   5   2.0000     -76.417295     -2079.4203
   6   2.0000     -18.790273      -511.3093
   7   2.0000     -18.788326      -511.2563
   8   2.0000     -18.785061      -511.1675
   9   2.0000     -18.780889      -511.0540
  10   2.0000      -9.955870      -270.9130
  11   2.0000      -9.951172      -270.7852
  12   2.0000      -9.951018      -270.7810
  13   2.0000      -9.948096      -270.7014
  14   2.0000      -9.938230      -270.4330
  15   2.0000      -9.888657      -269.0840
  16   2.0000      -9.887409      -269.0501
  17   2.0000      -9.885129      -268.9880
  18   2.0000      -9.874753      -268.7057
  19   2.0000      -7.682971      -209.0643
  20   2.0000      -7.681458      -209.0231
  21   2.0000      -7.626464      -207.5266
  22   2.0000      -7.620879      -207.3746
  23   2.0000      -6.421004      -174.7244
  24   2.0000      -6.415026      -174.5617
  25   2.0000      -5.710930      -155.4023
  26   2.0000      -5.709247      -155.3565
  27   2.0000      -5.707449      -155.3076
  28   2.0000      -5.705951      -155.2668
  29   2.0000      -5.700015      -155.1053
  30   2.0000      -5.698402      -155.0614
  31   2.0000      -5.655364      -153.8903
  32   2.0000      -5.649649      -153.7348
  33   2.0000      -5.647109      -153.6656
  34   2.0000      -5.646518      -153.6496
  35   2.0000      -5.641486      -153.5126
  36   2.0000      -5.641243      -153.5060
  37   2.0000      -4.643896      -126.3668
  38   2.0000      -4.642592      -126.3313
  39   2.0000      -4.641383      -126.2985
  40   2.0000      -4.637506      -126.1930
  41   2.0000      -4.636863      -126.1754
  42   2.0000      -4.635463      -126.1374
  43   2.0000      -0.986757       -26.8510
  44   2.0000      -0.979044       -26.6411
  45   2.0000      -0.941508       -25.6197
  46   2.0000      -0.938277       -25.5318
  47   2.0000      -0.756400       -20.5827
  48   2.0000      -0.719017       -19.5655
  49   2.0000      -0.707518       -19.2525
  50   2.0000      -0.691899       -18.8275
  51   2.0000      -0.682333       -18.5672
  52   2.0000      -0.669684       -18.2230
  53   2.0000      -0.645430       -17.5630
  54   2.0000      -0.629407       -17.1270
  55   2.0000      -0.594392       -16.1742
  56   2.0000      -0.587724       -15.9928
  57   2.0000      -0.571700       -15.5567
  58   2.0000      -0.561876       -15.2894
  59   2.0000      -0.557696       -15.1757
  60   2.0000      -0.505094       -13.7443
  61   2.0000      -0.496226       -13.5030
  62   2.0000      -0.472696       -12.8627
  63   2.0000      -0.468305       -12.7432
  64   2.0000      -0.448173       -12.1954
  65   2.0000      -0.444307       -12.0902
  66   2.0000      -0.440583       -11.9889
  67   2.0000      -0.432720       -11.7749
  68   2.0000      -0.427098       -11.6219
  69   2.0000      -0.419058       -11.4032
  70   2.0000      -0.402688       -10.9577
  71   2.0000      -0.396852       -10.7989
  72   2.0000      -0.388470       -10.5708
  73   2.0000      -0.381137       -10.3713
  74   2.0000      -0.374061       -10.1787
  75   2.0000      -0.368131       -10.0174
  76   2.0000      -0.365173        -9.9369
  77   2.0000      -0.355339        -9.6693
  78   2.0000      -0.352855        -9.6017
  79   2.0000      -0.351060        -9.5528
  80   2.0000      -0.341971        -9.3055
  81   2.0000      -0.339794        -9.2463
  82   2.0000      -0.338830        -9.2200
  83   2.0000      -0.335407        -9.1269
  84   2.0000      -0.329807        -8.9745
  85   2.0000      -0.312846        -8.5130
  86   2.0000      -0.307776        -8.3750
  87   2.0000      -0.301962        -8.2168
  88   2.0000      -0.294550        -8.0151
  89   2.0000      -0.290852        -7.9145
  90   2.0000      -0.277026        -7.5383
  91   2.0000      -0.270451        -7.3594
  92   2.0000      -0.263389        -7.1672
  93   2.0000      -0.258183        -7.0255
  94   2.0000      -0.253224        -6.8906
  95   2.0000      -0.235641        -6.4121
  96   2.0000      -0.220587        -6.0025
  97   2.0000      -0.203050        -5.5253
  98   2.0000      -0.198482        -5.4010
  99   2.0000      -0.188186        -5.1208
 100   2.0000      -0.183515        -4.9937
 101   0.0000      -0.033973        -0.9245
 102   0.0000      -0.029947        -0.8149
 103   0.0000      -0.006668        -0.1814
 104   0.0000       0.007527         0.2048
 105   0.0000       0.017123         0.4659

MULLIKEN ATOMIC CHARGES
-----------------------
   0 C :   -0.333682
   1 C :    0.004045
   2 O :   -0.346769
   3 P :    0.621002
   4 S :   -0.310698
   5 O :   -0.388124
   6 C :   -0.004273
   7 C :   -0.280758
   8 S :   -0.110000
   9 C :   -0.340443
  10 S :   -0.099326
  11 P :    0.616145
  12 S :   -0.326831
  13 O :   -0.363613
  14 C :   -0.009453
  15 C :   -0.305407
  16 O :   -0.378804
  17 C :   -0.009183
  18 C :   -0.283479
  19 H :    0.115537
  20 H :    0.126503
  21 H :    0.140752
  22 H :    0.113003
  23 H :    0.111272
  24 H :    0.101605
  25 H :    0.093768
  26 H :    0.113235
  27 H :    0.120764
  28 H :    0.111403
  29 H :    0.196269
  30 H :    0.178120
  31 H :    0.101770
  32 H :    0.128828
  33 H :    0.121515
  34 H :    0.113139
  35 H :    0.109416
  36 H :    0.103413
  37 H :    0.101527
  38 H :    0.116862
  39 H :    0.120469
  40 H :    0.110482
Sum of atomic charges:    0.0000000

LOEWDIN ATOMIC CHARGES
----------------------
   0 C :   -0.370343
   1 C :   -0.106326
   2 O :   -0.221029
   3 P :    0.576242
   4 S :   -0.294792
   5 O :   -0.255765
   6 C :   -0.124053
   7 C :   -0.350484
   8 S :    0.072915
   9 C :   -0.483957
  10 S :    0.075173
  11 P :    0.563737
  12 S :   -0.320153
  13 O :   -0.234877
  14 C :   -0.120096
  15 C :   -0.366128
  16 O :   -0.248386
  17 C :   -0.120985
  18 C :   -0.350971
  19 H :    0.132664
  20 H :    0.115798
  21 H :    0.134018
  22 H :    0.124595
  23 H :    0.114340
  24 H :    0.107532
  25 H :    0.102582
  26 H :    0.125027
  27 H :    0.128743
  28 H :    0.130587
  29 H :    0.122901
  30 H :    0.136183
  31 H :    0.118091
  32 H :    0.111201
  33 H :    0.120770
  34 H :    0.124312
  35 H :    0.129382
  36 H :    0.106415
  37 H :    0.110068
  38 H :    0.126974
  39 H :    0.128004
  40 H :    0.130089

  Mayer bond orders larger than 0.100000
B(  0-C ,  1-C ) :   1.1698 B(  0-C , 19-H ) :   0.9354 B(  0-C , 20-H ) :   0.9323
B(  0-C , 21-H ) :   0.9396 B(  1-C ,  2-O ) :   0.8953 B(  1-C , 22-H ) :   0.9326
B(  1-C , 23-H ) :   0.9266 B(  2-O ,  3-P ) :   1.1569 B(  3-P ,  4-S ) :   1.6166
B(  3-P ,  5-O ) :   1.0578 B(  3-P ,  8-S ) :   0.9378 B(  4-S ,  8-S ) :   0.1184
B(  4-S , 29-H ) :   0.1212 B(  5-O ,  6-C ) :   0.9119 B(  6-C ,  7-C ) :   1.1604
B(  6-C , 24-H ) :   0.9123 B(  6-C , 25-H ) :   0.9197 B(  7-C , 26-H ) :   0.9515
B(  7-C , 27-H ) :   0.9513 B(  7-C , 28-H ) :   0.9422 B(  8-S ,  9-C ) :   1.0011
B(  9-C , 10-S ) :   0.9951 B(  9-C , 29-H ) :   0.8454 B(  9-C , 30-H ) :   0.9119
B( 10-S , 11-P ) :   0.9730 B( 10-S , 12-S ) :   0.1161 B( 11-P , 12-S ) :   1.6202
B( 11-P , 13-O ) :   1.1404 B( 11-P , 16-O ) :   1.0941 B( 13-O , 14-C ) :   0.8974
B( 14-C , 15-C ) :   1.1613 B( 14-C , 31-H ) :   0.9364 B( 14-C , 32-H ) :   0.9084
B( 15-C , 33-H ) :   0.9353 B( 15-C , 34-H ) :   0.9451 B( 15-C , 35-H ) :   0.9389
B( 16-O , 17-C ) :   0.9072 B( 17-C , 18-C ) :   1.1600 B( 17-C , 36-H ) :   0.9051
B( 17-C , 37-H ) :   0.9306 B( 18-C , 38-H ) :   0.9503 B( 18-C , 39-H ) :   0.9515
B( 18-C , 40-H ) :   0.9419

Dispersion correction           -0.065614521
FINAL SINGLE POINT ENERGY     -2929.517214214789

DIPOLE MOMENT
-------------

Method             : SCF
Type of density    : Electron Density
Multiplicity       :   1
Irrep              :   0
Energy             : -2929.6357964560020264 Eh
Relativity type    :
Basis              : AO
                                X                 Y                 Z
Electronic contribution:     -1.274401335      -3.749427616       5.721604734
Nuclear contribution   :      1.812160513       3.154873956      -6.012463710
                        -----------------------------------------
Total Dipole Moment    :      0.537759179      -0.594553661      -0.290858976
                        -----------------------------------------
Magnitude (a.u.)       :      0.852805918
Magnitude (Debye)      :      2.167660377

Rotational constants in cm-1:             0.013422             0.004789             0.004629
Rotational constants in MHz :           402.368371           143.568450           138.774565

                             ****ORCA TERMINATED NORMALLY****
TOTAL RUN TIME: 0 days 0 hours 0 minutes 21 seconds 3 msec
