                         Program Version 6.0.0  -   RELEASE  -
|  1> ! pbe def2-sv(p) def2/J RI DEFGRID1 loosescf d4 GCP(DFT/SV(P)) printgap
|  2> %output
|  3>     printlevel normal
|  4> end
|  5> * xyz 0 1
|  6> C 3.5326824766 2.3021771753 1.6910935589
|  7> C 2.5954144813 1.9095501835 0.5679997009
|  8> O 1.7255493006 0.828390183 0.9915011865
|  9> P 1.9557224876 -0.6799979929 0.595205395
| 10> S 0.5646470599 -1.7789661082 1.4276957166
| 11> O 3.4652989018 -0.9116202789 1.0260677608
| 12> C 4.3095055356 -1.9793255699 0.5554990345
| 13> C 3.689772244 -3.3466662454 0.751458159
| 14> S 2.0708178931 -0.7570644472 -1.5367130386
| 15> C 0.303912075 -0.7137209837 -1.8671406814
| 16> S -0.4189622919 0.8960099937 -1.4057212818
| 17> P -2.323880806 0.2625109621 -0.6828061899
| 18> S -2.6172973725 -1.664158686 -0.5514477323
| 19> O -3.3606903162 0.9311976508 -1.6584861462
| 20> C -3.3724503317 2.3438691921 -1.9876485367
| 21> C -4.3175539521 3.1064436363 -1.082536346
| 22> O -2.5175321306 1.1095188717 0.6504956743
| 23> C -1.8463604178 0.7803011649 1.8790667287
| 24> C -2.4904248041 1.587019402 2.9872875325
| 25> H 2.9629198982 2.5857144958 2.5715413968
| 26> H 4.1801913814 1.4681490803 1.9482647269
| 27> H 4.1391125218 3.1428971254 1.3693159005
| 28> H 3.1482532469 1.5943678492 -0.3210062319
| 29> H 1.916531598 2.7230623036 0.3049178898
| 30> H 4.5263849647 -1.8008673396 -0.5012185719
| 31> H 5.219727519 -1.8669952119 1.1471643502
| 32> H 2.7901106458 -3.4430610331 0.1447080788
| 33> H 4.3994473645 -4.1119111143 0.4541145977
| 34> H 3.4154881459 -3.494116241 1.7935325617
| 35> H -0.2060905969 -1.4969349655 -1.2974472656
| 36> H 0.1859279577 -0.8643748403 -2.9373354893
| 37> H -2.3518253427 2.730954897 -1.9164737464
| 38> H -3.7063714764 2.3721772228 -3.0262751556
| 39> H -3.9742855738 3.0617481331 -0.0527243554
| 40> H -4.3567014819 4.1424709345 -1.4043047639
| 41> H -5.3132213136 2.67506659 -1.1377748063
| 42> H -1.9388608396 -0.2966232475 2.0555008203
| 43> H -0.78353817 1.0202779992 1.7733991444
| 44> H -2.00070464 1.3502484858 3.9260431052
| 45> H -2.3868613181 2.6488736176 2.7836154574
| 46> H -3.5456779708 1.3394386633 3.0608235458
| 47> *
| 48>
| 49>                          ****END OF INPUT****

CARTESIAN COORDINATES (ANGSTROEM)
---------------------------------
  C      3.532682    2.302177    1.691094
  C      2.595414    1.909550    0.568000
  O      1.725549    0.828390    0.991501
  P      1.955722   -0.679998    0.595205
  S      0.564647   -1.778966    1.427696
  O      3.465299   -0.911620    1.026068
  C      4.309506   -1.979326    0.555499
  C      3.689772   -3.346666    0.751458
  S      2.070818   -0.757064   -1.536713
  C      0.303912   -0.713721   -1.867141
  S     -0.418962    0.896010   -1.405721
  P     -2.323881    0.262511   -0.682806
  S     -2.617297   -1.664159   -0.551448
  O     -3.360690    0.931198   -1.658486
  C     -3.372450    2.343869   -1.987649
  C     -4.317554    3.106444   -1.082536
  O     -2.517532    1.109519    0.650496
  C     -1.846360    0.780301    1.879067
  C     -2.490425    1.587019    2.987288
  H      2.962920    2.585714    2.571541
  H      4.180191    1.468149    1.948265
  H      4.139113    3.142897    1.369316
  H      3.148253    1.594368   -0.321006
  H      1.916532    2.723062    0.304918
  H      4.526385   -1.800867   -0.501219
  H      5.219728   -1.866995    1.147164
  H      2.790111   -3.443061    0.144708
  H      4.399447   -4.111911    0.454115
  H      3.415488   -3.494116    1.793533
  H     -0.206091   -1.496935   -1.297447
  H      0.185928   -0.864375   -2.937335
  H     -2.351825    2.730955   -1.916474
  H     -3.706371    2.372177   -3.026275
  H     -3.974286    3.061748   -0.052724
  H     -4.356701    4.142471   -1.404305
  H     -5.313221    2.675067   -1.137775
  H     -1.938861   -0.296623    2.055501
  H     -0.783538    1.020278    1.773399
  H     -2.000705    1.350248    3.926043
  H     -2.386861    2.648874    2.783615
  H     -3.545678    1.339439    3.060824

 Total Charge           Charge          ....    0
 Multiplicity           Mult            ....    1
 Number of Electrons    NEL             ....  202
 Basis Dimension        Dim             ....  334

ORBITAL ENERGIES
----------------

  NO   OCC          E(Eh)            E(eV)
   0   2.0000     -88.049145     -2395.9391
   1   2.0000     -88.037410     -2395.6197
   2   2.0000     -87.980973     -2394.0840
   3   2.0000     -87.977627     -2393.9929
   4   2.0000     -76.427915     -2079.7093
   5   2.0000     -76.419124     -2079.4701
   6   2.0000     -18.799221      -511.5528
   7   2.0000     -18.793248      -511.3903
   8   2.0000     -18.786958      -511.2191
   9   2.0000     -18.785771      -511.1868
  10   2.0000      -9.963439      -271.1190
  11   2.0000      -9.956951      -270.9424
  12   2.0000      -9.955403      -270.9003
  13   2.0000      -9.952810      -270.8297
  14   2.0000      -9.936724      -270.3920
  15   2.0000      -9.889446      -269.1055
  16   2.0000      -9.885461      -268.9971
  17   2.0000      -9.884493      -268.9707
  18   2.0000      -9.879514      -268.8352
  19   2.0000      -7.693985      -209.3640
  20   2.0000      -7.682226      -209.0440
  21   2.0000      -7.625964      -207.5130
  22   2.0000      -7.622928      -207.4304
  23   2.0000      -6.425007      -174.8333
  24   2.0000      -6.416840      -174.6111
  25   2.0000      -5.721723      -155.6960
  26   2.0000      -5.718272      -155.6021
  27   2.0000      -5.711398      -155.4150
  28   2.0000      -5.710089      -155.3794
  29   2.0000      -5.706778      -155.2893
  30   2.0000      -5.699211      -155.0834
  31   2.0000      -5.655089      -153.8828
  32   2.0000      -5.651967      -153.7978
  33   2.0000      -5.646390      -153.6461
  34   2.0000      -5.646092      -153.6380
  35   2.0000      -5.643485      -153.5670
  36   2.0000      -5.642972      -153.5531
  37   2.0000      -4.647881      -126.4753
  38   2.0000      -4.647110      -126.4543
  39   2.0000      -4.644909      -126.3944
  40   2.0000      -4.639537      -126.2482
  41   2.0000      -4.638589      -126.2224
  42   2.0000      -4.637171      -126.1838
  43   2.0000      -0.992597       -27.0099
  44   2.0000      -0.982344       -26.7309
  45   2.0000      -0.948950       -25.8222
  46   2.0000      -0.938977       -25.5509
  47   2.0000      -0.762218       -20.7410
  48   2.0000      -0.721081       -19.6216
  49   2.0000      -0.711722       -19.3669
  50   2.0000      -0.694581       -18.9005
  51   2.0000      -0.685868       -18.6634
  52   2.0000      -0.674183       -18.3455
  53   2.0000      -0.648913       -17.6578
  54   2.0000      -0.632334       -17.2067
  55   2.0000      -0.592116       -16.1123
  56   2.0000      -0.584332       -15.9005
  57   2.0000      -0.577565       -15.7163
  58   2.0000      -0.570972       -15.5369
  59   2.0000      -0.559372       -15.2213
  60   2.0000      -0.509378       -13.8609
  61   2.0000      -0.497169       -13.5287
  62   2.0000      -0.478366       -13.0170
  63   2.0000      -0.476396       -12.9634
  64   2.0000      -0.455507       -12.3950
  65   2.0000      -0.442305       -12.0357
  66   2.0000      -0.441469       -12.0130
  67   2.0000      -0.437681       -11.9099
  68   2.0000      -0.430437       -11.7128
  69   2.0000      -0.418670       -11.3926
  70   2.0000      -0.413957       -11.2643
  71   2.0000      -0.399262       -10.8645
  72   2.0000      -0.389661       -10.6032
  73   2.0000      -0.387024       -10.5315
  74   2.0000      -0.380969       -10.3667
  75   2.0000      -0.362376        -9.8608
  76   2.0000      -0.359401        -9.7798
  77   2.0000      -0.358000        -9.7417
  78   2.0000      -0.352176        -9.5832
  79   2.0000      -0.350087        -9.5264
  80   2.0000      -0.349343        -9.5061
  81   2.0000      -0.344526        -9.3750
  82   2.0000      -0.341935        -9.3045
  83   2.0000      -0.339445        -9.2368
  84   2.0000      -0.335350        -9.1253
  85   2.0000      -0.322563        -8.7774
  86   2.0000      -0.310361        -8.4454
  87   2.0000      -0.300632        -8.1806
  88   2.0000      -0.294002        -8.0002
  89   2.0000      -0.289544        -7.8789
  90   2.0000      -0.285994        -7.7823
  91   2.0000      -0.282249        -7.6804
  92   2.0000      -0.270005        -7.3472
  93   2.0000      -0.264598        -7.2001
  94   2.0000      -0.252977        -6.8838
  95   2.0000      -0.236093        -6.4244
  96   2.0000      -0.217674        -5.9232
  97   2.0000      -0.208943        -5.6856
  98   2.0000      -0.198874        -5.4116
  99   2.0000      -0.193007        -5.2520
 100   2.0000      -0.185072        -5.0361
 101   0.0000      -0.042288        -1.1507
 102   0.0000      -0.030278        -0.8239
 103   0.0000      -0.014471        -0.3938
 104   0.0000       0.009554         0.2600
 105   0.0000       0.018783         0.5111

MULLIKEN ATOMIC CHARGES
-----------------------
   0 C :   -0.284750
   1 C :   -0.008193
   2 O :   -0.344110
   3 P :    0.585977
   4 S :   -0.290832
   5 O :   -0.377491
   6 C :   -0.014205
   7 C :   -0.310416
   8 S :   -0.120332
   9 C :   -0.339381
  10 S :   -0.143596
  11 P :    0.609226
  12 S :   -0.293923
  13 O :   -0.355417
  14 C :   -0.014608
  15 C :   -0.293297
  16 O :   -0.385804
  17 C :   -0.036908
  18 C :   -0.278582
  19 H :    0.118297
  20 H :    0.119927
  21 H :    0.109455
  22 H :    0.097371
  23 H :    0.107793
  24 H :    0.114857
  25 H :    0.110315
  26 H :    0.130672
  27 H :    0.112670
  28 H :    0.128795
  29 H :    0.216327
  30 H :    0.182863
  31 H :    0.103021
  32 H :    0.110260
  33 H :    0.126676
  34 H :    0.107396
  35 H :    0.120729
  36 H :    0.120983
  37 H :    0.121444
  38 H :    0.113746
  39 H :    0.107502
  40 H :    0.115544
Sum of atomic charges:   -0.0000000

LOEWDIN ATOMIC CHARGES
----------------------
   0 C :   -0.357910
   1 C :   -0.117851
   2 O :   -0.230632
   3 P :    0.562944
   4 S :   -0.285153
   5 O :   -0.244960
   6 C :   -0.114987
   7 C :   -0.369268
   8 S :    0.066202
   9 C :   -0.477769
  10 S :    0.045372
  11 P :    0.565409
  12 S :   -0.288769
  13 O :   -0.237756
  14 C :   -0.113151
  15 C :   -0.361076
  16 O :   -0.247733
  17 C :   -0.127709
  18 C :   -0.351450
  19 H :    0.127981
  20 H :    0.126418
  21 H :    0.129234
  22 H :    0.102432
  23 H :    0.117737
  24 H :    0.108492
  25 H :    0.121609
  26 H :    0.123330
  27 H :    0.130846
  28 H :    0.131571
  29 H :    0.124797
  30 H :    0.135180
  31 H :    0.102177
  32 H :    0.121566
  33 H :    0.126754
  34 H :    0.128250
  35 H :    0.129588
  36 H :    0.110461
  37 H :    0.109100
  38 H :    0.131758
  39 H :    0.121105
  40 H :    0.125862

  Mayer bond orders larger than 0.100000
B(  0-C ,  1-C ) :   1.1651 B(  0-C , 19-H ) :   0.9477 B(  0-C , 20-H ) :   0.9432
B(  0-C , 21-H ) :   0.9406 B(  1-C ,  2-O ) :   0.8876 B(  1-C , 22-H ) :   0.9119
B(  1-C , 23-H ) :   0.9328 B(  2-O ,  3-P ) :   1.1192 B(  3-P ,  4-S ) :   1.6719
B(  3-P ,  5-O ) :   1.0802 B(  3-P ,  8-S ) :   0.9309 B(  4-S ,  8-S ) :   0.1087
B(  5-O ,  6-C ) :   0.9107 B(  6-C ,  7-C ) :   1.1673 B(  6-C , 24-H ) :   0.9264
B(  6-C , 25-H ) :   0.9330 B(  7-C , 26-H ) :   0.9315 B(  7-C , 27-H ) :   0.9345
B(  7-C , 28-H ) :   0.9426 B(  8-S ,  9-C ) :   1.0088 B(  9-C , 10-S ) :   0.9907
B(  9-C , 29-H ) :   0.8389 B(  9-C , 30-H ) :   0.9107 B( 10-S , 11-P ) :   0.9402
B( 10-S , 12-S ) :   0.1183 B( 11-P , 12-S ) :   1.6715 B( 11-P , 13-O ) :   1.1393
B( 11-P , 16-O ) :   1.0868 B( 13-O , 14-C ) :   0.8986 B( 14-C , 15-C ) :   1.1628
B( 14-C , 31-H ) :   0.9139 B( 14-C , 32-H ) :   0.9367 B( 15-C , 33-H ) :   0.9395
B( 15-C , 34-H ) :   0.9393 B( 15-C , 35-H ) :   0.9465 B( 16-O , 17-C ) :   0.8965
B( 17-C , 18-C ) :   1.1524 B( 17-C , 36-H ) :   0.9133 B( 17-C , 37-H ) :   0.9171
B( 18-C , 38-H ) :   0.9431 B( 18-C , 39-H ) :   0.9504 B( 18-C , 40-H ) :   0.9506

Dispersion correction           -0.064693651
FINAL SINGLE POINT ENERGY     -2929.516435636362

DIPOLE MOMENT
-------------

Method             : SCF
Type of density    : Electron Density
Multiplicity       :   1
Irrep              :   0
Energy             : -2929.6369009171467042 Eh
Relativity type    :
Basis              : AO
                                X                 Y                 Z
Electronic contribution:     -4.716319972     -13.441768789     -10.458958925
Nuclear contribution   :      6.259578264      15.021092496      10.227480555
                        -----------------------------------------
Total Dipole Moment    :      1.543258292       1.579323707      -0.231478370
                        -----------------------------------------
Magnitude (a.u.)       :      2.220245879
Magnitude (Debye)      :      5.643416535

Rotational constants in cm-1:             0.012385             0.004903             0.004679
Rotational constants in MHz :           371.282382           147.003135           140.275650

                             ****ORCA TERMINATED NORMALLY****
TOTAL RUN TIME: 0 days 0 hours 0 minutes 21 seconds 152 msec
