                         Program Version 6.0.1  -  RELEASE   -
|  1> ! pbe def2-sv(p) def2/J RI DEFGRID1 loosescf d4 GCP(DFT/SV(P)) printgap
|  2> %output
|  3>     printlevel normal
|  4> end
|  5> * xyz 0 1
|  6> C 4.630384838 -4.4295490109 -1.336090041
|  7> C 3.2758306907 -3.7784518307 -1.5326682418
|  8> O 3.256934125 -2.5524665525 -0.7741338522
|  9> C 2.1763112652 -1.8035619822 -0.8444096595
| 10> O 1.1973365712 -2.0810972781 -1.503182962
| 11> C 2.313494502 -0.5543357404 0.001628913
| 12> C 1.0128438689 0.2295089842 0.0129981585
| 13> H 0.6068618586 0.2712858844 -1.0097328793
| 14> C 1.180688415 1.6685033472 0.4623894861
| 15> O 2.1922839227 2.303404915 0.276951811
| 16> O 0.0881564553 2.1259137627 1.0377990763
| 17> C 0.0384722174 3.5118890355 1.4344016276
| 18> C -0.6176587691 4.3506426006 0.3516913193
| 19> S -0.2482787116 -0.6198643867 1.0179411029
| 20> P -1.9565028566 0.3068552157 0.1552352563
| 21> S -1.7337926332 1.1790928759 -1.5827503174
| 22> O -3.0180582255 -0.896588444 0.1530617084
| 23> C -2.8681858015 -1.998843851 -0.745763857
| 24> O -2.6062311866 1.2563269448 1.2348479715
| 25> C -2.9096668921 0.8054696644 2.5698937006
| 26> H 5.4162548869 -3.7679397508 -1.6877108875
| 27> H 4.7931830738 -4.6378844074 -0.2830920602
| 28> H 4.6664032438 -5.3581428142 -1.8957861127
| 29> H 2.4614355075 -4.4155877731 -1.1744049426
| 30> H 3.0863969434 -3.5372019726 -2.5832673233
| 31> H 3.103951528 0.0741209469 -0.4164279625
| 32> H 2.6124234255 -0.8432091098 1.0100514697
| 33> H -0.5514615489 3.5166563929 2.3512407472
| 34> H 1.0606286994 3.8472450934 1.6295917034
| 35> H -0.0165271494 4.3344991115 -0.5548538275
| 36> H -1.6025696571 3.9524413152 0.1183004848
| 37> H -0.7145343326 5.3742004336 0.6973101707
| 38> H -3.7344224832 -2.6334224743 -0.5789069537
| 39> H -1.9458489244 -2.5400827006 -0.5308644344
| 40> H -2.8459685622 -1.6420255536 -1.7765487632
| 41> H -3.2505942944 1.6919230125 3.0982875157
| 42> H -2.0134898838 0.3950035731 3.0354182016
| 43> H -3.6922501 0.0500842543 2.537056481
| 44> *
| 45>
| 46>                          ****END OF INPUT****

CARTESIAN COORDINATES (ANGSTROEM)
---------------------------------
  C      4.630385   -4.429549   -1.336090
  C      3.275831   -3.778452   -1.532668
  O      3.256934   -2.552467   -0.774134
  C      2.176311   -1.803562   -0.844410
  O      1.197337   -2.081097   -1.503183
  C      2.313495   -0.554336    0.001629
  C      1.012844    0.229509    0.012998
  H      0.606862    0.271286   -1.009733
  C      1.180688    1.668503    0.462389
  O      2.192284    2.303405    0.276952
  O      0.088156    2.125914    1.037799
  C      0.038472    3.511889    1.434402
  C     -0.617659    4.350643    0.351691
  S     -0.248279   -0.619864    1.017941
  P     -1.956503    0.306855    0.155235
  S     -1.733793    1.179093   -1.582750
  O     -3.018058   -0.896588    0.153062
  C     -2.868186   -1.998844   -0.745764
  O     -2.606231    1.256327    1.234848
  C     -2.909667    0.805470    2.569894
  H      5.416255   -3.767940   -1.687711
  H      4.793183   -4.637884   -0.283092
  H      4.666403   -5.358143   -1.895786
  H      2.461436   -4.415588   -1.174405
  H      3.086397   -3.537202   -2.583267
  H      3.103952    0.074121   -0.416428
  H      2.612423   -0.843209    1.010051
  H     -0.551462    3.516656    2.351241
  H      1.060629    3.847245    1.629592
  H     -0.016527    4.334499   -0.554854
  H     -1.602570    3.952441    0.118300
  H     -0.714534    5.374200    0.697310
  H     -3.734422   -2.633422   -0.578907
  H     -1.945849   -2.540083   -0.530864
  H     -2.845969   -1.642026   -1.776549
  H     -3.250594    1.691923    3.098288
  H     -2.013490    0.395004    3.035418
  H     -3.692250    0.050084    2.537056

 Total Charge           Charge          ....    0
 Multiplicity           Mult            ....    1
 Number of Electrons    NEL             ....  174
 Basis Dimension        Dim             ....  316

ORBITAL ENERGIES
----------------

  NO   OCC          E(Eh)            E(eV)
   0   2.0000     -88.037432     -2395.6203
   1   2.0000     -87.982298     -2394.1200
   2   2.0000     -76.423338     -2079.5847
   3   2.0000     -18.807097      -511.7671
   4   2.0000     -18.805174      -511.7148
   5   2.0000     -18.794208      -511.4164
   6   2.0000     -18.788503      -511.2612
   7   2.0000     -18.742532      -510.0102
   8   2.0000     -18.739102      -509.9169
   9   2.0000     -10.014062      -272.4965
  10   2.0000     -10.012617      -272.4572
  11   2.0000      -9.952415      -270.8190
  12   2.0000      -9.951596      -270.7967
  13   2.0000      -9.946029      -270.6452
  14   2.0000      -9.939651      -270.4717
  15   2.0000      -9.937866      -270.4231
  16   2.0000      -9.913390      -269.7571
  17   2.0000      -9.892616      -269.1918
  18   2.0000      -9.877471      -268.7797
  19   2.0000      -7.682142      -209.0417
  20   2.0000      -7.627372      -207.5513
  21   2.0000      -6.420532      -174.7115
  22   2.0000      -5.709856      -155.3731
  23   2.0000      -5.706951      -155.2940
  24   2.0000      -5.699043      -155.0788
  25   2.0000      -5.656510      -153.9215
  26   2.0000      -5.647889      -153.6869
  27   2.0000      -5.647373      -153.6728
  28   2.0000      -4.643236      -126.3489
  29   2.0000      -4.642378      -126.3255
  30   2.0000      -4.640871      -126.2845
  31   2.0000      -1.014627       -27.6094
  32   2.0000      -1.013986       -27.5920
  33   2.0000      -0.985765       -26.8240
  34   2.0000      -0.941087       -25.6083
  35   2.0000      -0.920072       -25.0364
  36   2.0000      -0.918365       -24.9900
  37   2.0000      -0.763593       -20.7784
  38   2.0000      -0.718580       -19.5536
  39   2.0000      -0.699656       -19.0386
  40   2.0000      -0.694951       -18.9106
  41   2.0000      -0.659397       -17.9431
  42   2.0000      -0.633792       -17.2463
  43   2.0000      -0.620713       -16.8905
  44   2.0000      -0.614646       -16.7254
  45   2.0000      -0.593266       -16.1436
  46   2.0000      -0.557061       -15.1584
  47   2.0000      -0.514163       -13.9911
  48   2.0000      -0.512985       -13.9590
  49   2.0000      -0.497629       -13.5412
  50   2.0000      -0.476479       -12.9656
  51   2.0000      -0.471982       -12.8433
  52   2.0000      -0.465006       -12.6535
  53   2.0000      -0.450741       -12.2653
  54   2.0000      -0.440030       -11.9738
  55   2.0000      -0.430971       -11.7273
  56   2.0000      -0.423011       -11.5107
  57   2.0000      -0.414179       -11.2704
  58   2.0000      -0.411072       -11.1859
  59   2.0000      -0.408914       -11.1271
  60   2.0000      -0.407806       -11.0970
  61   2.0000      -0.400641       -10.9020
  62   2.0000      -0.389623       -10.6022
  63   2.0000      -0.388534       -10.5725
  64   2.0000      -0.365876        -9.9560
  65   2.0000      -0.365245        -9.9388
  66   2.0000      -0.355486        -9.6733
  67   2.0000      -0.352967        -9.6047
  68   2.0000      -0.351554        -9.5663
  69   2.0000      -0.339134        -9.2283
  70   2.0000      -0.333365        -9.0713
  71   2.0000      -0.326207        -8.8765
  72   2.0000      -0.322143        -8.7659
  73   2.0000      -0.310930        -8.4608
  74   2.0000      -0.307553        -8.3689
  75   2.0000      -0.304600        -8.2886
  76   2.0000      -0.294946        -8.0259
  77   2.0000      -0.289670        -7.8823
  78   2.0000      -0.269902        -7.3444
  79   2.0000      -0.266166        -7.2427
  80   2.0000      -0.262711        -7.1487
  81   2.0000      -0.256451        -6.9784
  82   2.0000      -0.244666        -6.6577
  83   2.0000      -0.225637        -6.1399
  84   2.0000      -0.208259        -5.6670
  85   2.0000      -0.202173        -5.5014
  86   2.0000      -0.196309        -5.3419
  87   0.0000      -0.040663        -1.1065
  88   0.0000      -0.027607        -0.7512
  89   0.0000      -0.019669        -0.5352
  90   0.0000       0.012463         0.3391
  91   0.0000       0.018996         0.5169

MULLIKEN ATOMIC CHARGES
-----------------------
   0 C :   -0.271754
   1 C :   -0.029701
   2 O :   -0.233110
   3 C :    0.134373
   4 O :   -0.202732
   5 C :   -0.116997
   6 C :   -0.350359
   7 H :    0.173968
   8 C :    0.247243
   9 O :   -0.196509
  10 O :   -0.226643
  11 C :   -0.012904
  12 C :   -0.298279
  13 S :   -0.105617
  14 P :    0.629848
  15 S :   -0.312475
  16 O :   -0.392524
  17 C :   -0.102692
  18 O :   -0.363349
  19 C :   -0.109139
  20 H :    0.117582
  21 H :    0.115875
  22 H :    0.112736
  23 H :    0.106523
  24 H :    0.109768
  25 H :    0.143620
  26 H :    0.121386
  27 H :    0.098432
  28 H :    0.110120
  29 H :    0.121976
  30 H :    0.131605
  31 H :    0.106394
  32 H :    0.120381
  33 H :    0.123291
  34 H :    0.122043
  35 H :    0.129503
  36 H :    0.121049
  37 H :    0.127071
Sum of atomic charges:    0.0000000

LOEWDIN ATOMIC CHARGES
----------------------
   0 C :   -0.350356
   1 C :   -0.105219
   2 O :   -0.064410
   3 C :    0.031396
   4 O :   -0.160928
   5 C :   -0.251333
   6 C :   -0.278256
   7 H :    0.145790
   8 C :    0.023400
   9 O :   -0.159027
  10 O :   -0.055462
  11 C :   -0.107827
  12 C :   -0.355831
  13 S :    0.093259
  14 P :    0.582641
  15 S :   -0.300085
  16 O :   -0.263040
  17 C :   -0.217450
  18 O :   -0.238382
  19 C :   -0.211246
  20 H :    0.128015
  21 H :    0.127249
  22 H :    0.131397
  23 H :    0.117103
  24 H :    0.118315
  25 H :    0.159022
  26 H :    0.141820
  27 H :    0.115422
  28 H :    0.119709
  29 H :    0.130201
  30 H :    0.129015
  31 H :    0.127239
  32 H :    0.119820
  33 H :    0.111649
  34 H :    0.114677
  35 H :    0.124491
  36 H :    0.109663
  37 H :    0.117560

  Mayer bond orders larger than 0.100000
B(  0-C ,  1-C ) :   1.1527 B(  0-C , 20-H ) :   0.9499 B(  0-C , 21-H ) :   0.9495
B(  0-C , 22-H ) :   0.9436 B(  1-C ,  2-O ) :   0.9038 B(  1-C , 23-H ) :   0.9330
B(  1-C , 24-H ) :   0.9313 B(  2-O ,  3-C ) :   1.2402 B(  3-C ,  4-O ) :   2.0352
B(  3-C ,  5-C ) :   1.0085 B(  5-C ,  6-C ) :   1.0939 B(  5-C , 25-H ) :   0.8681
B(  5-C , 26-H ) :   0.8980 B(  6-C ,  7-H ) :   0.8149 B(  6-C ,  8-C ) :   0.8828
B(  6-C , 13-S ) :   1.0102 B(  8-C ,  9-O ) :   2.0636 B(  8-C , 10-O ) :   1.2519
B( 10-O , 11-C ) :   0.9014 B( 11-C , 12-C ) :   1.1822 B( 11-C , 27-H ) :   0.9346
B( 11-C , 28-H ) :   0.9114 B( 12-C , 29-H ) :   0.9459 B( 12-C , 30-H ) :   0.9404
B( 12-C , 31-H ) :   0.9423 B( 13-S , 14-P ) :   0.9535 B( 13-S , 15-S ) :   0.1153
B( 14-P , 15-S ) :   1.6343 B( 14-P , 16-O ) :   1.0697 B( 14-P , 18-O ) :   1.1207
B( 16-O , 17-C ) :   0.9301 B( 17-C , 32-H ) :   0.9581 B( 17-C , 33-H ) :   0.9408
B( 17-C , 34-H ) :   0.9407 B( 18-O , 19-C ) :   0.9189 B( 19-C , 35-H ) :   0.9591
B( 19-C , 36-H ) :   0.9370 B( 19-C , 37-H ) :   0.9479

Dispersion correction           -0.051005277
FINAL SINGLE POINT ENERGY     -1979.024439983235

DIPOLE MOMENT
-------------

Method             : SCF
Type of density    : Electron Density
Multiplicity       :   1
Irrep              :   0
Energy             : -1979.1550076127464308 Eh
Relativity type    :
Basis              : AO
                                X                 Y                 Z
Electronic contribution:     -8.668575695       4.776658152      -0.562727381
Nuclear contribution   :      8.801846530      -5.793286813       1.746836197
                        -----------------------------------------
Total Dipole Moment    :      0.133270835      -1.016628661       1.184108817
                        -----------------------------------------
Magnitude (a.u.)       :      1.566336056
Magnitude (Debye)      :      3.981309854

Rotational constants in cm-1:             0.013910             0.006230             0.005035
Rotational constants in MHz :           417.014452           186.778955           150.940235

                             ****ORCA TERMINATED NORMALLY****
TOTAL RUN TIME: 0 days 0 hours 0 minutes 31 seconds 863 msec
