                         Program Version 6.0.0  -   RELEASE  -
|  1> ! pbe def2-sv(p) def2/J RI DEFGRID1 loosescf d4 GCP(DFT/SV(P)) printgap
|  2> %output
|  3>     printlevel normal
|  4> end
|  5> * xyz 0 1
|  6> C 4.9256753061 -0.8166261074 -1.1650996778
|  7> C 3.9273925567 -1.8385586778 -0.6635564999
|  8> O 3.0079613762 -1.2707846058 0.2906012924
|  9> P 1.9175930767 -0.188011852 -0.1081366662
| 10> S 1.20942815 -0.4246837282 -1.9222229729
| 11> O 2.6519444812 1.186541765 0.1791328948
| 12> C 2.4143047025 2.4305885204 -0.5018717148
| 13> C 3.74553741 3.1197142161 -0.723365367
| 14> S 0.7355561585 -0.4430913392 1.6284490573
| 15> C -0.1640072287 -1.9263452388 1.109289039
| 16> S -1.4887911966 -1.6239832763 -0.1151084765
| 17> P -2.0433041073 0.3938416986 0.3032919461
| 18> S -0.878234676 1.8892905044 -0.2040412608
| 19> O -2.3986615974 0.4637124824 1.8364970907
| 20> C -3.5665525928 -0.1235393165 2.4688167154
| 21> C -3.2908619518 -1.5267103714 2.9704534075
| 22> O -3.4692607146 0.4541837947 -0.3970769734
| 23> C -3.6395579877 0.8304674447 -1.7755989487
| 24> C -3.015392104 -0.1709773074 -2.7251888958
| 25> H 4.410362477 -0.0628184436 -1.7593631873
| 26> H 5.4189931387 -0.3303967608 -0.3274064149
| 27> H 5.6661002164 -1.3097161812 -1.7871231225
| 28> H 4.4129930935 -2.6425854614 -0.1090566785
| 29> H 3.349736392 -2.2510070231 -1.4970355798
| 30> H 1.9001485926 2.2260165513 -1.4473334435
| 31> H 1.7508969223 3.0303682571 0.1263133541
| 32> H 4.3734908052 2.5304251277 -1.3859830254
| 33> H 3.5662345676 4.0916685549 -1.1709405187
| 34> H 4.2556096009 3.2484956618 0.2268627917
| 35> H -0.6058406103 -2.3438100655 2.0109023442
| 36> H 0.5228457865 -2.6343131103 0.6481479663
| 37> H -3.7725793675 0.5578270195 3.2959356577
| 38> H -4.3953713383 -0.1078229905 1.7598237869
| 39> H -4.1414696131 -1.8589432589 3.5576976063
| 40> H -3.1498692436 -2.2126848564 2.1389272091
| 41> H -2.4043263882 -1.5281987634 3.5996694106
| 42> H -4.7224213243 0.8817363831 -1.897139696
| 43> H -3.199046867 1.8221557884 -1.9190253015
| 44> H -3.3747237153 -1.1744817052 -2.5108702931
| 45> H -3.2695956286 0.0946705157 -3.746171301
| 46> H -1.9296265143 -0.15961056 -2.6239297122
| 47> *
| 48>
| 49>                          ****END OF INPUT****

CARTESIAN COORDINATES (ANGSTROEM)
---------------------------------
  C      4.925675   -0.816626   -1.165100
  C      3.927393   -1.838559   -0.663556
  O      3.007961   -1.270785    0.290601
  P      1.917593   -0.188012   -0.108137
  S      1.209428   -0.424684   -1.922223
  O      2.651944    1.186542    0.179133
  C      2.414305    2.430589   -0.501872
  C      3.745537    3.119714   -0.723365
  S      0.735556   -0.443091    1.628449
  C     -0.164007   -1.926345    1.109289
  S     -1.488791   -1.623983   -0.115108
  P     -2.043304    0.393842    0.303292
  S     -0.878235    1.889291   -0.204041
  O     -2.398662    0.463712    1.836497
  C     -3.566553   -0.123539    2.468817
  C     -3.290862   -1.526710    2.970453
  O     -3.469261    0.454184   -0.397077
  C     -3.639558    0.830467   -1.775599
  C     -3.015392   -0.170977   -2.725189
  H      4.410362   -0.062818   -1.759363
  H      5.418993   -0.330397   -0.327406
  H      5.666100   -1.309716   -1.787123
  H      4.412993   -2.642585   -0.109057
  H      3.349736   -2.251007   -1.497036
  H      1.900149    2.226017   -1.447333
  H      1.750897    3.030368    0.126313
  H      4.373491    2.530425   -1.385983
  H      3.566235    4.091669   -1.170941
  H      4.255610    3.248496    0.226863
  H     -0.605841   -2.343810    2.010902
  H      0.522846   -2.634313    0.648148
  H     -3.772579    0.557827    3.295936
  H     -4.395371   -0.107823    1.759824
  H     -4.141470   -1.858943    3.557698
  H     -3.149869   -2.212685    2.138927
  H     -2.404326   -1.528199    3.599669
  H     -4.722421    0.881736   -1.897140
  H     -3.199047    1.822156   -1.919025
  H     -3.374724   -1.174482   -2.510870
  H     -3.269596    0.094671   -3.746171
  H     -1.929627   -0.159611   -2.623930

 Total Charge           Charge          ....    0
 Multiplicity           Mult            ....    1
 Number of Electrons    NEL             ....  202
 Basis Dimension        Dim             ....  334

ORBITAL ENERGIES
----------------

  NO   OCC          E(Eh)            E(eV)
   0   2.0000     -88.037393     -2395.6193
   1   2.0000     -88.035249     -2395.5609
   2   2.0000     -87.980263     -2394.0647
   3   2.0000     -87.972850     -2393.8629
   4   2.0000     -76.422395     -2079.5591
   5   2.0000     -76.420584     -2079.5098
   6   2.0000     -18.788564      -511.2628
   7   2.0000     -18.786444      -511.2051
   8   2.0000     -18.786326      -511.2019
   9   2.0000     -18.781439      -511.0689
  10   2.0000      -9.957644      -270.9613
  11   2.0000      -9.955690      -270.9081
  12   2.0000      -9.948232      -270.7052
  13   2.0000      -9.946163      -270.6489
  14   2.0000      -9.941862      -270.5318
  15   2.0000      -9.890087      -269.1229
  16   2.0000      -9.881305      -268.8840
  17   2.0000      -9.881035      -268.8766
  18   2.0000      -9.877872      -268.7906
  19   2.0000      -7.682460      -209.0504
  20   2.0000      -7.679772      -208.9772
  21   2.0000      -7.624978      -207.4862
  22   2.0000      -7.617918      -207.2941
  23   2.0000      -6.419175      -174.6746
  24   2.0000      -6.417684      -174.6341
  25   2.0000      -5.710456      -155.3894
  26   2.0000      -5.707849      -155.3185
  27   2.0000      -5.707277      -155.3029
  28   2.0000      -5.704337      -155.2229
  29   2.0000      -5.698892      -155.0747
  30   2.0000      -5.696565      -155.0114
  31   2.0000      -5.653823      -153.8483
  32   2.0000      -5.647075      -153.6647
  33   2.0000      -5.645876      -153.6321
  34   2.0000      -5.644957      -153.6071
  35   2.0000      -5.638345      -153.4272
  36   2.0000      -5.638001      -153.4178
  37   2.0000      -4.642520      -126.3294
  38   2.0000      -4.640858      -126.2842
  39   2.0000      -4.640163      -126.2652
  40   2.0000      -4.639499      -126.2472
  41   2.0000      -4.639130      -126.2371
  42   2.0000      -4.638255      -126.2133
  43   2.0000      -0.983576       -26.7645
  44   2.0000      -0.978485       -26.6259
  45   2.0000      -0.940530       -25.5931
  46   2.0000      -0.938475       -25.5372
  47   2.0000      -0.759365       -20.6634
  48   2.0000      -0.716446       -19.4955
  49   2.0000      -0.707665       -19.2565
  50   2.0000      -0.686958       -18.6931
  51   2.0000      -0.682856       -18.5814
  52   2.0000      -0.665944       -18.1212
  53   2.0000      -0.648036       -17.6340
  54   2.0000      -0.632620       -17.2145
  55   2.0000      -0.595780       -16.2120
  56   2.0000      -0.583416       -15.8755
  57   2.0000      -0.578565       -15.7436
  58   2.0000      -0.561839       -15.2884
  59   2.0000      -0.559652       -15.2289
  60   2.0000      -0.499293       -13.5865
  61   2.0000      -0.493610       -13.4318
  62   2.0000      -0.472694       -12.8627
  63   2.0000      -0.468498       -12.7485
  64   2.0000      -0.452198       -12.3049
  65   2.0000      -0.443955       -12.0806
  66   2.0000      -0.433133       -11.7861
  67   2.0000      -0.426840       -11.6149
  68   2.0000      -0.424733       -11.5576
  69   2.0000      -0.418905       -11.3990
  70   2.0000      -0.401705       -10.9310
  71   2.0000      -0.396013       -10.7761
  72   2.0000      -0.390875       -10.6363
  73   2.0000      -0.381744       -10.3878
  74   2.0000      -0.372547       -10.1375
  75   2.0000      -0.371082       -10.0977
  76   2.0000      -0.362744        -9.8708
  77   2.0000      -0.358021        -9.7422
  78   2.0000      -0.354034        -9.6338
  79   2.0000      -0.351193        -9.5564
  80   2.0000      -0.347796        -9.4640
  81   2.0000      -0.344286        -9.3685
  82   2.0000      -0.336693        -9.1619
  83   2.0000      -0.335063        -9.1175
  84   2.0000      -0.327115        -8.9013
  85   2.0000      -0.317351        -8.6356
  86   2.0000      -0.308475        -8.3940
  87   2.0000      -0.299981        -8.1629
  88   2.0000      -0.289521        -7.8783
  89   2.0000      -0.286372        -7.7926
  90   2.0000      -0.275617        -7.4999
  91   2.0000      -0.270360        -7.3569
  92   2.0000      -0.262228        -7.1356
  93   2.0000      -0.256072        -6.9681
  94   2.0000      -0.254983        -6.9384
  95   2.0000      -0.240461        -6.5433
  96   2.0000      -0.221207        -6.0193
  97   2.0000      -0.207146        -5.6367
  98   2.0000      -0.188292        -5.1237
  99   2.0000      -0.180987        -4.9249
 100   2.0000      -0.174918        -4.7597
 101   0.0000      -0.050229        -1.3668
 102   0.0000      -0.029435        -0.8010
 103   0.0000      -0.009430        -0.2566
 104   0.0000       0.012652         0.3443
 105   0.0000       0.020590         0.5603

MULLIKEN ATOMIC CHARGES
-----------------------
   0 C :   -0.318535
   1 C :   -0.000316
   2 O :   -0.372781
   3 P :    0.622588
   4 S :   -0.309657
   5 O :   -0.377963
   6 C :   -0.024324
   7 C :   -0.281088
   8 S :   -0.081114
   9 C :   -0.316369
  10 S :   -0.117886
  11 P :    0.630251
  12 S :   -0.324265
  13 O :   -0.363748
  14 C :   -0.004421
  15 C :   -0.321400
  16 O :   -0.386648
  17 C :    0.003050
  18 C :   -0.340837
  19 H :    0.127102
  20 H :    0.118256
  21 H :    0.110389
  22 H :    0.101070
  23 H :    0.105718
  24 H :    0.117927
  25 H :    0.116214
  26 H :    0.117230
  27 H :    0.110522
  28 H :    0.114692
  29 H :    0.179658
  30 H :    0.180361
  31 H :    0.111146
  32 H :    0.114740
  33 H :    0.112488
  34 H :    0.128030
  35 H :    0.122513
  36 H :    0.100582
  37 H :    0.112328
  38 H :    0.117260
  39 H :    0.113335
  40 H :    0.153906
Sum of atomic charges:   -0.0000000

LOEWDIN ATOMIC CHARGES
----------------------
   0 C :   -0.366471
   1 C :   -0.120894
   2 O :   -0.249631
   3 P :    0.570685
   4 S :   -0.306793
   5 O :   -0.241078
   6 C :   -0.121835
   7 C :   -0.352524
   8 S :    0.104424
   9 C :   -0.469197
  10 S :    0.066753
  11 P :    0.568107
  12 S :   -0.309400
  13 O :   -0.240675
  14 C :   -0.108589
  15 C :   -0.367409
  16 O :   -0.249304
  17 C :   -0.117952
  18 C :   -0.375688
  19 H :    0.120739
  20 H :    0.126356
  21 H :    0.129590
  22 H :    0.116619
  23 H :    0.107393
  24 H :    0.108237
  25 H :    0.112390
  26 H :    0.124070
  27 H :    0.130609
  28 H :    0.126046
  29 H :    0.129016
  30 H :    0.132138
  31 H :    0.122400
  32 H :    0.115250
  33 H :    0.131559
  34 H :    0.119817
  35 H :    0.125396
  36 H :    0.116388
  37 H :    0.111818
  38 H :    0.122058
  39 H :    0.131949
  40 H :    0.127634

  Mayer bond orders larger than 0.100000
B(  0-C ,  1-C ) :   1.1650 B(  0-C , 19-H ) :   0.9304 B(  0-C , 20-H ) :   0.9462
B(  0-C , 21-H ) :   0.9380 B(  1-C ,  2-O ) :   0.9149 B(  1-C , 22-H ) :   0.9342
B(  1-C , 23-H ) :   0.9130 B(  2-O ,  3-P ) :   1.1024 B(  3-P ,  4-S ) :   1.6149
B(  3-P ,  5-O ) :   1.1292 B(  3-P ,  8-S ) :   0.9317 B(  4-S ,  8-S ) :   0.1156
B(  5-O ,  6-C ) :   0.8957 B(  6-C ,  7-C ) :   1.1527 B(  6-C , 24-H ) :   0.9079
B(  6-C , 25-H ) :   0.9270 B(  7-C , 26-H ) :   0.9471 B(  7-C , 27-H ) :   0.9417
B(  7-C , 28-H ) :   0.9488 B(  8-S ,  9-C ) :   1.0289 B(  9-C , 10-S ) :   0.9754
B(  9-C , 29-H ) :   0.9021 B(  9-C , 30-H ) :   0.9014 B( 10-S , 11-P ) :   0.9661
B( 10-S , 12-S ) :   0.1167 B( 11-P , 12-S ) :   1.6114 B( 11-P , 13-O ) :   1.1202
B( 11-P , 16-O ) :   1.0785 B( 13-O , 14-C ) :   0.9018 B( 14-C , 15-C ) :   1.1683
B( 14-C , 31-H ) :   0.9357 B( 14-C , 32-H ) :   0.9186 B( 15-C , 33-H ) :   0.9356
B( 15-C , 34-H ) :   0.9293 B( 15-C , 35-H ) :   0.9406 B( 16-O , 17-C ) :   0.9043
B( 17-C , 18-C ) :   1.1664 B( 17-C , 36-H ) :   0.9331 B( 17-C , 37-H ) :   0.9149
B( 18-C , 38-H ) :   0.9416 B( 18-C , 39-H ) :   0.9365 B( 18-C , 40-H ) :   0.9260

Dispersion correction           -0.068586840
FINAL SINGLE POINT ENERGY     -2929.506442405336

DIPOLE MOMENT
-------------

Method             : SCF
Type of density    : Electron Density
Multiplicity       :   1
Irrep              :   0
Energy             : -2929.6220659536879793 Eh
Relativity type    :
Basis              : AO
                                X                 Y                 Z
Electronic contribution:     -4.802905661      -0.350905803       4.974830505
Nuclear contribution   :      4.495724010      -0.278924234      -4.647620584
                        -----------------------------------------
Total Dipole Moment    :     -0.307181650      -0.629830037       0.327209921
                        -----------------------------------------
Magnitude (a.u.)       :      0.773377511
Magnitude (Debye)      :      1.965769411

Rotational constants in cm-1:             0.012589             0.005409             0.005023
Rotational constants in MHz :           377.401405           162.151780           150.594982

                             ****ORCA TERMINATED NORMALLY****
TOTAL RUN TIME: 0 days 0 hours 0 minutes 21 seconds 370 msec
