                         Program Version 6.0.0  -   RELEASE  -
|  1> ! r2scan-3c def2/J RI DEFGRID2 scfconv6 printgap
|  2> %output
|  3>     printlevel normal
|  4> end
|  5> * xyz 0 1
|  6> C -0.0001274648 1.77314e-05 -1.8431063148
|  7> C -7.6326e-06 2.59878e-05 -0.3393665394
|  8> Cl -1.607795207 0.4324060805 0.3092204226
|  9> Cl 0.4294360243 -1.6085722547 0.3091477042
| 10> Cl 1.1784198195 1.1761513945 0.3091387843
| 11> H -0.2643968975 0.9899503463 -2.2057572534
| 12> H 0.9892674676 -0.2661711466 -2.2058183766
| 13> H -0.7253935473 -0.723780309 -2.2056184487
| 14> *
| 15>
| 16>                          ****END OF INPUT****

CARTESIAN COORDINATES (ANGSTROEM)
---------------------------------
  C     -0.000127    0.000018   -1.843106
  C     -0.000008    0.000026   -0.339367
  Cl    -1.607795    0.432406    0.309220
  Cl     0.429436   -1.608572    0.309148
  Cl     1.178420    1.176151    0.309139
  H     -0.264397    0.989950   -2.205757
  H      0.989267   -0.266171   -2.205818
  H     -0.725394   -0.723780   -2.205618

 Total Charge           Charge          ....    0
 Multiplicity           Mult            ....    1
 Number of Electrons    NEL             ....   66
 Basis Dimension        Dim             ....  134

ORBITAL ENERGIES
----------------

  NO   OCC          E(Eh)            E(eV)
   0   2.0000    -101.233558     -2754.7052
   1   2.0000    -101.233528     -2754.7044
   2   2.0000    -101.233527     -2754.7043
   3   2.0000     -10.230550      -278.3874
   4   2.0000     -10.067156      -273.9413
   5   2.0000      -9.389746      -255.5080
   6   2.0000      -9.389718      -255.5072
   7   2.0000      -9.389716      -255.5072
   8   2.0000      -7.136653      -194.1982
   9   2.0000      -7.136614      -194.1971
  10   2.0000      -7.136614      -194.1971
  11   2.0000      -7.125512      -193.8950
  12   2.0000      -7.125489      -193.8944
  13   2.0000      -7.125488      -193.8944
  14   2.0000      -7.125346      -193.8905
  15   2.0000      -7.125322      -193.8899
  16   2.0000      -7.125321      -193.8898
  17   2.0000      -0.916359       -24.9354
  18   2.0000      -0.800034       -21.7700
  19   2.0000      -0.800023       -21.7697
  20   2.0000      -0.731054       -19.8930
  21   2.0000      -0.575537       -15.6612
  22   2.0000      -0.471673       -12.8349
  23   2.0000      -0.471666       -12.8347
  24   2.0000      -0.447442       -12.1755
  25   2.0000      -0.389057       -10.5868
  26   2.0000      -0.389052       -10.5866
  27   2.0000      -0.326535        -8.8855
  28   2.0000      -0.326532        -8.8854
  29   2.0000      -0.305605        -8.3159
  30   2.0000      -0.290339        -7.9005
  31   2.0000      -0.290332        -7.9003
  32   2.0000      -0.277282        -7.5452
  33   0.0000      -0.060646        -1.6503
  34   0.0000      -0.018552        -0.5048
  35   0.0000      -0.018543        -0.5046
  36   0.0000       0.094811         2.5799
  37   0.0000       0.107744         2.9319

MULLIKEN ATOMIC CHARGES
-----------------------
   0 C :   -0.444691
   1 C :    0.194371
   2 Cl:   -0.088814
   3 Cl:   -0.088811
   4 Cl:   -0.088663
   5 H :    0.172206
   6 H :    0.172201
   7 H :    0.172201
Sum of atomic charges:   -0.0000000

LOEWDIN ATOMIC CHARGES
----------------------
   0 C :   -0.431814
   1 C :   -0.381318
   2 Cl:    0.097436
   3 Cl:    0.097437
   4 Cl:    0.097500
   5 H :    0.173587
   6 H :    0.173586
   7 H :    0.173585

  Mayer bond orders larger than 0.100000
B(  0-C ,  1-C ) :   0.9429 B(  0-C ,  5-H ) :   0.9520 B(  0-C ,  6-H ) :   0.9520
B(  0-C ,  7-H ) :   0.9520 B(  1-C ,  2-Cl) :   1.0159 B(  1-C ,  3-Cl) :   1.0159
B(  1-C ,  4-Cl) :   1.0163

Dispersion correction           -0.002594769
FINAL SINGLE POINT ENERGY     -1458.522494400298

DIPOLE MOMENT
-------------

Method             : SCF
Type of density    : Electron Density
Multiplicity       :   1
Irrep              :   0
Energy             : -1458.5275986299780016 Eh
Relativity type    :
Basis              : AO
                                X                 Y                 Z
Electronic contribution:      0.000660756       0.000127943       6.668113961
Nuclear contribution   :     -0.000572033       0.000018797      -7.453010384
                        -----------------------------------------
Total Dipole Moment    :      0.000088724       0.000146740      -0.784896422
                        -----------------------------------------
Magnitude (a.u.)       :      0.784896441
Magnitude (Debye)      :      1.995048204

Rotational constants in cm-1:             0.078024             0.078020             0.056570
Rotational constants in MHz :          2339.088916          2338.980123          1695.913040

                             ****ORCA TERMINATED NORMALLY****
TOTAL RUN TIME: 0 days 0 hours 0 minutes 13 seconds 392 msec
