                         Program Version 6.0.0  -   RELEASE  -
|  1> ! r2scan-3c def2/J RI DEFGRID2 scfconv6 printgap
|  2> %output
|  3>     printlevel normal
|  4> end
|  5> %cpcm
|  6>     smd true
|  7>     smdsolvent "water"
|  8> end
|  9> * xyz 0 1
| 10> C -0.0001274648 1.77314e-05 -1.8431063148
| 11> C -7.6326e-06 2.59878e-05 -0.3393665394
| 12> Cl -1.607795207 0.4324060805 0.3092204226
| 13> Cl 0.4294360243 -1.6085722547 0.3091477042
| 14> Cl 1.1784198195 1.1761513945 0.3091387843
| 15> H -0.2643968975 0.9899503463 -2.2057572534
| 16> H 0.9892674676 -0.2661711466 -2.2058183766
| 17> H -0.7253935473 -0.723780309 -2.2056184487
| 18> *
| 19>
| 20>                          ****END OF INPUT****

CARTESIAN COORDINATES (ANGSTROEM)
---------------------------------
  C     -0.000127    0.000018   -1.843106
  C     -0.000008    0.000026   -0.339367
  Cl    -1.607795    0.432406    0.309220
  Cl     0.429436   -1.608572    0.309148
  Cl     1.178420    1.176151    0.309139
  H     -0.264397    0.989950   -2.205757
  H      0.989267   -0.266171   -2.205818
  H     -0.725394   -0.723780   -2.205618

 Total Charge           Charge          ....    0
 Multiplicity           Mult            ....    1
 Number of Electrons    NEL             ....   66
 Basis Dimension        Dim             ....  134

ORBITAL ENERGIES
----------------

  NO   OCC          E(Eh)            E(eV)
   0   2.0000    -101.233178     -2754.6948
   1   2.0000    -101.233158     -2754.6943
   2   2.0000    -101.233157     -2754.6943
   3   2.0000     -10.228025      -278.3187
   4   2.0000     -10.047942      -273.4184
   5   2.0000      -9.389555      -255.5028
   6   2.0000      -9.389537      -255.5023
   7   2.0000      -9.389536      -255.5023
   8   2.0000      -7.136329      -194.1894
   9   2.0000      -7.136300      -194.1886
  10   2.0000      -7.136300      -194.1886
  11   2.0000      -7.125392      -193.8918
  12   2.0000      -7.125381      -193.8915
  13   2.0000      -7.125381      -193.8915
  14   2.0000      -7.125174      -193.8858
  15   2.0000      -7.125160      -193.8855
  16   2.0000      -7.125160      -193.8855
  17   2.0000      -0.914460       -24.8837
  18   2.0000      -0.799984       -21.7687
  19   2.0000      -0.799979       -21.7685
  20   2.0000      -0.717965       -19.5368
  21   2.0000      -0.569972       -15.5097
  22   2.0000      -0.466428       -12.6922
  23   2.0000      -0.466404       -12.6915
  24   2.0000      -0.438422       -11.9301
  25   2.0000      -0.374584       -10.1930
  26   2.0000      -0.374553       -10.1921
  27   2.0000      -0.326862        -8.8944
  28   2.0000      -0.326859        -8.8943
  29   2.0000      -0.303915        -8.2700
  30   2.0000      -0.290314        -7.8998
  31   2.0000      -0.290305        -7.8996
  32   2.0000      -0.278403        -7.5757
  33   0.0000      -0.060299        -1.6408
  34   0.0000      -0.015907        -0.4329
  35   0.0000      -0.015903        -0.4327
  36   0.0000       0.103685         2.8214
  37   0.0000       0.127517         3.4699

MULLIKEN ATOMIC CHARGES
-----------------------
   0 C :   -0.460939
   1 C :    0.192438
   2 Cl:   -0.106166
   3 Cl:   -0.106164
   4 Cl:   -0.106068
   5 H :    0.195735
   6 H :    0.195725
   7 H :    0.195439
Sum of atomic charges:   -0.0000000

LOEWDIN ATOMIC CHARGES
----------------------
   0 C :   -0.428278
   1 C :   -0.379317
   2 Cl:    0.086086
   3 Cl:    0.086086
   4 Cl:    0.086175
   5 H :    0.183113
   6 H :    0.183110
   7 H :    0.183025

  Mayer bond orders larger than 0.100000
B(  0-C ,  1-C ) :   0.9446 B(  0-C ,  5-H ) :   0.9409 B(  0-C ,  6-H ) :   0.9409
B(  0-C ,  7-H ) :   0.9408 B(  1-C ,  2-Cl) :   1.0069 B(  1-C ,  3-Cl) :   1.0069
B(  1-C ,  4-Cl) :   1.0071

Dispersion correction           -0.002594769
FINAL SINGLE POINT ENERGY     -1458.524489718896

DIPOLE MOMENT
-------------

Method             : SCF
Type of density    : Electron Density
Multiplicity       :   1
Irrep              :   0
Energy             : -1458.5295939485765757 Eh
Relativity type    :
Basis              : AO
                                X                 Y                 Z
Electronic contribution:      0.001212467       0.000710974       6.371027095
Nuclear contribution   :     -0.000572033       0.000018797      -7.453010384
                        -----------------------------------------
Total Dipole Moment    :      0.000640434       0.000729771      -1.081983288
                        -----------------------------------------
Magnitude (a.u.)       :      1.081983724
Magnitude (Debye)      :      2.750184065

Rotational constants in cm-1:             0.078024             0.078020             0.056570
Rotational constants in MHz :          2339.088916          2338.980123          1695.913040

                             ****ORCA TERMINATED NORMALLY****
TOTAL RUN TIME: 0 days 0 hours 0 minutes 16 seconds 311 msec
