                         Program Version 6.0.0  -   RELEASE  -
|  1> ! pbe def2-sv(p) def2/J RI DEFGRID1 loosescf d4 GCP(DFT/SV(P)) printgap
|  2> %output
|  3>     printlevel normal
|  4> end
|  5> * xyz 0 1
|  6> C 4.1935470539 -0.1413994714 -2.3479922223
|  7> C 4.3722207873 0.5981812084 -1.0377473402
|  8> O 3.689953752 -0.0493366222 0.0487946746
|  9> P 2.1058281112 -0.1494245018 0.131959374
| 10> S 1.1554103921 1.4826656876 -0.428850275
| 11> O 1.8858203607 -0.5917776103 1.6360222933
| 12> C 1.721828485 0.3550226569 2.7096178914
| 13> C 3.0199871691 1.0586009755 3.0457654215
| 14> S 1.6691342623 -1.9747521597 -0.8173957827
| 15> C -0.1009543713 -1.7379871006 -1.1270005822
| 16> S -1.0516595773 -1.3706546378 0.3797741768
| 17> P -2.1975223532 0.3050282635 -0.308855183
| 18> S -1.9809946159 0.8299878775 -2.1777181614
| 19> O -1.9084029324 1.4605422344 0.7211357126
| 20> C -2.1430872136 1.3169331021 2.1461680895
| 21> C -1.7276231237 2.614691933 2.8068980167
| 22> O -3.6909409842 -0.0817318563 0.1013051413
| 23> C -4.576820243 -0.8076052061 -0.7677948979
| 24> C -4.0817931629 -2.208491097 -1.0640368194
| 25> H 4.4606971575 -1.1886296475 -2.2305893295
| 26> H 3.1551142158 -0.0785780393 -2.6722576637
| 27> H 4.8247404293 0.3112360248 -3.1060711338
| 28> H 3.994552231 1.6225467799 -1.1214147368
| 29> H 5.4158716524 0.6106075354 -0.7206271411
| 30> H 0.9565694185 1.0806054662 2.4149531444
| 31> H 1.3609158836 -0.2521409728 3.5409874017
| 32> H 3.802932236 0.3286694541 3.2325549336
| 33> H 3.3233002253 1.6943719683 2.2150660299
| 34> H 2.8779655998 1.673303351 3.9291975796
| 35> H -0.4485888937 -2.6815662136 -1.5407989451
| 36> H -0.2532016609 -0.917283133 -1.8344830935
| 37> H -3.2032531932 1.1068807222 2.2995216849
| 38> H -1.5519730142 0.4684203389 2.5050202921
| 39> H -1.8315456126 2.5180165168 3.8826084385
| 40> H -0.6941011376 2.8457819506 2.5612895084
| 41> H -2.3526027549 3.4292847842 2.4526784022
| 42> H -5.5207089234 -0.8203034508 -0.2208778098
| 43> H -4.6901856053 -0.2377834906 -1.6950389736
| 44> H -3.8551480677 -2.7351873806 -0.1404649063
| 45> H -4.8481056549 -2.7492238055 -1.6100140659
| 46> H -3.1828982138 -2.1587559876 -1.6771985851
| 47> *
| 48>
| 49>                          ****END OF INPUT****

CARTESIAN COORDINATES (ANGSTROEM)
---------------------------------
  C      4.193547   -0.141399   -2.347992
  C      4.372221    0.598181   -1.037747
  O      3.689954   -0.049337    0.048795
  P      2.105828   -0.149425    0.131959
  S      1.155410    1.482666   -0.428850
  O      1.885820   -0.591778    1.636022
  C      1.721828    0.355023    2.709618
  C      3.019987    1.058601    3.045765
  S      1.669134   -1.974752   -0.817396
  C     -0.100954   -1.737987   -1.127001
  S     -1.051660   -1.370655    0.379774
  P     -2.197522    0.305028   -0.308855
  S     -1.980995    0.829988   -2.177718
  O     -1.908403    1.460542    0.721136
  C     -2.143087    1.316933    2.146168
  C     -1.727623    2.614692    2.806898
  O     -3.690941   -0.081732    0.101305
  C     -4.576820   -0.807605   -0.767795
  C     -4.081793   -2.208491   -1.064037
  H      4.460697   -1.188630   -2.230589
  H      3.155114   -0.078578   -2.672258
  H      4.824740    0.311236   -3.106071
  H      3.994552    1.622547   -1.121415
  H      5.415872    0.610608   -0.720627
  H      0.956569    1.080605    2.414953
  H      1.360916   -0.252141    3.540987
  H      3.802932    0.328669    3.232555
  H      3.323300    1.694372    2.215066
  H      2.877966    1.673303    3.929198
  H     -0.448589   -2.681566   -1.540799
  H     -0.253202   -0.917283   -1.834483
  H     -3.203253    1.106881    2.299522
  H     -1.551973    0.468420    2.505020
  H     -1.831546    2.518017    3.882608
  H     -0.694101    2.845782    2.561290
  H     -2.352603    3.429285    2.452678
  H     -5.520709   -0.820303   -0.220878
  H     -4.690186   -0.237783   -1.695039
  H     -3.855148   -2.735187   -0.140465
  H     -4.848106   -2.749224   -1.610014
  H     -3.182898   -2.158756   -1.677199

 Total Charge           Charge          ....    0
 Multiplicity           Mult            ....    1
 Number of Electrons    NEL             ....  202
 Basis Dimension        Dim             ....  334

ORBITAL ENERGIES
----------------

  NO   OCC          E(Eh)            E(eV)
   0   2.0000     -88.041164     -2395.7219
   1   2.0000     -88.038897     -2395.6602
   2   2.0000     -87.984257     -2394.1733
   3   2.0000     -87.982212     -2394.1177
   4   2.0000     -76.422988     -2079.5752
   5   2.0000     -76.422409     -2079.5595
   6   2.0000     -18.789474      -511.2876
   7   2.0000     -18.788491      -511.2608
   8   2.0000     -18.786790      -511.2145
   9   2.0000     -18.784801      -511.1604
  10   2.0000      -9.956134      -270.9202
  11   2.0000      -9.952449      -270.8199
  12   2.0000      -9.951292      -270.7884
  13   2.0000      -9.950724      -270.7730
  14   2.0000      -9.950245      -270.7599
  15   2.0000      -9.889148      -269.0974
  16   2.0000      -9.883824      -268.9525
  17   2.0000      -9.883639      -268.9475
  18   2.0000      -9.881611      -268.8923
  19   2.0000      -7.686730      -209.1665
  20   2.0000      -7.683235      -209.0715
  21   2.0000      -7.629454      -207.6080
  22   2.0000      -7.626671      -207.5323
  23   2.0000      -6.420280      -174.7047
  24   2.0000      -6.419822      -174.6922
  25   2.0000      -5.714708      -155.5051
  26   2.0000      -5.711185      -155.4092
  27   2.0000      -5.711097      -155.4069
  28   2.0000      -5.707878      -155.3193
  29   2.0000      -5.703562      -155.2018
  30   2.0000      -5.700181      -155.1098
  31   2.0000      -5.658436      -153.9739
  32   2.0000      -5.655484      -153.8935
  33   2.0000      -5.650076      -153.7464
  34   2.0000      -5.649496      -153.7306
  35   2.0000      -5.647403      -153.6736
  36   2.0000      -5.646935      -153.6609
  37   2.0000      -4.643042      -126.3436
  38   2.0000      -4.642224      -126.3213
  39   2.0000      -4.641818      -126.3103
  40   2.0000      -4.641616      -126.3048
  41   2.0000      -4.640835      -126.2835
  42   2.0000      -4.640407      -126.2719
  43   2.0000      -0.984659       -26.7939
  44   2.0000      -0.983430       -26.7605
  45   2.0000      -0.942670       -25.6514
  46   2.0000      -0.939656       -25.5693
  47   2.0000      -0.759792       -20.6750
  48   2.0000      -0.719483       -19.5781
  49   2.0000      -0.708708       -19.2849
  50   2.0000      -0.687994       -18.7213
  51   2.0000      -0.685571       -18.6553
  52   2.0000      -0.674005       -18.3406
  53   2.0000      -0.649662       -17.6782
  54   2.0000      -0.633530       -17.2392
  55   2.0000      -0.599659       -16.3176
  56   2.0000      -0.588003       -16.0004
  57   2.0000      -0.572190       -15.5701
  58   2.0000      -0.570910       -15.5353
  59   2.0000      -0.559492       -15.2245
  60   2.0000      -0.505129       -13.7453
  61   2.0000      -0.490453       -13.3459
  62   2.0000      -0.471634       -12.8338
  63   2.0000      -0.469631       -12.7793
  64   2.0000      -0.452818       -12.3218
  65   2.0000      -0.446221       -12.1423
  66   2.0000      -0.436939       -11.8897
  67   2.0000      -0.436341       -11.8734
  68   2.0000      -0.429093       -11.6762
  69   2.0000      -0.420215       -11.4346
  70   2.0000      -0.408545       -11.1171
  71   2.0000      -0.393814       -10.7162
  72   2.0000      -0.391037       -10.6407
  73   2.0000      -0.388897       -10.5824
  74   2.0000      -0.379723       -10.3328
  75   2.0000      -0.373708       -10.1691
  76   2.0000      -0.362079        -9.8527
  77   2.0000      -0.357454        -9.7268
  78   2.0000      -0.353096        -9.6082
  79   2.0000      -0.349914        -9.5217
  80   2.0000      -0.347167        -9.4469
  81   2.0000      -0.342169        -9.3109
  82   2.0000      -0.340984        -9.2786
  83   2.0000      -0.335939        -9.1414
  84   2.0000      -0.332877        -9.0580
  85   2.0000      -0.314520        -8.5585
  86   2.0000      -0.311785        -8.4841
  87   2.0000      -0.300178        -8.1683
  88   2.0000      -0.293625        -7.9899
  89   2.0000      -0.293066        -7.9747
  90   2.0000      -0.279827        -7.6145
  91   2.0000      -0.273118        -7.4319
  92   2.0000      -0.265230        -7.2173
  93   2.0000      -0.261303        -7.1104
  94   2.0000      -0.257027        -6.9941
  95   2.0000      -0.230203        -6.2641
  96   2.0000      -0.221104        -6.0165
  97   2.0000      -0.211811        -5.7637
  98   2.0000      -0.199011        -5.4154
  99   2.0000      -0.196117        -5.3366
 100   2.0000      -0.186395        -5.0721
 101   0.0000      -0.041761        -1.1364
 102   0.0000      -0.032962        -0.8969
 103   0.0000      -0.007619        -0.2073
 104   0.0000       0.010520         0.2863
 105   0.0000       0.016578         0.4511

MULLIKEN ATOMIC CHARGES
-----------------------
   0 C :   -0.318520
   1 C :   -0.002550
   2 O :   -0.371655
   3 P :    0.602899
   4 S :   -0.314217
   5 O :   -0.360478
   6 C :   -0.041850
   7 C :   -0.295882
   8 S :   -0.086357
   9 C :   -0.348607
  10 S :   -0.122151
  11 P :    0.621728
  12 S :   -0.289304
  13 O :   -0.357049
  14 C :   -0.025263
  15 C :   -0.294382
  16 O :   -0.389434
  17 C :    0.006085
  18 C :   -0.319288
  19 H :    0.118007
  20 H :    0.131458
  21 H :    0.113178
  22 H :    0.110312
  23 H :    0.104127
  24 H :    0.134871
  25 H :    0.104363
  26 H :    0.118179
  27 H :    0.121332
  28 H :    0.108206
  29 H :    0.181066
  30 H :    0.203490
  31 H :    0.111600
  32 H :    0.111813
  33 H :    0.108192
  34 H :    0.139813
  35 H :    0.121817
  36 H :    0.101867
  37 H :    0.110442
  38 H :    0.119930
  39 H :    0.111951
  40 H :    0.120261
Sum of atomic charges:    0.0000000

LOEWDIN ATOMIC CHARGES
----------------------
   0 C :   -0.370145
   1 C :   -0.119575
   2 O :   -0.245104
   3 P :    0.562133
   4 S :   -0.308493
   5 O :   -0.239678
   6 C :   -0.120700
   7 C :   -0.362211
   8 S :    0.092106
   9 C :   -0.479662
  10 S :    0.061312
  11 P :    0.576435
  12 S :   -0.285989
  13 O :   -0.231772
  14 C :   -0.115845
  15 C :   -0.351220
  16 O :   -0.254531
  17 C :   -0.116052
  18 C :   -0.371301
  19 H :    0.123801
  20 H :    0.123057
  21 H :    0.131122
  22 H :    0.110451
  23 H :    0.118166
  24 H :    0.109726
  25 H :    0.117695
  26 H :    0.127451
  27 H :    0.123856
  28 H :    0.128451
  29 H :    0.133320
  30 H :    0.122784
  31 H :    0.114186
  32 H :    0.105055
  33 H :    0.129121
  34 H :    0.129315
  35 H :    0.131278
  36 H :    0.117302
  37 H :    0.111492
  38 H :    0.123818
  39 H :    0.130099
  40 H :    0.118749

  Mayer bond orders larger than 0.100000
B(  0-C ,  1-C ) :   1.1669 B(  0-C , 19-H ) :   0.9440 B(  0-C , 20-H ) :   0.9351
B(  0-C , 21-H ) :   0.9377 B(  1-C ,  2-O ) :   0.9089 B(  1-C , 22-H ) :   0.9154
B(  1-C , 23-H ) :   0.9339 B(  2-O ,  3-P ) :   1.1023 B(  3-P ,  4-S ) :   1.6143
B(  3-P ,  5-O ) :   1.1189 B(  3-P ,  8-S ) :   0.9591 B(  4-S ,  8-S ) :   0.1137
B(  5-O ,  6-C ) :   0.9118 B(  6-C ,  7-C ) :   1.1627 B(  6-C , 24-H ) :   0.8993
B(  6-C , 25-H ) :   0.9339 B(  7-C , 26-H ) :   0.9458 B(  7-C , 27-H ) :   0.9384
B(  7-C , 28-H ) :   0.9393 B(  8-S ,  9-C ) :   0.9985 B(  9-C , 10-S ) :   1.0039
B(  9-C , 29-H ) :   0.9068 B(  9-C , 30-H ) :   0.8497 B( 10-S , 11-P ) :   0.9366
B( 10-S , 12-S ) :   0.1183 B( 11-P , 12-S ) :   1.6305 B( 11-P , 13-O ) :   1.1347
B( 11-P , 16-O ) :   1.0693 B( 12-S , 30-H ) :   0.1089 B( 13-O , 14-C ) :   0.8996
B( 14-C , 15-C ) :   1.1631 B( 14-C , 31-H ) :   0.9234 B( 14-C , 32-H ) :   0.9133
B( 15-C , 33-H ) :   0.9407 B( 15-C , 34-H ) :   0.9407 B( 15-C , 35-H ) :   0.9470
B( 16-O , 17-C ) :   0.9178 B( 17-C , 18-C ) :   1.1645 B( 17-C , 36-H ) :   0.9347
B( 17-C , 37-H ) :   0.9189 B( 18-C , 38-H ) :   0.9412 B( 18-C , 39-H ) :   0.9368
B( 18-C , 40-H ) :   0.9364

Dispersion correction           -0.066972990
FINAL SINGLE POINT ENERGY     -2929.517606421959

DIPOLE MOMENT
-------------

Method             : SCF
Type of density    : Electron Density
Multiplicity       :   1
Irrep              :   0
Energy             : -2929.6352951954918353 Eh
Relativity type    :
Basis              : AO
                                X                 Y                 Z
Electronic contribution:     -1.780974805      -4.012051645      -9.009496122
Nuclear contribution   :      1.720348256       3.532768766      10.100379426
                        -----------------------------------------
Total Dipole Moment    :     -0.060626548      -0.479282879       1.090883305
                        -----------------------------------------
Magnitude (a.u.)       :      1.193069168
Magnitude (Debye)      :      3.032540826

Rotational constants in cm-1:             0.011711             0.005647             0.004808
Rotational constants in MHz :           351.078793           169.290072           144.136975

                             ****ORCA TERMINATED NORMALLY****
TOTAL RUN TIME: 0 days 0 hours 0 minutes 21 seconds 541 msec
