                         Program Version 6.0.0  -   RELEASE  -
|  1> ! pbe def2-sv(p) def2/J RI DEFGRID1 loosescf d4 GCP(DFT/SV(P)) printgap
|  2> %output
|  3>     printlevel normal
|  4> end
|  5> * xyz 0 1
|  6> C 4.5465926158 -0.268623191 -2.0546879381
|  7> C 4.0963106358 -1.1654863939 -0.9216487937
|  8> O 3.5959931569 -0.4267025282 0.2111772225
|  9> P 2.4519431024 0.6721873677 0.1483594112
| 10> S 2.8883415065 2.4686659856 -0.4878235591
| 11> O 1.9830949165 0.7610713092 1.6500094994
| 12> C 1.6750047574 -0.3931818923 2.467025532
| 13> C 2.8491225553 -0.7389816777 3.3582638352
| 14> S 0.9022784339 -0.3127208936 -0.9272478037
| 15> C -0.0733105432 1.2014851578 -1.2163210021
| 16> S -1.7470635612 0.8123119257 -1.7571474443
| 17> P -2.3634059841 -0.07531649 0.0662208626
| 18> S -1.6642798233 0.6709506213 1.7301911588
| 19> O -2.0386199676 -1.6266111616 -0.0341165874
| 20> C -2.5022308142 -2.4369930336 -1.1437011789
| 21> C -1.335793754 -2.8525244751 -2.0166069506
| 22> O -3.9300036554 0.0966622304 -0.1809944814
| 23> C -4.8737603747 0.0947057795 0.9083080627
| 24> C -5.0337407262 -1.2879502619 1.5082999073
| 25> H 5.2794738133 0.4524252778 -1.7005246953
| 26> H 4.9866245029 -0.874069802 -2.8404693314
| 27> H 3.6973078359 0.2790566774 -2.4607778828
| 28> H 4.9301821916 -1.7348168285 -0.5073958281
| 29> H 3.308922187 -1.8461419998 -1.2567900615
| 30> H 0.8003165373 -0.0930388444 3.0484381899
| 31> H 1.4047072716 -1.2293552416 1.8154519034
| 32> H 3.7099549613 -1.0167720229 2.7556659927
| 33> H 3.1123515475 0.1191352662 3.9705424999
| 34> H 2.5739319202 -1.568589399 4.0017202797
| 35> H 0.3974907502 1.7876328518 -2.003177622
| 36> H -0.1144889385 1.7686938862 -0.283733404
| 37> H -2.9764054676 -3.3038944441 -0.6801922285
| 38> H -3.2430103762 -1.8701693773 -1.7149941768
| 39> H -0.8755682576 -1.9836236905 -2.4811683991
| 40> H -0.5853221307 -3.3601950793 -1.4180409866
| 41> H -1.6949080283 -3.5225299154 -2.791091881
| 42> H -4.5327517274 0.8070281339 1.6662067724
| 43> H -5.7996753558 0.4520229236 0.4556355788
| 44> H -5.3440212318 -1.9979506914 0.7460842883
| 45> H -4.0865945811 -1.615082647 1.9369686401
| 46> H -5.7826885991 -1.2539363379 2.2933536003
| 47> *
| 48>
| 49>                          ****END OF INPUT****

CARTESIAN COORDINATES (ANGSTROEM)
---------------------------------
  C      4.546593   -0.268623   -2.054688
  C      4.096311   -1.165486   -0.921649
  O      3.595993   -0.426703    0.211177
  P      2.451943    0.672187    0.148359
  S      2.888342    2.468666   -0.487824
  O      1.983095    0.761071    1.650009
  C      1.675005   -0.393182    2.467026
  C      2.849123   -0.738982    3.358264
  S      0.902278   -0.312721   -0.927248
  C     -0.073311    1.201485   -1.216321
  S     -1.747064    0.812312   -1.757147
  P     -2.363406   -0.075316    0.066221
  S     -1.664280    0.670951    1.730191
  O     -2.038620   -1.626611   -0.034117
  C     -2.502231   -2.436993   -1.143701
  C     -1.335794   -2.852524   -2.016607
  O     -3.930004    0.096662   -0.180994
  C     -4.873760    0.094706    0.908308
  C     -5.033741   -1.287950    1.508300
  H      5.279474    0.452425   -1.700525
  H      4.986625   -0.874070   -2.840469
  H      3.697308    0.279057   -2.460778
  H      4.930182   -1.734817   -0.507396
  H      3.308922   -1.846142   -1.256790
  H      0.800317   -0.093039    3.048438
  H      1.404707   -1.229355    1.815452
  H      3.709955   -1.016772    2.755666
  H      3.112352    0.119135    3.970542
  H      2.573932   -1.568589    4.001720
  H      0.397491    1.787633   -2.003178
  H     -0.114489    1.768694   -0.283733
  H     -2.976405   -3.303894   -0.680192
  H     -3.243010   -1.870169   -1.714994
  H     -0.875568   -1.983624   -2.481168
  H     -0.585322   -3.360195   -1.418041
  H     -1.694908   -3.522530   -2.791092
  H     -4.532752    0.807028    1.666207
  H     -5.799675    0.452023    0.455636
  H     -5.344021   -1.997951    0.746084
  H     -4.086595   -1.615083    1.936969
  H     -5.782689   -1.253936    2.293354

 Total Charge           Charge          ....    0
 Multiplicity           Mult            ....    1
 Number of Electrons    NEL             ....  202
 Basis Dimension        Dim             ....  334

ORBITAL ENERGIES
----------------

  NO   OCC          E(Eh)            E(eV)
   0   2.0000     -88.049728     -2395.9549
   1   2.0000     -88.040510     -2395.7041
   2   2.0000     -87.991118     -2394.3600
   3   2.0000     -87.976605     -2393.9651
   4   2.0000     -76.429103     -2079.7416
   5   2.0000     -76.421876     -2079.5450
   6   2.0000     -18.797083      -511.4946
   7   2.0000     -18.795292      -511.4459
   8   2.0000     -18.794431      -511.4225
   9   2.0000     -18.782779      -511.1054
  10   2.0000      -9.961484      -271.0658
  11   2.0000      -9.959893      -271.0225
  12   2.0000      -9.957934      -270.9692
  13   2.0000      -9.953238      -270.8414
  14   2.0000      -9.942787      -270.5570
  15   2.0000      -9.891786      -269.1692
  16   2.0000      -9.889315      -269.1019
  17   2.0000      -9.883377      -268.9404
  18   2.0000      -9.878198      -268.7994
  19   2.0000      -7.694899      -209.3888
  20   2.0000      -7.684916      -209.1172
  21   2.0000      -7.636095      -207.7887
  22   2.0000      -7.622021      -207.4057
  23   2.0000      -6.427199      -174.8930
  24   2.0000      -6.419068      -174.6717
  25   2.0000      -5.722630      -155.7207
  26   2.0000      -5.719652      -155.6396
  27   2.0000      -5.712608      -155.4480
  28   2.0000      -5.711763      -155.4250
  29   2.0000      -5.709547      -155.3647
  30   2.0000      -5.702077      -155.1614
  31   2.0000      -5.665125      -154.1559
  32   2.0000      -5.656897      -153.9320
  33   2.0000      -5.655909      -153.9051
  34   2.0000      -5.651180      -153.7764
  35   2.0000      -5.642513      -153.5406
  36   2.0000      -5.642023      -153.5273
  37   2.0000      -4.650116      -126.5361
  38   2.0000      -4.648656      -126.4964
  39   2.0000      -4.647614      -126.4680
  40   2.0000      -4.641961      -126.3142
  41   2.0000      -4.641156      -126.2923
  42   2.0000      -4.638983      -126.2331
  43   2.0000      -0.989889       -26.9362
  44   2.0000      -0.985319       -26.8119
  45   2.0000      -0.948959       -25.8225
  46   2.0000      -0.940710       -25.5980
  47   2.0000      -0.765659       -20.8346
  48   2.0000      -0.723033       -19.6747
  49   2.0000      -0.710209       -19.3258
  50   2.0000      -0.697197       -18.9717
  51   2.0000      -0.688806       -18.7434
  52   2.0000      -0.675273       -18.3751
  53   2.0000      -0.652031       -17.7427
  54   2.0000      -0.636095       -17.3090
  55   2.0000      -0.598641       -16.2898
  56   2.0000      -0.587971       -15.9995
  57   2.0000      -0.580114       -15.7857
  58   2.0000      -0.567427       -15.4405
  59   2.0000      -0.561004       -15.2657
  60   2.0000      -0.506644       -13.7865
  61   2.0000      -0.498453       -13.5636
  62   2.0000      -0.483272       -13.1505
  63   2.0000      -0.470170       -12.7940
  64   2.0000      -0.456048       -12.4097
  65   2.0000      -0.452512       -12.3135
  66   2.0000      -0.441818       -12.0225
  67   2.0000      -0.431035       -11.7291
  68   2.0000      -0.429951       -11.6996
  69   2.0000      -0.420665       -11.4469
  70   2.0000      -0.409672       -11.1477
  71   2.0000      -0.407065       -11.0768
  72   2.0000      -0.395854       -10.7717
  73   2.0000      -0.384153       -10.4533
  74   2.0000      -0.377309       -10.2671
  75   2.0000      -0.375499       -10.2178
  76   2.0000      -0.363012        -9.8781
  77   2.0000      -0.355457        -9.6725
  78   2.0000      -0.354126        -9.6363
  79   2.0000      -0.351343        -9.5605
  80   2.0000      -0.348608        -9.4861
  81   2.0000      -0.346481        -9.4282
  82   2.0000      -0.345357        -9.3976
  83   2.0000      -0.338608        -9.2140
  84   2.0000      -0.335936        -9.1413
  85   2.0000      -0.323878        -8.8132
  86   2.0000      -0.315142        -8.5754
  87   2.0000      -0.312488        -8.5032
  88   2.0000      -0.295651        -8.0451
  89   2.0000      -0.286565        -7.7978
  90   2.0000      -0.280695        -7.6381
  91   2.0000      -0.277751        -7.5580
  92   2.0000      -0.274867        -7.4795
  93   2.0000      -0.271541        -7.3890
  94   2.0000      -0.256550        -6.9811
  95   2.0000      -0.230969        -6.2850
  96   2.0000      -0.223975        -6.0947
  97   2.0000      -0.211052        -5.7430
  98   2.0000      -0.205433        -5.5901
  99   2.0000      -0.195565        -5.3216
 100   2.0000      -0.191648        -5.2150
 101   0.0000      -0.045526        -1.2388
 102   0.0000      -0.033026        -0.8987
 103   0.0000      -0.005548        -0.1510
 104   0.0000       0.007864         0.2140
 105   0.0000       0.009264         0.2521

MULLIKEN ATOMIC CHARGES
-----------------------
   0 C :   -0.308649
   1 C :   -0.010325
   2 O :   -0.380604
   3 P :    0.598820
   4 S :   -0.316695
   5 O :   -0.347341
   6 C :   -0.012479
   7 C :   -0.282941
   8 S :   -0.131768
   9 C :   -0.342383
  10 S :   -0.087293
  11 P :    0.617681
  12 S :   -0.306002
  13 O :   -0.361807
  14 C :   -0.030908
  15 C :   -0.281570
  16 O :   -0.389043
  17 C :   -0.006230
  18 C :   -0.318815
  19 H :    0.128203
  20 H :    0.110457
  21 H :    0.125970
  22 H :    0.109340
  23 H :    0.111422
  24 H :    0.121280
  25 H :    0.093793
  26 H :    0.114842
  27 H :    0.118555
  28 H :    0.106208
  29 H :    0.189730
  30 H :    0.209339
  31 H :    0.110430
  32 H :    0.107802
  33 H :    0.126475
  34 H :    0.116721
  35 H :    0.109405
  36 H :    0.117243
  37 H :    0.108532
  38 H :    0.114006
  39 H :    0.131885
  40 H :    0.116716
Sum of atomic charges:    0.0000000

LOEWDIN ATOMIC CHARGES
----------------------
   0 C :   -0.369367
   1 C :   -0.114376
   2 O :   -0.244466
   3 P :    0.569492
   4 S :   -0.312287
   5 O :   -0.228729
   6 C :   -0.117571
   7 C :   -0.359316
   8 S :    0.054148
   9 C :   -0.477724
  10 S :    0.094723
  11 P :    0.570860
  12 S :   -0.290070
  13 O :   -0.243345
  14 C :   -0.118467
  15 C :   -0.361550
  16 O :   -0.256447
  17 C :   -0.116139
  18 C :   -0.365789
  19 H :    0.131431
  20 H :    0.129770
  21 H :    0.121405
  22 H :    0.121076
  23 H :    0.107478
  24 H :    0.117084
  25 H :    0.102389
  26 H :    0.123267
  27 H :    0.128267
  28 H :    0.127715
  29 H :    0.134636
  30 H :    0.127100
  31 H :    0.119265
  32 H :    0.107703
  33 H :    0.115425
  34 H :    0.126758
  35 H :    0.129541
  36 H :    0.113155
  37 H :    0.120205
  38 H :    0.123165
  39 H :    0.126598
  40 H :    0.132986

  Mayer bond orders larger than 0.100000
B(  0-C ,  1-C ) :   1.1675 B(  0-C , 19-H ) :   0.9427 B(  0-C , 20-H ) :   0.9346
B(  0-C , 21-H ) :   0.9313 B(  1-C ,  2-O ) :   0.9117 B(  1-C , 22-H ) :   0.9331
B(  1-C , 23-H ) :   0.9264 B(  2-O ,  3-P ) :   1.0793 B(  3-P ,  4-S ) :   1.6384
B(  3-P ,  5-O ) :   1.1474 B(  3-P ,  8-S ) :   0.9454 B(  4-S ,  8-S ) :   0.1116
B(  5-O ,  6-C ) :   0.8886 B(  6-C ,  7-C ) :   1.1593 B(  6-C , 24-H ) :   0.9256
B(  6-C , 25-H ) :   0.9172 B(  7-C , 26-H ) :   0.9430 B(  7-C , 27-H ) :   0.9470
B(  7-C , 28-H ) :   0.9415 B(  8-S ,  9-C ) :   0.9734 B(  9-C , 10-S ) :   1.0128
B(  9-C , 29-H ) :   0.8972 B(  9-C , 30-H ) :   0.8664 B( 10-S , 11-P ) :   0.9420
B( 10-S , 12-S ) :   0.1041 B( 11-P , 12-S ) :   1.6392 B( 11-P , 13-O ) :   1.1075
B( 11-P , 16-O ) :   1.0875 B( 13-O , 14-C ) :   0.8986 B( 14-C , 15-C ) :   1.1691
B( 14-C , 31-H ) :   0.9315 B( 14-C , 32-H ) :   0.9140 B( 15-C , 33-H ) :   0.9291
B( 15-C , 34-H ) :   0.9455 B( 15-C , 35-H ) :   0.9383 B( 16-O , 17-C ) :   0.9070
B( 17-C , 18-C ) :   1.1611 B( 17-C , 36-H ) :   0.9154 B( 17-C , 37-H ) :   0.9348
B( 18-C , 38-H ) :   0.9459 B( 18-C , 39-H ) :   0.9360 B( 18-C , 40-H ) :   0.9388

Dispersion correction           -0.064810219
FINAL SINGLE POINT ENERGY     -2929.516770268076

DIPOLE MOMENT
-------------

Method             : SCF
Type of density    : Electron Density
Multiplicity       :   1
Irrep              :   0
Energy             : -2929.6373196489175825 Eh
Relativity type    :
Basis              : AO
                                X                 Y                 Z
Electronic contribution:     -0.041386369      18.700398227      -2.667685733
Nuclear contribution   :     -0.878452408     -20.924783409       2.268336298
                        -----------------------------------------
Total Dipole Moment    :     -0.919838777      -2.224385182      -0.399349435
                        -----------------------------------------
Magnitude (a.u.)       :      2.439973931
Magnitude (Debye)      :      6.201920858

Rotational constants in cm-1:             0.012709             0.004706             0.004420
Rotational constants in MHz :           380.992573           141.073927           132.521049

                             ****ORCA TERMINATED NORMALLY****
TOTAL RUN TIME: 0 days 0 hours 0 minutes 20 seconds 976 msec
