                         Program Version 6.0.0  -   RELEASE  -
|  1> ! pbe def2-sv(p) def2/J RI DEFGRID1 loosescf d4 GCP(DFT/SV(P)) printgap
|  2> %output
|  3>     printlevel normal
|  4> end
|  5> * xyz 0 1
|  6> C 2.3519176364 2.695507183 -0.248040126
|  7> C 3.1803595465 2.0585026912 0.8481369611
|  8> O 3.3189688451 0.6403507302 0.6552187574
|  9> P 2.0805702008 -0.3518996446 0.7204499886
| 10> S 0.7794685747 0.0245031503 2.1432013182
| 11> O 2.7748131851 -1.7751528131 0.821663631
| 12> C 3.1134754552 -2.3780885004 2.0874083259
| 13> C 4.2392347046 -1.6408053732 2.7813658268
| 14> S 1.4189330577 -0.4880001789 -1.2741141228
| 15> C 0.1273852865 -1.7432892898 -0.9809725955
| 16> S -1.3780464288 -1.4616465329 -1.953558969
| 17> P -2.3183158742 0.0319744759 -0.7916098624
| 18> S -4.1224033716 0.5460677846 -1.3479639611
| 19> O -1.2818699089 1.2433933768 -0.6881132851
| 20> C -1.3509047522 2.3504202644 -1.603341657
| 21> C -0.8553788045 1.9724704769 -2.9847135828
| 22> O -2.1872079388 -0.6492480787 0.6350012531
| 23> C -3.0643012469 -0.2979461297 1.7249057192
| 24> C -2.8406279095 1.1213640493 2.1997592582
| 25> H 1.3310116255 2.3178994268 -0.1962770387
| 26> H 2.3401932024 3.772701752 -0.1157420839
| 27> H 2.7657177697 2.4534849592 -1.2239359223
| 28> H 2.7209731465 2.2321747882 1.8268723707
| 29> H 4.2074055705 2.4258710727 0.8483422334
| 30> H 2.2168731396 -2.3921510614 2.7161130135
| 31> H 3.3983478591 -3.3972154366 1.8230669089
| 32> H 3.9054190921 -0.6471278506 3.0771111417
| 33> H 4.536828514 -2.191071146 3.668539521
| 34> H 5.0903518866 -1.5411988569 2.1130402343
| 35> H -0.1291776509 -1.7436663223 0.0779331858
| 36> H 0.5032027169 -2.7111198742 -1.3025643086
| 37> H -2.3899987485 2.693321611 -1.649665625
| 38> H -0.7285663248 3.1201111696 -1.1450090621
| 39> H 0.1455686568 1.5509449005 -2.9291348246
| 40> H -1.5227907554 1.2328671389 -3.4267666376
| 41> H -0.8420059418 2.8561003791 -3.6142603619
| 42> H -4.0973051243 -0.4379661254 1.3911930305
| 43> H -2.8173490989 -1.0246356921 2.5000827604
| 44> H -3.4533210059 1.3075711663 3.0759489764
| 45> H -1.7930217418 1.2674552822 2.4532081162
| 46> H -3.1192647667 1.8227039971 1.4143231798
| 47> *
| 48>
| 49>                          ****END OF INPUT****

CARTESIAN COORDINATES (ANGSTROEM)
---------------------------------
  C      2.351918    2.695507   -0.248040
  C      3.180360    2.058503    0.848137
  O      3.318969    0.640351    0.655219
  P      2.080570   -0.351900    0.720450
  S      0.779469    0.024503    2.143201
  O      2.774813   -1.775153    0.821664
  C      3.113475   -2.378089    2.087408
  C      4.239235   -1.640805    2.781366
  S      1.418933   -0.488000   -1.274114
  C      0.127385   -1.743289   -0.980973
  S     -1.378046   -1.461647   -1.953559
  P     -2.318316    0.031974   -0.791610
  S     -4.122403    0.546068   -1.347964
  O     -1.281870    1.243393   -0.688113
  C     -1.350905    2.350420   -1.603342
  C     -0.855379    1.972470   -2.984714
  O     -2.187208   -0.649248    0.635001
  C     -3.064301   -0.297946    1.724906
  C     -2.840628    1.121364    2.199759
  H      1.331012    2.317899   -0.196277
  H      2.340193    3.772702   -0.115742
  H      2.765718    2.453485   -1.223936
  H      2.720973    2.232175    1.826872
  H      4.207406    2.425871    0.848342
  H      2.216873   -2.392151    2.716113
  H      3.398348   -3.397215    1.823067
  H      3.905419   -0.647128    3.077111
  H      4.536829   -2.191071    3.668540
  H      5.090352   -1.541199    2.113040
  H     -0.129178   -1.743666    0.077933
  H      0.503203   -2.711120   -1.302564
  H     -2.389999    2.693322   -1.649666
  H     -0.728566    3.120111   -1.145009
  H      0.145569    1.550945   -2.929135
  H     -1.522791    1.232867   -3.426767
  H     -0.842006    2.856100   -3.614260
  H     -4.097305   -0.437966    1.391193
  H     -2.817349   -1.024636    2.500083
  H     -3.453321    1.307571    3.075949
  H     -1.793022    1.267455    2.453208
  H     -3.119265    1.822704    1.414323

 Total Charge           Charge          ....    0
 Multiplicity           Mult            ....    1
 Number of Electrons    NEL             ....  202
 Basis Dimension        Dim             ....  334

ORBITAL ENERGIES
----------------

  NO   OCC          E(Eh)            E(eV)
   0   2.0000     -88.043444     -2395.7839
   1   2.0000     -88.043403     -2395.7828
   2   2.0000     -87.992897     -2394.4085
   3   2.0000     -87.986691     -2394.2396
   4   2.0000     -76.430945     -2079.7917
   5   2.0000     -76.423629     -2079.5927
   6   2.0000     -18.800856      -511.5973
   7   2.0000     -18.794246      -511.4174
   8   2.0000     -18.787585      -511.2362
   9   2.0000     -18.786749      -511.2134
  10   2.0000      -9.959909      -271.0229
  11   2.0000      -9.958064      -270.9727
  12   2.0000      -9.954767      -270.8830
  13   2.0000      -9.946998      -270.6716
  14   2.0000      -9.946452      -270.6567
  15   2.0000      -9.891814      -269.1699
  16   2.0000      -9.887727      -269.0587
  17   2.0000      -9.878310      -268.8025
  18   2.0000      -9.874850      -268.7083
  19   2.0000      -7.688828      -209.2237
  20   2.0000      -7.688742      -209.2213
  21   2.0000      -7.637625      -207.8303
  22   2.0000      -7.631850      -207.6732
  23   2.0000      -6.428509      -174.9286
  24   2.0000      -6.421495      -174.7378
  25   2.0000      -5.717119      -155.5707
  26   2.0000      -5.716752      -155.5607
  27   2.0000      -5.713438      -155.4705
  28   2.0000      -5.713100      -155.4613
  29   2.0000      -5.705578      -155.2567
  30   2.0000      -5.705332      -155.2500
  31   2.0000      -5.666299      -154.1878
  32   2.0000      -5.660806      -154.0384
  33   2.0000      -5.658307      -153.9704
  34   2.0000      -5.657989      -153.9617
  35   2.0000      -5.652521      -153.8129
  36   2.0000      -5.651926      -153.7967
  37   2.0000      -4.651113      -126.5632
  38   2.0000      -4.650238      -126.5394
  39   2.0000      -4.648967      -126.5048
  40   2.0000      -4.643768      -126.3634
  41   2.0000      -4.643423      -126.3540
  42   2.0000      -4.642064      -126.3170
  43   2.0000      -0.992391       -27.0043
  44   2.0000      -0.981593       -26.7105
  45   2.0000      -0.952248       -25.9120
  46   2.0000      -0.941585       -25.6218
  47   2.0000      -0.763648       -20.7799
  48   2.0000      -0.724136       -19.7047
  49   2.0000      -0.706668       -19.2294
  50   2.0000      -0.693028       -18.8583
  51   2.0000      -0.681518       -18.5450
  52   2.0000      -0.674744       -18.3607
  53   2.0000      -0.656264       -17.8579
  54   2.0000      -0.640474       -17.4282
  55   2.0000      -0.605421       -16.4744
  56   2.0000      -0.593448       -16.1485
  57   2.0000      -0.578622       -15.7451
  58   2.0000      -0.566609       -15.4182
  59   2.0000      -0.560624       -15.2553
  60   2.0000      -0.498849       -13.5744
  61   2.0000      -0.488855       -13.3024
  62   2.0000      -0.478904       -13.0316
  63   2.0000      -0.468588       -12.7509
  64   2.0000      -0.456906       -12.4330
  65   2.0000      -0.449226       -12.2241
  66   2.0000      -0.445532       -12.1235
  67   2.0000      -0.436317       -11.8728
  68   2.0000      -0.427421       -11.6307
  69   2.0000      -0.419687       -11.4203
  70   2.0000      -0.408320       -11.1110
  71   2.0000      -0.398796       -10.8518
  72   2.0000      -0.395983       -10.7753
  73   2.0000      -0.390100       -10.6152
  74   2.0000      -0.388113       -10.5611
  75   2.0000      -0.382768       -10.4157
  76   2.0000      -0.365578        -9.9479
  77   2.0000      -0.360438        -9.8080
  78   2.0000      -0.354390        -9.6434
  79   2.0000      -0.349543        -9.5116
  80   2.0000      -0.348091        -9.4720
  81   2.0000      -0.343686        -9.3522
  82   2.0000      -0.341708        -9.2984
  83   2.0000      -0.335575        -9.1315
  84   2.0000      -0.325722        -8.8633
  85   2.0000      -0.318839        -8.6760
  86   2.0000      -0.316755        -8.6193
  87   2.0000      -0.300477        -8.1764
  88   2.0000      -0.292767        -7.9666
  89   2.0000      -0.287286        -7.8174
  90   2.0000      -0.283179        -7.7057
  91   2.0000      -0.277820        -7.5599
  92   2.0000      -0.270322        -7.3558
  93   2.0000      -0.268569        -7.3081
  94   2.0000      -0.263039        -7.1577
  95   2.0000      -0.228973        -6.2307
  96   2.0000      -0.220225        -5.9926
  97   2.0000      -0.213285        -5.8038
  98   2.0000      -0.208821        -5.6823
  99   2.0000      -0.202755        -5.5172
 100   2.0000      -0.201946        -5.4952
 101   0.0000      -0.041393        -1.1264
 102   0.0000      -0.028303        -0.7702
 103   0.0000      -0.022079        -0.6008
 104   0.0000       0.000522         0.0142
 105   0.0000       0.020403         0.5552

MULLIKEN ATOMIC CHARGES
-----------------------
   0 C :   -0.367279
   1 C :    0.003871
   2 O :   -0.369938
   3 P :    0.595024
   4 S :   -0.322366
   5 O :   -0.370095
   6 C :   -0.004703
   7 C :   -0.307219
   8 S :   -0.071630
   9 C :   -0.359569
  10 S :   -0.076400
  11 P :    0.622426
  12 S :   -0.321121
  13 O :   -0.370135
  14 C :   -0.015240
  15 C :   -0.316436
  16 O :   -0.375952
  17 C :    0.004251
  18 C :   -0.319527
  19 H :    0.163564
  20 H :    0.117303
  21 H :    0.123824
  22 H :    0.110847
  23 H :    0.108631
  24 H :    0.109346
  25 H :    0.105854
  26 H :    0.121213
  27 H :    0.113173
  28 H :    0.119027
  29 H :    0.206057
  30 H :    0.188653
  31 H :    0.114001
  32 H :    0.107438
  33 H :    0.127564
  34 H :    0.122056
  35 H :    0.108543
  36 H :    0.111158
  37 H :    0.103921
  38 H :    0.107479
  39 H :    0.134411
  40 H :    0.117975
Sum of atomic charges:    0.0000000

LOEWDIN ATOMIC CHARGES
----------------------
   0 C :   -0.375658
   1 C :   -0.116951
   2 O :   -0.240456
   3 P :    0.572656
   4 S :   -0.311596
   5 O :   -0.245677
   6 C :   -0.119017
   7 C :   -0.364334
   8 S :    0.094155
   9 C :   -0.474995
  10 S :    0.093790
  11 P :    0.575171
  12 S :   -0.316228
  13 O :   -0.241616
  14 C :   -0.124149
  15 C :   -0.370306
  16 O :   -0.239861
  17 C :   -0.113652
  18 C :   -0.369351
  19 H :    0.126864
  20 H :    0.132836
  21 H :    0.126004
  22 H :    0.111598
  23 H :    0.120363
  24 H :    0.109552
  25 H :    0.119136
  26 H :    0.122423
  27 H :    0.130883
  28 H :    0.127531
  29 H :    0.129426
  30 H :    0.138587
  31 H :    0.107646
  32 H :    0.114254
  33 H :    0.118626
  34 H :    0.120865
  35 H :    0.128956
  36 H :    0.110589
  37 H :    0.119260
  38 H :    0.128703
  39 H :    0.123617
  40 H :    0.120355

  Mayer bond orders larger than 0.100000
B(  0-C ,  1-C ) :   1.1639 B(  0-C , 19-H ) :   0.9172 B(  0-C , 20-H ) :   0.9366
B(  0-C , 21-H ) :   0.9422 B(  1-C ,  2-O ) :   0.9051 B(  1-C , 22-H ) :   0.9169
B(  1-C , 23-H ) :   0.9327 B(  2-O ,  3-P ) :   1.1093 B(  3-P ,  4-S ) :   1.5929
B(  3-P ,  5-O ) :   1.1088 B(  3-P ,  8-S ) :   0.9785 B(  4-S ,  8-S ) :   0.1135
B(  5-O ,  6-C ) :   0.9087 B(  6-C ,  7-C ) :   1.1660 B(  6-C , 24-H ) :   0.9150
B(  6-C , 25-H ) :   0.9343 B(  7-C , 26-H ) :   0.9379 B(  7-C , 27-H ) :   0.9387
B(  7-C , 28-H ) :   0.9460 B(  8-S ,  9-C ) :   0.9721 B(  9-C , 10-S ) :   1.0028
B(  9-C , 29-H ) :   0.8610 B(  9-C , 30-H ) :   0.9096 B( 10-S , 11-P ) :   0.9638
B( 11-P , 12-S ) :   1.6345 B( 11-P , 13-O ) :   1.0871 B( 11-P , 16-O ) :   1.1104
B( 13-O , 14-C ) :   0.9026 B( 14-C , 15-C ) :   1.1688 B( 14-C , 31-H ) :   0.9118
B( 14-C , 32-H ) :   0.9236 B( 15-C , 33-H ) :   0.9384 B( 15-C , 34-H ) :   0.9359
B( 15-C , 35-H ) :   0.9384 B( 16-O , 17-C ) :   0.8989 B( 17-C , 18-C ) :   1.1657
B( 17-C , 36-H ) :   0.9202 B( 17-C , 37-H ) :   0.9333 B( 18-C , 38-H ) :   0.9375
B( 18-C , 39-H ) :   0.9361 B( 18-C , 40-H ) :   0.9349

Dispersion correction           -0.066962425
FINAL SINGLE POINT ENERGY     -2929.520364864024

DIPOLE MOMENT
-------------

Method             : SCF
Type of density    : Electron Density
Multiplicity       :   1
Irrep              :   0
Energy             : -2929.6406717131990263 Eh
Relativity type    :
Basis              : AO
                                X                 Y                 Z
Electronic contribution:    -10.291519250     -12.171760750     -10.099142690
Nuclear contribution   :     11.857400613      12.483093703      10.833744614
                        -----------------------------------------
Total Dipole Moment    :      1.565881363       0.311332953       0.734601924
                        -----------------------------------------
Magnitude (a.u.)       :      1.757427847
Magnitude (Debye)      :      4.467026586

Rotational constants in cm-1:             0.012350             0.005244             0.004992
Rotational constants in MHz :           370.244707           157.209335           149.656935

                             ****ORCA TERMINATED NORMALLY****
TOTAL RUN TIME: 0 days 0 hours 0 minutes 22 seconds 228 msec
