                         Program Version 6.0.0  -   RELEASE  -
|  1> ! pbe def2-sv(p) def2/J RI DEFGRID1 loosescf d4 GCP(DFT/SV(P)) printgap
|  2> %output
|  3>     printlevel normal
|  4> end
|  5> * xyz 0 1
|  6> C -1.4404352083 0.6344186193 -1.3698974
|  7> C -1.0102557416 0.131266833 0.0164477049
|  8> C -1.8487775933 -1.0890860914 0.4089189191
|  9> C -1.1607544855 1.2432193183 1.0522947107
| 10> C 0.4372214925 -0.3145343444 -0.128984892
| 11> O 0.7812466362 -1.3198845222 -0.7181130026
| 12> O 1.303410887 0.5208026451 0.4266664075
| 13> C 2.692211313 0.2033166837 0.3109691528
| 14> H -0.8523015891 1.5017757924 -1.660962078
| 15> H -1.2997973663 -0.1478510009 -2.1124020106
| 16> H -2.4897286331 0.9146679236 -1.3470385791
| 17> H -1.5891336861 -1.4234479364 1.4106624992
| 18> H -1.6638276909 -1.9059081008 -0.2846668556
| 19> H -2.9047322664 -0.8360544086 0.3861868289
| 20> H -0.8092500575 0.910741859 2.0255331698
| 21> H -0.5889072873 2.1201766902 0.7626927729
| 22> H -2.2085010133 1.5189261253 1.1348624755
| 23> H 3.0003591524 0.2567248096 -0.7338972094
| 24> H 2.8770176855 -0.805273083 0.6829128164
| 25> H 3.2126521341 0.9441608291 0.9096503287
| 26> *
| 27>
| 28>                          ****END OF INPUT****

CARTESIAN COORDINATES (ANGSTROEM)
---------------------------------
  C     -1.440435    0.634419   -1.369897
  C     -1.010256    0.131267    0.016448
  C     -1.848778   -1.089086    0.408919
  C     -1.160754    1.243219    1.052295
  C      0.437221   -0.314534   -0.128985
  O      0.781247   -1.319885   -0.718113
  O      1.303411    0.520803    0.426666
  C      2.692211    0.203317    0.310969
  H     -0.852302    1.501776   -1.660962
  H     -1.299797   -0.147851   -2.112402
  H     -2.489729    0.914668   -1.347039
  H     -1.589134   -1.423448    1.410662
  H     -1.663828   -1.905908   -0.284667
  H     -2.904732   -0.836054    0.386187
  H     -0.809250    0.910742    2.025533
  H     -0.588907    2.120177    0.762693
  H     -2.208501    1.518926    1.134862
  H      3.000359    0.256725   -0.733897
  H      2.877018   -0.805273    0.682913
  H      3.212652    0.944161    0.909650

 Total Charge           Charge          ....    0
 Multiplicity           Mult            ....    1
 Number of Electrons    NEL             ....   64
 Basis Dimension        Dim             ....  136

ORBITAL ENERGIES
----------------

  NO   OCC          E(Eh)            E(eV)
   0   2.0000     -18.802694      -511.6473
   1   2.0000     -18.731710      -509.7157
   2   2.0000     -10.002285      -272.1760
   3   2.0000      -9.943469      -270.5756
   4   2.0000      -9.916025      -269.8288
   5   2.0000      -9.881659      -268.8936
   6   2.0000      -9.876251      -268.7465
   7   2.0000      -9.876221      -268.7456
   8   2.0000      -1.008471       -27.4419
   9   2.0000      -0.908563       -24.7232
  10   2.0000      -0.746764       -20.3205
  11   2.0000      -0.665405       -18.1066
  12   2.0000      -0.618489       -16.8300
  13   2.0000      -0.613677       -16.6990
  14   2.0000      -0.545630       -14.8474
  15   2.0000      -0.495871       -13.4933
  16   2.0000      -0.441759       -12.0209
  17   2.0000      -0.437939       -11.9169
  18   2.0000      -0.412712       -11.2305
  19   2.0000      -0.393738       -10.7142
  20   2.0000      -0.390381       -10.6228
  21   2.0000      -0.382697       -10.4137
  22   2.0000      -0.361051        -9.8247
  23   2.0000      -0.344033        -9.3616
  24   2.0000      -0.329318        -8.9612
  25   2.0000      -0.326141        -8.8747
  26   2.0000      -0.322189        -8.7672
  27   2.0000      -0.297352        -8.0914
  28   2.0000      -0.291693        -7.9374
  29   2.0000      -0.289852        -7.8873
  30   2.0000      -0.258322        -7.0293
  31   2.0000      -0.215482        -5.8636
  32   0.0000      -0.019305        -0.5253
  33   0.0000       0.033048         0.8993
  34   0.0000       0.059430         1.6172
  35   0.0000       0.075131         2.0444
  36   0.0000       0.089965         2.4481

MULLIKEN ATOMIC CHARGES
-----------------------
   0 C :   -0.218483
   1 C :   -0.308125
   2 C :   -0.212057
   3 C :   -0.176389
   4 C :    0.185388
   5 O :   -0.210530
   6 O :   -0.230423
   7 C :   -0.109746
   8 H :    0.101059
   9 H :    0.115252
  10 H :    0.102935
  11 H :    0.097610
  12 H :    0.118212
  13 H :    0.096056
  14 H :    0.095231
  15 H :    0.100194
  16 H :    0.091710
  17 H :    0.119208
  18 H :    0.121678
  19 H :    0.121220
Sum of atomic charges:   -0.0000000

LOEWDIN ATOMIC CHARGES
----------------------
   0 C :   -0.307081
   1 C :   -0.126878
   2 C :   -0.311311
   3 C :   -0.318265
   4 C :    0.052469
   5 O :   -0.169421
   6 O :   -0.062046
   7 C :   -0.202939
   8 H :    0.119421
   9 H :    0.125671
  10 H :    0.120302
  11 H :    0.118995
  12 H :    0.126653
  13 H :    0.118029
  14 H :    0.118615
  15 H :    0.119496
  16 H :    0.117428
  17 H :    0.119757
  18 H :    0.120882
  19 H :    0.120224

  Mayer bond orders larger than 0.100000
B(  0-C ,  1-C ) :   1.0644 B(  0-C ,  8-H ) :   0.9474 B(  0-C ,  9-H ) :   0.9444
B(  0-C , 10-H ) :   0.9479 B(  1-C ,  2-C ) :   1.0763 B(  1-C ,  3-C ) :   1.0880
B(  1-C ,  4-C ) :   0.8994 B(  2-C , 11-H ) :   0.9509 B(  2-C , 12-H ) :   0.9382
B(  2-C , 13-H ) :   0.9483 B(  3-C , 14-H ) :   0.9480 B(  3-C , 15-H ) :   0.9391
B(  3-C , 16-H ) :   0.9425 B(  4-C ,  5-O ) :   2.0545 B(  4-C ,  6-O ) :   1.2457
B(  6-O ,  7-C ) :   0.9371 B(  7-C , 17-H ) :   0.9540 B(  7-C , 18-H ) :   0.9492
B(  7-C , 19-H ) :   0.9591

Dispersion correction           -0.016978060
FINAL SINGLE POINT ENERGY      -385.453678477019

DIPOLE MOMENT
-------------

Method             : SCF
Type of density    : Electron Density
Multiplicity       :   1
Irrep              :   0
Energy             :  -385.5273820797588087 Eh
Relativity type    :
Basis              : AO
                                X                 Y                 Z
Electronic contribution:      5.126988541      -2.267955007      -0.783523535
Nuclear contribution   :     -4.956523826       2.848283136       1.096649049
                        -----------------------------------------
Total Dipole Moment    :      0.170464715       0.580328128       0.313125513
                        -----------------------------------------
Magnitude (a.u.)       :      0.681092169
Magnitude (Debye)      :      1.731198713

Rotational constants in cm-1:             0.105749             0.050400             0.044307
Rotational constants in MHz :          3170.282909          1510.948421          1328.296411

                             ****ORCA TERMINATED NORMALLY****
TOTAL RUN TIME: 0 days 0 hours 0 minutes 41 seconds 374 msec
