                         Program Version 6.0.1  -  RELEASE   -
|  1> ! pbe def2-sv(p) def2/J RI DEFGRID1 loosescf d4 GCP(DFT/SV(P)) printgap
|  2> %output
|  3>     printlevel normal
|  4> end
|  5> * xyz 0 1
|  6> C 1.916961451 -3.3088779842 0.2410391552
|  7> C 2.8640067866 -2.8584293462 -0.8602446273
|  8> O 2.255933528 -1.8055788925 -1.6310681806
|  9> C 2.4379550548 -0.5598574755 -1.253625453
| 10> O 3.1644650038 -0.2060675102 -0.3489756663
| 11> C 1.5796483712 0.3973993813 -2.0599837262
| 12> C 0.3381672908 0.7208732532 -1.2218300612
| 13> H -0.2292753063 1.5357450744 -1.6763724457
| 14> C 0.7605000818 1.115091249 0.1847951498
| 15> O 0.6024353707 0.3853403242 1.1438011557
| 16> O 1.3078349076 2.2971235566 0.1966527566
| 17> C 1.8394590278 2.8107161112 1.4352549491
| 18> C 3.3571721294 2.7462665028 1.4071494368
| 19> S -0.7420065038 -0.7439193042 -1.0932382362
| 20> P -2.0368329991 -0.0164030476 0.4213472406
| 21> S -2.1420595157 1.9300939742 0.6080264971
| 22> O -3.4265281548 -0.690506567 -0.0084175782
| 23> C -4.1196054242 -0.2742366487 -1.1904169375
| 24> O -1.7899751189 -0.7770445661 1.7812429344
| 25> C -1.765071971 -2.2163371392 1.8632302311
| 26> H 2.3741579039 -4.1118408928 0.8092304114
| 27> H 1.7051360391 -2.4767303097 0.9115843979
| 28> H 0.9847650627 -3.6580440331 -0.1952675702
| 29> H 3.0506685719 -3.6571772696 -1.5777510618
| 30> H 3.8045503612 -2.4890771058 -0.4415427064
| 31> H 1.2822092267 -0.0698400546 -2.9972058723
| 32> H 2.1313619427 1.321007786 -2.2345297217
| 33> H 1.4776254397 3.838574776 1.4937492597
| 34> H 1.4282192368 2.2206358225 2.2589762533
| 35> H 3.7483599713 3.094149812 2.357196184
| 36> H 3.6794060078 1.7208099249 1.2379333117
| 37> H 3.7431139795 3.3705651554 0.6068547173
| 38> H -5.1020177296 -0.7350447753 -1.1297059594
| 39> H -3.5842027941 -0.6207140942 -2.07407012
| 40> H -4.2083062107 0.8130550046 -1.2079481015
| 41> H -1.4321450673 -2.436178549 2.8740475403
| 42> H -1.0628583844 -2.6183868783 1.1329003821
| 43> H -2.7633466054 -2.6107414117 1.6831313335
| 44> *
| 45>
| 46>                          ****END OF INPUT****

CARTESIAN COORDINATES (ANGSTROEM)
---------------------------------
  C      1.916961   -3.308878    0.241039
  C      2.864007   -2.858429   -0.860245
  O      2.255934   -1.805579   -1.631068
  C      2.437955   -0.559857   -1.253625
  O      3.164465   -0.206068   -0.348976
  C      1.579648    0.397399   -2.059984
  C      0.338167    0.720873   -1.221830
  H     -0.229275    1.535745   -1.676372
  C      0.760500    1.115091    0.184795
  O      0.602435    0.385340    1.143801
  O      1.307835    2.297124    0.196653
  C      1.839459    2.810716    1.435255
  C      3.357172    2.746267    1.407149
  S     -0.742007   -0.743919   -1.093238
  P     -2.036833   -0.016403    0.421347
  S     -2.142060    1.930094    0.608026
  O     -3.426528   -0.690507   -0.008418
  C     -4.119605   -0.274237   -1.190417
  O     -1.789975   -0.777045    1.781243
  C     -1.765072   -2.216337    1.863230
  H      2.374158   -4.111841    0.809230
  H      1.705136   -2.476730    0.911584
  H      0.984765   -3.658044   -0.195268
  H      3.050669   -3.657177   -1.577751
  H      3.804550   -2.489077   -0.441543
  H      1.282209   -0.069840   -2.997206
  H      2.131362    1.321008   -2.234530
  H      1.477625    3.838575    1.493749
  H      1.428219    2.220636    2.258976
  H      3.748360    3.094150    2.357196
  H      3.679406    1.720810    1.237933
  H      3.743114    3.370565    0.606855
  H     -5.102018   -0.735045   -1.129706
  H     -3.584203   -0.620714   -2.074070
  H     -4.208306    0.813055   -1.207948
  H     -1.432145   -2.436179    2.874048
  H     -1.062858   -2.618387    1.132900
  H     -2.763347   -2.610741    1.683131

 Total Charge           Charge          ....    0
 Multiplicity           Mult            ....    1
 Number of Electrons    NEL             ....  174
 Basis Dimension        Dim             ....  316

ORBITAL ENERGIES
----------------

  NO   OCC          E(Eh)            E(eV)
   0   2.0000     -88.038211     -2395.6415
   1   2.0000     -87.977242     -2393.9825
   2   2.0000     -76.421302     -2079.5294
   3   2.0000     -18.809165      -511.8234
   4   2.0000     -18.803506      -511.6694
   5   2.0000     -18.786909      -511.2178
   6   2.0000     -18.785767      -511.1867
   7   2.0000     -18.745644      -510.0949
   8   2.0000     -18.732540      -509.7383
   9   2.0000     -10.016619      -272.5661
  10   2.0000     -10.012636      -272.4577
  11   2.0000      -9.950909      -270.7780
  12   2.0000      -9.948953      -270.7248
  13   2.0000      -9.945227      -270.6234
  14   2.0000      -9.940998      -270.5083
  15   2.0000      -9.939343      -270.4633
  16   2.0000      -9.919532      -269.9242
  17   2.0000      -9.886881      -269.0357
  18   2.0000      -9.875567      -268.7278
  19   2.0000      -7.683005      -209.0652
  20   2.0000      -7.622482      -207.4183
  21   2.0000      -6.418049      -174.6440
  22   2.0000      -5.710775      -155.3981
  23   2.0000      -5.707570      -155.3109
  24   2.0000      -5.700044      -155.1061
  25   2.0000      -5.651644      -153.7891
  26   2.0000      -5.642963      -153.5528
  27   2.0000      -5.642480      -153.5397
  28   2.0000      -4.640798      -126.2825
  29   2.0000      -4.639993      -126.2606
  30   2.0000      -4.638351      -126.2159
  31   2.0000      -1.018324       -27.7100
  32   2.0000      -1.011222       -27.5168
  33   2.0000      -0.981330       -26.7034
  34   2.0000      -0.936337       -25.4790
  35   2.0000      -0.922899       -25.1134
  36   2.0000      -0.914812       -24.8933
  37   2.0000      -0.768288       -20.9062
  38   2.0000      -0.713431       -19.4135
  39   2.0000      -0.702435       -19.1142
  40   2.0000      -0.689814       -18.7708
  41   2.0000      -0.658597       -17.9213
  42   2.0000      -0.632780       -17.2188
  43   2.0000      -0.619174       -16.8486
  44   2.0000      -0.614642       -16.7253
  45   2.0000      -0.593901       -16.1609
  46   2.0000      -0.559666       -15.2293
  47   2.0000      -0.510261       -13.8849
  48   2.0000      -0.505194       -13.7470
  49   2.0000      -0.493102       -13.4180
  50   2.0000      -0.484294       -13.1783
  51   2.0000      -0.470229       -12.7956
  52   2.0000      -0.464775       -12.6472
  53   2.0000      -0.449849       -12.2410
  54   2.0000      -0.430181       -11.7058
  55   2.0000      -0.426973       -11.6185
  56   2.0000      -0.423119       -11.5137
  57   2.0000      -0.419005       -11.4017
  58   2.0000      -0.411117       -11.1870
  59   2.0000      -0.410320       -11.1654
  60   2.0000      -0.401693       -10.9306
  61   2.0000      -0.398403       -10.8411
  62   2.0000      -0.390676       -10.6308
  63   2.0000      -0.379413       -10.3243
  64   2.0000      -0.377395       -10.2694
  65   2.0000      -0.374041       -10.1782
  66   2.0000      -0.357355        -9.7241
  67   2.0000      -0.350241        -9.5305
  68   2.0000      -0.342559        -9.3215
  69   2.0000      -0.334749        -9.1090
  70   2.0000      -0.331957        -9.0330
  71   2.0000      -0.328083        -8.9276
  72   2.0000      -0.327287        -8.9059
  73   2.0000      -0.311969        -8.4891
  74   2.0000      -0.299048        -8.1375
  75   2.0000      -0.297539        -8.0964
  76   2.0000      -0.292079        -7.9479
  77   2.0000      -0.287526        -7.8240
  78   2.0000      -0.268969        -7.3190
  79   2.0000      -0.264946        -7.2095
  80   2.0000      -0.256100        -6.9688
  81   2.0000      -0.253388        -6.8950
  82   2.0000      -0.233879        -6.3642
  83   2.0000      -0.226002        -6.1498
  84   2.0000      -0.216004        -5.8778
  85   2.0000      -0.196751        -5.3539
  86   2.0000      -0.193969        -5.2782
  87   0.0000      -0.038347        -1.0435
  88   0.0000      -0.032887        -0.8949
  89   0.0000      -0.018138        -0.4936
  90   0.0000       0.005915         0.1610
  91   0.0000       0.023385         0.6363

MULLIKEN ATOMIC CHARGES
-----------------------
   0 C :   -0.325019
   1 C :   -0.016606
   2 O :   -0.216500
   3 C :    0.096655
   4 O :   -0.199563
   5 C :   -0.027799
   6 C :   -0.308834
   7 H :    0.150973
   8 C :    0.181583
   9 O :   -0.192914
  10 O :   -0.217958
  11 C :   -0.016338
  12 C :   -0.305919
  13 S :   -0.103133
  14 P :    0.619627
  15 S :   -0.322525
  16 O :   -0.393216
  17 C :   -0.099712
  18 O :   -0.348357
  19 C :   -0.113355
  20 H :    0.110514
  21 H :    0.146190
  22 H :    0.123493
  23 H :    0.104343
  24 H :    0.111916
  25 H :    0.119977
  26 H :    0.127267
  27 H :    0.106189
  28 H :    0.119864
  29 H :    0.107286
  30 H :    0.142369
  31 H :    0.106329
  32 H :    0.123235
  33 H :    0.111741
  34 H :    0.116757
  35 H :    0.132426
  36 H :    0.126898
  37 H :    0.122113
Sum of atomic charges:   -0.0000000

LOEWDIN ATOMIC CHARGES
----------------------
   0 C :   -0.359592
   1 C :   -0.109920
   2 O :   -0.049531
   3 C :    0.030363
   4 O :   -0.160486
   5 C :   -0.238527
   6 C :   -0.259594
   7 H :    0.139621
   8 C :   -0.006218
   9 O :   -0.171091
  10 O :   -0.036070
  11 C :   -0.104897
  12 C :   -0.358442
  13 S :    0.093964
  14 P :    0.584790
  15 S :   -0.309950
  16 O :   -0.263850
  17 C :   -0.218253
  18 O :   -0.227100
  19 C :   -0.207394
  20 H :    0.128892
  21 H :    0.135308
  22 H :    0.122434
  23 H :    0.118344
  24 H :    0.120948
  25 H :    0.136555
  26 H :    0.148788
  27 H :    0.118721
  28 H :    0.124782
  29 H :    0.127728
  30 H :    0.135210
  31 H :    0.121848
  32 H :    0.121371
  33 H :    0.106473
  34 H :    0.110888
  35 H :    0.127362
  36 H :    0.111143
  37 H :    0.115384

  Mayer bond orders larger than 0.100000
B(  0-C ,  1-C ) :   1.1752 B(  0-C , 20-H ) :   0.9407 B(  0-C , 21-H ) :   0.9363
B(  0-C , 22-H ) :   0.9405 B(  1-C ,  2-O ) :   0.9094 B(  1-C , 23-H ) :   0.9368
B(  1-C , 24-H ) :   0.9116 B(  2-O ,  3-C ) :   1.2486 B(  3-C ,  4-O ) :   1.9768
B(  3-C ,  5-C ) :   0.9988 B(  5-C ,  6-C ) :   1.0616 B(  5-C , 25-H ) :   0.9018
B(  5-C , 26-H ) :   0.8853 B(  6-C ,  7-H ) :   0.8715 B(  6-C ,  8-C ) :   0.8624
B(  6-C , 13-S ) :   1.0289 B(  8-C ,  9-O ) :   1.9912 B(  8-C , 10-O ) :   1.2682
B( 10-O , 11-C ) :   0.8972 B( 11-C , 12-C ) :   1.1749 B( 11-C , 27-H ) :   0.9365
B( 11-C , 28-H ) :   0.9081 B( 12-C , 29-H ) :   0.9434 B( 12-C , 30-H ) :   0.9330
B( 12-C , 31-H ) :   0.9504 B( 13-S , 14-P ) :   0.9514 B( 13-S , 15-S ) :   0.1105
B( 14-P , 15-S ) :   1.6166 B( 14-P , 16-O ) :   1.0603 B( 14-P , 18-O ) :   1.1423
B( 16-O , 17-C ) :   0.9356 B( 17-C , 32-H ) :   0.9586 B( 17-C , 33-H ) :   0.9458
B( 17-C , 34-H ) :   0.9349 B( 18-O , 19-C ) :   0.9193 B( 19-C , 35-H ) :   0.9596
B( 19-C , 36-H ) :   0.9337 B( 19-C , 37-H ) :   0.9470

Dispersion correction           -0.054077925
FINAL SINGLE POINT ENERGY     -1979.016051529969

DIPOLE MOMENT
-------------

Method             : SCF
Type of density    : Electron Density
Multiplicity       :   1
Irrep              :   0
Energy             : -1979.1452579395163411 Eh
Relativity type    :
Basis              : AO
                                X                 Y                 Z
Electronic contribution:    -11.960109911       6.011933861      -2.202464553
Nuclear contribution   :     12.280335206      -7.132718258       1.372342041
                        -----------------------------------------
Total Dipole Moment    :      0.320225295      -1.120784397      -0.830122512
                        -----------------------------------------
Magnitude (a.u.)       :      1.431015474
Magnitude (Debye)      :      3.637352271

Rotational constants in cm-1:             0.012576             0.008376             0.006438
Rotational constants in MHz :           377.013340           251.099200           193.016689

                             ****ORCA TERMINATED NORMALLY****
TOTAL RUN TIME: 0 days 0 hours 0 minutes 34 seconds 894 msec
