                         Program Version 6.0.0  -   RELEASE  -
|  1> ! r2scan-3c def2/J RI DEFGRID2 scfconv6 printgap
|  2> %output
|  3>     printlevel normal
|  4> end
|  5> * xyz 0 1
|  6> C 5.2911175517 -0.1068765318 -0.0640892179
|  7> C 4.2415846411 -1.0080025926 -0.6801570294
|  8> O 3.1050663215 -0.2650338409 -1.1750287223
|  9> P 2.1220816463 0.5678783001 -0.2484467255
| 10> S 2.6599794566 2.3301122011 0.417136276
| 11> O 1.7886768221 -0.4965620209 0.8871433885
| 12> C 1.4019919577 -0.1662140196 2.2298068041
| 13> C 2.2632334548 -0.9629802473 3.1898387734
| 14> S 0.4910706019 0.6708417672 -1.5823749916
| 15> C 0.0567256886 -1.0875761781 -1.7244487713
| 16> S -0.731667475 -1.7756196086 -0.2375571406
| 17> P -2.2279524559 -0.3173550959 -0.0124238327
| 18> S -3.091305861 0.39971667 -1.6251173052
| 19> O -1.446030563 0.7016778462 0.9265081878
| 20> C -2.0038992994 1.9864012959 1.2830336712
| 21> C -1.4145372489 3.0858504848 0.4220406628
| 22> O -3.2495808627 -0.9432755571 1.0347094231
| 23> C -4.3987226158 -1.7074728858 0.6270885518
| 24> C -4.0058392891 -3.0420056312 0.0275536247
| 25> H 5.6059543986 0.6503469337 -0.7781650849
| 26> H 4.8872748376 0.3986771683 0.8120519618
| 27> H 6.1496984461 -0.7015548923 0.231721182
| 28> H 3.8837623147 -1.7440917786 0.0432822397
| 29> H 4.6218759386 -1.5126304554 -1.5699179708
| 30> H 1.5304136485 0.9114791991 2.3795377095
| 31> H 0.3455513564 -0.4251537201 2.3330328498
| 32> H 2.1618059125 -2.025011728 2.9850057153
| 33> H 3.306812279 -0.6769445263 3.0850101772
| 34> H 1.9406552059 -0.761086984 4.205928945
| 35> H 0.9477942184 -1.6799736279 -1.9140660226
| 36> H -0.6413606266 -1.1414235516 -2.5584194164
| 37> H -3.0915243776 1.9469718829 1.1760851994
| 38> H -1.7429867828 2.1217775156 2.3340551884
| 39> H -1.6763186124 2.9306124584 -0.6228633899
| 40> H -1.8038668251 4.0448559987 0.7479398116
| 41> H -0.3296317007 3.095217336 0.5072565389
| 42> H -4.9720521332 -1.8290320173 1.5469521074
| 43> H -4.9695649404 -1.1142206746 -0.0944123824
| 44> H -3.348189856 -3.5815536504 0.7042136487
| 45> H -4.8991069238 -3.630484452 -0.1554360417
| 46> H -3.4864357712 -2.8853418251 -0.9168965375
| 47> *
| 48>
| 49>                          ****END OF INPUT****

CARTESIAN COORDINATES (ANGSTROEM)
---------------------------------
  C      5.291118   -0.106877   -0.064089
  C      4.241585   -1.008003   -0.680157
  O      3.105066   -0.265034   -1.175029
  P      2.122082    0.567878   -0.248447
  S      2.659979    2.330112    0.417136
  O      1.788677   -0.496562    0.887143
  C      1.401992   -0.166214    2.229807
  C      2.263233   -0.962980    3.189839
  S      0.491071    0.670842   -1.582375
  C      0.056726   -1.087576   -1.724449
  S     -0.731667   -1.775620   -0.237557
  P     -2.227952   -0.317355   -0.012424
  S     -3.091306    0.399717   -1.625117
  O     -1.446031    0.701678    0.926508
  C     -2.003899    1.986401    1.283034
  C     -1.414537    3.085850    0.422041
  O     -3.249581   -0.943276    1.034709
  C     -4.398723   -1.707473    0.627089
  C     -4.005839   -3.042006    0.027554
  H      5.605954    0.650347   -0.778165
  H      4.887275    0.398677    0.812052
  H      6.149698   -0.701555    0.231721
  H      3.883762   -1.744092    0.043282
  H      4.621876   -1.512630   -1.569918
  H      1.530414    0.911479    2.379538
  H      0.345551   -0.425154    2.333033
  H      2.161806   -2.025012    2.985006
  H      3.306812   -0.676945    3.085010
  H      1.940655   -0.761087    4.205929
  H      0.947794   -1.679974   -1.914066
  H     -0.641361   -1.141424   -2.558419
  H     -3.091524    1.946972    1.176085
  H     -1.742987    2.121778    2.334055
  H     -1.676319    2.930612   -0.622863
  H     -1.803867    4.044856    0.747940
  H     -0.329632    3.095217    0.507257
  H     -4.972052   -1.829032    1.546952
  H     -4.969565   -1.114221   -0.094412
  H     -3.348190   -3.581554    0.704214
  H     -4.899107   -3.630484   -0.155436
  H     -3.486436   -2.885342   -0.916897

 Total Charge           Charge          ....    0
 Multiplicity           Mult            ....    1
 Number of Electrons    NEL             ....  202
 Basis Dimension        Dim             ....  539

ORBITAL ENERGIES
----------------

  NO   OCC          E(Eh)            E(eV)
   0   2.0000     -88.577638     -2410.3201
   1   2.0000     -88.571602     -2410.1558
   2   2.0000     -88.522219     -2408.8120
   3   2.0000     -88.518773     -2408.7183
   4   2.0000     -76.915977     -2092.9901
   5   2.0000     -76.913877     -2092.9330
   6   2.0000     -18.994457      -516.8655
   7   2.0000     -18.992583      -516.8144
   8   2.0000     -18.991271      -516.7788
   9   2.0000     -18.986758      -516.6559
  10   2.0000     -10.111076      -275.1364
  11   2.0000     -10.103165      -274.9211
  12   2.0000     -10.099424      -274.8193
  13   2.0000     -10.094933      -274.6971
  14   2.0000     -10.092523      -274.6315
  15   2.0000     -10.032092      -272.9871
  16   2.0000     -10.030746      -272.9505
  17   2.0000     -10.029753      -272.9234
  18   2.0000     -10.014326      -272.5037
  19   2.0000      -7.872369      -214.2180
  20   2.0000      -7.865710      -214.0369
  21   2.0000      -7.816855      -212.7075
  22   2.0000      -7.813503      -212.6162
  23   2.0000      -6.594295      -179.4399
  24   2.0000      -6.591841      -179.3731
  25   2.0000      -5.819306      -158.3514
  26   2.0000      -5.816252      -158.2683
  27   2.0000      -5.813125      -158.1832
  28   2.0000      -5.809311      -158.0794
  29   2.0000      -5.809238      -158.0774
  30   2.0000      -5.802612      -157.8971
  31   2.0000      -5.764502      -156.8601
  32   2.0000      -5.761177      -156.7696
  33   2.0000      -5.757299      -156.6641
  34   2.0000      -5.756735      -156.6487
  35   2.0000      -5.753745      -156.5674
  36   2.0000      -5.753535      -156.5617
  37   2.0000      -4.739840      -128.9776
  38   2.0000      -4.739166      -128.9593
  39   2.0000      -4.738074      -128.9296
  40   2.0000      -4.737675      -128.9187
  41   2.0000      -4.736713      -128.8925
  42   2.0000      -4.735402      -128.8568
  43   2.0000      -1.050820       -28.5943
  44   2.0000      -1.049467       -28.5575
  45   2.0000      -1.009496       -27.4698
  46   2.0000      -1.008520       -27.4432
  47   2.0000      -0.802970       -21.8499
  48   2.0000      -0.760405       -20.6917
  49   2.0000      -0.747818       -20.3491
  50   2.0000      -0.733953       -19.9719
  51   2.0000      -0.727737       -19.8027
  52   2.0000      -0.709016       -19.2933
  53   2.0000      -0.689750       -18.7691
  54   2.0000      -0.669041       -18.2055
  55   2.0000      -0.628706       -17.1080
  56   2.0000      -0.622429       -16.9372
  57   2.0000      -0.608049       -16.5459
  58   2.0000      -0.605839       -16.4857
  59   2.0000      -0.590223       -16.0608
  60   2.0000      -0.529454       -14.4072
  61   2.0000      -0.523759       -14.2522
  62   2.0000      -0.495490       -13.4830
  63   2.0000      -0.488658       -13.2971
  64   2.0000      -0.479300       -13.0424
  65   2.0000      -0.460879       -12.5412
  66   2.0000      -0.459000       -12.4900
  67   2.0000      -0.454727       -12.3737
  68   2.0000      -0.442971       -12.0539
  69   2.0000      -0.435958       -11.8630
  70   2.0000      -0.429632       -11.6909
  71   2.0000      -0.413788       -11.2597
  72   2.0000      -0.412144       -11.2150
  73   2.0000      -0.401483       -10.9249
  74   2.0000      -0.392751       -10.6873
  75   2.0000      -0.390607       -10.6289
  76   2.0000      -0.383157       -10.4262
  77   2.0000      -0.372255       -10.1296
  78   2.0000      -0.367660       -10.0045
  79   2.0000      -0.365381        -9.9425
  80   2.0000      -0.362491        -9.8639
  81   2.0000      -0.359282        -9.7766
  82   2.0000      -0.357271        -9.7218
  83   2.0000      -0.350358        -9.5337
  84   2.0000      -0.346621        -9.4320
  85   2.0000      -0.339328        -9.2336
  86   2.0000      -0.317366        -8.6360
  87   2.0000      -0.311588        -8.4787
  88   2.0000      -0.309931        -8.4336
  89   2.0000      -0.305186        -8.3045
  90   2.0000      -0.301175        -8.1954
  91   2.0000      -0.294685        -8.0188
  92   2.0000      -0.289026        -7.8648
  93   2.0000      -0.280265        -7.6264
  94   2.0000      -0.272122        -7.4048
  95   2.0000      -0.243508        -6.6262
  96   2.0000      -0.231692        -6.3047
  97   2.0000      -0.220742        -6.0067
  98   2.0000      -0.217864        -5.9284
  99   2.0000      -0.216183        -5.8826
 100   2.0000      -0.209937        -5.7127
 101   0.0000      -0.048468        -1.3189
 102   0.0000      -0.015602        -0.4245
 103   0.0000      -0.009643        -0.2624
 104   0.0000       0.002493         0.0678
 105   0.0000       0.006900         0.1878

MULLIKEN ATOMIC CHARGES
-----------------------
   0 C :   -0.434708
   1 C :   -0.148068
   2 O :   -0.306652
   3 P :    0.701242
   4 S :   -0.465840
   5 O :   -0.276541
   6 C :   -0.126349
   7 C :   -0.485242
   8 S :   -0.103911
   9 C :   -0.257545
  10 S :   -0.103664
  11 P :    0.659468
  12 S :   -0.461631
  13 O :   -0.263680
  14 C :   -0.122484
  15 C :   -0.475249
  16 O :   -0.301708
  17 C :   -0.150826
  18 C :   -0.453802
  19 H :    0.162576
  20 H :    0.164604
  21 H :    0.145676
  22 H :    0.157070
  23 H :    0.148397
  24 H :    0.172500
  25 H :    0.169062
  26 H :    0.156704
  27 H :    0.154113
  28 H :    0.148222
  29 H :    0.191069
  30 H :    0.209547
  31 H :    0.148664
  32 H :    0.147216
  33 H :    0.178074
  34 H :    0.142091
  35 H :    0.179788
  36 H :    0.147836
  37 H :    0.174783
  38 H :    0.154529
  39 H :    0.148416
  40 H :    0.176251
Sum of atomic charges:   -0.0000000

LOEWDIN ATOMIC CHARGES
----------------------
   0 C :   -0.402669
   1 C :    0.027819
   2 O :   -0.674194
   3 P :    0.372562
   4 S :   -0.120772
   5 O :   -0.689340
   6 C :    0.011908
   7 C :   -0.390568
   8 S :    0.204112
   9 C :   -0.407183
  10 S :    0.187890
  11 P :    0.370924
  12 S :   -0.120915
  13 O :   -0.690640
  14 C :    0.025998
  15 C :   -0.405992
  16 O :   -0.663189
  17 C :    0.018363
  18 C :   -0.406753
  19 H :    0.165018
  20 H :    0.164722
  21 H :    0.157763
  22 H :    0.174314
  23 H :    0.180356
  24 H :    0.183866
  25 H :    0.184781
  26 H :    0.158860
  27 H :    0.157809
  28 H :    0.160422
  29 H :    0.185731
  30 H :    0.190505
  31 H :    0.175049
  32 H :    0.177529
  33 H :    0.167627
  34 H :    0.156375
  35 H :    0.168060
  36 H :    0.179159
  37 H :    0.180455
  38 H :    0.159590
  39 H :    0.159521
  40 H :    0.165125

  Mayer bond orders larger than 0.100000
B(  0-C ,  1-C ) :   0.9438 B(  0-C , 19-H ) :   0.9673 B(  0-C , 20-H ) :   0.9523
B(  0-C , 21-H ) :   0.9650 B(  1-C ,  2-O ) :   0.8029 B(  1-C , 22-H ) :   0.9684
B(  1-C , 23-H ) :   0.9579 B(  2-O ,  3-P ) :   1.1279 B(  3-P ,  4-S ) :   1.7988
B(  3-P ,  5-O ) :   1.0468 B(  3-P ,  8-S ) :   1.0771 B(  5-O ,  6-C ) :   0.7343
B(  6-C ,  7-C ) :   0.9347 B(  6-C , 24-H ) :   0.9426 B(  6-C , 25-H ) :   0.9488
B(  7-C , 26-H ) :   0.9805 B(  7-C , 27-H ) :   0.9723 B(  7-C , 28-H ) :   0.9659
B(  8-S ,  9-C ) :   0.9018 B(  9-C , 10-S ) :   0.9074 B(  9-C , 29-H ) :   0.9181
B(  9-C , 30-H ) :   0.9194 B( 10-S , 11-P ) :   1.1110 B( 11-P , 12-S ) :   1.7631
B( 11-P , 13-O ) :   1.1360 B( 11-P , 16-O ) :   1.0638 B( 13-O , 14-C ) :   0.7459
B( 14-C , 15-C ) :   0.9384 B( 14-C , 31-H ) :   0.9619 B( 14-C , 32-H ) :   0.9621
B( 15-C , 33-H ) :   0.9616 B( 15-C , 34-H ) :   0.9648 B( 15-C , 35-H ) :   0.9592
B( 16-O , 17-C ) :   0.8184 B( 17-C , 18-C ) :   0.9207 B( 17-C , 36-H ) :   0.9582
B( 17-C , 37-H ) :   0.9668 B( 18-C , 38-H ) :   0.9685 B( 18-C , 39-H ) :   0.9591
B( 18-C , 40-H ) :   0.9631

Dispersion correction           -0.022299719
FINAL SINGLE POINT ENERGY     -2932.459620080766

DIPOLE MOMENT
-------------

Method             : SCF
Type of density    : Electron Density
Multiplicity       :   1
Irrep              :   0
Energy             : -2932.4838256647381058 Eh
Relativity type    :
Basis              : AO
                                X                 Y                 Z
Electronic contribution:     -4.218128382       5.798136200     -12.889671669
Nuclear contribution   :      4.264225481      -7.423883475      13.932028183
                        -----------------------------------------
Total Dipole Moment    :      0.046097099      -1.625747275       1.042356514
                        -----------------------------------------
Magnitude (a.u.)       :      1.931757295
Magnitude (Debye)      :      4.910136830

Rotational constants in cm-1:             0.013141             0.005131             0.004890
Rotational constants in MHz :           393.970895           153.816231           146.592106

                             ****ORCA TERMINATED NORMALLY****
TOTAL RUN TIME: 0 days 0 hours 1 minutes 22 seconds 294 msec
