                         Program Version 6.0.0  -   RELEASE  -
|  1> ! r2scan-3c def2/J RI DEFGRID2 scfconv6 printgap
|  2> %output
|  3>     printlevel normal
|  4> end
|  5> %cpcm
|  6>     smd true
|  7>     smdsolvent "water"
|  8> end
|  9> * xyz 0 1
| 10> C 5.2911175517 -0.1068765318 -0.0640892179
| 11> C 4.2415846411 -1.0080025926 -0.6801570294
| 12> O 3.1050663215 -0.2650338409 -1.1750287223
| 13> P 2.1220816463 0.5678783001 -0.2484467255
| 14> S 2.6599794566 2.3301122011 0.417136276
| 15> O 1.7886768221 -0.4965620209 0.8871433885
| 16> C 1.4019919577 -0.1662140196 2.2298068041
| 17> C 2.2632334548 -0.9629802473 3.1898387734
| 18> S 0.4910706019 0.6708417672 -1.5823749916
| 19> C 0.0567256886 -1.0875761781 -1.7244487713
| 20> S -0.731667475 -1.7756196086 -0.2375571406
| 21> P -2.2279524559 -0.3173550959 -0.0124238327
| 22> S -3.091305861 0.39971667 -1.6251173052
| 23> O -1.446030563 0.7016778462 0.9265081878
| 24> C -2.0038992994 1.9864012959 1.2830336712
| 25> C -1.4145372489 3.0858504848 0.4220406628
| 26> O -3.2495808627 -0.9432755571 1.0347094231
| 27> C -4.3987226158 -1.7074728858 0.6270885518
| 28> C -4.0058392891 -3.0420056312 0.0275536247
| 29> H 5.6059543986 0.6503469337 -0.7781650849
| 30> H 4.8872748376 0.3986771683 0.8120519618
| 31> H 6.1496984461 -0.7015548923 0.231721182
| 32> H 3.8837623147 -1.7440917786 0.0432822397
| 33> H 4.6218759386 -1.5126304554 -1.5699179708
| 34> H 1.5304136485 0.9114791991 2.3795377095
| 35> H 0.3455513564 -0.4251537201 2.3330328498
| 36> H 2.1618059125 -2.025011728 2.9850057153
| 37> H 3.306812279 -0.6769445263 3.0850101772
| 38> H 1.9406552059 -0.761086984 4.205928945
| 39> H 0.9477942184 -1.6799736279 -1.9140660226
| 40> H -0.6413606266 -1.1414235516 -2.5584194164
| 41> H -3.0915243776 1.9469718829 1.1760851994
| 42> H -1.7429867828 2.1217775156 2.3340551884
| 43> H -1.6763186124 2.9306124584 -0.6228633899
| 44> H -1.8038668251 4.0448559987 0.7479398116
| 45> H -0.3296317007 3.095217336 0.5072565389
| 46> H -4.9720521332 -1.8290320173 1.5469521074
| 47> H -4.9695649404 -1.1142206746 -0.0944123824
| 48> H -3.348189856 -3.5815536504 0.7042136487
| 49> H -4.8991069238 -3.630484452 -0.1554360417
| 50> H -3.4864357712 -2.8853418251 -0.9168965375
| 51> *
| 52>
| 53>                          ****END OF INPUT****

CARTESIAN COORDINATES (ANGSTROEM)
---------------------------------
  C      5.291118   -0.106877   -0.064089
  C      4.241585   -1.008003   -0.680157
  O      3.105066   -0.265034   -1.175029
  P      2.122082    0.567878   -0.248447
  S      2.659979    2.330112    0.417136
  O      1.788677   -0.496562    0.887143
  C      1.401992   -0.166214    2.229807
  C      2.263233   -0.962980    3.189839
  S      0.491071    0.670842   -1.582375
  C      0.056726   -1.087576   -1.724449
  S     -0.731667   -1.775620   -0.237557
  P     -2.227952   -0.317355   -0.012424
  S     -3.091306    0.399717   -1.625117
  O     -1.446031    0.701678    0.926508
  C     -2.003899    1.986401    1.283034
  C     -1.414537    3.085850    0.422041
  O     -3.249581   -0.943276    1.034709
  C     -4.398723   -1.707473    0.627089
  C     -4.005839   -3.042006    0.027554
  H      5.605954    0.650347   -0.778165
  H      4.887275    0.398677    0.812052
  H      6.149698   -0.701555    0.231721
  H      3.883762   -1.744092    0.043282
  H      4.621876   -1.512630   -1.569918
  H      1.530414    0.911479    2.379538
  H      0.345551   -0.425154    2.333033
  H      2.161806   -2.025012    2.985006
  H      3.306812   -0.676945    3.085010
  H      1.940655   -0.761087    4.205929
  H      0.947794   -1.679974   -1.914066
  H     -0.641361   -1.141424   -2.558419
  H     -3.091524    1.946972    1.176085
  H     -1.742987    2.121778    2.334055
  H     -1.676319    2.930612   -0.622863
  H     -1.803867    4.044856    0.747940
  H     -0.329632    3.095217    0.507257
  H     -4.972052   -1.829032    1.546952
  H     -4.969565   -1.114221   -0.094412
  H     -3.348190   -3.581554    0.704214
  H     -4.899107   -3.630484   -0.155436
  H     -3.486436   -2.885342   -0.916897

 Total Charge           Charge          ....    0
 Multiplicity           Mult            ....    1
 Number of Electrons    NEL             ....  202
 Basis Dimension        Dim             ....  539

ORBITAL ENERGIES
----------------

  NO   OCC          E(Eh)            E(eV)
   0   2.0000     -88.577778     -2410.3239
   1   2.0000     -88.575760     -2410.2690
   2   2.0000     -88.527232     -2408.9485
   3   2.0000     -88.527225     -2408.9483
   4   2.0000     -76.918620     -2093.0621
   5   2.0000     -76.918407     -2093.0563
   6   2.0000     -18.994466      -516.8657
   7   2.0000     -18.992802      -516.8204
   8   2.0000     -18.991485      -516.7846
   9   2.0000     -18.987964      -516.6888
  10   2.0000     -10.106351      -275.0078
  11   2.0000     -10.089396      -274.5464
  12   2.0000     -10.088589      -274.5245
  13   2.0000     -10.088477      -274.5214
  14   2.0000     -10.085220      -274.4328
  15   2.0000     -10.018312      -272.6121
  16   2.0000     -10.017654      -272.5942
  17   2.0000     -10.017631      -272.5936
  18   2.0000     -10.013677      -272.4860
  19   2.0000      -7.872415      -214.2193
  20   2.0000      -7.870019      -214.1541
  21   2.0000      -7.822344      -212.8568
  22   2.0000      -7.822184      -212.8525
  23   2.0000      -6.596783      -179.5076
  24   2.0000      -6.596602      -179.5027
  25   2.0000      -5.819375      -158.3532
  26   2.0000      -5.817329      -158.2976
  27   2.0000      -5.816310      -158.2698
  28   2.0000      -5.813480      -158.1928
  29   2.0000      -5.809347      -158.0804
  30   2.0000      -5.807087      -158.0189
  31   2.0000      -5.769909      -157.0072
  32   2.0000      -5.769754      -157.0030
  33   2.0000      -5.762617      -156.8088
  34   2.0000      -5.762568      -156.8075
  35   2.0000      -5.762431      -156.8037
  36   2.0000      -5.762092      -156.7945
  37   2.0000      -4.742362      -129.0462
  38   2.0000      -4.742293      -129.0444
  39   2.0000      -4.741642      -129.0266
  40   2.0000      -4.741452      -129.0215
  41   2.0000      -4.740634      -128.9992
  42   2.0000      -4.740302      -128.9902
  43   2.0000      -1.050606       -28.5885
  44   2.0000      -1.049636       -28.5621
  45   2.0000      -1.008973       -27.4556
  46   2.0000      -1.008174       -27.4338
  47   2.0000      -0.802136       -21.8272
  48   2.0000      -0.756677       -20.5902
  49   2.0000      -0.741390       -20.1742
  50   2.0000      -0.723454       -19.6862
  51   2.0000      -0.720919       -19.6172
  52   2.0000      -0.707411       -19.2496
  53   2.0000      -0.692252       -18.8371
  54   2.0000      -0.673589       -18.3293
  55   2.0000      -0.626902       -17.0589
  56   2.0000      -0.617267       -16.7967
  57   2.0000      -0.601198       -16.3594
  58   2.0000      -0.599046       -16.3009
  59   2.0000      -0.587320       -15.9818
  60   2.0000      -0.524937       -14.2843
  61   2.0000      -0.518854       -14.1187
  62   2.0000      -0.489706       -13.3256
  63   2.0000      -0.484529       -13.1847
  64   2.0000      -0.475593       -12.9415
  65   2.0000      -0.456283       -12.4161
  66   2.0000      -0.453914       -12.3516
  67   2.0000      -0.448930       -12.2160
  68   2.0000      -0.436590       -11.8802
  69   2.0000      -0.432191       -11.7605
  70   2.0000      -0.423831       -11.5330
  71   2.0000      -0.411517       -11.1979
  72   2.0000      -0.407055       -11.0765
  73   2.0000      -0.396698       -10.7947
  74   2.0000      -0.390163       -10.6169
  75   2.0000      -0.385630       -10.4935
  76   2.0000      -0.377752       -10.2791
  77   2.0000      -0.367434        -9.9984
  78   2.0000      -0.362054        -9.8520
  79   2.0000      -0.357644        -9.7320
  80   2.0000      -0.352093        -9.5809
  81   2.0000      -0.351633        -9.5684
  82   2.0000      -0.350371        -9.5341
  83   2.0000      -0.346593        -9.4313
  84   2.0000      -0.343260        -9.3406
  85   2.0000      -0.336595        -9.1592
  86   2.0000      -0.314589        -8.5604
  87   2.0000      -0.306101        -8.3294
  88   2.0000      -0.304473        -8.2851
  89   2.0000      -0.300823        -8.1858
  90   2.0000      -0.298280        -8.1166
  91   2.0000      -0.292490        -7.9591
  92   2.0000      -0.286752        -7.8029
  93   2.0000      -0.279095        -7.5946
  94   2.0000      -0.272246        -7.4082
  95   2.0000      -0.245513        -6.6808
  96   2.0000      -0.236650        -6.4396
  97   2.0000      -0.229215        -6.2372
  98   2.0000      -0.225019        -6.1231
  99   2.0000      -0.220912        -6.0113
 100   2.0000      -0.216935        -5.9031
 101   0.0000      -0.049914        -1.3582
 102   0.0000      -0.020982        -0.5709
 103   0.0000      -0.013286        -0.3615
 104   0.0000      -0.000345        -0.0094
 105   0.0000       0.006261         0.1704

MULLIKEN ATOMIC CHARGES
-----------------------
   0 C :   -0.484174
   1 C :   -0.134351
   2 O :   -0.332020
   3 P :    0.725903
   4 S :   -0.523907
   5 O :   -0.285662
   6 C :   -0.116449
   7 C :   -0.519303
   8 S :   -0.146357
   9 C :   -0.265075
  10 S :   -0.102746
  11 P :    0.700828
  12 S :   -0.518086
  13 O :   -0.281263
  14 C :   -0.132202
  15 C :   -0.503129
  16 O :   -0.328462
  17 C :   -0.150451
  18 C :   -0.489669
  19 H :    0.169362
  20 H :    0.166063
  21 H :    0.170995
  22 H :    0.173389
  23 H :    0.173239
  24 H :    0.172598
  25 H :    0.175880
  26 H :    0.168343
  27 H :    0.166357
  28 H :    0.169426
  29 H :    0.229136
  30 H :    0.233488
  31 H :    0.167711
  32 H :    0.176020
  33 H :    0.171663
  34 H :    0.167575
  35 H :    0.168546
  36 H :    0.174254
  37 H :    0.178178
  38 H :    0.169333
  39 H :    0.172385
  40 H :    0.172634
Sum of atomic charges:   -0.0000000

LOEWDIN ATOMIC CHARGES
----------------------
   0 C :   -0.407128
   1 C :    0.035979
   2 O :   -0.685981
   3 P :    0.374888
   4 S :   -0.162450
   5 O :   -0.689280
   6 C :    0.016588
   7 C :   -0.392971
   8 S :    0.179689
   9 C :   -0.396997
  10 S :    0.193749
  11 P :    0.377401
  12 S :   -0.156164
  13 O :   -0.698543
  14 C :    0.029795
  15 C :   -0.411515
  16 O :   -0.674376
  17 C :    0.023438
  18 C :   -0.409798
  19 H :    0.163112
  20 H :    0.162346
  21 H :    0.167828
  22 H :    0.182337
  23 H :    0.190843
  24 H :    0.183884
  25 H :    0.187281
  26 H :    0.163026
  27 H :    0.161731
  28 H :    0.168024
  29 H :    0.200236
  30 H :    0.198743
  31 H :    0.181099
  32 H :    0.188804
  33 H :    0.162677
  34 H :    0.164637
  35 H :    0.162331
  36 H :    0.190258
  37 H :    0.181355
  38 H :    0.163476
  39 H :    0.168217
  40 H :    0.161431

  Mayer bond orders larger than 0.100000
B(  0-C ,  1-C ) :   0.9222 B(  0-C , 19-H ) :   0.9704 B(  0-C , 20-H ) :   0.9545
B(  0-C , 21-H ) :   0.9582 B(  1-C ,  2-O ) :   0.7941 B(  1-C , 22-H ) :   0.9616
B(  1-C , 23-H ) :   0.9508 B(  2-O ,  3-P ) :   1.1421 B(  3-P ,  4-S ) :   1.7564
B(  3-P ,  5-O ) :   1.0604 B(  3-P ,  8-S ) :   1.0897 B(  5-O ,  6-C ) :   0.7256
B(  6-C ,  7-C ) :   0.9384 B(  6-C , 24-H ) :   0.9404 B(  6-C , 25-H ) :   0.9436
B(  7-C , 26-H ) :   0.9755 B(  7-C , 27-H ) :   0.9678 B(  7-C , 28-H ) :   0.9609
B(  8-S ,  9-C ) :   0.8956 B(  9-C , 10-S ) :   0.9031 B(  9-C , 29-H ) :   0.9068
B(  9-C , 30-H ) :   0.9099 B( 10-S , 11-P ) :   1.1271 B( 11-P , 12-S ) :   1.7095
B( 11-P , 13-O ) :   1.1424 B( 11-P , 16-O ) :   1.0708 B( 13-O , 14-C ) :   0.7357
B( 14-C , 15-C ) :   0.9261 B( 14-C , 31-H ) :   0.9593 B( 14-C , 32-H ) :   0.9533
B( 15-C , 33-H ) :   0.9654 B( 15-C , 34-H ) :   0.9610 B( 15-C , 35-H ) :   0.9628
B( 16-O , 17-C ) :   0.8066 B( 17-C , 18-C ) :   0.9091 B( 17-C , 36-H ) :   0.9488
B( 17-C , 37-H ) :   0.9654 B( 18-C , 38-H ) :   0.9656 B( 18-C , 39-H ) :   0.9540
B( 18-C , 40-H ) :   0.9637

Dispersion correction           -0.022299719
FINAL SINGLE POINT ENERGY     -2932.468428459847

DIPOLE MOMENT
-------------

Method             : SCF
Type of density    : Electron Density
Multiplicity       :   1
Irrep              :   0
Energy             : -2932.4926340438196348 Eh
Relativity type    :
Basis              : AO
                                X                 Y                 Z
Electronic contribution:     -4.254555882       4.989958189     -12.458605058
Nuclear contribution   :      4.264225481      -7.423883475      13.932028183
                        -----------------------------------------
Total Dipole Moment    :      0.009669599      -2.433925286       1.473423125
                        -----------------------------------------
Magnitude (a.u.)       :      2.845182157
Magnitude (Debye)      :      7.231878316

Rotational constants in cm-1:             0.013141             0.005131             0.004890
Rotational constants in MHz :           393.970895           153.816231           146.592106

                             ****ORCA TERMINATED NORMALLY****
TOTAL RUN TIME: 0 days 0 hours 2 minutes 0 seconds 66 msec
