                         Program Version 6.0.0  -   RELEASE  -
|  1> ! wb97x-v def2-tzvp def2/J RIJCOSX DEFGRID2 scfconv7 GCP(DFT/TZ) printgap
|  2> %output
|  3>     printlevel normal
|  4> end
|  5> * xyz 0 1
|  6> C -0.5915306472139187 -0.6414094242061901 3.308359049904832e-05
|  7> F -1.5345030403496915 0.3582359150649301 -6.14199905935471e-05
|  8> Cl 1.0659569383000909 0.10059716912842266 8.833566925448387e-07
|  9> H -0.6898541347499524 -1.227833307270292 -0.9141791592016028
| 10> H -0.6898871873530723 -1.2276866000485178 0.9143363795058773
| 11> *
| 12>
| 13>                          ****END OF INPUT****

CARTESIAN COORDINATES (ANGSTROEM)
---------------------------------
  C     -0.591531   -0.641409    0.000033
  F     -1.534503    0.358236   -0.000061
  Cl     1.065957    0.100597    0.000001
  H     -0.689854   -1.227833   -0.914179
  H     -0.689887   -1.227687    0.914336

 Total Charge           Charge          ....    0
 Multiplicity           Mult            ....    1
 Number of Electrons    NEL             ....   34
 Basis Dimension        Dim             ....  111

ORBITAL ENERGIES
----------------

  NO   OCC          E(Eh)            E(eV)
   0   2.0000    -107.147268     -2915.6254
   1   2.0000     -27.581095      -750.5197
   2   2.0000     -12.199801      -331.9735
   3   2.0000     -11.300763      -307.5094
   4   2.0000      -9.092023      -247.4065
   5   2.0000      -9.089438      -247.3362
   6   2.0000      -9.089314      -247.3328
   7   2.0000      -1.998102       -54.3711
   8   2.0000      -1.415023       -38.5047
   9   2.0000      -1.284775       -34.9605
  10   2.0000      -1.151066       -31.3221
  11   2.0000      -1.145558       -31.1722
  12   2.0000      -1.090015       -29.6608
  13   2.0000      -0.911239       -24.7961
  14   2.0000      -0.894200       -24.3324
  15   2.0000      -0.798296       -21.7228
  16   2.0000      -0.784498       -21.3473
  17   0.0000      -0.297172        -8.0865
  18   0.0000      -0.227270        -6.1843
  19   0.0000      -0.014783        -0.4023
  20   0.0000       0.005247         0.1428
  21   0.0000       0.122962         3.3460

MULLIKEN ATOMIC CHARGES
-----------------------
   0 C :    0.060383
   1 F :   -0.193750
   2 Cl:   -0.125492
   3 H :    0.129429
   4 H :    0.129430
Sum of atomic charges:   -0.0000000

LOEWDIN ATOMIC CHARGES
----------------------
   0 C :   -0.544063
   1 F :    0.094249
   2 Cl:    0.242128
   3 H :    0.103843
   4 H :    0.103843

  Mayer bond orders larger than 0.100000
B(  0-C ,  1-F ) :   1.0539 B(  0-C ,  2-Cl) :   1.1208 B(  0-C ,  3-H ) :   0.9643
B(  0-C ,  4-H ) :   0.9643

FINAL SINGLE POINT ENERGY      -599.298082797287

DIPOLE MOMENT
-------------

Method             : SCF
Type of density    : Electron Density
Multiplicity       :   1
Irrep              :   0
Energy             :  -599.3015799280874489 Eh
Relativity type    :
Basis              : AO
                                X                 Y                 Z
Electronic contribution:      1.120186976       2.020626594      -0.000143164
Nuclear contribution   :     -1.302586491      -2.769544296       0.000199901
                        -----------------------------------------
Total Dipole Moment    :     -0.182399515      -0.748917702       0.000056737
                        -----------------------------------------
Magnitude (a.u.)       :      0.770809516
Magnitude (Debye)      :      1.959242087

Rotational constants in cm-1:             1.352950             0.183500             0.166978
Rotational constants in MHz :         40560.406514          5501.185925          5005.884773

                             ****ORCA TERMINATED NORMALLY****
TOTAL RUN TIME: 0 days 0 hours 0 minutes 15 seconds 517 msec
