                         Program Version 6.0.0  -   RELEASE  -
|  1> ! wb97x-v def2-tzvp def2/J RIJCOSX DEFGRID2 scfconv7 GCP(DFT/TZ) printgap
|  2> %output
|  3>     printlevel normal
|  4> end
|  5> %cpcm
|  6>     smd true
|  7>     smdsolvent "water"
|  8> end
|  9> * xyz 0 1
| 10> C -0.5915306472139187 -0.6414094242061901 3.308359049904832e-05
| 11> F -1.5345030403496915 0.3582359150649301 -6.14199905935471e-05
| 12> Cl 1.0659569383000909 0.10059716912842266 8.833566925448387e-07
| 13> H -0.6898541347499524 -1.227833307270292 -0.9141791592016028
| 14> H -0.6898871873530723 -1.2276866000485178 0.9143363795058773
| 15> *
| 16>
| 17>                          ****END OF INPUT****

CARTESIAN COORDINATES (ANGSTROEM)
---------------------------------
  C     -0.591531   -0.641409    0.000033
  F     -1.534503    0.358236   -0.000061
  Cl     1.065957    0.100597    0.000001
  H     -0.689854   -1.227833   -0.914179
  H     -0.689887   -1.227687    0.914336

 Total Charge           Charge          ....    0
 Multiplicity           Mult            ....    1
 Number of Electrons    NEL             ....   34
 Basis Dimension        Dim             ....  111

ORBITAL ENERGIES
----------------

  NO   OCC          E(Eh)            E(eV)
   0   2.0000    -107.142884     -2915.5061
   1   2.0000     -27.576829      -750.4037
   2   2.0000     -12.183173      -331.5210
   3   2.0000     -11.296600      -307.3961
   4   2.0000      -9.087810      -247.2919
   5   2.0000      -9.085369      -247.2255
   6   2.0000      -9.085229      -247.2217
   7   2.0000      -1.994430       -54.2712
   8   2.0000      -1.409684       -38.3595
   9   2.0000      -1.278764       -34.7969
  10   2.0000      -1.147342       -31.2208
  11   2.0000      -1.142046       -31.0767
  12   2.0000      -1.077270       -29.3140
  13   2.0000      -0.894540       -24.3417
  14   2.0000      -0.884751       -24.0753
  15   2.0000      -0.795337       -21.6422
  16   2.0000      -0.779258       -21.2047
  17   0.0000      -0.287524        -7.8239
  18   0.0000      -0.212694        -5.7877
  19   0.0000       0.012012         0.3269
  20   0.0000       0.031961         0.8697
  21   0.0000       0.133088         3.6215

MULLIKEN ATOMIC CHARGES
-----------------------
   0 C :    0.044401
   1 F :   -0.224645
   2 Cl:   -0.165020
   3 H :    0.172631
   4 H :    0.172632
Sum of atomic charges:    0.0000000

LOEWDIN ATOMIC CHARGES
----------------------
   0 C :   -0.526619
   1 F :    0.075860
   2 Cl:    0.215249
   3 H :    0.117754
   4 H :    0.117755

  Mayer bond orders larger than 0.100000
B(  0-C ,  1-F ) :   1.0173 B(  0-C ,  2-Cl) :   1.0871 B(  0-C ,  3-H ) :   0.9579
B(  0-C ,  4-H ) :   0.9579

FINAL SINGLE POINT ENERGY      -599.301133330840

DIPOLE MOMENT
-------------

Method             : SCF
Type of density    : Electron Density
Multiplicity       :   1
Irrep              :   0
Energy             :  -599.3046304616397038 Eh
Relativity type    :
Basis              : AO
                                X                 Y                 Z
Electronic contribution:      1.028764621       1.795713417      -0.000126585
Nuclear contribution   :     -1.302586491      -2.769544296       0.000199901
                        -----------------------------------------
Total Dipole Moment    :     -0.273821870      -0.973830879       0.000073315
                        -----------------------------------------
Magnitude (a.u.)       :      1.011595276
Magnitude (Debye)      :      2.571270849

Rotational constants in cm-1:             1.352950             0.183500             0.166978
Rotational constants in MHz :         40560.406514          5501.185925          5005.884773

                             ****ORCA TERMINATED NORMALLY****
TOTAL RUN TIME: 0 days 0 hours 0 minutes 17 seconds 275 msec
