                         Program Version 6.0.0  -   RELEASE  -
|  1> ! pbe def2-sv(p) def2/J RI DEFGRID1 loosescf d4 GCP(DFT/SV(P)) printgap
|  2> %output
|  3>     printlevel normal
|  4> end
|  5> * xyz 0 1
|  6> C 2.6864003754 1.4737141269 -2.7082004907
|  7> C 3.4064231579 0.3935616396 -1.9259252357
|  8> O 2.4808623559 -0.3962363069 -1.1512172446
|  9> P 2.0994274909 0.0023447873 0.3442049562
| 10> S 1.3893212619 1.7772487068 0.7505722751
| 11> O 3.4556955691 -0.1472469119 1.174211138
| 12> C 4.2126398137 -1.3807092027 1.2096269615
| 13> C 4.0855937044 -2.0325354274 2.572357112
| 14> S 0.9375700555 -1.6894872914 0.8039154096
| 15> C -0.3447189406 -0.8836525677 1.8210224808
| 16> S -2.0202149975 -1.0943158445 1.1758211945
| 17> P -1.9739545598 0.2594904439 -0.4756657294
| 18> S -0.6212630292 0.0122065098 -1.866869519
| 19> O -1.8323186832 1.7020219431 0.1378058876
| 20> C -2.7167165854 2.2572010709 1.1415564482
| 21> C -3.7620780942 3.144215367 0.4972101557
| 22> O -3.4913950453 0.226671966 -0.9441532827
| 23> C -4.256475186 -0.9659059967 -1.2053696341
| 24> C -3.5531723815 -1.9264901675 -2.140319188
| 25> H 1.8858935603 1.0304341923 -3.2959096988
| 26> H 2.2456524253 2.2038253301 -2.0318461695
| 27> H 3.389469915 1.9747766236 -3.3656647303
| 28> H 4.1575341588 0.8281359839 -1.2569763513
| 29> H 3.8773075767 -0.3290587595 -2.5952366274
| 30> H 3.8562813091 -2.0458775358 0.4169323476
| 31> H 5.2445679809 -1.0878002801 1.0068440597
| 32> H 3.0636908128 -2.3617017316 2.7422811895
| 33> H 4.7475702458 -2.8914028598 2.6167414375
| 34> H 4.3628909278 -1.3232703594 3.347067365
| 35> H -0.1061317085 0.1816499705 1.8951309355
| 36> H -0.3511625273 -1.3601540448 2.7977192394
| 37> H -3.1807071681 1.4398274191 1.7010135525
| 38> H -2.056051431 2.8295697302 1.7963922139
| 39> H -4.3930711203 2.5604149846 -0.1676724235
| 40> H -4.3732565473 3.5936185115 1.2735706876
| 41> H -3.2781845717 3.9281244053 -0.0789724043
| 42> H -4.4700347171 -1.4464341268 -0.2466837369
| 43> H -5.1802119127 -0.5865144738 -1.6459170858
| 44> H -3.286049429 -1.4263764455 -3.0684718228
| 45> H -2.6399884066 -2.3003503874 -1.6784988568
| 46> H -4.2084840341 -2.763977798 -2.3567337814
| 47> *
| 48>
| 49>                          ****END OF INPUT****

CARTESIAN COORDINATES (ANGSTROEM)
---------------------------------
  C      2.686400    1.473714   -2.708200
  C      3.406423    0.393562   -1.925925
  O      2.480862   -0.396236   -1.151217
  P      2.099427    0.002345    0.344205
  S      1.389321    1.777249    0.750572
  O      3.455696   -0.147247    1.174211
  C      4.212640   -1.380709    1.209627
  C      4.085594   -2.032535    2.572357
  S      0.937570   -1.689487    0.803915
  C     -0.344719   -0.883653    1.821022
  S     -2.020215   -1.094316    1.175821
  P     -1.973955    0.259490   -0.475666
  S     -0.621263    0.012207   -1.866870
  O     -1.832319    1.702022    0.137806
  C     -2.716717    2.257201    1.141556
  C     -3.762078    3.144215    0.497210
  O     -3.491395    0.226672   -0.944153
  C     -4.256475   -0.965906   -1.205370
  C     -3.553172   -1.926490   -2.140319
  H      1.885894    1.030434   -3.295910
  H      2.245652    2.203825   -2.031846
  H      3.389470    1.974777   -3.365665
  H      4.157534    0.828136   -1.256976
  H      3.877308   -0.329059   -2.595237
  H      3.856281   -2.045878    0.416932
  H      5.244568   -1.087800    1.006844
  H      3.063691   -2.361702    2.742281
  H      4.747570   -2.891403    2.616741
  H      4.362891   -1.323270    3.347067
  H     -0.106132    0.181650    1.895131
  H     -0.351163   -1.360154    2.797719
  H     -3.180707    1.439827    1.701014
  H     -2.056051    2.829570    1.796392
  H     -4.393071    2.560415   -0.167672
  H     -4.373257    3.593619    1.273571
  H     -3.278185    3.928124   -0.078972
  H     -4.470035   -1.446434   -0.246684
  H     -5.180212   -0.586514   -1.645917
  H     -3.286049   -1.426376   -3.068472
  H     -2.639988   -2.300350   -1.678499
  H     -4.208484   -2.763978   -2.356734

 Total Charge           Charge          ....    0
 Multiplicity           Mult            ....    1
 Number of Electrons    NEL             ....  202
 Basis Dimension        Dim             ....  334

ORBITAL ENERGIES
----------------

  NO   OCC          E(Eh)            E(eV)
   0   2.0000     -88.042861     -2395.7680
   1   2.0000     -88.039281     -2395.6706
   2   2.0000     -87.977769     -2393.9968
   3   2.0000     -87.971045     -2393.8138
   4   2.0000     -76.418888     -2079.4637
   5   2.0000     -76.417819     -2079.4346
   6   2.0000     -18.788848      -511.2705
   7   2.0000     -18.785276      -511.1734
   8   2.0000     -18.781928      -511.0823
   9   2.0000     -18.780579      -511.0455
  10   2.0000      -9.957430      -270.9554
  11   2.0000      -9.956381      -270.9269
  12   2.0000      -9.952775      -270.8288
  13   2.0000      -9.949617      -270.7428
  14   2.0000      -9.948802      -270.7207
  15   2.0000      -9.883647      -268.9477
  16   2.0000      -9.881181      -268.8806
  17   2.0000      -9.880261      -268.8556
  18   2.0000      -9.870316      -268.5850
  19   2.0000      -7.687731      -209.1938
  20   2.0000      -7.684537      -209.1069
  21   2.0000      -7.623088      -207.4348
  22   2.0000      -7.616061      -207.2436
  23   2.0000      -6.416075      -174.5903
  24   2.0000      -6.415787      -174.5824
  25   2.0000      -5.715356      -155.5228
  26   2.0000      -5.712364      -155.4413
  27   2.0000      -5.712098      -155.4341
  28   2.0000      -5.709243      -155.3564
  29   2.0000      -5.705141      -155.2448
  30   2.0000      -5.701261      -155.1392
  31   2.0000      -5.652156      -153.8030
  32   2.0000      -5.645190      -153.6134
  33   2.0000      -5.644316      -153.5897
  34   2.0000      -5.642371      -153.5367
  35   2.0000      -5.636491      -153.3767
  36   2.0000      -5.636192      -153.3686
  37   2.0000      -4.639056      -126.2351
  38   2.0000      -4.638717      -126.2259
  39   2.0000      -4.638275      -126.2139
  40   2.0000      -4.637273      -126.1866
  41   2.0000      -4.636161      -126.1564
  42   2.0000      -4.635793      -126.1463
  43   2.0000      -0.982649       -26.7392
  44   2.0000      -0.978256       -26.6197
  45   2.0000      -0.939602       -25.5679
  46   2.0000      -0.934333       -25.4245
  47   2.0000      -0.760366       -20.6906
  48   2.0000      -0.716522       -19.4976
  49   2.0000      -0.707089       -19.2409
  50   2.0000      -0.687711       -18.7136
  51   2.0000      -0.686070       -18.6689
  52   2.0000      -0.670733       -18.2516
  53   2.0000      -0.645764       -17.5721
  54   2.0000      -0.631958       -17.1964
  55   2.0000      -0.585184       -15.9237
  56   2.0000      -0.582135       -15.8407
  57   2.0000      -0.570271       -15.5179
  58   2.0000      -0.569324       -15.4921
  59   2.0000      -0.558901       -15.2085
  60   2.0000      -0.504918       -13.7395
  61   2.0000      -0.497533       -13.5386
  62   2.0000      -0.469962       -12.7883
  63   2.0000      -0.468114       -12.7380
  64   2.0000      -0.453153       -12.3309
  65   2.0000      -0.449502       -12.2316
  66   2.0000      -0.436408       -11.8753
  67   2.0000      -0.431674       -11.7464
  68   2.0000      -0.427670       -11.6375
  69   2.0000      -0.412803       -11.2329
  70   2.0000      -0.407095       -11.0776
  71   2.0000      -0.395150       -10.7526
  72   2.0000      -0.386613       -10.5203
  73   2.0000      -0.382934       -10.4202
  74   2.0000      -0.379384       -10.3236
  75   2.0000      -0.362862        -9.8740
  76   2.0000      -0.354225        -9.6390
  77   2.0000      -0.351699        -9.5702
  78   2.0000      -0.347758        -9.4630
  79   2.0000      -0.344351        -9.3703
  80   2.0000      -0.343838        -9.3563
  81   2.0000      -0.340604        -9.2683
  82   2.0000      -0.338007        -9.1976
  83   2.0000      -0.335259        -9.1229
  84   2.0000      -0.331153        -9.0111
  85   2.0000      -0.316669        -8.6170
  86   2.0000      -0.306878        -8.3506
  87   2.0000      -0.301277        -8.1982
  88   2.0000      -0.292591        -7.9618
  89   2.0000      -0.282977        -7.7002
  90   2.0000      -0.273244        -7.4353
  91   2.0000      -0.271537        -7.3889
  92   2.0000      -0.269622        -7.3368
  93   2.0000      -0.263646        -7.1742
  94   2.0000      -0.255280        -6.9465
  95   2.0000      -0.238846        -6.4993
  96   2.0000      -0.214554        -5.8383
  97   2.0000      -0.201396        -5.4803
  98   2.0000      -0.197745        -5.3809
  99   2.0000      -0.182181        -4.9574
 100   2.0000      -0.176169        -4.7938
 101   0.0000      -0.038883        -1.0580
 102   0.0000      -0.027661        -0.7527
 103   0.0000      -0.012196        -0.3319
 104   0.0000       0.003753         0.1021
 105   0.0000       0.026922         0.7326

MULLIKEN ATOMIC CHARGES
-----------------------
   0 C :   -0.291406
   1 C :   -0.022966
   2 O :   -0.372464
   3 P :    0.612257
   4 S :   -0.294008
   5 O :   -0.370952
   6 C :   -0.026313
   7 C :   -0.277678
   8 S :   -0.077136
   9 C :   -0.340301
  10 S :   -0.128537
  11 P :    0.593149
  12 S :   -0.293160
  13 O :   -0.340586
  14 C :   -0.012159
  15 C :   -0.286376
  16 O :   -0.380993
  17 C :   -0.013571
  18 C :   -0.310912
  19 H :    0.128714
  20 H :    0.133257
  21 H :    0.102022
  22 H :    0.102970
  23 H :    0.104015
  24 H :    0.104425
  25 H :    0.106057
  26 H :    0.113200
  27 H :    0.106366
  28 H :    0.118408
  29 H :    0.193262
  30 H :    0.180522
  31 H :    0.093219
  32 H :    0.110234
  33 H :    0.118742
  34 H :    0.106213
  35 H :    0.121725
  36 H :    0.113228
  37 H :    0.109204
  38 H :    0.128544
  39 H :    0.130440
  40 H :    0.109342
Sum of atomic charges:   -0.0000000

LOEWDIN ATOMIC CHARGES
----------------------
   0 C :   -0.363002
   1 C :   -0.113891
   2 O :   -0.245169
   3 P :    0.567034
   4 S :   -0.288013
   5 O :   -0.255199
   6 C :   -0.122049
   7 C :   -0.359624
   8 S :    0.091995
   9 C :   -0.478747
  10 S :    0.058622
  11 P :    0.561199
  12 S :   -0.294726
  13 O :   -0.224844
  14 C :   -0.117217
  15 C :   -0.358490
  16 O :   -0.247760
  17 C :   -0.115170
  18 C :   -0.371245
  19 H :    0.128094
  20 H :    0.127242
  21 H :    0.125580
  22 H :    0.108408
  23 H :    0.117217
  24 H :    0.105034
  25 H :    0.117580
  26 H :    0.118051
  27 H :    0.127958
  28 H :    0.128435
  29 H :    0.122182
  30 H :    0.135972
  31 H :    0.099940
  32 H :    0.120427
  33 H :    0.125295
  34 H :    0.127717
  35 H :    0.129624
  36 H :    0.107497
  37 H :    0.121069
  38 H :    0.130864
  39 H :    0.123022
  40 H :    0.129090

  Mayer bond orders larger than 0.100000
B(  0-C ,  1-C ) :   1.1751 B(  0-C , 19-H ) :   0.9407 B(  0-C , 20-H ) :   0.9332
B(  0-C , 21-H ) :   0.9383 B(  1-C ,  2-O ) :   0.9049 B(  1-C , 22-H ) :   0.9174
B(  1-C , 23-H ) :   0.9347 B(  2-O ,  3-P ) :   1.0983 B(  3-P ,  4-S ) :   1.6388
B(  3-P ,  5-O ) :   1.0816 B(  3-P ,  8-S ) :   0.9522 B(  4-S ,  8-S ) :   0.1140
B(  4-S , 29-H ) :   0.1160 B(  5-O ,  6-C ) :   0.9054 B(  6-C ,  7-C ) :   1.1679
B(  6-C , 24-H ) :   0.9138 B(  6-C , 25-H ) :   0.9330 B(  7-C , 26-H ) :   0.9384
B(  7-C , 27-H ) :   0.9404 B(  7-C , 28-H ) :   0.9466 B(  8-S ,  9-C ) :   1.0063
B(  9-C , 10-S ) :   1.0001 B(  9-C , 29-H ) :   0.8490 B(  9-C , 30-H ) :   0.9124
B( 10-S , 11-P ) :   0.9313 B( 10-S , 12-S ) :   0.1147 B( 11-P , 12-S ) :   1.6829
B( 11-P , 13-O ) :   1.1364 B( 11-P , 16-O ) :   1.0714 B( 13-O , 14-C ) :   0.8982
B( 14-C , 15-C ) :   1.1662 B( 14-C , 31-H ) :   0.9100 B( 14-C , 32-H ) :   0.9324
B( 15-C , 33-H ) :   0.9433 B( 15-C , 34-H ) :   0.9404 B( 15-C , 35-H ) :   0.9473
B( 16-O , 17-C ) :   0.9151 B( 17-C , 18-C ) :   1.1678 B( 17-C , 36-H ) :   0.9266
B( 17-C , 37-H ) :   0.9333 B( 18-C , 38-H ) :   0.9412 B( 18-C , 39-H ) :   0.9314
B( 18-C , 40-H ) :   0.9337

Dispersion correction           -0.066758186
FINAL SINGLE POINT ENERGY     -2929.508012900764

DIPOLE MOMENT
-------------

Method             : SCF
Type of density    : Electron Density
Multiplicity       :   1
Irrep              :   0
Energy             : -2929.6259795620903787 Eh
Relativity type    :
Basis              : AO
                                X                 Y                 Z
Electronic contribution:      0.495530880      -1.149416530       2.503464464
Nuclear contribution   :     -0.743588202       0.422774768      -1.978319489
                        -----------------------------------------
Total Dipole Moment    :     -0.248057322      -0.726641762       0.525144975
                        -----------------------------------------
Magnitude (a.u.)       :      0.930224667
Magnitude (Debye)      :      2.364443197

Rotational constants in cm-1:             0.012192             0.005129             0.004934
Rotational constants in MHz :           365.520600           153.753167           147.903556

                             ****ORCA TERMINATED NORMALLY****
TOTAL RUN TIME: 0 days 0 hours 0 minutes 21 seconds 276 msec
