                         Program Version 6.0.0  -   RELEASE  -
|  1> ! wb97x-v def2-tzvp def2/J RIJCOSX DEFGRID2 scfconv7 GCP(DFT/TZ) printgap
|  2> %output
|  3>     printlevel normal
|  4> end
|  5> * xyz 0 1
|  6> C 2.171034671506327 -1.200985494043543 -0.059400755509661306
|  7> C 1.4079441886260493 0.09259989969133497 0.043982358901564975
|  8> O 1.9934208281767476 1.191924753615582 0.17744427301226046
|  9> N 0.06982168725474104 0.016059918303366484 -0.006515256351915615
| 10> C -0.725069264488431 -1.2250847200265549 -0.1109547505191271
| 11> C -2.134284263841235 -0.7577776786992814 0.24991634880475672
| 12> C -2.1711833308666733 0.6737832270056451 -0.29247566701334904
| 13> C -0.7876821785709434 1.214949357763455 0.06428524888704092
| 14> H 1.8417721182443805 -1.7931824395223253 -0.9186760193077101
| 15> H 2.010697705045797 -1.8077557616197948 0.8385354427356265
| 16> H 3.23477211198355 -0.9816624533516449 -0.15268667801115132
| 17> H -0.6879627349302965 -1.6174606839388068 -1.1356200695309333
| 18> H -0.3438520061019662 -1.9918664595246984 0.5684119389712915
| 19> H -2.902201251648061 -1.404516508356899 -0.1802331726325338
| 20> H -2.255318015028126 -0.7496655717113463 1.3388676549336687
| 21> H -2.296206301349431 0.6584056703013583 -1.380733575062117
| 22> H -2.971544816235481 1.278363607416688 0.13939511077626182
| 23> H -0.4296557874623718 1.9813322340728239 -0.6286310368641725
| 24> H -0.766299606126161 1.63431357652077 1.0783241315610392
| 25> *
| 26>
| 27>                          ****END OF INPUT****

CARTESIAN COORDINATES (ANGSTROEM)
---------------------------------
  C      2.171035   -1.200985   -0.059401
  C      1.407944    0.092600    0.043982
  O      1.993421    1.191925    0.177444
  N      0.069822    0.016060   -0.006515
  C     -0.725069   -1.225085   -0.110955
  C     -2.134284   -0.757778    0.249916
  C     -2.171183    0.673783   -0.292476
  C     -0.787682    1.214949    0.064285
  H      1.841772   -1.793182   -0.918676
  H      2.010698   -1.807756    0.838535
  H      3.234772   -0.981662   -0.152687
  H     -0.687963   -1.617461   -1.135620
  H     -0.343852   -1.991866    0.568412
  H     -2.902201   -1.404517   -0.180233
  H     -2.255318   -0.749666    1.338868
  H     -2.296206    0.658406   -1.380734
  H     -2.971545    1.278364    0.139395
  H     -0.429656    1.981332   -0.628631
  H     -0.766300    1.634314    1.078324

 Total Charge           Charge          ....    0
 Multiplicity           Mult            ....    1
 Number of Electrons    NEL             ....   62
 Basis Dimension        Dim             ....  314

ORBITAL ENERGIES
----------------

  NO   OCC          E(Eh)            E(eV)
   0   2.0000     -21.615307      -588.1824
   1   2.0000     -16.551140      -450.3794
   2   2.0000     -12.137631      -330.2817
   3   2.0000     -12.094074      -329.0965
   4   2.0000     -12.080250      -328.7203
   5   2.0000     -12.062112      -328.2268
   6   2.0000     -12.057773      -328.1087
   7   2.0000     -12.047546      -327.8304
   8   2.0000      -1.659958       -45.1697
   9   2.0000      -1.528075       -41.5810
  10   2.0000      -1.335298       -36.3353
  11   2.0000      -1.264611       -34.4118
  12   2.0000      -1.241281       -33.7770
  13   2.0000      -1.165979       -31.7279
  14   2.0000      -1.090193       -29.6657
  15   2.0000      -1.046382       -28.4735
  16   2.0000      -1.014638       -27.6097
  17   2.0000      -0.962932       -26.2027
  18   2.0000      -0.939248       -25.5582
  19   2.0000      -0.900461       -24.5028
  20   2.0000      -0.890927       -24.2433
  21   2.0000      -0.878720       -23.9112
  22   2.0000      -0.873168       -23.7601
  23   2.0000      -0.846929       -23.0461
  24   2.0000      -0.834702       -22.7134
  25   2.0000      -0.821696       -22.3595
  26   2.0000      -0.814322       -22.1588
  27   2.0000      -0.811394       -22.0792
  28   2.0000      -0.805510       -21.9191
  29   2.0000      -0.772656       -21.0250
  30   2.0000      -0.731089       -19.8939
  31   0.0000      -0.267681        -7.2840
  32   0.0000      -0.131739        -3.5848
  33   0.0000      -0.115566        -3.1447
  34   0.0000      -0.064100        -1.7442
  35   0.0000      -0.039325        -1.0701

MULLIKEN ATOMIC CHARGES
-----------------------
   0 C :   -0.365162
   1 C :    0.231913
   2 O :   -0.426415
   3 N :   -0.052525
   4 C :   -0.174485
   5 C :   -0.171961
   6 C :   -0.168714
   7 C :   -0.146335
   8 H :    0.120140
   9 H :    0.127156
  10 H :    0.146299
  11 H :    0.108185
  12 H :    0.113614
  13 H :    0.111630
  14 H :    0.100461
  15 H :    0.098435
  16 H :    0.111390
  17 H :    0.127104
  18 H :    0.109272
Sum of atomic charges:   -0.0000000

LOEWDIN ATOMIC CHARGES
----------------------
   0 C :   -0.257898
   1 C :   -0.443496
   2 O :    0.005587
   3 N :    0.198213
   4 C :   -0.235583
   5 C :   -0.246818
   6 C :   -0.247953
   7 C :   -0.223295
   8 H :    0.126759
   9 H :    0.130127
  10 H :    0.134116
  11 H :    0.126610
  12 H :    0.129232
  13 H :    0.132561
  14 H :    0.136891
  15 H :    0.135472
  16 H :    0.133134
  17 H :    0.135291
  18 H :    0.131052

  Mayer bond orders larger than 0.100000
B(  0-C ,  1-C ) :   0.9679 B(  0-C ,  8-H ) :   0.9583 B(  0-C ,  9-H ) :   0.9614
B(  0-C , 10-H ) :   0.9827 B(  1-C ,  2-O ) :   2.0111 B(  1-C ,  3-N ) :   1.2548
B(  3-N ,  4-C ) :   0.9573 B(  3-N ,  7-C ) :   0.9266 B(  4-C ,  5-C ) :   1.0121
B(  4-C , 11-H ) :   0.9649 B(  4-C , 12-H ) :   0.9609 B(  5-C ,  6-C ) :   0.9763
B(  5-C , 13-H ) :   0.9761 B(  5-C , 14-H ) :   0.9705 B(  6-C ,  7-C ) :   0.9834
B(  6-C , 15-H ) :   0.9721 B(  6-C , 16-H ) :   0.9754 B(  7-C , 17-H ) :   0.9710
B(  7-C , 18-H ) :   0.9774

FINAL SINGLE POINT ENERGY      -365.276439787529

DIPOLE MOMENT
-------------

Method             : SCF
Type of density    : Electron Density
Multiplicity       :   1
Irrep              :   0
Energy             :  -365.2892875002289657 Eh
Relativity type    :
Basis              : AO
                                X                 Y                 Z
Electronic contribution:      3.862603044       3.274787255       0.354734809
Nuclear contribution   :     -5.225178109      -4.481360398      -0.500019139
                        -----------------------------------------
Total Dipole Moment    :     -1.362575066      -1.206573142      -0.145284330
                        -----------------------------------------
Magnitude (a.u.)       :      1.825797660
Magnitude (Debye)      :      4.640808840

Rotational constants in cm-1:             0.135224             0.051480             0.039178
Rotational constants in MHz :          4053.915959          1543.327097          1174.518676

                             ****ORCA TERMINATED NORMALLY****
TOTAL RUN TIME: 0 days 0 hours 3 minutes 23 seconds 580 msec
