                         Program Version 6.0.0  -   RELEASE  -
|  1> ! wb97x-v def2-tzvp def2/J RIJCOSX DEFGRID2 scfconv7 GCP(DFT/TZ) printgap
|  2> %output
|  3>     printlevel normal
|  4> end
|  5> %cpcm
|  6>     smd true
|  7>     smdsolvent "water"
|  8> end
|  9> * xyz 0 1
| 10> C 2.171034671506327 -1.200985494043543 -0.059400755509661306
| 11> C 1.4079441886260493 0.09259989969133497 0.043982358901564975
| 12> O 1.9934208281767476 1.191924753615582 0.17744427301226046
| 13> N 0.06982168725474104 0.016059918303366484 -0.006515256351915615
| 14> C -0.725069264488431 -1.2250847200265549 -0.1109547505191271
| 15> C -2.134284263841235 -0.7577776786992814 0.24991634880475672
| 16> C -2.1711833308666733 0.6737832270056451 -0.29247566701334904
| 17> C -0.7876821785709434 1.214949357763455 0.06428524888704092
| 18> H 1.8417721182443805 -1.7931824395223253 -0.9186760193077101
| 19> H 2.010697705045797 -1.8077557616197948 0.8385354427356265
| 20> H 3.23477211198355 -0.9816624533516449 -0.15268667801115132
| 21> H -0.6879627349302965 -1.6174606839388068 -1.1356200695309333
| 22> H -0.3438520061019662 -1.9918664595246984 0.5684119389712915
| 23> H -2.902201251648061 -1.404516508356899 -0.1802331726325338
| 24> H -2.255318015028126 -0.7496655717113463 1.3388676549336687
| 25> H -2.296206301349431 0.6584056703013583 -1.380733575062117
| 26> H -2.971544816235481 1.278363607416688 0.13939511077626182
| 27> H -0.4296557874623718 1.9813322340728239 -0.6286310368641725
| 28> H -0.766299606126161 1.63431357652077 1.0783241315610392
| 29> *
| 30>
| 31>                          ****END OF INPUT****

CARTESIAN COORDINATES (ANGSTROEM)
---------------------------------
  C      2.171035   -1.200985   -0.059401
  C      1.407944    0.092600    0.043982
  O      1.993421    1.191925    0.177444
  N      0.069822    0.016060   -0.006515
  C     -0.725069   -1.225085   -0.110955
  C     -2.134284   -0.757778    0.249916
  C     -2.171183    0.673783   -0.292476
  C     -0.787682    1.214949    0.064285
  H      1.841772   -1.793182   -0.918676
  H      2.010698   -1.807756    0.838535
  H      3.234772   -0.981662   -0.152687
  H     -0.687963   -1.617461   -1.135620
  H     -0.343852   -1.991866    0.568412
  H     -2.902201   -1.404517   -0.180233
  H     -2.255318   -0.749666    1.338868
  H     -2.296206    0.658406   -1.380734
  H     -2.971545    1.278364    0.139395
  H     -0.429656    1.981332   -0.628631
  H     -0.766300    1.634314    1.078324

 Total Charge           Charge          ....    0
 Multiplicity           Mult            ....    1
 Number of Electrons    NEL             ....   62
 Basis Dimension        Dim             ....  314

ORBITAL ENERGIES
----------------

  NO   OCC          E(Eh)            E(eV)
   0   2.0000     -21.637505      -588.7865
   1   2.0000     -16.552938      -450.4283
   2   2.0000     -12.150244      -330.6249
   3   2.0000     -12.075193      -328.5827
   4   2.0000     -12.072298      -328.5039
   5   2.0000     -12.040973      -327.6515
   6   2.0000     -12.040025      -327.6257
   7   2.0000     -12.039673      -327.6161
   8   2.0000      -1.684730       -45.8438
   9   2.0000      -1.527465       -41.5644
  10   2.0000      -1.324033       -36.0288
  11   2.0000      -1.254021       -34.1237
  12   2.0000      -1.234218       -33.5848
  13   2.0000      -1.159194       -31.5433
  14   2.0000      -1.077131       -29.3102
  15   2.0000      -1.055313       -28.7165
  16   2.0000      -1.017971       -27.7004
  17   2.0000      -0.959135       -26.0994
  18   2.0000      -0.939070       -25.5534
  19   2.0000      -0.905719       -24.6459
  20   2.0000      -0.880577       -23.9617
  21   2.0000      -0.877117       -23.8676
  22   2.0000      -0.857513       -23.3341
  23   2.0000      -0.839552       -22.8454
  24   2.0000      -0.827718       -22.5234
  25   2.0000      -0.820573       -22.3289
  26   2.0000      -0.820410       -22.3245
  27   2.0000      -0.796870       -21.6839
  28   2.0000      -0.795409       -21.6442
  29   2.0000      -0.753444       -20.5022
  30   2.0000      -0.727042       -19.7838
  31   0.0000      -0.273941        -7.4543
  32   0.0000      -0.121762        -3.3133
  33   0.0000      -0.109046        -2.9673
  34   0.0000      -0.057899        -1.5755
  35   0.0000      -0.022750        -0.6190

MULLIKEN ATOMIC CHARGES
-----------------------
   0 C :   -0.397915
   1 C :    0.291649
   2 O :   -0.600202
   3 N :   -0.040586
   4 C :   -0.185488
   5 C :   -0.188439
   6 C :   -0.190938
   7 C :   -0.171905
   8 H :    0.158070
   9 H :    0.165183
  10 H :    0.144572
  11 H :    0.133311
  12 H :    0.142433
  13 H :    0.129179
  14 H :    0.113169
  15 H :    0.112701
  16 H :    0.127879
  17 H :    0.130842
  18 H :    0.126487
Sum of atomic charges:   -0.0000000

LOEWDIN ATOMIC CHARGES
----------------------
   0 C :   -0.254384
   1 C :   -0.435631
   2 O :   -0.098773
   3 N :    0.212582
   4 C :   -0.222735
   5 C :   -0.243552
   6 C :   -0.244943
   7 C :   -0.226870
   8 H :    0.139952
   9 H :    0.143465
  10 H :    0.132330
  11 H :    0.136124
  12 H :    0.138618
  13 H :    0.138106
  14 H :    0.140265
  15 H :    0.139878
  16 H :    0.137674
  17 H :    0.133585
  18 H :    0.134307

  Mayer bond orders larger than 0.100000
B(  0-C ,  1-C ) :   0.9965 B(  0-C ,  8-H ) :   0.9514 B(  0-C ,  9-H ) :   0.9505
B(  0-C , 10-H ) :   0.9723 B(  1-C ,  2-O ) :   1.8111 B(  1-C ,  3-N ) :   1.3246
B(  3-N ,  4-C ) :   0.9382 B(  3-N ,  7-C ) :   0.9178 B(  4-C ,  5-C ) :   1.0097
B(  4-C , 11-H ) :   0.9639 B(  4-C , 12-H ) :   0.9565 B(  5-C ,  6-C ) :   0.9810
B(  5-C , 13-H ) :   0.9698 B(  5-C , 14-H ) :   0.9689 B(  6-C ,  7-C ) :   1.0018
B(  6-C , 15-H ) :   0.9694 B(  6-C , 16-H ) :   0.9697 B(  7-C , 17-H ) :   0.9631
B(  7-C , 18-H ) :   0.9685

FINAL SINGLE POINT ENERGY      -365.292704903082

DIPOLE MOMENT
-------------

Method             : SCF
Type of density    : Electron Density
Multiplicity       :   1
Irrep              :   0
Energy             :  -365.3055526157822896 Eh
Relativity type    :
Basis              : AO
                                X                 Y                 Z
Electronic contribution:      3.287284461       2.623866557       0.282665324
Nuclear contribution   :     -5.225178109      -4.481360398      -0.500019139
                        -----------------------------------------
Total Dipole Moment    :     -1.937893649      -1.857493841      -0.217353815
                        -----------------------------------------
Magnitude (a.u.)       :      2.693131605
Magnitude (Debye)      :      6.845396528

Rotational constants in cm-1:             0.135224             0.051480             0.039178
Rotational constants in MHz :          4053.915959          1543.327097          1174.518676

                             ****ORCA TERMINATED NORMALLY****
TOTAL RUN TIME: 0 days 0 hours 3 minutes 6 seconds 566 msec
