                         Program Version 6.0.0  -   RELEASE  -
|  1> ! pbe def2-sv(p) def2/J RI DEFGRID1 loosescf d4 GCP(DFT/SV(P)) printgap
|  2> %output
|  3>     printlevel normal
|  4> end
|  5> * xyz 0 1
|  6> C 5.0456467996 -1.108405186 0.0923691326
|  7> C 4.3228187391 -1.3501859251 -1.2158705186
|  8> O 3.3104291042 -0.3514848832 -1.4857191588
|  9> P 1.9856645062 -0.1136760483 -0.6506825745
| 10> S 0.7191543486 0.896335281 -1.7514802168
| 11> O 2.3550399572 0.5876117762 0.7389711068
| 12> C 2.3905432988 2.0141895398 0.8890586364
| 13> C 3.6339959676 2.6046265788 0.2580669273
| 14> S 1.4957369232 -2.034544146 0.0428552781
| 15> C -0.0370891612 -1.6748990331 0.9377578065
| 16> S -1.4870249526 -1.4813274324 -0.1455179535
| 17> P -2.1181225931 0.4808498456 0.3948542954
| 18> S -0.9694432949 1.4494073027 1.6488990196
| 19> O -3.6098293654 0.2997700116 0.9318557787
| 20> C -3.9286837006 0.0260775146 2.3044591072
| 21> C -3.4525349601 -1.3422460406 2.7500164466
| 22> O -2.3763993276 1.2750489062 -0.9362840544
| 23> C -2.7978676567 0.7301219933 -2.2073340921
| 24> C -4.0590517143 -0.0980197753 -2.0987318721
| 25> H 5.5121135243 -0.1267473677 0.0905780309
| 26> H 4.3491290702 -1.1695723883 0.9257317328
| 27> H 5.8124591194 -1.8667202605 0.2161802606
| 28> H 3.8459102372 -2.3333560538 -1.2230161974
| 29> H 4.9953266894 -1.260184147 -2.0706206649
| 30> H 1.4871077034 2.4394047536 0.4386527728
| 31> H 2.3567264684 2.1728579706 1.9680037511
| 32> H 3.6335441386 3.6802525497 0.4037222568
| 33> H 4.5250621937 2.1795514733 0.7118451914
| 34> H 3.6383375377 2.3904499721 -0.8107292552
| 35> H 0.0867958632 -0.7619377742 1.5278946883
| 36> H -0.2060057011 -2.5430396886 1.5697762755
| 37> H -3.4826390688 0.8091903273 2.9260924217
| 38> H -5.0164080038 0.1032592444 2.3368570542
| 39> H -3.8502603421 -1.5538892824 3.737318917
| 40> H -3.7893543311 -2.1059944412 2.0538489989
| 41> H -2.3649542714 -1.3582853887 2.7990590288
| 42> H -2.9454301503 1.6210642589 -2.8194222439
| 43> H -1.9673327194 0.1474484779 -2.6160464422
| 44> H -3.8753547983 -0.9869852205 -1.4970291649
| 45> H -4.8511490237 0.4847063963 -1.6356710664
| 46> H -4.3674632193 -0.4033761406 -3.0938000161
| 47> *
| 48>
| 49>                          ****END OF INPUT****

CARTESIAN COORDINATES (ANGSTROEM)
---------------------------------
  C      5.045647   -1.108405    0.092369
  C      4.322819   -1.350186   -1.215871
  O      3.310429   -0.351485   -1.485719
  P      1.985665   -0.113676   -0.650683
  S      0.719154    0.896335   -1.751480
  O      2.355040    0.587612    0.738971
  C      2.390543    2.014190    0.889059
  C      3.633996    2.604627    0.258067
  S      1.495737   -2.034544    0.042855
  C     -0.037089   -1.674899    0.937758
  S     -1.487025   -1.481327   -0.145518
  P     -2.118123    0.480850    0.394854
  S     -0.969443    1.449407    1.648899
  O     -3.609829    0.299770    0.931856
  C     -3.928684    0.026078    2.304459
  C     -3.452535   -1.342246    2.750016
  O     -2.376399    1.275049   -0.936284
  C     -2.797868    0.730122   -2.207334
  C     -4.059052   -0.098020   -2.098732
  H      5.512114   -0.126747    0.090578
  H      4.349129   -1.169572    0.925732
  H      5.812459   -1.866720    0.216180
  H      3.845910   -2.333356   -1.223016
  H      4.995327   -1.260184   -2.070621
  H      1.487108    2.439405    0.438653
  H      2.356726    2.172858    1.968004
  H      3.633544    3.680253    0.403722
  H      4.525062    2.179551    0.711845
  H      3.638338    2.390450   -0.810729
  H      0.086796   -0.761938    1.527895
  H     -0.206006   -2.543040    1.569776
  H     -3.482639    0.809190    2.926092
  H     -5.016408    0.103259    2.336857
  H     -3.850260   -1.553889    3.737319
  H     -3.789354   -2.105994    2.053849
  H     -2.364954   -1.358285    2.799059
  H     -2.945430    1.621064   -2.819422
  H     -1.967333    0.147448   -2.616046
  H     -3.875355   -0.986985   -1.497029
  H     -4.851149    0.484706   -1.635671
  H     -4.367463   -0.403376   -3.093800

 Total Charge           Charge          ....    0
 Multiplicity           Mult            ....    1
 Number of Electrons    NEL             ....  202
 Basis Dimension        Dim             ....  334

ORBITAL ENERGIES
----------------

  NO   OCC          E(Eh)            E(eV)
   0   2.0000     -88.044635     -2395.8163
   1   2.0000     -88.041369     -2395.7274
   2   2.0000     -87.982938     -2394.1375
   3   2.0000     -87.974391     -2393.9049
   4   2.0000     -76.423349     -2079.5851
   5   2.0000     -76.419967     -2079.4930
   6   2.0000     -18.790032      -511.3028
   7   2.0000     -18.784912      -511.1635
   8   2.0000     -18.783047      -511.1127
   9   2.0000     -18.782752      -511.1047
  10   2.0000      -9.959324      -271.0070
  11   2.0000      -9.958093      -270.9735
  12   2.0000      -9.949382      -270.7364
  13   2.0000      -9.949170      -270.7307
  14   2.0000      -9.937212      -270.4053
  15   2.0000      -9.889125      -269.0968
  16   2.0000      -9.885166      -268.9890
  17   2.0000      -9.884878      -268.9812
  18   2.0000      -9.877474      -268.7797
  19   2.0000      -7.690211      -209.2613
  20   2.0000      -7.686060      -209.1483
  21   2.0000      -7.627904      -207.5658
  22   2.0000      -7.619315      -207.3321
  23   2.0000      -6.420468      -174.7098
  24   2.0000      -6.417751      -174.6359
  25   2.0000      -5.718024      -155.5953
  26   2.0000      -5.714608      -155.5024
  27   2.0000      -5.714004      -155.4860
  28   2.0000      -5.710608      -155.3935
  29   2.0000      -5.707239      -155.3019
  30   2.0000      -5.702983      -155.1861
  31   2.0000      -5.656754      -153.9281
  32   2.0000      -5.648817      -153.7121
  33   2.0000      -5.648390      -153.7005
  34   2.0000      -5.647747      -153.6830
  35   2.0000      -5.640107      -153.4751
  36   2.0000      -5.639115      -153.4481
  37   2.0000      -4.643061      -126.3441
  38   2.0000      -4.642205      -126.3208
  39   2.0000      -4.641021      -126.2886
  40   2.0000      -4.640652      -126.2786
  41   2.0000      -4.639450      -126.2458
  42   2.0000      -4.637967      -126.2055
  43   2.0000      -0.980708       -26.6864
  44   2.0000      -0.978845       -26.6357
  45   2.0000      -0.940690       -25.5975
  46   2.0000      -0.938194       -25.5295
  47   2.0000      -0.762283       -20.7428
  48   2.0000      -0.718163       -19.5422
  49   2.0000      -0.709157       -19.2972
  50   2.0000      -0.689331       -18.7576
  51   2.0000      -0.686788       -18.6884
  52   2.0000      -0.673571       -18.3288
  53   2.0000      -0.648127       -17.6364
  54   2.0000      -0.633770       -17.2458
  55   2.0000      -0.598503       -16.2861
  56   2.0000      -0.587413       -15.9843
  57   2.0000      -0.575296       -15.6546
  58   2.0000      -0.571213       -15.5435
  59   2.0000      -0.562271       -15.3002
  60   2.0000      -0.495836       -13.4924
  61   2.0000      -0.486436       -13.2366
  62   2.0000      -0.471859       -12.8399
  63   2.0000      -0.465945       -12.6790
  64   2.0000      -0.452598       -12.3158
  65   2.0000      -0.448778       -12.2119
  66   2.0000      -0.438253       -11.9255
  67   2.0000      -0.436611       -11.8808
  68   2.0000      -0.425497       -11.5784
  69   2.0000      -0.417039       -11.3482
  70   2.0000      -0.408667       -11.1204
  71   2.0000      -0.397533       -10.8174
  72   2.0000      -0.393179       -10.6990
  73   2.0000      -0.387281       -10.5384
  74   2.0000      -0.382469       -10.4075
  75   2.0000      -0.367559       -10.0018
  76   2.0000      -0.362786        -9.8719
  77   2.0000      -0.355774        -9.6811
  78   2.0000      -0.352855        -9.6017
  79   2.0000      -0.349832        -9.5194
  80   2.0000      -0.345805        -9.4098
  81   2.0000      -0.344349        -9.3702
  82   2.0000      -0.341166        -9.2836
  83   2.0000      -0.339636        -9.2420
  84   2.0000      -0.332802        -9.0560
  85   2.0000      -0.310425        -8.4471
  86   2.0000      -0.307719        -8.3735
  87   2.0000      -0.302769        -8.2388
  88   2.0000      -0.290404        -7.9023
  89   2.0000      -0.286458        -7.7949
  90   2.0000      -0.277003        -7.5376
  91   2.0000      -0.267386        -7.2759
  92   2.0000      -0.266936        -7.2637
  93   2.0000      -0.259475        -7.0607
  94   2.0000      -0.257185        -6.9984
  95   2.0000      -0.239858        -6.5269
  96   2.0000      -0.216562        -5.8929
  97   2.0000      -0.204540        -5.5658
  98   2.0000      -0.201672        -5.4878
  99   2.0000      -0.190242        -5.1768
 100   2.0000      -0.182225        -4.9586
 101   0.0000      -0.040117        -1.0916
 102   0.0000      -0.031012        -0.8439
 103   0.0000      -0.013358        -0.3635
 104   0.0000       0.006541         0.1780
 105   0.0000       0.021371         0.5815

MULLIKEN ATOMIC CHARGES
-----------------------
   0 C :   -0.314110
   1 C :   -0.028920
   2 O :   -0.369988
   3 P :    0.619707
   4 S :   -0.310500
   5 O :   -0.382716
   6 C :   -0.022044
   7 C :   -0.309186
   8 S :   -0.108057
   9 C :   -0.344673
  10 S :   -0.105087
  11 P :    0.608959
  12 S :   -0.312567
  13 O :   -0.374037
  14 C :    0.003237
  15 C :   -0.319881
  16 O :   -0.351783
  17 C :   -0.008318
  18 C :   -0.315633
  19 H :    0.125906
  20 H :    0.129432
  21 H :    0.112628
  22 H :    0.124049
  23 H :    0.114826
  24 H :    0.134488
  25 H :    0.101240
  26 H :    0.111217
  27 H :    0.113390
  28 H :    0.125194
  29 H :    0.202050
  30 H :    0.184717
  31 H :    0.110769
  32 H :    0.102803
  33 H :    0.111571
  34 H :    0.118602
  35 H :    0.120118
  36 H :    0.110738
  37 H :    0.128902
  38 H :    0.124676
  39 H :    0.122982
  40 H :    0.115301
Sum of atomic charges:    0.0000000

LOEWDIN ATOMIC CHARGES
----------------------
   0 C :   -0.367719
   1 C :   -0.116814
   2 O :   -0.242666
   3 P :    0.564966
   4 S :   -0.304520
   5 O :   -0.248557
   6 C :   -0.128768
   7 C :   -0.364811
   8 S :    0.082404
   9 C :   -0.479363
  10 S :    0.073669
  11 P :    0.578087
  12 S :   -0.294337
  13 O :   -0.248822
  14 C :   -0.118308
  15 C :   -0.370057
  16 O :   -0.223779
  17 C :   -0.115345
  18 C :   -0.367139
  19 H :    0.127301
  20 H :    0.124103
  21 H :    0.131370
  22 H :    0.109053
  23 H :    0.124257
  24 H :    0.110275
  25 H :    0.116164
  26 H :    0.130697
  27 H :    0.119626
  28 H :    0.124672
  29 H :    0.123968
  30 H :    0.136174
  31 H :    0.110393
  32 H :    0.117941
  33 H :    0.129938
  34 H :    0.124043
  35 H :    0.118483
  36 H :    0.124045
  37 H :    0.112034
  38 H :    0.115702
  39 H :    0.129122
  40 H :    0.132521

  Mayer bond orders larger than 0.100000
B(  0-C ,  1-C ) :   1.1634 B(  0-C , 19-H ) :   0.9399 B(  0-C , 20-H ) :   0.9351
B(  0-C , 21-H ) :   0.9357 B(  1-C ,  2-O ) :   0.9071 B(  1-C , 22-H ) :   0.9198
B(  1-C , 23-H ) :   0.9342 B(  2-O ,  3-P ) :   1.1117 B(  3-P ,  4-S ) :   1.6542
B(  3-P ,  5-O ) :   1.0757 B(  3-P ,  8-S ) :   0.9621 B(  4-S ,  8-S ) :   0.1066
B(  5-O ,  6-C ) :   0.9010 B(  6-C ,  7-C ) :   1.1567 B(  6-C , 24-H ) :   0.9015
B(  6-C , 25-H ) :   0.9351 B(  7-C , 26-H ) :   0.9397 B(  7-C , 27-H ) :   0.9404
B(  7-C , 28-H ) :   0.9380 B(  8-S ,  9-C ) :   1.0024 B(  9-C , 10-S ) :   1.0049
B(  9-C , 29-H ) :   0.8404 B(  9-C , 30-H ) :   0.9082 B( 10-S , 11-P ) :   0.9434
B( 10-S , 12-S ) :   0.1122 B( 11-P , 12-S ) :   1.5987 B( 11-P , 13-O ) :   1.0770
B( 11-P , 16-O ) :   1.1603 B( 12-S , 29-H ) :   0.1168 B( 13-O , 14-C ) :   0.9221
B( 14-C , 15-C ) :   1.1627 B( 14-C , 31-H ) :   0.9156 B( 14-C , 32-H ) :   0.9344
B( 15-C , 33-H ) :   0.9375 B( 15-C , 34-H ) :   0.9427 B( 15-C , 35-H ) :   0.9375
B( 16-O , 17-C ) :   0.8963 B( 17-C , 18-C ) :   1.1664 B( 17-C , 36-H ) :   0.9342
B( 17-C , 37-H ) :   0.9139 B( 18-C , 38-H ) :   0.9368 B( 18-C , 39-H ) :   0.9418
B( 18-C , 40-H ) :   0.9355

Dispersion correction           -0.068336272
FINAL SINGLE POINT ENERGY     -2929.512660585811

DIPOLE MOMENT
-------------

Method             : SCF
Type of density    : Electron Density
Multiplicity       :   1
Irrep              :   0
Energy             : -2929.6309413374165160 Eh
Relativity type    :
Basis              : AO
                                X                 Y                 Z
Electronic contribution:     -3.264305763      -0.273207817      -5.329011598
Nuclear contribution   :      3.428739206      -0.681959994       5.795414633
                        -----------------------------------------
Total Dipole Moment    :      0.164433444      -0.955167811       0.466403035
                        -----------------------------------------
Magnitude (a.u.)       :      1.075600156
Magnitude (Debye)      :      2.733958326

Rotational constants in cm-1:             0.013393             0.004993             0.004962
Rotational constants in MHz :           401.523693           149.673878           148.743350

                             ****ORCA TERMINATED NORMALLY****
TOTAL RUN TIME: 0 days 0 hours 0 minutes 21 seconds 352 msec
