                         Program Version 6.0.0  -   RELEASE  -
|  1> ! pbe def2-sv(p) def2/J RI DEFGRID1 loosescf d4 GCP(DFT/SV(P)) printgap
|  2> %output
|  3>     printlevel normal
|  4> end
|  5> * xyz 0 1
|  6> C 5.1793709578 0.8002342038 -0.2462958095
|  7> C 3.8914918034 1.1071351862 -0.9807618008
|  8> O 2.9978735481 -0.0257597052 -0.984697229
|  9> P 2.2800067098 -0.5249624568 0.3344190677
| 10> S 1.8820516074 0.8485625814 1.6844281982
| 11> O 3.266461488 -1.655518373 0.858514842
| 12> C 3.1524267887 -2.2150422848 2.1774511479
| 13> C 1.8857979294 -3.0319402726 2.3308540864
| 14> S 0.6920550008 -1.6250647595 -0.5420295814
| 15> C 0.1754742137 -0.4515342075 -1.8273710412
| 16> S -0.2982515791 1.1757228738 -1.1874600827
| 17> P -2.3042630869 0.7412048996 -0.6447819629
| 18> S -3.0811293273 -0.8223736407 -1.5468557342
| 19> O -2.929549482 2.141016438 -1.0324144863
| 20> C -4.0813922538 2.7254950444 -0.3854867924
| 21> C -5.3054468799 1.8392478874 -0.4848898569
| 22> O -2.4031588484 0.8025059004 0.9429668493
| 23> C -1.7964931105 -0.0759510267 1.9045542524
| 24> C -2.2483617831 -1.5159819359 1.7725880774
| 25> H 5.8642308138 1.6352892003 -0.3554989083
| 26> H 4.9737535052 0.6468397223 0.8123368958
| 27> H 5.6357231463 -0.0999013433 -0.649571401
| 28> H 4.0651188234 1.308188325 -2.0386901613
| 29> H 3.3734105112 1.9558334214 -0.5224000121
| 30> H 4.0475221296 -2.8290841976 2.2829722976
| 31> H 3.1723191804 -1.395759801 2.9038933581
| 32> H 1.0158145287 -2.3820689276 2.2353048762
| 33> H 1.8321575846 -3.7965332283 1.5602709327
| 34> H 1.8720838757 -3.5008000346 3.3093819844
| 35> H -0.6883113729 -0.9103984049 -2.3149457637
| 36> H 0.9928377722 -0.2975956916 -2.5258746818
| 37> H -3.8263356365 2.9257412263 0.6573418111
| 38> H -4.2215485856 3.6656144736 -0.9216525036
| 39> H -6.1578365425 2.3484495731 -0.0462937396
| 40> H -5.5199913056 1.6056652948 -1.5252684825
| 41> H -5.1332723476 0.9054062883 0.0489604055
| 42> H -0.7087161755 0.0087145181 1.8176629825
| 43> H -2.1071350979 0.3492728997 2.8612548878
| 44> H -1.8696399254 -2.0827676715 2.6173387481
| 45> H -3.3341225052 -1.5708660012 1.7638877917
| 46> H -1.8700423802 -1.9594830639 0.8536268225
| 47> *
| 48>
| 49>                          ****END OF INPUT****

CARTESIAN COORDINATES (ANGSTROEM)
---------------------------------
  C      5.179371    0.800234   -0.246296
  C      3.891492    1.107135   -0.980762
  O      2.997874   -0.025760   -0.984697
  P      2.280007   -0.524962    0.334419
  S      1.882052    0.848563    1.684428
  O      3.266461   -1.655518    0.858515
  C      3.152427   -2.215042    2.177451
  C      1.885798   -3.031940    2.330854
  S      0.692055   -1.625065   -0.542030
  C      0.175474   -0.451534   -1.827371
  S     -0.298252    1.175723   -1.187460
  P     -2.304263    0.741205   -0.644782
  S     -3.081129   -0.822374   -1.546856
  O     -2.929549    2.141016   -1.032414
  C     -4.081392    2.725495   -0.385487
  C     -5.305447    1.839248   -0.484890
  O     -2.403159    0.802506    0.942967
  C     -1.796493   -0.075951    1.904554
  C     -2.248362   -1.515982    1.772588
  H      5.864231    1.635289   -0.355499
  H      4.973754    0.646840    0.812337
  H      5.635723   -0.099901   -0.649571
  H      4.065119    1.308188   -2.038690
  H      3.373411    1.955833   -0.522400
  H      4.047522   -2.829084    2.282972
  H      3.172319   -1.395760    2.903893
  H      1.015815   -2.382069    2.235305
  H      1.832158   -3.796533    1.560271
  H      1.872084   -3.500800    3.309382
  H     -0.688311   -0.910398   -2.314946
  H      0.992838   -0.297596   -2.525875
  H     -3.826336    2.925741    0.657342
  H     -4.221549    3.665614   -0.921653
  H     -6.157837    2.348450   -0.046294
  H     -5.519991    1.605665   -1.525268
  H     -5.133272    0.905406    0.048960
  H     -0.708716    0.008715    1.817663
  H     -2.107135    0.349273    2.861255
  H     -1.869640   -2.082768    2.617339
  H     -3.334123   -1.570866    1.763888
  H     -1.870042   -1.959483    0.853627

 Total Charge           Charge          ....    0
 Multiplicity           Mult            ....    1
 Number of Electrons    NEL             ....  202
 Basis Dimension        Dim             ....  334

ORBITAL ENERGIES
----------------

  NO   OCC          E(Eh)            E(eV)
   0   2.0000     -88.042824     -2395.7670
   1   2.0000     -88.038196     -2395.6411
   2   2.0000     -87.991008     -2394.3570
   3   2.0000     -87.983967     -2394.1655
   4   2.0000     -76.431081     -2079.7954
   5   2.0000     -76.424948     -2079.6286
   6   2.0000     -18.799363      -511.5567
   7   2.0000     -18.796379      -511.4755
   8   2.0000     -18.788602      -511.2639
   9   2.0000     -18.785839      -511.1887
  10   2.0000      -9.956961      -270.9427
  11   2.0000      -9.956654      -270.9343
  12   2.0000      -9.952456      -270.8201
  13   2.0000      -9.952213      -270.8135
  14   2.0000      -9.944097      -270.5926
  15   2.0000      -9.891373      -269.1579
  16   2.0000      -9.887368      -269.0490
  17   2.0000      -9.881210      -268.8814
  18   2.0000      -9.872891      -268.6550
  19   2.0000      -7.687712      -209.1933
  20   2.0000      -7.683369      -209.0751
  21   2.0000      -7.635544      -207.7737
  22   2.0000      -7.628933      -207.5938
  23   2.0000      -6.428550      -174.9297
  24   2.0000      -6.421893      -174.7486
  25   2.0000      -5.715742      -155.5333
  26   2.0000      -5.712243      -155.4380
  27   2.0000      -5.711276      -155.4117
  28   2.0000      -5.707882      -155.3194
  29   2.0000      -5.704533      -155.2282
  30   2.0000      -5.700288      -155.1127
  31   2.0000      -5.664317      -154.1339
  32   2.0000      -5.657773      -153.9558
  33   2.0000      -5.656313      -153.9161
  34   2.0000      -5.655770      -153.9013
  35   2.0000      -5.649841      -153.7400
  36   2.0000      -5.648893      -153.7142
  37   2.0000      -4.651186      -126.5652
  38   2.0000      -4.650323      -126.5417
  39   2.0000      -4.648940      -126.5041
  40   2.0000      -4.644751      -126.3901
  41   2.0000      -4.643699      -126.3615
  42   2.0000      -4.642180      -126.3202
  43   2.0000      -0.993125       -27.0243
  44   2.0000      -0.983143       -26.7527
  45   2.0000      -0.953304       -25.9407
  46   2.0000      -0.937942       -25.5227
  47   2.0000      -0.761904       -20.7325
  48   2.0000      -0.722352       -19.6562
  49   2.0000      -0.707687       -19.2571
  50   2.0000      -0.692271       -18.8377
  51   2.0000      -0.683149       -18.5894
  52   2.0000      -0.672127       -18.2895
  53   2.0000      -0.654540       -17.8109
  54   2.0000      -0.639234       -17.3944
  55   2.0000      -0.603500       -16.4221
  56   2.0000      -0.588767       -16.0212
  57   2.0000      -0.578153       -15.7323
  58   2.0000      -0.575121       -15.6498
  59   2.0000      -0.559583       -15.2270
  60   2.0000      -0.500216       -13.6116
  61   2.0000      -0.490525       -13.3479
  62   2.0000      -0.478880       -13.0310
  63   2.0000      -0.463228       -12.6051
  64   2.0000      -0.461356       -12.5541
  65   2.0000      -0.447622       -12.1804
  66   2.0000      -0.444533       -12.0964
  67   2.0000      -0.426599       -11.6083
  68   2.0000      -0.419598       -11.4178
  69   2.0000      -0.418830       -11.3969
  70   2.0000      -0.414535       -11.2801
  71   2.0000      -0.399064       -10.8591
  72   2.0000      -0.394750       -10.7417
  73   2.0000      -0.393369       -10.7041
  74   2.0000      -0.384208       -10.4548
  75   2.0000      -0.376668       -10.2496
  76   2.0000      -0.364942        -9.9306
  77   2.0000      -0.359093        -9.7714
  78   2.0000      -0.354589        -9.6488
  79   2.0000      -0.350116        -9.5271
  80   2.0000      -0.346696        -9.4341
  81   2.0000      -0.345247        -9.3947
  82   2.0000      -0.340296        -9.2599
  83   2.0000      -0.334218        -9.0945
  84   2.0000      -0.331848        -9.0300
  85   2.0000      -0.320261        -8.7147
  86   2.0000      -0.309194        -8.4136
  87   2.0000      -0.300810        -8.1855
  88   2.0000      -0.291606        -7.9350
  89   2.0000      -0.290417        -7.9027
  90   2.0000      -0.289585        -7.8800
  91   2.0000      -0.278419        -7.5762
  92   2.0000      -0.268927        -7.3179
  93   2.0000      -0.265220        -7.2170
  94   2.0000      -0.256325        -6.9749
  95   2.0000      -0.242631        -6.6023
  96   2.0000      -0.219471        -5.9721
  97   2.0000      -0.206925        -5.6307
  98   2.0000      -0.203624        -5.5409
  99   2.0000      -0.200519        -5.4564
 100   2.0000      -0.191652        -5.2151
 101   0.0000      -0.047466        -1.2916
 102   0.0000      -0.024545        -0.6679
 103   0.0000      -0.018928        -0.5150
 104   0.0000       0.003193         0.0869
 105   0.0000       0.015013         0.4085

MULLIKEN ATOMIC CHARGES
-----------------------
   0 C :   -0.306774
   1 C :   -0.006809
   2 O :   -0.373326
   3 P :    0.611961
   4 S :   -0.315399
   5 O :   -0.366567
   6 C :   -0.002621
   7 C :   -0.339512
   8 S :   -0.098182
   9 C :   -0.350788
  10 S :   -0.081185
  11 P :    0.645808
  12 S :   -0.332177
  13 O :   -0.377402
  14 C :    0.004909
  15 C :   -0.318638
  16 O :   -0.386261
  17 C :   -0.026507
  18 C :   -0.316128
  19 H :    0.114397
  20 H :    0.123229
  21 H :    0.118981
  22 H :    0.106762
  23 H :    0.117412
  24 H :    0.108508
  25 H :    0.110040
  26 H :    0.138074
  27 H :    0.126902
  28 H :    0.118062
  29 H :    0.195193
  30 H :    0.189730
  31 H :    0.109133
  32 H :    0.107566
  33 H :    0.109537
  34 H :    0.125723
  35 H :    0.129565
  36 H :    0.131830
  37 H :    0.098110
  38 H :    0.108164
  39 H :    0.112570
  40 H :    0.136111
Sum of atomic charges:    0.0000000

LOEWDIN ATOMIC CHARGES
----------------------
   0 C :   -0.364387
   1 C :   -0.117372
   2 O :   -0.239110
   3 P :    0.572126
   4 S :   -0.308508
   5 O :   -0.241641
   6 C :   -0.120635
   7 C :   -0.371258
   8 S :    0.091238
   9 C :   -0.484135
  10 S :    0.090628
  11 P :    0.573182
  12 S :   -0.308461
  13 O :   -0.245960
  14 C :   -0.108915
  15 C :   -0.367079
  16 O :   -0.244475
  17 C :   -0.119084
  18 C :   -0.373449
  19 H :    0.131760
  20 H :    0.122858
  21 H :    0.127661
  22 H :    0.119221
  23 H :    0.113246
  24 H :    0.120441
  25 H :    0.109229
  26 H :    0.120415
  27 H :    0.128057
  28 H :    0.133771
  29 H :    0.127569
  30 H :    0.134456
  31 H :    0.113415
  32 H :    0.120816
  33 H :    0.129000
  34 H :    0.130218
  35 H :    0.122652
  36 H :    0.100603
  37 H :    0.117292
  38 H :    0.126587
  39 H :    0.123558
  40 H :    0.114471

  Mayer bond orders larger than 0.100000
B(  0-C ,  1-C ) :   1.1652 B(  0-C , 19-H ) :   0.9386 B(  0-C , 20-H ) :   0.9359
B(  0-C , 21-H ) :   0.9457 B(  1-C ,  2-O ) :   0.8987 B(  1-C , 22-H ) :   0.9338
B(  1-C , 23-H ) :   0.9162 B(  2-O ,  3-P ) :   1.1165 B(  3-P ,  4-S ) :   1.5994
B(  3-P ,  5-O ) :   1.1051 B(  3-P ,  8-S ) :   0.9640 B(  4-S ,  8-S ) :   0.1061
B(  5-O ,  6-C ) :   0.9099 B(  6-C ,  7-C ) :   1.1625 B(  6-C , 24-H ) :   0.9322
B(  6-C , 25-H ) :   0.9129 B(  7-C , 26-H ) :   0.9284 B(  7-C , 27-H ) :   0.9426
B(  7-C , 28-H ) :   0.9377 B(  8-S ,  9-C ) :   0.9913 B(  9-C , 10-S ) :   1.0203
B(  9-C , 29-H ) :   0.8577 B(  9-C , 30-H ) :   0.8983 B( 10-S , 11-P ) :   0.9462
B( 10-S , 12-S ) :   0.1212 B( 11-P , 12-S ) :   1.6234 B( 11-P , 13-O ) :   1.1301
B( 11-P , 16-O ) :   1.0869 B( 12-S , 29-H ) :   0.1066 B( 13-O , 14-C ) :   0.9089
B( 14-C , 15-C ) :   1.1679 B( 14-C , 31-H ) :   0.9281 B( 14-C , 32-H ) :   0.9346
B( 15-C , 33-H ) :   0.9361 B( 15-C , 34-H ) :   0.9444 B( 15-C , 35-H ) :   0.9356
B( 16-O , 17-C ) :   0.9030 B( 17-C , 18-C ) :   1.1689 B( 17-C , 36-H ) :   0.8981
B( 17-C , 37-H ) :   0.9355 B( 18-C , 38-H ) :   0.9325 B( 18-C , 39-H ) :   0.9426
B( 18-C , 40-H ) :   0.9257

Dispersion correction           -0.066344011
FINAL SINGLE POINT ENERGY     -2929.519832173126

DIPOLE MOMENT
-------------

Method             : SCF
Type of density    : Electron Density
Multiplicity       :   1
Irrep              :   0
Energy             : -2929.6389005206428919 Eh
Relativity type    :
Basis              : AO
                                X                 Y                 Z
Electronic contribution:     -0.635559391       3.534588995     -11.677543491
Nuclear contribution   :      1.379745901      -3.417955046      12.351350028
                        -----------------------------------------
Total Dipole Moment    :      0.744186510       0.116633949       0.673806537
                        -----------------------------------------
Magnitude (a.u.)       :      1.010659334
Magnitude (Debye)      :      2.568891875

Rotational constants in cm-1:             0.013936             0.004737             0.004346
Rotational constants in MHz :           417.788691           142.026501           130.278284

                             ****ORCA TERMINATED NORMALLY****
TOTAL RUN TIME: 0 days 0 hours 0 minutes 21 seconds 327 msec
