                         Program Version 6.0.0  -   RELEASE  -
|  1> ! r2scan-3c def2/J RI DEFGRID2 scfconv6 printgap
|  2> %output
|  3>     printlevel normal
|  4> end
|  5> * xyz 0 1
|  6> C 1.4020874144 -2.51611e-05 0.0001051456
|  7> C 0.6945952134 -1.1920018766 -4.567e-05
|  8> C -0.6908505283 -1.1340101879 3.3054e-05
|  9> N -1.374936108 2.71628e-05 6.4302e-06
| 10> C -0.6908030357 1.1340356159 4.184e-06
| 11> C 0.6946402399 1.1919732352 7.9242e-05
| 12> H 2.4818412796 -4.12891e-05 -0.0001637607
| 13> H 1.2021785159 -2.1432574569 -0.0004077663
| 14> H -1.2887690114 -2.0356083414 -0.0002822315
| 15> H -1.2886853786 2.0356621688 -0.0002125542
| 16> H 1.202257095 2.1432055683 -0.0011197508
| 17> *
| 18>
| 19>                          ****END OF INPUT****

CARTESIAN COORDINATES (ANGSTROEM)
---------------------------------
  C      1.402087   -0.000025    0.000105
  C      0.694595   -1.192002   -0.000046
  C     -0.690851   -1.134010    0.000033
  N     -1.374936    0.000027    0.000006
  C     -0.690803    1.134036    0.000004
  C      0.694640    1.191973    0.000079
  H      2.481841   -0.000041   -0.000164
  H      1.202179   -2.143257   -0.000408
  H     -1.288769   -2.035608   -0.000282
  H     -1.288685    2.035662   -0.000213
  H      1.202257    2.143206   -0.001120

 Total Charge           Charge          ....    0
 Multiplicity           Mult            ....    1
 Number of Electrons    NEL             ....   42
 Basis Dimension        Dim             ....  144

ORBITAL ENERGIES
----------------

  NO   OCC          E(Eh)            E(eV)
   0   2.0000     -14.156308      -385.2127
   1   2.0000     -10.068754      -273.9847
   2   2.0000     -10.068745      -273.9845
   3   2.0000     -10.057391      -273.6755
   4   2.0000     -10.047592      -273.4089
   5   2.0000     -10.047576      -273.4084
   6   2.0000      -0.916959       -24.9517
   7   2.0000      -0.778112       -21.1735
   8   2.0000      -0.735162       -20.0048
   9   2.0000      -0.604693       -16.4545
  10   2.0000      -0.600360       -16.3366
  11   2.0000      -0.502813       -13.6823
  12   2.0000      -0.454120       -12.3572
  13   2.0000      -0.442383       -12.0379
  14   2.0000      -0.401311       -10.9202
  15   2.0000      -0.379814       -10.3353
  16   2.0000      -0.376056       -10.2330
  17   2.0000      -0.335784        -9.1371
  18   2.0000      -0.275391        -7.4938
  19   2.0000      -0.251348        -6.8395
  20   2.0000      -0.225326        -6.1314
  21   0.0000      -0.056571        -1.5394
  22   0.0000      -0.043413        -1.1813
  23   0.0000       0.086603         2.3566
  24   0.0000       0.106986         2.9112
  25   0.0000       0.123731         3.3669

MULLIKEN ATOMIC CHARGES
-----------------------
   0 C :   -0.154425
   1 C :   -0.093368
   2 C :   -0.099093
   3 N :   -0.179451
   4 C :   -0.099094
   5 C :   -0.093366
   6 H :    0.150669
   7 H :    0.150675
   8 H :    0.133389
   9 H :    0.133389
  10 H :    0.150674
Sum of atomic charges:    0.0000000

LOEWDIN ATOMIC CHARGES
----------------------
   0 C :   -0.125649
   1 C :   -0.148967
   2 C :    0.079525
   3 N :   -0.613864
   4 C :    0.079524
   5 C :   -0.148967
   6 H :    0.169419
   7 H :    0.169962
   8 H :    0.184528
   9 H :    0.184528
  10 H :    0.169961

  Mayer bond orders larger than 0.100000
B(  0-C ,  1-C ) :   1.4102 B(  0-C ,  3-N ) :   0.1045 B(  0-C ,  5-C ) :   1.4102
B(  0-C ,  6-H ) :   0.9450 B(  1-C ,  2-C ) :   1.3602 B(  1-C ,  7-H ) :   0.9357
B(  2-C ,  3-N ) :   1.4683 B(  2-C ,  8-H ) :   0.9830 B(  3-N ,  4-C ) :   1.4683
B(  4-C ,  5-C ) :   1.3602 B(  4-C ,  9-H ) :   0.9830 B(  5-C , 10-H ) :   0.9357

Dispersion correction           -0.002997783
FINAL SINGLE POINT ENERGY      -248.213459178503

DIPOLE MOMENT
-------------

Method             : SCF
Type of density    : Electron Density
Multiplicity       :   1
Irrep              :   0
Energy             :  -248.2152146440059255 Eh
Relativity type    :
Basis              : AO
                                X                 Y                 Z
Electronic contribution:     -1.302407996       0.000019926       0.001454409
Nuclear contribution   :      2.158505525      -0.000036768      -0.002050873
                        -----------------------------------------
Total Dipole Moment    :      0.856097529      -0.000016842      -0.000596464
                        -----------------------------------------
Magnitude (a.u.)       :      0.856097737
Magnitude (Debye)      :      2.176027515

Rotational constants in cm-1:             0.203994             0.196896             0.100191
Rotational constants in MHz :          6115.577182          5902.800145          3003.652630

                             ****ORCA TERMINATED NORMALLY****
TOTAL RUN TIME: 0 days 0 hours 0 minutes 30 seconds 564 msec
