                         Program Version 6.0.0  -   RELEASE  -
|  1> ! r2scan-3c def2/J RI DEFGRID2 scfconv6 printgap
|  2> %output
|  3>     printlevel normal
|  4> end
|  5> %cpcm
|  6>     smd true
|  7>     smdsolvent "water"
|  8> end
|  9> * xyz 0 1
| 10> C 1.4020874144 -2.51611e-05 0.0001051456
| 11> C 0.6945952134 -1.1920018766 -4.567e-05
| 12> C -0.6908505283 -1.1340101879 3.3054e-05
| 13> N -1.374936108 2.71628e-05 6.4302e-06
| 14> C -0.6908030357 1.1340356159 4.184e-06
| 15> C 0.6946402399 1.1919732352 7.9242e-05
| 16> H 2.4818412796 -4.12891e-05 -0.0001637607
| 17> H 1.2021785159 -2.1432574569 -0.0004077663
| 18> H -1.2887690114 -2.0356083414 -0.0002822315
| 19> H -1.2886853786 2.0356621688 -0.0002125542
| 20> H 1.202257095 2.1432055683 -0.0011197508
| 21> *
| 22>
| 23>                          ****END OF INPUT****

CARTESIAN COORDINATES (ANGSTROEM)
---------------------------------
  C      1.402087   -0.000025    0.000105
  C      0.694595   -1.192002   -0.000046
  C     -0.690851   -1.134010    0.000033
  N     -1.374936    0.000027    0.000006
  C     -0.690803    1.134036    0.000004
  C      0.694640    1.191973    0.000079
  H      2.481841   -0.000041   -0.000164
  H      1.202179   -2.143257   -0.000408
  H     -1.288769   -2.035608   -0.000282
  H     -1.288685    2.035662   -0.000213
  H      1.202257    2.143206   -0.001120

 Total Charge           Charge          ....    0
 Multiplicity           Mult            ....    1
 Number of Electrons    NEL             ....   42
 Basis Dimension        Dim             ....  144

ORBITAL ENERGIES
----------------

  NO   OCC          E(Eh)            E(eV)
   0   2.0000     -14.158958      -385.2848
   1   2.0000     -10.065313      -273.8911
   2   2.0000     -10.065305      -273.8909
   3   2.0000     -10.049721      -273.4668
   4   2.0000     -10.040578      -273.2180
   5   2.0000     -10.040562      -273.2176
   6   2.0000      -0.917831       -24.9754
   7   2.0000      -0.773255       -21.0413
   8   2.0000      -0.731004       -19.8916
   9   2.0000      -0.600550       -16.3418
  10   2.0000      -0.593782       -16.1576
  11   2.0000      -0.495733       -13.4896
  12   2.0000      -0.449889       -12.2421
  13   2.0000      -0.432527       -11.7697
  14   2.0000      -0.393552       -10.7091
  15   2.0000      -0.380666       -10.3584
  16   2.0000      -0.368869       -10.0374
  17   2.0000      -0.327920        -8.9232
  18   2.0000      -0.274302        -7.4641
  19   2.0000      -0.248832        -6.7711
  20   2.0000      -0.230983        -6.2854
  21   0.0000      -0.054920        -1.4944
  22   0.0000      -0.040699        -1.1075
  23   0.0000       0.092934         2.5289
  24   0.0000       0.110158         2.9975
  25   0.0000       0.127232         3.4622

MULLIKEN ATOMIC CHARGES
-----------------------
   0 C :   -0.165139
   1 C :   -0.126794
   2 C :   -0.116207
   3 N :   -0.235332
   4 C :   -0.116208
   5 C :   -0.126793
   6 H :    0.188817
   7 H :    0.187517
   8 H :    0.161312
   9 H :    0.161312
  10 H :    0.187516
Sum of atomic charges:    0.0000000

LOEWDIN ATOMIC CHARGES
----------------------
   0 C :   -0.120633
   1 C :   -0.147392
   2 C :    0.071084
   3 N :   -0.663206
   4 C :    0.071083
   5 C :   -0.147393
   6 H :    0.182982
   7 H :    0.183110
   8 H :    0.193628
   9 H :    0.193628
  10 H :    0.183110

  Mayer bond orders larger than 0.100000
B(  0-C ,  1-C ) :   1.3875 B(  0-C ,  3-N ) :   0.1025 B(  0-C ,  5-C ) :   1.3875
B(  0-C ,  6-H ) :   0.9432 B(  1-C ,  2-C ) :   1.3636 B(  1-C ,  7-H ) :   0.9358
B(  2-C ,  3-N ) :   1.4614 B(  2-C ,  8-H ) :   0.9704 B(  3-N ,  4-C ) :   1.4614
B(  4-C ,  5-C ) :   1.3636 B(  4-C ,  9-H ) :   0.9704 B(  5-C , 10-H ) :   0.9358

Dispersion correction           -0.002997783
FINAL SINGLE POINT ENERGY      -248.220542502128

DIPOLE MOMENT
-------------

Method             : SCF
Type of density    : Electron Density
Multiplicity       :   1
Irrep              :   0
Energy             :  -248.2222979676306238 Eh
Relativity type    :
Basis              : AO
                                X                 Y                 Z
Electronic contribution:     -0.927356507       0.000013351       0.001252070
Nuclear contribution   :      2.158505525      -0.000036768      -0.002050873
                        -----------------------------------------
Total Dipole Moment    :      1.231149018      -0.000023417      -0.000798803
                        -----------------------------------------
Magnitude (a.u.)       :      1.231149277
Magnitude (Debye)      :      3.129332770

Rotational constants in cm-1:             0.203994             0.196896             0.100191
Rotational constants in MHz :          6115.577182          5902.800145          3003.652630

                             ****ORCA TERMINATED NORMALLY****
TOTAL RUN TIME: 0 days 0 hours 0 minutes 32 seconds 160 msec
