                         Program Version 6.0.0  -   RELEASE  -
|  1> ! pbe def2-sv(p) def2/J RI DEFGRID1 loosescf d4 GCP(DFT/SV(P)) printgap
|  2> %output
|  3>     printlevel normal
|  4> end
|  5> * xyz 0 1
|  6> C 4.7225314509 -0.5500778624 -2.2256707527
|  7> C 4.0818054143 -1.6629569644 -1.4237028478
|  8> O 3.5604036124 -1.2126975149 -0.1584836738
|  9> P 2.5461537086 -0.0058544492 0.0475015471
| 10> S 3.2264836259 1.8239921621 -0.053390774
| 11> O 2.0224803989 -0.2962048577 1.5046179458
| 12> C 1.5416449164 -1.5943037916 1.9348807403
| 13> C 0.625785977 -1.3803088244 3.1218093701
| 14> S 0.9655605203 -0.4837450171 -1.3108566774
| 15> C 0.1983881536 1.1510202187 -1.2869350866
| 16> S -0.6205556946 1.5256328064 0.2860616213
| 17> P -2.2420396382 0.1952915149 0.0105654867
| 18> S -2.9743843579 0.0449531013 -1.8058453821
| 19> O -3.2852000235 0.6070182202 1.1358439168
| 20> C -4.3304429224 1.566432131 0.9033079479
| 21> C -3.7868547189 2.9656763723 0.6980651108
| 22> O -1.6141052585 -1.1259928486 0.6178941813
| 23> C -2.1330622977 -2.4352529245 0.3013860415
| 24> C -3.5228149594 -2.6422839521 0.8651301677
| 25> H 5.4868138862 -0.0487624391 -1.6365846173
| 26> H 5.1723815962 -0.9646390174 -3.1220420361
| 27> H 3.9735044926 0.1867135564 -2.5123504847
| 28> H 4.8119927619 -2.4236763067 -1.1420228682
| 29> H 3.2627514224 -2.1217650607 -1.9844883676
| 30> H 1.0143762749 -2.0659018111 1.0999376236
| 31> H 2.4128881442 -2.1965130492 2.1993658511
| 32> H 1.1525650059 -0.8371682093 3.9011444495
| 33> H -0.2466376897 -0.8041726983 2.8233245803
| 34> H 0.3064608359 -2.3439878367 3.5055666998
| 35> H -0.5344921256 1.167862188 -2.0938860546
| 36> H 0.9683605213 1.910822726 -1.4252136557
| 37> H -4.9044374763 1.2468490018 0.0275077661
| 38> H -4.9499732975 1.5019143456 1.7987312553
| 39> H -3.2215712266 3.0136846102 -0.2320921447
| 40> H -4.6118636798 3.6687907191 0.6443303804
| 41> H -3.1295994267 3.2412615415 1.5192236848
| 42> H -2.1331625127 -2.5523110185 -0.7869881333
| 43> H -1.4105654764 -3.1195513979 0.748074838
| 44> H -4.2269605134 -1.9757701977 0.3684481743
| 45> H -3.8308842595 -3.6691583603 0.6951238634
| 46> H -3.5321049605 -2.4317460164 1.9312797333
| 47> *
| 48>
| 49>                          ****END OF INPUT****

CARTESIAN COORDINATES (ANGSTROEM)
---------------------------------
  C      4.722531   -0.550078   -2.225671
  C      4.081805   -1.662957   -1.423703
  O      3.560404   -1.212698   -0.158484
  P      2.546154   -0.005854    0.047502
  S      3.226484    1.823992   -0.053391
  O      2.022480   -0.296205    1.504618
  C      1.541645   -1.594304    1.934881
  C      0.625786   -1.380309    3.121809
  S      0.965561   -0.483745   -1.310857
  C      0.198388    1.151020   -1.286935
  S     -0.620556    1.525633    0.286062
  P     -2.242040    0.195292    0.010565
  S     -2.974384    0.044953   -1.805845
  O     -3.285200    0.607018    1.135844
  C     -4.330443    1.566432    0.903308
  C     -3.786855    2.965676    0.698065
  O     -1.614105   -1.125993    0.617894
  C     -2.133062   -2.435253    0.301386
  C     -3.522815   -2.642284    0.865130
  H      5.486814   -0.048762   -1.636585
  H      5.172382   -0.964639   -3.122042
  H      3.973504    0.186714   -2.512350
  H      4.811993   -2.423676   -1.142023
  H      3.262751   -2.121765   -1.984488
  H      1.014376   -2.065902    1.099938
  H      2.412888   -2.196513    2.199366
  H      1.152565   -0.837168    3.901144
  H     -0.246638   -0.804173    2.823325
  H      0.306461   -2.343988    3.505567
  H     -0.534492    1.167862   -2.093886
  H      0.968361    1.910823   -1.425214
  H     -4.904437    1.246849    0.027508
  H     -4.949973    1.501914    1.798731
  H     -3.221571    3.013685   -0.232092
  H     -4.611864    3.668791    0.644330
  H     -3.129599    3.241262    1.519224
  H     -2.133163   -2.552311   -0.786988
  H     -1.410565   -3.119551    0.748075
  H     -4.226961   -1.975770    0.368448
  H     -3.830884   -3.669158    0.695124
  H     -3.532105   -2.431746    1.931280

 Total Charge           Charge          ....    0
 Multiplicity           Mult            ....    1
 Number of Electrons    NEL             ....  202
 Basis Dimension        Dim             ....  334

ORBITAL ENERGIES
----------------

  NO   OCC          E(Eh)            E(eV)
   0   2.0000     -88.043072     -2395.7738
   1   2.0000     -88.042579     -2395.7604
   2   2.0000     -87.994284     -2394.4462
   3   2.0000     -87.981857     -2394.1081
   4   2.0000     -76.430531     -2079.7805
   5   2.0000     -76.424417     -2079.6141
   6   2.0000     -18.798755      -511.5401
   7   2.0000     -18.795846      -511.4610
   8   2.0000     -18.794957      -511.4368
   9   2.0000     -18.786656      -511.2109
  10   2.0000      -9.959174      -271.0029
  11   2.0000      -9.957020      -270.9443
  12   2.0000      -9.956479      -270.9296
  13   2.0000      -9.951979      -270.8071
  14   2.0000      -9.950501      -270.7669
  15   2.0000      -9.888850      -269.0893
  16   2.0000      -9.886107      -269.0146
  17   2.0000      -9.883108      -268.9330
  18   2.0000      -9.881063      -268.8774
  19   2.0000      -7.688149      -209.2052
  20   2.0000      -7.687324      -209.1827
  21   2.0000      -7.639126      -207.8712
  22   2.0000      -7.627217      -207.5471
  23   2.0000      -6.428189      -174.9199
  24   2.0000      -6.421636      -174.7416
  25   2.0000      -5.715948      -155.5388
  26   2.0000      -5.714962      -155.5120
  27   2.0000      -5.712875      -155.4552
  28   2.0000      -5.711830      -155.4268
  29   2.0000      -5.704970      -155.2401
  30   2.0000      -5.704609      -155.2303
  31   2.0000      -5.667886      -154.2310
  32   2.0000      -5.659803      -154.0111
  33   2.0000      -5.659425      -154.0008
  34   2.0000      -5.656298      -153.9157
  35   2.0000      -5.647714      -153.6821
  36   2.0000      -5.647286      -153.6705
  37   2.0000      -4.650637      -126.5503
  38   2.0000      -4.649904      -126.5303
  39   2.0000      -4.648765      -126.4993
  40   2.0000      -4.644488      -126.3830
  41   2.0000      -4.643631      -126.3596
  42   2.0000      -4.641688      -126.3067
  43   2.0000      -0.992530       -27.0081
  44   2.0000      -0.986997       -26.8576
  45   2.0000      -0.951811       -25.9001
  46   2.0000      -0.942181       -25.6380
  47   2.0000      -0.765376       -20.8269
  48   2.0000      -0.722689       -19.6654
  49   2.0000      -0.711161       -19.3517
  50   2.0000      -0.691279       -18.8107
  51   2.0000      -0.688833       -18.7441
  52   2.0000      -0.677375       -18.4323
  53   2.0000      -0.651987       -17.7415
  54   2.0000      -0.639199       -17.3935
  55   2.0000      -0.605482       -16.4760
  56   2.0000      -0.588770       -16.0213
  57   2.0000      -0.577137       -15.7047
  58   2.0000      -0.568489       -15.4694
  59   2.0000      -0.562916       -15.3177
  60   2.0000      -0.506409       -13.7801
  61   2.0000      -0.496322       -13.5056
  62   2.0000      -0.478335       -13.0162
  63   2.0000      -0.473265       -12.8782
  64   2.0000      -0.460898       -12.5417
  65   2.0000      -0.449399       -12.2288
  66   2.0000      -0.443795       -12.0763
  67   2.0000      -0.435243       -11.8436
  68   2.0000      -0.428718       -11.6660
  69   2.0000      -0.417756       -11.3677
  70   2.0000      -0.414602       -11.2819
  71   2.0000      -0.400100       -10.8873
  72   2.0000      -0.395130       -10.7520
  73   2.0000      -0.389080       -10.5874
  74   2.0000      -0.383168       -10.4265
  75   2.0000      -0.377084       -10.2610
  76   2.0000      -0.363715        -9.8972
  77   2.0000      -0.357872        -9.7382
  78   2.0000      -0.352750        -9.5988
  79   2.0000      -0.350594        -9.5401
  80   2.0000      -0.348107        -9.4725
  81   2.0000      -0.346477        -9.4281
  82   2.0000      -0.342843        -9.3292
  83   2.0000      -0.338730        -9.2173
  84   2.0000      -0.336517        -9.1571
  85   2.0000      -0.322235        -8.7685
  86   2.0000      -0.313287        -8.5250
  87   2.0000      -0.299862        -8.1597
  88   2.0000      -0.296859        -8.0780
  89   2.0000      -0.293008        -7.9731
  90   2.0000      -0.289283        -7.8718
  91   2.0000      -0.279545        -7.6068
  92   2.0000      -0.273223        -7.4348
  93   2.0000      -0.268396        -7.3034
  94   2.0000      -0.257419        -7.0047
  95   2.0000      -0.235459        -6.4072
  96   2.0000      -0.220116        -5.9897
  97   2.0000      -0.215714        -5.8699
  98   2.0000      -0.207511        -5.6467
  99   2.0000      -0.199858        -5.4384
 100   2.0000      -0.197338        -5.3698
 101   0.0000      -0.044857        -1.2206
 102   0.0000      -0.025085        -0.6826
 103   0.0000      -0.004130        -0.1124
 104   0.0000      -0.000597        -0.0162
 105   0.0000       0.012686         0.3452

MULLIKEN ATOMIC CHARGES
-----------------------
   0 C :   -0.309220
   1 C :   -0.009114
   2 O :   -0.384733
   3 P :    0.600773
   4 S :   -0.309115
   5 O :   -0.350818
   6 C :   -0.013625
   7 C :   -0.286608
   8 S :   -0.107095
   9 C :   -0.373935
  10 S :   -0.051646
  11 P :    0.613435
  12 S :   -0.335625
  13 O :   -0.373414
  14 C :   -0.006528
  15 C :   -0.316595
  16 O :   -0.361337
  17 C :   -0.008450
  18 C :   -0.305120
  19 H :    0.127872
  20 H :    0.111217
  21 H :    0.125462
  22 H :    0.108275
  23 H :    0.111613
  24 H :    0.104779
  25 H :    0.104093
  26 H :    0.118293
  27 H :    0.130076
  28 H :    0.100305
  29 H :    0.191899
  30 H :    0.196422
  31 H :    0.111709
  32 H :    0.107223
  33 H :    0.128223
  34 H :    0.114853
  35 H :    0.121951
  36 H :    0.114173
  37 H :    0.105556
  38 H :    0.123824
  39 H :    0.113154
  40 H :    0.117798
Sum of atomic charges:   -0.0000000

LOEWDIN ATOMIC CHARGES
----------------------
   0 C :   -0.369003
   1 C :   -0.114286
   2 O :   -0.247996
   3 P :    0.568426
   4 S :   -0.304924
   5 O :   -0.232344
   6 C :   -0.114183
   7 C :   -0.354548
   8 S :    0.064710
   9 C :   -0.488726
  10 S :    0.107269
  11 P :    0.574426
  12 S :   -0.323181
  13 O :   -0.242556
  14 C :   -0.118995
  15 C :   -0.369283
  16 O :   -0.234928
  17 C :   -0.117292
  18 C :   -0.364807
  19 H :    0.130854
  20 H :    0.130052
  21 H :    0.121496
  22 H :    0.120781
  23 H :    0.107912
  24 H :    0.102196
  25 H :    0.113043
  26 H :    0.128797
  27 H :    0.125830
  28 H :    0.125289
  29 H :    0.127882
  30 H :    0.128983
  31 H :    0.110823
  32 H :    0.119678
  33 H :    0.121969
  34 H :    0.132098
  35 H :    0.126247
  36 H :    0.112253
  37 H :    0.115047
  38 H :    0.122995
  39 H :    0.131076
  40 H :    0.126920

  Mayer bond orders larger than 0.100000
B(  0-C ,  1-C ) :   1.1672 B(  0-C , 19-H ) :   0.9432 B(  0-C , 20-H ) :   0.9348
B(  0-C , 21-H ) :   0.9324 B(  1-C ,  2-O ) :   0.9139 B(  1-C , 22-H ) :   0.9335
B(  1-C , 23-H ) :   0.9266 B(  2-O ,  3-P ) :   1.0838 B(  3-P ,  4-S ) :   1.6463
B(  3-P ,  5-O ) :   1.1422 B(  3-P ,  8-S ) :   0.9362 B(  4-S ,  8-S ) :   0.1102
B(  5-O ,  6-C ) :   0.8881 B(  6-C ,  7-C ) :   1.1686 B(  6-C , 24-H ) :   0.9094
B(  6-C , 25-H ) :   0.9317 B(  7-C , 26-H ) :   0.9476 B(  7-C , 27-H ) :   0.9381
B(  7-C , 28-H ) :   0.9408 B(  8-S ,  9-C ) :   1.0066 B(  9-C , 10-S ) :   1.0060
B(  9-C , 29-H ) :   0.8737 B(  9-C , 30-H ) :   0.8693 B( 10-S , 11-P ) :   0.9682
B( 10-S , 12-S ) :   0.1098 B( 11-P , 12-S ) :   1.5838 B( 11-P , 13-O ) :   1.1087
B( 11-P , 16-O ) :   1.1107 B( 13-O , 14-C ) :   0.9063 B( 14-C , 15-C ) :   1.1666
B( 14-C , 31-H ) :   0.9167 B( 14-C , 32-H ) :   0.9335 B( 15-C , 33-H ) :   0.9351
B( 15-C , 34-H ) :   0.9375 B( 15-C , 35-H ) :   0.9442 B( 16-O , 17-C ) :   0.9034
B( 17-C , 18-C ) :   1.1656 B( 17-C , 36-H ) :   0.9169 B( 17-C , 37-H ) :   0.9295
B( 18-C , 38-H ) :   0.9351 B( 18-C , 39-H ) :   0.9384 B( 18-C , 40-H ) :   0.9463

Dispersion correction           -0.066185041
FINAL SINGLE POINT ENERGY     -2929.524203929509

DIPOLE MOMENT
-------------

Method             : SCF
Type of density    : Electron Density
Multiplicity       :   1
Irrep              :   0
Energy             : -2929.6437232172688709 Eh
Relativity type    :
Basis              : AO
                                X                 Y                 Z
Electronic contribution:      7.283053452       9.749344693      -5.712010481
Nuclear contribution   :     -7.943899659     -11.182509555       6.012752392
                        -----------------------------------------
Total Dipole Moment    :     -0.660846207      -1.433164862       0.300741910
                        -----------------------------------------
Magnitude (a.u.)       :      1.606587977
Magnitude (Debye)      :      4.083622106

Rotational constants in cm-1:             0.012888             0.004883             0.004607
Rotational constants in MHz :           386.360200           146.376484           138.126197

                             ****ORCA TERMINATED NORMALLY****
TOTAL RUN TIME: 0 days 0 hours 0 minutes 21 seconds 64 msec
