                         Program Version 6.0.0  -   RELEASE  -
|  1> ! pbe def2-sv(p) def2/J RI DEFGRID1 loosescf d4 GCP(DFT/SV(P)) printgap
|  2> %output
|  3>     printlevel normal
|  4> end
|  5> * xyz 0 1
|  6> C -1.2683820958 0.7009557822 -0.0025152548
|  7> C 0.0040302769 -0.0992238131 -0.0011027176
|  8> O -3.89174e-05 -1.3164095524 0.0001727972
|  9> C 1.2704593501 0.7022644587 0.0026988098
| 10> H -1.8322445517 0.4646747209 0.8978548013
| 11> H -1.0746697246 1.7664880035 -0.0486486389
| 12> H -1.8804278901 0.3941825985 -0.8479000493
| 13> H 1.2981046556 1.328090378 -0.8861817049
| 14> H 2.138212956 0.0486322488 0.0210027712
| 15> H 1.2788642721 1.3552040519 0.872082795
| 16> *
| 17>
| 18>                          ****END OF INPUT****

CARTESIAN COORDINATES (ANGSTROEM)
---------------------------------
  C     -1.268382    0.700956   -0.002515
  C      0.004030   -0.099224   -0.001103
  O     -0.000039   -1.316410    0.000173
  C      1.270459    0.702264    0.002699
  H     -1.832245    0.464675    0.897855
  H     -1.074670    1.766488   -0.048649
  H     -1.880428    0.394183   -0.847900
  H      1.298105    1.328090   -0.886182
  H      2.138213    0.048632    0.021003
  H      1.278864    1.355204    0.872083

 Total Charge           Charge          ....    0
 Multiplicity           Mult            ....    1
 Number of Electrons    NEL             ....   32
 Basis Dimension        Dim             ....   68

ORBITAL ENERGIES
----------------

  NO   OCC          E(Eh)            E(eV)
   0   2.0000     -18.737004      -509.8598
   1   2.0000      -9.974089      -271.4088
   2   2.0000      -9.887795      -269.0606
   3   2.0000      -9.887389      -269.0495
   4   2.0000      -0.932331       -25.3700
   5   2.0000      -0.695864       -18.9354
   6   2.0000      -0.638712       -17.3802
   7   2.0000      -0.469892       -12.7864
   8   2.0000      -0.415793       -11.3143
   9   2.0000      -0.406986       -11.0746
  10   2.0000      -0.401088       -10.9142
  11   2.0000      -0.364140        -9.9088
  12   2.0000      -0.343548        -9.3484
  13   2.0000      -0.333458        -9.0739
  14   2.0000      -0.303556        -8.2602
  15   2.0000      -0.195621        -5.3231
  16   0.0000      -0.049621        -1.3503
  17   0.0000       0.035480         0.9654
  18   0.0000       0.083619         2.2754
  19   0.0000       0.098991         2.6937
  20   0.0000       0.101954         2.7743

MULLIKEN ATOMIC CHARGES
-----------------------
   0 C :   -0.263311
   1 C :   -0.033558
   2 O :   -0.176971
   3 C :   -0.263826
   4 H :    0.134476
   5 H :    0.102881
   6 H :    0.133094
   7 H :    0.125229
   8 H :    0.117569
   9 H :    0.124416
Sum of atomic charges:    0.0000000

LOEWDIN ATOMIC CHARGES
----------------------
   0 C :   -0.366206
   1 C :    0.033872
   2 O :   -0.140196
   3 C :   -0.363354
   4 H :    0.149124
   5 H :    0.124106
   6 H :    0.147714
   7 H :    0.141457
   8 H :    0.132778
   9 H :    0.140705

  Mayer bond orders larger than 0.100000
B(  0-C ,  1-C ) :   1.0314 B(  0-C ,  4-H ) :   0.9267 B(  0-C ,  5-H ) :   0.9434
B(  0-C ,  6-H ) :   0.9285 B(  1-C ,  2-O ) :   2.1822 B(  1-C ,  3-C ) :   1.0771
B(  3-C ,  7-H ) :   0.9238 B(  3-C ,  8-H ) :   0.9387 B(  3-C ,  9-H ) :   0.9253

Dispersion correction           -0.005334196
FINAL SINGLE POINT ENERGY      -192.715487901914

DIPOLE MOMENT
-------------

Method             : SCF
Type of density    : Electron Density
Multiplicity       :   1
Irrep              :   0
Energy             :  -192.7494847727842000 Eh
Relativity type    :
Basis              : AO
                                X                 Y                 Z
Electronic contribution:      0.011858547      -3.977134322      -0.004003700
Nuclear contribution   :     -0.067699394       5.006481367       0.007704943
                        -----------------------------------------
Total Dipole Moment    :     -0.055840847       1.029347045       0.003701243
                        -----------------------------------------
Magnitude (a.u.)       :      1.030867227
Magnitude (Debye)      :      2.620256255

Rotational constants in cm-1:             0.337715             0.291262             0.165925
Rotational constants in MHz :         10124.446452          8731.817810          4974.305664

                             ****ORCA TERMINATED NORMALLY****
TOTAL RUN TIME: 0 days 0 hours 0 minutes 3 seconds 813 msec
