                         Program Version 6.0.0  -   RELEASE  -
|  1> ! pbe def2-sv(p) def2/J RI DEFGRID1 loosescf d4 GCP(DFT/SV(P)) printgap
|  2> %output
|  3>     printlevel normal
|  4> end
|  5> * xyz 0 1
|  6> C 2.1208131296 2.3099584214 1.7336475005
|  7> C 1.2874896588 1.1593612602 2.2556734841
|  8> O 1.8264749777 -0.1464484512 1.936478402
|  9> P 2.4011428942 -0.6821016767 0.5731747269
| 10> S 2.5457885136 -2.6310309804 0.690543275
| 11> O 3.7514142962 0.1380038036 0.4232123712
| 12> C 4.5061520758 0.294679794 -0.7922661743
| 13> C 4.8680535562 -1.02661183 -1.4374067205
| 14> S 1.1888439397 0.0511360386 -1.0293197426
| 15> C 0.008323661 -1.3124255288 -1.0195563514
| 16> S -1.1327963292 -1.2471808024 0.3894571975
| 17> P -2.2719164736 0.3829445206 -0.3366399742
| 18> S -2.64674995 0.4197899316 -2.2638293376
| 19> O -1.4048982019 1.5840273991 0.2259044381
| 20> C -1.4575883553 2.9065488058 -0.3515947058
| 21> C -2.7813174706 3.5852260589 -0.0711546945
| 22> O -3.5463135313 0.4327787237 0.6094939969
| 23> C -4.7653411313 -0.2634153716 0.2988207344
| 24> C -4.5994824429 -1.7674317971 0.3759730155
| 25> H 1.7071454222 3.2401730878 2.1119571717
| 26> H 3.1496754854 2.2132782295 2.0704768429
| 27> H 2.1042454133 2.3304170773 0.6453404035
| 28> H 0.268384958 1.2022193648 1.8617734572
| 29> H 1.2547894187 1.1512444374 3.346588941
| 30> H 3.9209908644 0.9116811189 -1.4799996852
| 31> H 5.3969683095 0.8378346265 -0.4719263232
| 32> H 5.3853670932 -1.6669491216 -0.7268777585
| 33> H 3.9689186187 -1.5428622531 -1.7706217348
| 34> H 5.5100733272 -0.8459261941 -2.2935307722
| 35> H 0.5505702919 -2.255750942 -0.9375714724
| 36> H -0.5583146996 -1.2520859915 -1.9489699851
| 37> H -0.6240729212 3.4310238199 0.1169647802
| 38> H -1.28379078 2.8197176552 -1.4287103961
| 39> H -2.9865728755 3.5831419747 0.996087563
| 40> H -2.745384342 4.6082425838 -0.4321443869
| 41> H -3.5839949722 3.0572164009 -0.5846184349
| 42> H -5.4736415124 0.1027506823 1.0431424638
| 43> H -5.088417301 0.0352871731 -0.7037001481
| 44> H -3.9318185673 -2.1105737351 -0.413714159
| 45> H -4.1780135913 -2.0534175423 1.33664247
| 46> H -5.5664074026 -2.2439251017 0.2498948156
| 47> *
| 48>
| 49>                          ****END OF INPUT****

CARTESIAN COORDINATES (ANGSTROEM)
---------------------------------
  C      2.120813    2.309958    1.733648
  C      1.287490    1.159361    2.255673
  O      1.826475   -0.146448    1.936478
  P      2.401143   -0.682102    0.573175
  S      2.545789   -2.631031    0.690543
  O      3.751414    0.138004    0.423212
  C      4.506152    0.294680   -0.792266
  C      4.868054   -1.026612   -1.437407
  S      1.188844    0.051136   -1.029320
  C      0.008324   -1.312426   -1.019556
  S     -1.132796   -1.247181    0.389457
  P     -2.271916    0.382945   -0.336640
  S     -2.646750    0.419790   -2.263829
  O     -1.404898    1.584027    0.225904
  C     -1.457588    2.906549   -0.351595
  C     -2.781317    3.585226   -0.071155
  O     -3.546314    0.432779    0.609494
  C     -4.765341   -0.263415    0.298821
  C     -4.599482   -1.767432    0.375973
  H      1.707145    3.240173    2.111957
  H      3.149675    2.213278    2.070477
  H      2.104245    2.330417    0.645340
  H      0.268385    1.202219    1.861773
  H      1.254789    1.151244    3.346589
  H      3.920991    0.911681   -1.480000
  H      5.396968    0.837835   -0.471926
  H      5.385367   -1.666949   -0.726878
  H      3.968919   -1.542862   -1.770622
  H      5.510073   -0.845926   -2.293531
  H      0.550570   -2.255751   -0.937571
  H     -0.558315   -1.252086   -1.948970
  H     -0.624073    3.431024    0.116965
  H     -1.283791    2.819718   -1.428710
  H     -2.986573    3.583142    0.996088
  H     -2.745384    4.608243   -0.432144
  H     -3.583995    3.057216   -0.584618
  H     -5.473642    0.102751    1.043142
  H     -5.088417    0.035287   -0.703700
  H     -3.931819   -2.110574   -0.413714
  H     -4.178014   -2.053418    1.336642
  H     -5.566407   -2.243925    0.249895

 Total Charge           Charge          ....    0
 Multiplicity           Mult            ....    1
 Number of Electrons    NEL             ....  202
 Basis Dimension        Dim             ....  334

ORBITAL ENERGIES
----------------

  NO   OCC          E(Eh)            E(eV)
   0   2.0000     -88.044803     -2395.8209
   1   2.0000     -88.043998     -2395.7990
   2   2.0000     -87.995995     -2394.4928
   3   2.0000     -87.977824     -2393.9983
   4   2.0000     -76.431871     -2079.8169
   5   2.0000     -76.424987     -2079.6296
   6   2.0000     -18.799749      -511.5672
   7   2.0000     -18.797513      -511.5063
   8   2.0000     -18.793594      -511.3997
   9   2.0000     -18.785616      -511.1826
  10   2.0000      -9.958500      -270.9846
  11   2.0000      -9.957842      -270.9667
  12   2.0000      -9.957576      -270.9594
  13   2.0000      -9.952443      -270.8197
  14   2.0000      -9.949491      -270.7394
  15   2.0000      -9.889915      -269.1183
  16   2.0000      -9.888355      -269.0758
  17   2.0000      -9.887160      -269.0433
  18   2.0000      -9.881780      -268.8969
  19   2.0000      -7.689764      -209.2491
  20   2.0000      -7.688671      -209.2194
  21   2.0000      -7.640819      -207.9173
  22   2.0000      -7.623214      -207.4382
  23   2.0000      -6.429595      -174.9582
  24   2.0000      -6.421842      -174.7472
  25   2.0000      -5.717551      -155.5825
  26   2.0000      -5.716291      -155.5482
  27   2.0000      -5.714469      -155.4986
  28   2.0000      -5.713202      -155.4641
  29   2.0000      -5.706644      -155.2857
  30   2.0000      -5.705964      -155.2672
  31   2.0000      -5.669546      -154.2762
  32   2.0000      -5.661497      -154.0572
  33   2.0000      -5.661154      -154.0478
  34   2.0000      -5.652294      -153.8067
  35   2.0000      -5.643832      -153.5765
  36   2.0000      -5.643146      -153.5578
  37   2.0000      -4.652040      -126.5885
  38   2.0000      -4.651320      -126.5689
  39   2.0000      -4.650151      -126.5370
  40   2.0000      -4.644584      -126.3856
  41   2.0000      -4.644069      -126.3715
  42   2.0000      -4.641819      -126.3103
  43   2.0000      -0.993867       -27.0445
  44   2.0000      -0.984701       -26.7951
  45   2.0000      -0.953219       -25.9384
  46   2.0000      -0.942071       -25.6350
  47   2.0000      -0.766219       -20.8499
  48   2.0000      -0.723446       -19.6860
  49   2.0000      -0.711857       -19.3706
  50   2.0000      -0.692219       -18.8362
  51   2.0000      -0.690308       -18.7842
  52   2.0000      -0.679184       -18.4815
  53   2.0000      -0.653692       -17.7879
  54   2.0000      -0.639032       -17.3890
  55   2.0000      -0.606565       -16.5055
  56   2.0000      -0.590523       -16.0690
  57   2.0000      -0.578296       -15.7362
  58   2.0000      -0.577665       -15.7191
  59   2.0000      -0.564000       -15.3472
  60   2.0000      -0.501313       -13.6414
  61   2.0000      -0.490838       -13.3564
  62   2.0000      -0.478945       -13.0328
  63   2.0000      -0.469531       -12.7766
  64   2.0000      -0.461657       -12.5623
  65   2.0000      -0.448557       -12.2058
  66   2.0000      -0.444585       -12.0978
  67   2.0000      -0.438099       -11.9213
  68   2.0000      -0.431127       -11.7316
  69   2.0000      -0.418338       -11.3836
  70   2.0000      -0.411723       -11.2036
  71   2.0000      -0.402529       -10.9534
  72   2.0000      -0.398452       -10.8424
  73   2.0000      -0.393247       -10.7008
  74   2.0000      -0.388817       -10.5802
  75   2.0000      -0.377483       -10.2718
  76   2.0000      -0.366996        -9.9865
  77   2.0000      -0.359552        -9.7839
  78   2.0000      -0.353713        -9.6250
  79   2.0000      -0.352261        -9.5855
  80   2.0000      -0.350124        -9.5274
  81   2.0000      -0.345514        -9.4019
  82   2.0000      -0.345304        -9.3962
  83   2.0000      -0.341235        -9.2855
  84   2.0000      -0.339149        -9.2287
  85   2.0000      -0.324510        -8.8304
  86   2.0000      -0.315145        -8.5755
  87   2.0000      -0.300655        -8.1812
  88   2.0000      -0.294992        -8.0271
  89   2.0000      -0.290241        -7.8979
  90   2.0000      -0.283775        -7.7219
  91   2.0000      -0.280232        -7.6255
  92   2.0000      -0.271707        -7.3935
  93   2.0000      -0.269048        -7.3212
  94   2.0000      -0.259597        -7.0640
  95   2.0000      -0.237110        -6.4521
  96   2.0000      -0.220941        -6.0121
  97   2.0000      -0.216864        -5.9012
  98   2.0000      -0.208897        -5.6844
  99   2.0000      -0.197622        -5.3776
 100   2.0000      -0.192579        -5.2403
 101   0.0000      -0.045950        -1.2504
 102   0.0000      -0.026916        -0.7324
 103   0.0000      -0.006331        -0.1723
 104   0.0000      -0.000300        -0.0082
 105   0.0000       0.013117         0.3569

MULLIKEN ATOMIC CHARGES
-----------------------
   0 C :   -0.323930
   1 C :   -0.014250
   2 O :   -0.354433
   3 P :    0.601752
   4 S :   -0.314974
   5 O :   -0.375330
   6 C :   -0.009445
   7 C :   -0.306412
   8 S :   -0.113999
   9 C :   -0.370803
  10 S :   -0.056798
  11 P :    0.612000
  12 S :   -0.334506
  13 O :   -0.359264
  14 C :   -0.006434
  15 C :   -0.305910
  16 O :   -0.370163
  17 C :   -0.006543
  18 C :   -0.317493
  19 H :    0.112395
  20 H :    0.124949
  21 H :    0.117604
  22 H :    0.135937
  23 H :    0.105833
  24 H :    0.109238
  25 H :    0.108500
  26 H :    0.128009
  27 H :    0.124383
  28 H :    0.110017
  29 H :    0.196896
  30 H :    0.192555
  31 H :    0.105269
  32 H :    0.114212
  33 H :    0.117312
  34 H :    0.113921
  35 H :    0.123622
  36 H :    0.107648
  37 H :    0.112089
  38 H :    0.128864
  39 H :    0.122163
  40 H :    0.115520
Sum of atomic charges:   -0.0000000

LOEWDIN ATOMIC CHARGES
----------------------
   0 C :   -0.369021
   1 C :   -0.115233
   2 O :   -0.231529
   3 P :    0.570794
   4 S :   -0.311139
   5 O :   -0.241597
   6 C :   -0.114478
   7 C :   -0.368759
   8 S :    0.063820
   9 C :   -0.489349
  10 S :    0.105355
  11 P :    0.574776
  12 S :   -0.320767
  13 O :   -0.235514
  14 C :   -0.117514
  15 C :   -0.363968
  16 O :   -0.241881
  17 C :   -0.118809
  18 C :   -0.369218
  19 H :    0.128919
  20 H :    0.128194
  21 H :    0.114835
  22 H :    0.112735
  23 H :    0.121573
  24 H :    0.106561
  25 H :    0.120880
  26 H :    0.130995
  27 H :    0.121120
  28 H :    0.129466
  29 H :    0.128883
  30 H :    0.128058
  31 H :    0.116568
  32 H :    0.111711
  33 H :    0.126818
  34 H :    0.131359
  35 H :    0.123332
  36 H :    0.119898
  37 H :    0.111008
  38 H :    0.122236
  39 H :    0.126422
  40 H :    0.132461

  Mayer bond orders larger than 0.100000
B(  0-C ,  1-C ) :   1.1706 B(  0-C , 19-H ) :   0.9342 B(  0-C , 20-H ) :   0.9406
B(  0-C , 21-H ) :   0.9377 B(  1-C ,  2-O ) :   0.8958 B(  1-C , 22-H ) :   0.9051
B(  1-C , 23-H ) :   0.9338 B(  2-O ,  3-P ) :   1.1535 B(  3-P ,  4-S ) :   1.6336
B(  3-P ,  5-O ) :   1.0933 B(  3-P ,  8-S ) :   0.9236 B(  4-S ,  8-S ) :   0.1096
B(  5-O ,  6-C ) :   0.9124 B(  6-C ,  7-C ) :   1.1676 B(  6-C , 24-H ) :   0.9256
B(  6-C , 25-H ) :   0.9335 B(  7-C , 26-H ) :   0.9427 B(  7-C , 27-H ) :   0.9329
B(  7-C , 28-H ) :   0.9349 B(  8-S ,  9-C ) :   1.0094 B(  9-C , 10-S ) :   1.0037
B(  9-C , 29-H ) :   0.8629 B(  9-C , 30-H ) :   0.8722 B( 10-S , 11-P ) :   0.9669
B( 10-S , 12-S ) :   0.1094 B( 11-P , 12-S ) :   1.5862 B( 11-P , 13-O ) :   1.1105
B( 11-P , 16-O ) :   1.1152 B( 13-O , 14-C ) :   0.8990 B( 14-C , 15-C ) :   1.1645
B( 14-C , 31-H ) :   0.9310 B( 14-C , 32-H ) :   0.9160 B( 15-C , 33-H ) :   0.9461
B( 15-C , 34-H ) :   0.9390 B( 15-C , 35-H ) :   0.9365 B( 16-O , 17-C ) :   0.9051
B( 17-C , 18-C ) :   1.1663 B( 17-C , 36-H ) :   0.9335 B( 17-C , 37-H ) :   0.9168
B( 18-C , 38-H ) :   0.9353 B( 18-C , 39-H ) :   0.9444 B( 18-C , 40-H ) :   0.9375

Dispersion correction           -0.066623308
FINAL SINGLE POINT ENERGY     -2929.520308320653

DIPOLE MOMENT
-------------

Method             : SCF
Type of density    : Electron Density
Multiplicity       :   1
Irrep              :   0
Energy             : -2929.6398722284393443 Eh
Relativity type    :
Basis              : AO
                                X                 Y                 Z
Electronic contribution:      2.315257662     -13.296416578      -0.395766759
Nuclear contribution   :     -2.734859951      14.986813894       0.450261772
                        -----------------------------------------
Total Dipole Moment    :     -0.419602289       1.690397316       0.054495013
                        -----------------------------------------
Magnitude (a.u.)       :      1.742549532
Magnitude (Debye)      :      4.429208916

Rotational constants in cm-1:             0.013175             0.004864             0.004445
Rotational constants in MHz :           394.972042           145.815126           133.259604

                             ****ORCA TERMINATED NORMALLY****
TOTAL RUN TIME: 0 days 0 hours 0 minutes 21 seconds 338 msec
