                         Program Version 6.0.0  -   RELEASE  -
|  1> ! pbe def2-sv(p) def2/J RI DEFGRID1 loosescf d4 GCP(DFT/SV(P)) printgap
|  2> %output
|  3>     printlevel normal
|  4> end
|  5> * xyz 0 1
|  6> C 1.5947749393 0.1682222962 3.1246669602
|  7> C 2.1367459726 0.9906089787 1.9729944352
|  8> O 3.0418742205 0.2486932366 1.1394356196
|  9> P 2.634949834 -0.9427290314 0.1655856927
| 10> S 2.2086688251 -2.6594496753 1.0062727829
| 11> O 3.9282333304 -1.099833315 -0.7142662093
| 12> C 4.3720060814 -0.2327683017 -1.7866265513
| 13> C 4.4316491032 1.2273232055 -1.3939512483
| 14> S 1.1295849563 -0.1419870673 -1.1333425581
| 15> C -0.2700249952 -1.1300685489 -0.5527317426
| 16> S -1.2014897369 -0.3117381422 0.7681031942
| 17> P -2.5923554068 0.6908306533 -0.5050255367
| 18> S -1.9295997286 1.3707633812 -2.2140125273
| 19> O -3.2808883611 1.7460378438 0.4644927833
| 20> C -2.7762647931 3.084024351 0.6390543142
| 21> C -1.3512786973 3.0999342758 1.1520665368
| 22> O -3.7483365368 -0.3602796774 -0.7314953173
| 23> C -4.4721719069 -0.9937238042 0.3564936735
| 24> C -4.1453740205 -2.4731305405 0.4036292396
| 25> H 2.4122400985 -0.2856744111 3.6788145599
| 26> H 1.0247863866 0.8116986813 3.7867950401
| 27> H 0.9438020062 -0.6230650283 2.7569688019
| 28> H 2.7429986657 1.8239445914 2.3325719037
| 29> H 1.3201116834 1.3717744198 1.3523858235
| 30> H 5.3614755045 -0.6254708786 -2.0263866811
| 31> H 3.6999621841 -0.3791354612 -2.6361656032
| 32> H 4.8858986494 1.7904446393 -2.2035755247
| 33> H 3.4288846669 1.6129234047 -1.2192653534
| 34> H 5.0246694555 1.3511570524 -0.4916956626
| 35> H 0.1115905717 -2.0716332657 -0.1501671094
| 36> H -0.9245509591 -1.2924472474 -1.4070262346
| 37> H -2.8435456291 3.6023282765 -0.321870675
| 38> H -3.4698837992 3.530163008 1.3531187907
| 39> H -0.6853389497 2.6971766404 0.3889351044
| 40> H -1.0582683261 4.1223752541 1.3672996103
| 41> H -1.2657293035 2.4998047497 2.054894561
| 42> H -4.2154185968 -0.4979966598 1.2948527732
| 43> H -5.5260199762 -0.826994356 0.1294548611
| 44> H -4.3304005845 -2.9267277824 -0.5663181649
| 45> H -3.1030710155 -2.628997531 0.67260605
| 46> H -4.7750066338 -2.9512959881 1.1471994566
| 47> *
| 48>
| 49>                          ****END OF INPUT****

CARTESIAN COORDINATES (ANGSTROEM)
---------------------------------
  C      1.594775    0.168222    3.124667
  C      2.136746    0.990609    1.972994
  O      3.041874    0.248693    1.139436
  P      2.634950   -0.942729    0.165586
  S      2.208669   -2.659450    1.006273
  O      3.928233   -1.099833   -0.714266
  C      4.372006   -0.232768   -1.786627
  C      4.431649    1.227323   -1.393951
  S      1.129585   -0.141987   -1.133343
  C     -0.270025   -1.130069   -0.552732
  S     -1.201490   -0.311738    0.768103
  P     -2.592355    0.690831   -0.505026
  S     -1.929600    1.370763   -2.214013
  O     -3.280888    1.746038    0.464493
  C     -2.776265    3.084024    0.639054
  C     -1.351279    3.099934    1.152067
  O     -3.748337   -0.360280   -0.731495
  C     -4.472172   -0.993724    0.356494
  C     -4.145374   -2.473131    0.403629
  H      2.412240   -0.285674    3.678815
  H      1.024786    0.811699    3.786795
  H      0.943802   -0.623065    2.756969
  H      2.742999    1.823945    2.332572
  H      1.320112    1.371774    1.352386
  H      5.361476   -0.625471   -2.026387
  H      3.699962   -0.379135   -2.636166
  H      4.885899    1.790445   -2.203576
  H      3.428885    1.612923   -1.219265
  H      5.024669    1.351157   -0.491696
  H      0.111591   -2.071633   -0.150167
  H     -0.924551   -1.292447   -1.407026
  H     -2.843546    3.602328   -0.321871
  H     -3.469884    3.530163    1.353119
  H     -0.685339    2.697177    0.388935
  H     -1.058268    4.122375    1.367300
  H     -1.265729    2.499805    2.054895
  H     -4.215419   -0.497997    1.294853
  H     -5.526020   -0.826994    0.129455
  H     -4.330401   -2.926728   -0.566318
  H     -3.103071   -2.628998    0.672606
  H     -4.775007   -2.951296    1.147199

 Total Charge           Charge          ....    0
 Multiplicity           Mult            ....    1
 Number of Electrons    NEL             ....  202
 Basis Dimension        Dim             ....  334

ORBITAL ENERGIES
----------------

  NO   OCC          E(Eh)            E(eV)
   0   2.0000     -88.048021     -2395.9084
   1   2.0000     -88.044744     -2395.8193
   2   2.0000     -87.991779     -2394.3780
   3   2.0000     -87.982254     -2394.1188
   4   2.0000     -76.431704     -2079.8124
   5   2.0000     -76.424695     -2079.6217
   6   2.0000     -18.800325      -511.5828
   7   2.0000     -18.794519      -511.4249
   8   2.0000     -18.789915      -511.2996
   9   2.0000     -18.789122      -511.2780
  10   2.0000      -9.961257      -271.0596
  11   2.0000      -9.960110      -271.0284
  12   2.0000      -9.958574      -270.9866
  13   2.0000      -9.954862      -270.8856
  14   2.0000      -9.953213      -270.8407
  15   2.0000      -9.891792      -269.1693
  16   2.0000      -9.890573      -269.1362
  17   2.0000      -9.889230      -269.0996
  18   2.0000      -9.879595      -268.8375
  19   2.0000      -7.692438      -209.3219
  20   2.0000      -7.688957      -209.2272
  21   2.0000      -7.636944      -207.8118
  22   2.0000      -7.627476      -207.5542
  23   2.0000      -6.429156      -174.9462
  24   2.0000      -6.422064      -174.7532
  25   2.0000      -5.720075      -155.6512
  26   2.0000      -5.717056      -155.5690
  27   2.0000      -5.716742      -155.5604
  28   2.0000      -5.713464      -155.4713
  29   2.0000      -5.709622      -155.3667
  30   2.0000      -5.706216      -155.2740
  31   2.0000      -5.666025      -154.1804
  32   2.0000      -5.657435      -153.9466
  33   2.0000      -5.657080      -153.9370
  34   2.0000      -5.656487      -153.9208
  35   2.0000      -5.648257      -153.6969
  36   2.0000      -5.647322      -153.6714
  37   2.0000      -4.652053      -126.5888
  38   2.0000      -4.650856      -126.5562
  39   2.0000      -4.649400      -126.5166
  40   2.0000      -4.644721      -126.3893
  41   2.0000      -4.644068      -126.3715
  42   2.0000      -4.642232      -126.3216
  43   2.0000      -0.993401       -27.0318
  44   2.0000      -0.985216       -26.8091
  45   2.0000      -0.950109       -25.8538
  46   2.0000      -0.943410       -25.6715
  47   2.0000      -0.764853       -20.8127
  48   2.0000      -0.723971       -19.7002
  49   2.0000      -0.715291       -19.4641
  50   2.0000      -0.695537       -18.9265
  51   2.0000      -0.690762       -18.7966
  52   2.0000      -0.679874       -18.5003
  53   2.0000      -0.652665       -17.7599
  54   2.0000      -0.640468       -17.4280
  55   2.0000      -0.600689       -16.3456
  56   2.0000      -0.592853       -16.1324
  57   2.0000      -0.579621       -15.7723
  58   2.0000      -0.575959       -15.6726
  59   2.0000      -0.564546       -15.3621
  60   2.0000      -0.509372       -13.8607
  61   2.0000      -0.494578       -13.4581
  62   2.0000      -0.477067       -12.9817
  63   2.0000      -0.474075       -12.9002
  64   2.0000      -0.462284       -12.5794
  65   2.0000      -0.449624       -12.2349
  66   2.0000      -0.447513       -12.1775
  67   2.0000      -0.440099       -11.9757
  68   2.0000      -0.435622       -11.8539
  69   2.0000      -0.426277       -11.5996
  70   2.0000      -0.408085       -11.1046
  71   2.0000      -0.403154       -10.9704
  72   2.0000      -0.399381       -10.8677
  73   2.0000      -0.392495       -10.6803
  74   2.0000      -0.380581       -10.3561
  75   2.0000      -0.373983       -10.1766
  76   2.0000      -0.364676        -9.9233
  77   2.0000      -0.360481        -9.8092
  78   2.0000      -0.357504        -9.7282
  79   2.0000      -0.354170        -9.6375
  80   2.0000      -0.352285        -9.5862
  81   2.0000      -0.349061        -9.4984
  82   2.0000      -0.346872        -9.4389
  83   2.0000      -0.343139        -9.3373
  84   2.0000      -0.335647        -9.1334
  85   2.0000      -0.319141        -8.6843
  86   2.0000      -0.315998        -8.5988
  87   2.0000      -0.305930        -8.3248
  88   2.0000      -0.301607        -8.2071
  89   2.0000      -0.293162        -7.9773
  90   2.0000      -0.286184        -7.7874
  91   2.0000      -0.276131        -7.5139
  92   2.0000      -0.275134        -7.4868
  93   2.0000      -0.266680        -7.2567
  94   2.0000      -0.261018        -7.1026
  95   2.0000      -0.240869        -6.5544
  96   2.0000      -0.219292        -5.9672
  97   2.0000      -0.213920        -5.8211
  98   2.0000      -0.206804        -5.6274
  99   2.0000      -0.200756        -5.4628
 100   2.0000      -0.194743        -5.2992
 101   0.0000      -0.047346        -1.2883
 102   0.0000      -0.036195        -0.9849
 103   0.0000      -0.012300        -0.3347
 104   0.0000       0.005522         0.1503
 105   0.0000       0.012135         0.3302

MULLIKEN ATOMIC CHARGES
-----------------------
   0 C :   -0.301859
   1 C :   -0.035192
   2 O :   -0.369498
   3 P :    0.595297
   4 S :   -0.311084
   5 O :   -0.359410
   6 C :   -0.003913
   7 C :   -0.319283
   8 S :   -0.097129
   9 C :   -0.345734
  10 S :   -0.102870
  11 P :    0.583633
  12 S :   -0.304515
  13 O :   -0.381135
  14 C :    0.014078
  15 C :   -0.358311
  16 O :   -0.357254
  17 C :   -0.012009
  18 C :   -0.289139
  19 H :    0.120069
  20 H :    0.105024
  21 H :    0.127378
  22 H :    0.103170
  23 H :    0.127911
  24 H :    0.113762
  25 H :    0.116774
  26 H :    0.116961
  27 H :    0.125716
  28 H :    0.127007
  29 H :    0.194321
  30 H :    0.191959
  31 H :    0.114629
  32 H :    0.107064
  33 H :    0.150549
  34 H :    0.116388
  35 H :    0.122703
  36 H :    0.106473
  37 H :    0.113451
  38 H :    0.121159
  39 H :    0.121418
  40 H :    0.111439
Sum of atomic charges:    0.0000000

LOEWDIN ATOMIC CHARGES
----------------------
   0 C :   -0.367362
   1 C :   -0.121264
   2 O :   -0.242130
   3 P :    0.565271
   4 S :   -0.304096
   5 O :   -0.234258
   6 C :   -0.111113
   7 C :   -0.368086
   8 S :    0.079236
   9 C :   -0.485598
  10 S :    0.082132
  11 P :    0.570386
  12 S :   -0.308370
  13 O :   -0.248924
  14 C :   -0.112209
  15 C :   -0.377735
  16 O :   -0.241537
  17 C :   -0.113216
  18 C :   -0.358983
  19 H :    0.128980
  20 H :    0.126766
  21 H :    0.113632
  22 H :    0.118411
  23 H :    0.104114
  24 H :    0.124458
  25 H :    0.113445
  26 H :    0.133046
  27 H :    0.118910
  28 H :    0.130582
  29 H :    0.125165
  30 H :    0.133236
  31 H :    0.115875
  32 H :    0.119956
  33 H :    0.122852
  34 H :    0.132726
  35 H :    0.122032
  36 H :    0.108492
  37 H :    0.122817
  38 H :    0.129474
  39 H :    0.122008
  40 H :    0.130880

  Mayer bond orders larger than 0.100000
B(  0-C ,  1-C ) :   1.1659 B(  0-C , 19-H ) :   0.9436 B(  0-C , 20-H ) :   0.9367
B(  0-C , 21-H ) :   0.9280 B(  1-C ,  2-O ) :   0.9166 B(  1-C , 22-H ) :   0.9341
B(  1-C , 23-H ) :   0.9058 B(  2-O ,  3-P ) :   1.0855 B(  3-P ,  4-S ) :   1.6324
B(  3-P ,  5-O ) :   1.1490 B(  3-P ,  8-S ) :   0.9316 B(  4-S ,  8-S ) :   0.1131
B(  4-S , 29-H ) :   0.1208 B(  5-O ,  6-C ) :   0.9035 B(  6-C ,  7-C ) :   1.1672
B(  6-C , 24-H ) :   0.9347 B(  6-C , 25-H ) :   0.9254 B(  7-C , 26-H ) :   0.9345
B(  7-C , 27-H ) :   0.9392 B(  7-C , 28-H ) :   0.9418 B(  8-S ,  9-C ) :   1.0207
B(  9-C , 10-S ) :   0.9879 B(  9-C , 29-H ) :   0.8466 B(  9-C , 30-H ) :   0.8862
B( 10-S , 11-P ) :   0.9453 B( 10-S , 12-S ) :   0.1099 B( 11-P , 12-S ) :   1.6282
B( 11-P , 13-O ) :   1.0946 B( 11-P , 16-O ) :   1.1365 B( 13-O , 14-C ) :   0.9038
B( 14-C , 15-C ) :   1.1636 B( 14-C , 31-H ) :   0.9219 B( 14-C , 32-H ) :   0.9339
B( 15-C , 33-H ) :   0.9196 B( 15-C , 34-H ) :   0.9346 B( 15-C , 35-H ) :   0.9406
B( 16-O , 17-C ) :   0.8860 B( 17-C , 18-C ) :   1.1639 B( 17-C , 36-H ) :   0.9176
B( 17-C , 37-H ) :   0.9334 B( 18-C , 38-H ) :   0.9461 B( 18-C , 39-H ) :   0.9395
B( 18-C , 40-H ) :   0.9399

Dispersion correction           -0.064691481
FINAL SINGLE POINT ENERGY     -2929.515818184488

DIPOLE MOMENT
-------------

Method             : SCF
Type of density    : Electron Density
Multiplicity       :   1
Irrep              :   0
Energy             : -2929.6361071537858152 Eh
Relativity type    :
Basis              : AO
                                X                 Y                 Z
Electronic contribution:      0.709639249      -8.502169222     -10.237530317
Nuclear contribution   :     -1.209027346       9.763046671      10.946341282
                        -----------------------------------------
Total Dipole Moment    :     -0.499388097       1.260877448       0.708810965
                        -----------------------------------------
Magnitude (a.u.)       :      1.530233118
Magnitude (Debye)      :      3.889543478

Rotational constants in cm-1:             0.011828             0.004670             0.004401
Rotational constants in MHz :           354.592158           140.002057           131.935670

                             ****ORCA TERMINATED NORMALLY****
TOTAL RUN TIME: 0 days 0 hours 0 minutes 21 seconds 78 msec
