                         Program Version 6.0.0  -   RELEASE  -
|  1> ! pbe def2-sv(p) def2/J RI DEFGRID1 loosescf d4 GCP(DFT/SV(P)) printgap
|  2> %output
|  3>     printlevel normal
|  4> end
|  5> * xyz 0 1
|  6> C 3.7558300322 2.2216684157 0.3788797892
|  7> C 2.6237432389 1.6427483374 -0.4437432032
|  8> O 1.6733016469 0.9445321502 0.3986448817
|  9> P 1.7097433479 -0.6023864731 0.6947122572
| 10> S 0.2372542888 -1.1735813935 1.84830005
| 11> O 3.1625563227 -0.8074635335 1.3073104333
| 12> C 3.5341198256 -1.9762149206 2.0595320399
| 13> C 3.583075295 -3.2237793406 1.2016888448
| 14> S 1.8496898734 -1.5467826382 -1.2086288483
| 15> C 0.1185182262 -1.409801995 -1.697790769
| 16> S -0.3909346413 0.3082694672 -2.0571387157
| 17> P -1.89004255 0.5730768267 -0.6139759096
| 18> S -2.8359610291 -1.0456739185 -0.0264208765
| 19> O -2.8237283491 1.6774754916 -1.282764749
| 20> C -3.8149644302 1.3400296547 -2.2755118743
| 21> C -5.1963251359 1.3009070416 -1.6517190928
| 22> O -1.1626586917 1.4493264706 0.4808614315
| 23> C -1.8002880218 1.7495196402 1.7432159044
| 24> C -0.7955245749 2.4913215299 2.5975960036
| 25> H 4.3298164338 1.4248864519 0.8438889486
| 26> H 4.4048949616 2.7980661117 -0.2729763879
| 27> H 3.3607574474 2.8701486137 1.1560547169
| 28> H 2.9997930654 0.9519037781 -1.2037762787
| 29> H 2.0316577914 2.4257614863 -0.9219979939
| 30> H 4.5174020372 -1.7247385335 2.4596544854
| 31> H 2.8195523847 -2.0995619115 2.8792452119
| 32> H 2.5781846159 -3.5047253989 0.8910774255
| 33> H 4.1886446871 -3.0508650459 0.3156628012
| 34> H 4.0110085235 -4.0370490981 1.7790346953
| 35> H -0.5294491768 -1.8061787639 -0.910502625
| 36> H 0.018441508 -1.9859746015 -2.6139485066
| 37> H -3.7369150741 2.1248617859 -3.0297405407
| 38> H -3.5638777583 0.3743833752 -2.7229160763
| 39> H -5.2449231599 0.5124183166 -0.9035171773
| 40> H -5.42023707 2.2520058119 -1.1769754786
| 41> H -5.9317488283 1.1015502934 -2.4242425996
| 42> H -2.6892782961 2.3533069993 1.5442020845
| 43> H -2.1014330611 0.8042274835 2.2081629961
| 44> H 0.0803745076 1.8664221155 2.7553004658
| 45> H -0.4905737952 3.4079341286 2.1015182031
| 46> H -1.2466756308 2.7255561589 3.5562059377
| 47> *
| 48>
| 49>                          ****END OF INPUT****

CARTESIAN COORDINATES (ANGSTROEM)
---------------------------------
  C      3.755830    2.221668    0.378880
  C      2.623743    1.642748   -0.443743
  O      1.673302    0.944532    0.398645
  P      1.709743   -0.602386    0.694712
  S      0.237254   -1.173581    1.848300
  O      3.162556   -0.807464    1.307310
  C      3.534120   -1.976215    2.059532
  C      3.583075   -3.223779    1.201689
  S      1.849690   -1.546783   -1.208629
  C      0.118518   -1.409802   -1.697791
  S     -0.390935    0.308269   -2.057139
  P     -1.890043    0.573077   -0.613976
  S     -2.835961   -1.045674   -0.026421
  O     -2.823728    1.677475   -1.282765
  C     -3.814964    1.340030   -2.275512
  C     -5.196325    1.300907   -1.651719
  O     -1.162659    1.449326    0.480861
  C     -1.800288    1.749520    1.743216
  C     -0.795525    2.491322    2.597596
  H      4.329816    1.424886    0.843889
  H      4.404895    2.798066   -0.272976
  H      3.360757    2.870149    1.156055
  H      2.999793    0.951904   -1.203776
  H      2.031658    2.425761   -0.921998
  H      4.517402   -1.724739    2.459654
  H      2.819552   -2.099562    2.879245
  H      2.578185   -3.504725    0.891077
  H      4.188645   -3.050865    0.315663
  H      4.011009   -4.037049    1.779035
  H     -0.529449   -1.806179   -0.910503
  H      0.018442   -1.985975   -2.613949
  H     -3.736915    2.124862   -3.029741
  H     -3.563878    0.374383   -2.722916
  H     -5.244923    0.512418   -0.903517
  H     -5.420237    2.252006   -1.176975
  H     -5.931749    1.101550   -2.424243
  H     -2.689278    2.353307    1.544202
  H     -2.101433    0.804227    2.208163
  H      0.080375    1.866422    2.755300
  H     -0.490574    3.407934    2.101518
  H     -1.246676    2.725556    3.556206

 Total Charge           Charge          ....    0
 Multiplicity           Mult            ....    1
 Number of Electrons    NEL             ....  202
 Basis Dimension        Dim             ....  334

ORBITAL ENERGIES
----------------

  NO   OCC          E(Eh)            E(eV)
   0   2.0000     -88.044638     -2395.8164
   1   2.0000     -88.041853     -2395.7406
   2   2.0000     -87.982836     -2394.1347
   3   2.0000     -87.979226     -2394.0365
   4   2.0000     -76.425177     -2079.6348
   5   2.0000     -76.419209     -2079.4724
   6   2.0000     -18.795855      -511.4612
   7   2.0000     -18.789426      -511.2863
   8   2.0000     -18.786154      -511.1972
   9   2.0000     -18.779098      -511.0052
  10   2.0000      -9.954693      -270.8810
  11   2.0000      -9.954193      -270.8674
  12   2.0000      -9.951706      -270.7997
  13   2.0000      -9.949004      -270.7262
  14   2.0000      -9.940142      -270.4850
  15   2.0000      -9.885416      -268.9958
  16   2.0000      -9.884690      -268.9761
  17   2.0000      -9.878139      -268.7978
  18   2.0000      -9.873057      -268.6595
  19   2.0000      -7.689622      -209.2453
  20   2.0000      -7.687192      -209.1791
  21   2.0000      -7.627760      -207.5619
  22   2.0000      -7.624233      -207.4659
  23   2.0000      -6.422593      -174.7676
  24   2.0000      -6.416993      -174.6153
  25   2.0000      -5.717455      -155.5799
  26   2.0000      -5.715028      -155.5138
  27   2.0000      -5.713955      -155.4846
  28   2.0000      -5.711636      -155.4215
  29   2.0000      -5.706813      -155.2903
  30   2.0000      -5.704195      -155.2190
  31   2.0000      -5.656718      -153.9271
  32   2.0000      -5.653079      -153.8281
  33   2.0000      -5.648264      -153.6971
  34   2.0000      -5.647969      -153.6890
  35   2.0000      -5.644964      -153.6073
  36   2.0000      -5.644344      -153.5904
  37   2.0000      -4.645494      -126.4103
  38   2.0000      -4.644386      -126.3802
  39   2.0000      -4.642730      -126.3351
  40   2.0000      -4.639379      -126.2439
  41   2.0000      -4.638611      -126.2230
  42   2.0000      -4.637726      -126.1989
  43   2.0000      -0.987977       -26.8842
  44   2.0000      -0.978874       -26.6365
  45   2.0000      -0.945337       -25.7239
  46   2.0000      -0.935338       -25.4518
  47   2.0000      -0.762310       -20.7435
  48   2.0000      -0.719250       -19.5718
  49   2.0000      -0.707044       -19.2396
  50   2.0000      -0.690332       -18.7849
  51   2.0000      -0.680044       -18.5049
  52   2.0000      -0.673092       -18.3158
  53   2.0000      -0.648451       -17.6452
  54   2.0000      -0.630618       -17.1600
  55   2.0000      -0.596566       -16.2334
  56   2.0000      -0.584356       -15.9011
  57   2.0000      -0.574479       -15.6324
  58   2.0000      -0.565484       -15.3876
  59   2.0000      -0.554056       -15.0766
  60   2.0000      -0.501686       -13.6516
  61   2.0000      -0.496370       -13.5069
  62   2.0000      -0.475169       -12.9300
  63   2.0000      -0.472354       -12.8534
  64   2.0000      -0.449726       -12.2377
  65   2.0000      -0.443934       -12.0800
  66   2.0000      -0.436150       -11.8682
  67   2.0000      -0.431734       -11.7481
  68   2.0000      -0.426024       -11.5927
  69   2.0000      -0.419113       -11.4046
  70   2.0000      -0.410822       -11.1790
  71   2.0000      -0.394387       -10.7318
  72   2.0000      -0.388475       -10.5709
  73   2.0000      -0.381115       -10.3707
  74   2.0000      -0.375191       -10.2095
  75   2.0000      -0.368037       -10.0148
  76   2.0000      -0.363099        -9.8804
  77   2.0000      -0.355710        -9.6794
  78   2.0000      -0.352631        -9.5956
  79   2.0000      -0.349849        -9.5199
  80   2.0000      -0.346278        -9.4227
  81   2.0000      -0.343143        -9.3374
  82   2.0000      -0.337839        -9.1931
  83   2.0000      -0.328968        -8.9517
  84   2.0000      -0.323992        -8.8163
  85   2.0000      -0.315498        -8.5851
  86   2.0000      -0.309663        -8.4264
  87   2.0000      -0.296831        -8.0772
  88   2.0000      -0.292514        -7.9597
  89   2.0000      -0.291352        -7.9281
  90   2.0000      -0.280895        -7.6435
  91   2.0000      -0.270334        -7.3562
  92   2.0000      -0.264207        -7.1894
  93   2.0000      -0.260122        -7.0783
  94   2.0000      -0.257281        -7.0010
  95   2.0000      -0.237476        -6.4620
  96   2.0000      -0.222169        -6.0455
  97   2.0000      -0.213107        -5.7989
  98   2.0000      -0.203183        -5.5289
  99   2.0000      -0.192687        -5.2433
 100   2.0000      -0.183077        -4.9818
 101   0.0000      -0.038816        -1.0562
 102   0.0000      -0.028413        -0.7731
 103   0.0000      -0.009962        -0.2711
 104   0.0000       0.013370         0.3638
 105   0.0000       0.023042         0.6270

MULLIKEN ATOMIC CHARGES
-----------------------
   0 C :   -0.289230
   1 C :   -0.010781
   2 O :   -0.342312
   3 P :    0.600569
   4 S :   -0.294571
   5 O :   -0.381376
   6 C :   -0.000349
   7 C :   -0.321342
   8 S :   -0.103825
   9 C :   -0.356441
  10 S :   -0.095102
  11 P :    0.608875
  12 S :   -0.320707
  13 O :   -0.381981
  14 C :   -0.002207
  15 C :   -0.287656
  16 O :   -0.354470
  17 C :   -0.003301
  18 C :   -0.278543
  19 H :    0.120756
  20 H :    0.108342
  21 H :    0.117908
  22 H :    0.100945
  23 H :    0.109545
  24 H :    0.104274
  25 H :    0.112341
  26 H :    0.132240
  27 H :    0.116884
  28 H :    0.115239
  29 H :    0.208565
  30 H :    0.183090
  31 H :    0.103240
  32 H :    0.097064
  33 H :    0.124583
  34 H :    0.109950
  35 H :    0.106081
  36 H :    0.096357
  37 H :    0.113372
  38 H :    0.125212
  39 H :    0.105282
  40 H :    0.103480
Sum of atomic charges:    0.0000000

LOEWDIN ATOMIC CHARGES
----------------------
   0 C :   -0.360114
   1 C :   -0.118317
   2 O :   -0.224073
   3 P :    0.565204
   4 S :   -0.289223
   5 O :   -0.248063
   6 C :   -0.117800
   7 C :   -0.371583
   8 S :    0.078133
   9 C :   -0.480386
  10 S :    0.077536
  11 P :    0.566308
  12 S :   -0.312531
  13 O :   -0.253371
  14 C :   -0.117427
  15 C :   -0.360786
  16 O :   -0.232749
  17 C :   -0.115900
  18 C :   -0.352919
  19 H :    0.125159
  20 H :    0.129016
  21 H :    0.127454
  22 H :    0.101300
  23 H :    0.119407
  24 H :    0.118015
  25 H :    0.112548
  26 H :    0.123180
  27 H :    0.122963
  28 H :    0.132265
  29 H :    0.126643
  30 H :    0.137927
  31 H :    0.116317
  32 H :    0.106303
  33 H :    0.125153
  34 H :    0.123674
  35 H :    0.128029
  36 H :    0.107324
  37 H :    0.110535
  38 H :    0.125711
  39 H :    0.121923
  40 H :    0.127210

  Mayer bond orders larger than 0.100000
B(  0-C ,  1-C ) :   1.1632 B(  0-C , 19-H ) :   0.9411 B(  0-C , 20-H ) :   0.9399
B(  0-C , 21-H ) :   0.9477 B(  1-C ,  2-O ) :   0.8917 B(  1-C , 22-H ) :   0.9089
B(  1-C , 23-H ) :   0.9326 B(  2-O ,  3-P ) :   1.1441 B(  3-P ,  4-S ) :   1.6429
B(  3-P ,  5-O ) :   1.0802 B(  3-P ,  8-S ) :   0.9424 B(  4-S ,  8-S ) :   0.1033
B(  5-O ,  6-C ) :   0.9064 B(  6-C ,  7-C ) :   1.1665 B(  6-C , 24-H ) :   0.9339
B(  6-C , 25-H ) :   0.9159 B(  7-C , 26-H ) :   0.9348 B(  7-C , 27-H ) :   0.9438
B(  7-C , 28-H ) :   0.9372 B(  8-S ,  9-C ) :   1.0008 B(  9-C , 10-S ) :   0.9917
B(  9-C , 29-H ) :   0.8460 B(  9-C , 30-H ) :   0.9116 B( 10-S , 11-P ) :   0.9717
B( 10-S , 12-S ) :   0.1192 B( 11-P , 12-S ) :   1.6044 B( 11-P , 13-O ) :   1.0964
B( 11-P , 16-O ) :   1.1532 B( 13-O , 14-C ) :   0.9038 B( 14-C , 15-C ) :   1.1665
B( 14-C , 31-H ) :   0.9355 B( 14-C , 32-H ) :   0.9116 B( 15-C , 33-H ) :   0.9353
B( 15-C , 34-H ) :   0.9480 B( 15-C , 35-H ) :   0.9406 B( 16-O , 17-C ) :   0.8926
B( 17-C , 18-C ) :   1.1657 B( 17-C , 36-H ) :   0.9279 B( 17-C , 37-H ) :   0.9134
B( 18-C , 38-H ) :   0.9410 B( 18-C , 39-H ) :   0.9500 B( 18-C , 40-H ) :   0.9410

Dispersion correction           -0.067370147
FINAL SINGLE POINT ENERGY     -2929.522190919728

DIPOLE MOMENT
-------------

Method             : SCF
Type of density    : Electron Density
Multiplicity       :   1
Irrep              :   0
Energy             : -2929.6401127514027394 Eh
Relativity type    :
Basis              : AO
                                X                 Y                 Z
Electronic contribution:     -3.368424427      -8.715120484      -6.402339867
Nuclear contribution   :      4.320951326       9.354011154       5.902361959
                        -----------------------------------------
Total Dipole Moment    :      0.952526899       0.638890669      -0.499977907
                        -----------------------------------------
Magnitude (a.u.)       :      1.251186113
Magnitude (Debye)      :      3.180262359

Rotational constants in cm-1:             0.012904             0.005255             0.005052
Rotational constants in MHz :           386.838748           157.530464           151.456730

                             ****ORCA TERMINATED NORMALLY****
TOTAL RUN TIME: 0 days 0 hours 0 minutes 21 seconds 581 msec
