                         Program Version 6.0.1  -  RELEASE   -
|  1> ! pbe def2-sv(p) def2/J RI DEFGRID1 loosescf d4 GCP(DFT/SV(P)) printgap
|  2> %output
|  3>     printlevel normal
|  4> end
|  5> * xyz 0 1
|  6> C 5.1270305879 -2.9806019275 -0.9086939014
|  7> C 4.5260540107 -1.8838900553 -0.0434473511
|  8> O 3.0869779947 -1.9125537645 -0.0929775892
|  9> C 2.4840283626 -1.2834175705 -1.0786338278
| 10> O 3.0483922262 -0.6921567887 -1.9746753034
| 11> C 0.9739278028 -1.4146089531 -0.9817702166
| 12> C 0.3568147535 -0.0599451671 -1.3040056538
| 13> H 0.7127809165 0.2603091793 -2.2918534341
| 14> C 0.8345077664 1.0005156923 -0.3290387404
| 15> O 1.9095088373 0.9292085111 0.22029739
| 16> O 0.007603527 2.0247686378 -0.2488087282
| 17> C 0.4361624028 3.1872051504 0.4940599988
| 18> C 0.219910016 3.0333168738 1.9890994043
| 19> S -1.4498283848 -0.1075225424 -1.4675408588
| 20> P -2.0524603972 0.1048672108 0.5614913052
| 21> S -0.7847598822 -0.4499790988 1.9481014252
| 22> O -2.5891586233 1.5748098906 0.7712327273
| 23> C -3.5734256878 2.1622571388 -0.1037840227
| 24> O -3.4330915845 -0.7038250652 0.5658689484
| 25> C -3.4606232899 -2.131193988 0.4538435673
| 26> H 4.7365838144 -3.9488765422 -0.6080719583
| 27> H 4.8828429109 -2.806247796 -1.9539616243
| 28> H 6.2057132247 -2.9763577932 -0.7927023592
| 29> H 4.8616365423 -0.8963967674 -0.3731806421
| 30> H 4.7621071597 -2.0304998733 1.0105993649
| 31> H 0.7139337895 -1.7472715731 0.0237547759
| 32> H 0.6399570464 -2.15125986 -1.7139700756
| 33> H 1.4955566474 3.3499108905 0.2759082379
| 34> H -0.169948039 3.9952634773 0.0843155117
| 35> H 0.8258792969 2.2162229495 2.3757173237
| 36> H 0.5090299425 3.9535361525 2.4856059477
| 37> H -0.8245884641 2.8195707397 2.2023860827
| 38> H -3.2085984299 2.152444347 -1.1307009493
| 39> H -3.6980837175 3.1815490993 0.251923394
| 40> H -4.5082127907 1.6101814604 -0.0328901205
| 41> H -3.2183267785 -2.4265885076 -0.5665882824
| 42> H -4.4759775667 -2.4249319233 0.7074347147
| 43> H -2.7504641541 -2.5765266265 1.1521990368
| 44> *
| 45>
| 46>                          ****END OF INPUT****

CARTESIAN COORDINATES (ANGSTROEM)
---------------------------------
  C      5.127031   -2.980602   -0.908694
  C      4.526054   -1.883890   -0.043447
  O      3.086978   -1.912554   -0.092978
  C      2.484028   -1.283418   -1.078634
  O      3.048392   -0.692157   -1.974675
  C      0.973928   -1.414609   -0.981770
  C      0.356815   -0.059945   -1.304006
  H      0.712781    0.260309   -2.291853
  C      0.834508    1.000516   -0.329039
  O      1.909509    0.929209    0.220297
  O      0.007604    2.024769   -0.248809
  C      0.436162    3.187205    0.494060
  C      0.219910    3.033317    1.989099
  S     -1.449828   -0.107523   -1.467541
  P     -2.052460    0.104867    0.561491
  S     -0.784760   -0.449979    1.948101
  O     -2.589159    1.574810    0.771233
  C     -3.573426    2.162257   -0.103784
  O     -3.433092   -0.703825    0.565869
  C     -3.460623   -2.131194    0.453844
  H      4.736584   -3.948877   -0.608072
  H      4.882843   -2.806248   -1.953962
  H      6.205713   -2.976358   -0.792702
  H      4.861637   -0.896397   -0.373181
  H      4.762107   -2.030500    1.010599
  H      0.713934   -1.747272    0.023755
  H      0.639957   -2.151260   -1.713970
  H      1.495557    3.349911    0.275908
  H     -0.169948    3.995263    0.084316
  H      0.825879    2.216223    2.375717
  H      0.509030    3.953536    2.485606
  H     -0.824588    2.819571    2.202386
  H     -3.208598    2.152444   -1.130701
  H     -3.698084    3.181549    0.251923
  H     -4.508213    1.610181   -0.032890
  H     -3.218327   -2.426589   -0.566588
  H     -4.475978   -2.424932    0.707435
  H     -2.750464   -2.576527    1.152199

 Total Charge           Charge          ....    0
 Multiplicity           Mult            ....    1
 Number of Electrons    NEL             ....  174
 Basis Dimension        Dim             ....  316

ORBITAL ENERGIES
----------------

  NO   OCC          E(Eh)            E(eV)
   0   2.0000     -88.045099     -2395.8290
   1   2.0000     -87.990194     -2394.3349
   2   2.0000     -76.431611     -2079.8099
   3   2.0000     -18.807487      -511.7777
   4   2.0000     -18.800698      -511.5930
   5   2.0000     -18.798570      -511.5351
   6   2.0000     -18.788678      -511.2659
   7   2.0000     -18.738419      -509.8983
   8   2.0000     -18.724915      -509.5308
   9   2.0000     -10.017218      -272.5824
  10   2.0000      -9.998827      -272.0819
  11   2.0000      -9.955030      -270.8901
  12   2.0000      -9.949785      -270.7474
  13   2.0000      -9.948172      -270.7035
  14   2.0000      -9.946366      -270.6544
  15   2.0000      -9.936848      -270.3954
  16   2.0000      -9.898355      -269.3479
  17   2.0000      -9.879157      -268.8255
  18   2.0000      -9.872962      -268.6570
  19   2.0000      -7.689921      -209.2534
  20   2.0000      -7.635017      -207.7594
  21   2.0000      -6.428674      -174.9331
  22   2.0000      -5.717796      -155.5891
  23   2.0000      -5.714317      -155.4945
  24   2.0000      -5.707024      -155.2960
  25   2.0000      -5.664135      -154.1290
  26   2.0000      -5.655385      -153.8909
  27   2.0000      -5.655194      -153.8857
  28   2.0000      -4.651425      -126.5717
  29   2.0000      -4.650540      -126.5476
  30   2.0000      -4.648992      -126.5055
  31   2.0000      -1.014407       -27.6034
  32   2.0000      -0.997206       -27.1354
  33   2.0000      -0.993754       -27.0414
  34   2.0000      -0.949382       -25.8340
  35   2.0000      -0.920108       -25.0374
  36   2.0000      -0.902127       -24.5481
  37   2.0000      -0.765138       -20.8205
  38   2.0000      -0.707398       -19.2493
  39   2.0000      -0.701134       -19.0788
  40   2.0000      -0.689958       -18.7747
  41   2.0000      -0.657533       -17.8924
  42   2.0000      -0.643056       -17.4985
  43   2.0000      -0.627981       -17.0882
  44   2.0000      -0.613457       -16.6930
  45   2.0000      -0.591198       -16.0873
  46   2.0000      -0.559977       -15.2377
  47   2.0000      -0.522007       -14.2045
  48   2.0000      -0.494986       -13.4693
  49   2.0000      -0.490586       -13.3495
  50   2.0000      -0.480880       -13.0854
  51   2.0000      -0.478774       -13.0281
  52   2.0000      -0.456259       -12.4154
  53   2.0000      -0.439856       -11.9691
  54   2.0000      -0.438318       -11.9272
  55   2.0000      -0.431544       -11.7429
  56   2.0000      -0.421749       -11.4764
  57   2.0000      -0.418544       -11.3892
  58   2.0000      -0.413523       -11.2525
  59   2.0000      -0.408792       -11.1238
  60   2.0000      -0.406639       -11.0652
  61   2.0000      -0.393333       -10.7031
  62   2.0000      -0.389246       -10.5919
  63   2.0000      -0.384419       -10.4606
  64   2.0000      -0.367535       -10.0011
  65   2.0000      -0.362019        -9.8510
  66   2.0000      -0.352872        -9.6021
  67   2.0000      -0.348395        -9.4803
  68   2.0000      -0.340108        -9.2548
  69   2.0000      -0.336173        -9.1477
  70   2.0000      -0.327461        -8.9107
  71   2.0000      -0.320477        -8.7206
  72   2.0000      -0.318222        -8.6593
  73   2.0000      -0.313567        -8.5326
  74   2.0000      -0.310158        -8.4398
  75   2.0000      -0.303865        -8.2686
  76   2.0000      -0.295343        -8.0367
  77   2.0000      -0.283046        -7.7021
  78   2.0000      -0.275787        -7.5046
  79   2.0000      -0.268213        -7.2984
  80   2.0000      -0.261066        -7.1040
  81   2.0000      -0.246054        -6.6955
  82   2.0000      -0.240800        -6.5525
  83   2.0000      -0.220221        -5.9925
  84   2.0000      -0.210768        -5.7353
  85   2.0000      -0.206933        -5.6309
  86   2.0000      -0.203942        -5.5495
  87   0.0000      -0.041444        -1.1277
  88   0.0000      -0.031959        -0.8697
  89   0.0000      -0.005719        -0.1556
  90   0.0000       0.003738         0.1017
  91   0.0000       0.010913         0.2970

MULLIKEN ATOMIC CHARGES
-----------------------
   0 C :   -0.306173
   1 C :   -0.006844
   2 O :   -0.222101
   3 C :    0.112239
   4 O :   -0.222481
   5 C :   -0.036835
   6 C :   -0.296458
   7 H :    0.165184
   8 C :    0.171295
   9 O :   -0.176208
  10 O :   -0.230001
  11 C :   -0.007796
  12 C :   -0.313371
  13 S :   -0.093555
  14 P :    0.604414
  15 S :   -0.287322
  16 O :   -0.359541
  17 C :   -0.108806
  18 O :   -0.388182
  19 C :   -0.101292
  20 H :    0.110601
  21 H :    0.125132
  22 H :    0.109895
  23 H :    0.111446
  24 H :    0.102488
  25 H :    0.115310
  26 H :    0.108684
  27 H :    0.106973
  28 H :    0.095928
  29 H :    0.138020
  30 H :    0.103727
  31 H :    0.128171
  32 H :    0.124728
  33 H :    0.130799
  34 H :    0.126943
  35 H :    0.117172
  36 H :    0.127448
  37 H :    0.120370
Sum of atomic charges:    0.0000000

LOEWDIN ATOMIC CHARGES
----------------------
   0 C :   -0.357545
   1 C :   -0.107671
   2 O :   -0.050996
   3 C :    0.030615
   4 O :   -0.183045
   5 C :   -0.254751
   6 C :   -0.267310
   7 H :    0.158841
   8 C :    0.011273
   9 O :   -0.137948
  10 O :   -0.062213
  11 C :   -0.104767
  12 C :   -0.364133
  13 S :    0.099068
  14 P :    0.570867
  15 S :   -0.273996
  16 O :   -0.233576
  17 C :   -0.210963
  18 O :   -0.259619
  19 C :   -0.215658
  20 H :    0.123101
  21 H :    0.129348
  22 H :    0.129011
  23 H :    0.122161
  24 H :    0.118133
  25 H :    0.131375
  26 H :    0.140868
  27 H :    0.119691
  28 H :    0.115056
  29 H :    0.131780
  30 H :    0.126517
  31 H :    0.124934
  32 H :    0.111887
  33 H :    0.125673
  34 H :    0.117512
  35 H :    0.109800
  36 H :    0.123715
  37 H :    0.112963

  Mayer bond orders larger than 0.100000
B(  0-C ,  1-C ) :   1.1703 B(  0-C , 20-H ) :   0.9488 B(  0-C , 21-H ) :   0.9460
B(  0-C , 22-H ) :   0.9449 B(  1-C ,  2-O ) :   0.9195 B(  1-C , 23-H ) :   0.9160
B(  1-C , 24-H ) :   0.9381 B(  2-O ,  3-C ) :   1.2490 B(  3-C ,  4-O ) :   2.0155
B(  3-C ,  5-C ) :   0.9970 B(  5-C ,  6-C ) :   1.0381 B(  5-C , 25-H ) :   0.8838
B(  5-C , 26-H ) :   0.8827 B(  6-C ,  7-H ) :   0.8455 B(  6-C ,  8-C ) :   0.9184
B(  6-C , 13-S ) :   1.0019 B(  8-C ,  9-O ) :   2.0330 B(  8-C , 10-O ) :   1.2430
B( 10-O , 11-C ) :   0.9044 B( 11-C , 12-C ) :   1.1770 B( 11-C , 27-H ) :   0.9206
B( 11-C , 28-H ) :   0.9374 B( 12-C , 29-H ) :   0.9392 B( 12-C , 30-H ) :   0.9391
B( 12-C , 31-H ) :   0.9378 B( 13-S , 14-P ) :   0.9618 B( 13-S , 15-S ) :   0.1138
B( 14-P , 15-S ) :   1.6397 B( 14-P , 16-O ) :   1.1168 B( 14-P , 18-O ) :   1.0712
B( 16-O , 17-C ) :   0.9156 B( 17-C , 32-H ) :   0.9373 B( 17-C , 33-H ) :   0.9587
B( 17-C , 34-H ) :   0.9473 B( 18-O , 19-C ) :   0.9292 B( 19-C , 35-H ) :   0.9470
B( 19-C , 36-H ) :   0.9584 B( 19-C , 37-H ) :   0.9360

Dispersion correction           -0.053700476
FINAL SINGLE POINT ENERGY     -1979.022449272336

DIPOLE MOMENT
-------------

Method             : SCF
Type of density    : Electron Density
Multiplicity       :   1
Irrep              :   0
Energy             : -1979.1525400752489077 Eh
Relativity type    :
Basis              : AO
                                X                 Y                 Z
Electronic contribution:    -10.126718487       0.617135813      -0.884098474
Nuclear contribution   :      8.957254783      -0.477883792       0.510697604
                        -----------------------------------------
Total Dipole Moment    :     -1.169463703       0.139252021      -0.373400870
                        -----------------------------------------
Magnitude (a.u.)       :      1.235501796
Magnitude (Debye)      :      3.140395995

Rotational constants in cm-1:             0.015811             0.006381             0.005592
Rotational constants in MHz :           474.007072           191.297007           167.642958

                             ****ORCA TERMINATED NORMALLY****
TOTAL RUN TIME: 0 days 0 hours 0 minutes 51 seconds 428 msec
