                         Program Version 6.0.1  -  RELEASE   -
|  1> ! pbe def2-sv(p) def2/J RI DEFGRID1 loosescf d4 GCP(DFT/SV(P)) printgap
|  2> %output
|  3>     printlevel normal
|  4> end
|  5> * xyz 0 1
|  6> C 4.1705609623 -2.6752471969 1.3260965625
|  7> C 4.3802889099 -2.1772549837 -0.0946879889
|  8> O 3.1186688746 -2.0569913387 -0.7830681062
|  9> C 2.4429151082 -0.9371406937 -0.6678228587
| 10> O 2.8294512842 0.0486454197 -0.069907083
| 11> C 1.1017942917 -1.0155752856 -1.3580508335
| 12> C 0.5055466602 0.3787228502 -1.5014647315
| 13> H 0.8952782335 0.9044592188 -2.3739265448
| 14> C 0.7246310934 1.2330136899 -0.2676000596
| 15> O 0.2680192955 0.9268537686 0.8184590608
| 16> O 1.3153433328 2.3635776069 -0.5470858475
| 17> C 1.4926842379 3.3197034691 0.5191364727
| 18> C 0.2541003453 4.1896286451 0.6641146232
| 19> S -1.3081118608 0.3365435472 -1.7167341757
| 20> P -2.0104257154 -0.2406738664 0.1905263172
| 21> S -1.2326023817 -1.744824429 1.1962669683
| 22> O -2.3373688311 1.1237017781 0.944139699
| 23> C -2.3063364891 1.2221503626 2.3751856546
| 24> O -3.5213721885 -0.5848858916 -0.2350214238
| 25> C -3.8590428334 -1.8047845869 -0.9015253766
| 26> H 3.5823848751 -1.9553252513 1.8919530627
| 27> H 3.6429088796 -3.6249216194 1.3162740373
| 28> H 5.1332698405 -2.8028584488 1.8097372206
| 29> H 4.9464740129 -2.8941604197 -0.6890300376
| 30> H 4.8731994368 -1.2010008179 -0.0964891624
| 31> H 0.4710099426 -1.6395617024 -0.7134681196
| 32> H 1.1930854046 -1.5138394598 -2.321485528
| 33> H 1.7040308352 2.7714776515 1.4410435006
| 34> H 2.3622773472 3.9029088585 0.2175907607
| 35> H -0.6086850425 3.5727999133 0.9082729707
| 36> H 0.4114084578 4.9091856237 1.4605364222
| 37> H 0.0563614026 4.7165747885 -0.2651838741
| 38> H -1.3126490649 0.9596994304 2.7396616863
| 39> H -3.0509764547 0.5606302814 2.8164231761
| 40> H -2.5362242801 2.2612201613 2.5972520223
| 41> H -3.5671330465 -1.7485019789 -1.9497019856
| 42> H -4.9376906652 -1.9015377367 -0.8088662155
| 43> H -3.3573562267 -2.6449733897 -0.4172704386
| 44> *
| 45>
| 46>                          ****END OF INPUT****

CARTESIAN COORDINATES (ANGSTROEM)
---------------------------------
  C      4.170561   -2.675247    1.326097
  C      4.380289   -2.177255   -0.094688
  O      3.118669   -2.056991   -0.783068
  C      2.442915   -0.937141   -0.667823
  O      2.829451    0.048645   -0.069907
  C      1.101794   -1.015575   -1.358051
  C      0.505547    0.378723   -1.501465
  H      0.895278    0.904459   -2.373927
  C      0.724631    1.233014   -0.267600
  O      0.268019    0.926854    0.818459
  O      1.315343    2.363578   -0.547086
  C      1.492684    3.319703    0.519136
  C      0.254100    4.189629    0.664115
  S     -1.308112    0.336544   -1.716734
  P     -2.010426   -0.240674    0.190526
  S     -1.232602   -1.744824    1.196267
  O     -2.337369    1.123702    0.944140
  C     -2.306336    1.222150    2.375186
  O     -3.521372   -0.584886   -0.235021
  C     -3.859043   -1.804785   -0.901525
  H      3.582385   -1.955325    1.891953
  H      3.642909   -3.624922    1.316274
  H      5.133270   -2.802858    1.809737
  H      4.946474   -2.894160   -0.689030
  H      4.873199   -1.201001   -0.096489
  H      0.471010   -1.639562   -0.713468
  H      1.193085   -1.513839   -2.321486
  H      1.704031    2.771478    1.441044
  H      2.362277    3.902909    0.217591
  H     -0.608685    3.572800    0.908273
  H      0.411408    4.909186    1.460536
  H      0.056361    4.716575   -0.265184
  H     -1.312649    0.959699    2.739662
  H     -3.050976    0.560630    2.816423
  H     -2.536224    2.261220    2.597252
  H     -3.567133   -1.748502   -1.949702
  H     -4.937691   -1.901538   -0.808866
  H     -3.357356   -2.644973   -0.417270

 Total Charge           Charge          ....    0
 Multiplicity           Mult            ....    1
 Number of Electrons    NEL             ....  174
 Basis Dimension        Dim             ....  316

ORBITAL ENERGIES
----------------

  NO   OCC          E(Eh)            E(eV)
   0   2.0000     -88.040182     -2395.6951
   1   2.0000     -87.972406     -2393.8509
   2   2.0000     -76.419444     -2079.4788
   3   2.0000     -18.807952      -511.7904
   4   2.0000     -18.803123      -511.6590
   5   2.0000     -18.780360      -511.0396
   6   2.0000     -18.777278      -510.9557
   7   2.0000     -18.747862      -510.1553
   8   2.0000     -18.735138      -509.8090
   9   2.0000     -10.016400      -272.5601
  10   2.0000     -10.015568      -272.5375
  11   2.0000      -9.951630      -270.7976
  12   2.0000      -9.946076      -270.6465
  13   2.0000      -9.945914      -270.6421
  14   2.0000      -9.933564      -270.3060
  15   2.0000      -9.932669      -270.2817
  16   2.0000      -9.906361      -269.5658
  17   2.0000      -9.887688      -269.0577
  18   2.0000      -9.884936      -268.9828
  19   2.0000      -7.685136      -209.1232
  20   2.0000      -7.617532      -207.2836
  21   2.0000      -6.415480      -174.5741
  22   2.0000      -5.713132      -155.4622
  23   2.0000      -5.709573      -155.3654
  24   2.0000      -5.702048      -155.1606
  25   2.0000      -5.646648      -153.6531
  26   2.0000      -5.638537      -153.4324
  27   2.0000      -5.637071      -153.3925
  28   2.0000      -4.637850      -126.2023
  29   2.0000      -4.637403      -126.1901
  30   2.0000      -4.636303      -126.1602
  31   2.0000      -1.018469       -27.7140
  32   2.0000      -1.012388       -27.5485
  33   2.0000      -0.972038       -26.4505
  34   2.0000      -0.929501       -25.2930
  35   2.0000      -0.924894       -25.1676
  36   2.0000      -0.915372       -24.9085
  37   2.0000      -0.763152       -20.7664
  38   2.0000      -0.714656       -19.4468
  39   2.0000      -0.703393       -19.1403
  40   2.0000      -0.686623       -18.6840
  41   2.0000      -0.655464       -17.8361
  42   2.0000      -0.623722       -16.9723
  43   2.0000      -0.617615       -16.8062
  44   2.0000      -0.613049       -16.6819
  45   2.0000      -0.598427       -16.2840
  46   2.0000      -0.559692       -15.2300
  47   2.0000      -0.507081       -13.7984
  48   2.0000      -0.503025       -13.6880
  49   2.0000      -0.493945       -13.4409
  50   2.0000      -0.480993       -13.0885
  51   2.0000      -0.460640       -12.5346
  52   2.0000      -0.458054       -12.4643
  53   2.0000      -0.440506       -11.9868
  54   2.0000      -0.433615       -11.7993
  55   2.0000      -0.429426       -11.6853
  56   2.0000      -0.426997       -11.6192
  57   2.0000      -0.418508       -11.3882
  58   2.0000      -0.414843       -11.2885
  59   2.0000      -0.403580       -10.9820
  60   2.0000      -0.399557       -10.8725
  61   2.0000      -0.396466       -10.7884
  62   2.0000      -0.385284       -10.4841
  63   2.0000      -0.382052       -10.3962
  64   2.0000      -0.377898       -10.2831
  65   2.0000      -0.363354        -9.8874
  66   2.0000      -0.356811        -9.7093
  67   2.0000      -0.354800        -9.6546
  68   2.0000      -0.349841        -9.5197
  69   2.0000      -0.337494        -9.1837
  70   2.0000      -0.333409        -9.0725
  71   2.0000      -0.328099        -8.9280
  72   2.0000      -0.322792        -8.7836
  73   2.0000      -0.302925        -8.2430
  74   2.0000      -0.297140        -8.0856
  75   2.0000      -0.294662        -8.0182
  76   2.0000      -0.290282        -7.8990
  77   2.0000      -0.279381        -7.6024
  78   2.0000      -0.271147        -7.3783
  79   2.0000      -0.265092        -7.2135
  80   2.0000      -0.252452        -6.8696
  81   2.0000      -0.246077        -6.6961
  82   2.0000      -0.237386        -6.4596
  83   2.0000      -0.233843        -6.3632
  84   2.0000      -0.221252        -6.0206
  85   2.0000      -0.192895        -5.2489
  86   2.0000      -0.181200        -4.9307
  87   0.0000      -0.047914        -1.3038
  88   0.0000      -0.027379        -0.7450
  89   0.0000      -0.014283        -0.3886
  90   0.0000       0.015683         0.4268
  91   0.0000       0.034744         0.9454

MULLIKEN ATOMIC CHARGES
-----------------------
   0 C :   -0.304725
   1 C :   -0.015831
   2 O :   -0.223626
   3 C :    0.135148
   4 O :   -0.210279
   5 C :   -0.069191
   6 C :   -0.296352
   7 H :    0.128943
   8 C :    0.208117
   9 O :   -0.211469
  10 O :   -0.212774
  11 C :   -0.007835
  12 C :   -0.316610
  13 S :   -0.079290
  14 P :    0.616262
  15 S :   -0.332872
  16 O :   -0.374053
  17 C :   -0.096863
  18 O :   -0.379366
  19 C :   -0.100010
  20 H :    0.133866
  21 H :    0.119853
  22 H :    0.113381
  23 H :    0.105042
  24 H :    0.110111
  25 H :    0.144899
  26 H :    0.117588
  27 H :    0.114158
  28 H :    0.104024
  29 H :    0.137999
  30 H :    0.110738
  31 H :    0.114335
  32 H :    0.137418
  33 H :    0.117880
  34 H :    0.118683
  35 H :    0.108971
  36 H :    0.120750
  37 H :    0.112985
Sum of atomic charges:   -0.0000000

LOEWDIN ATOMIC CHARGES
----------------------
   0 C :   -0.355055
   1 C :   -0.109586
   2 O :   -0.051786
   3 C :    0.047507
   4 O :   -0.155650
   5 C :   -0.265535
   6 C :   -0.256758
   7 H :    0.140367
   8 C :    0.012163
   9 O :   -0.174489
  10 O :   -0.038969
  11 C :   -0.104889
  12 C :   -0.358021
  13 S :    0.119213
  14 P :    0.585487
  15 S :   -0.320706
  16 O :   -0.246396
  17 C :   -0.209364
  18 O :   -0.264039
  19 C :   -0.221106
  20 H :    0.134122
  21 H :    0.127882
  22 H :    0.130830
  23 H :    0.118883
  24 H :    0.120062
  25 H :    0.142276
  26 H :    0.143113
  27 H :    0.123154
  28 H :    0.119114
  29 H :    0.132106
  30 H :    0.129406
  31 H :    0.125744
  32 H :    0.118815
  33 H :    0.111964
  34 H :    0.117339
  35 H :    0.106491
  36 H :    0.120112
  37 H :    0.106200

  Mayer bond orders larger than 0.100000
B(  0-C ,  1-C ) :   1.1757 B(  0-C , 20-H ) :   0.9449 B(  0-C , 21-H ) :   0.9483
B(  0-C , 22-H ) :   0.9436 B(  1-C ,  2-O ) :   0.9092 B(  1-C , 23-H ) :   0.9368
B(  1-C , 24-H ) :   0.9140 B(  2-O ,  3-C ) :   1.2546 B(  3-C ,  4-O ) :   1.9605
B(  3-C ,  5-C ) :   1.0169 B(  4-O ,  8-C ) :   0.1226 B(  5-C ,  6-C ) :   1.0069
B(  5-C , 25-H ) :   0.8308 B(  5-C , 26-H ) :   0.8990 B(  6-C ,  7-H ) :   0.8826
B(  6-C ,  8-C ) :   0.9005 B(  6-C , 13-S ) :   1.0126 B(  8-C ,  9-O ) :   1.9182
B(  8-C , 10-O ) :   1.2727 B(  9-O , 14-P ) :   0.1069 B( 10-O , 11-C ) :   0.9089
B( 11-C , 12-C ) :   1.1714 B( 11-C , 27-H ) :   0.9154 B( 11-C , 28-H ) :   0.9379
B( 12-C , 29-H ) :   0.9381 B( 12-C , 30-H ) :   0.9437 B( 12-C , 31-H ) :   0.9473
B( 13-S , 14-P ) :   0.9642 B( 13-S , 15-S ) :   0.1184 B( 14-P , 15-S ) :   1.5693
B( 14-P , 16-O ) :   1.1104 B( 14-P , 18-O ) :   1.0790 B( 15-S , 25-H ) :   0.1097
B( 16-O , 17-C ) :   0.9147 B( 17-C , 32-H ) :   0.9390 B( 17-C , 33-H ) :   0.9514
B( 17-C , 34-H ) :   0.9546 B( 18-O , 19-C ) :   0.9394 B( 19-C , 35-H ) :   0.9491
B( 19-C , 36-H ) :   0.9596 B( 19-C , 37-H ) :   0.9281

Dispersion correction           -0.052199002
FINAL SINGLE POINT ENERGY     -1979.014061424291

DIPOLE MOMENT
-------------

Method             : SCF
Type of density    : Electron Density
Multiplicity       :   1
Irrep              :   0
Energy             : -1979.1457494323622086 Eh
Relativity type    :
Basis              : AO
                                X                 Y                 Z
Electronic contribution:    -10.357202077      -2.479015810      -7.266298496
Nuclear contribution   :     11.183462003       2.752304441       6.942411584
                        -----------------------------------------
Total Dipole Moment    :      0.826259926       0.273288631      -0.323886912
                        -----------------------------------------
Magnitude (a.u.)       :      0.928598338
Magnitude (Debye)      :      2.360309398

Rotational constants in cm-1:             0.012126             0.007522             0.005922
Rotational constants in MHz :           363.524197           225.518347           177.550038

                             ****ORCA TERMINATED NORMALLY****
TOTAL RUN TIME: 0 days 0 hours 0 minutes 43 seconds 879 msec
