                         Program Version 6.0.0  -   RELEASE  -
|  1> ! r2scan-3c def2/J RI DEFGRID2 scfconv6 printgap
|  2> %output
|  3>     printlevel normal
|  4> end
|  5> * xyz 0 1
|  6> C -1.1457948801 1.2842645787 -1.0089813273
|  7> C -1.0079716988 0.1387742694 -0.0091495377
|  8> C -1.8058056351 -1.0831972329 -0.4789949009
|  9> C -1.5000480953 0.5783335248 1.3770040574
| 10> C 0.4404036152 -0.2969997822 0.1630761485
| 11> O 0.7790498423 -1.2530772519 0.8325600864
| 12> O 1.3009772418 0.4747144334 -0.4830361684
| 13> C 2.6947438172 0.1707106131 -0.3834536417
| 14> H -0.7701883671 0.9896615673 -1.9852030286
| 15> H -2.1940549986 1.5540484103 -1.1044747676
| 16> H -0.5886250153 2.1557293215 -0.6765615944
| 17> H -1.6416873675 -1.9177031274 0.1986865754
| 18> H -1.4930167997 -1.3820232271 -1.4767858264
| 19> H -2.8655590999 -0.8465406725 -0.5000079353
| 20> H -1.3531334125 -0.2235423616 2.096771306
| 21> H -0.9526253328 1.4545982878 1.7164718337
| 22> H -2.5574127811 0.8224341676 1.3303673255
| 23> H 2.8337776583 -0.9029162396 -0.2505300436
| 24> H 3.1182774627 0.7001577597 0.4701047813
| 25> H 3.1463180976 0.5150322012 -1.3094994684
| 26> *
| 27>
| 28>                          ****END OF INPUT****

CARTESIAN COORDINATES (ANGSTROEM)
---------------------------------
  C     -1.145795    1.284265   -1.008981
  C     -1.007972    0.138774   -0.009150
  C     -1.805806   -1.083197   -0.478995
  C     -1.500048    0.578334    1.377004
  C      0.440404   -0.297000    0.163076
  O      0.779050   -1.253077    0.832560
  O      1.300977    0.474714   -0.483036
  C      2.694744    0.170711   -0.383454
  H     -0.770188    0.989662   -1.985203
  H     -2.194055    1.554048   -1.104475
  H     -0.588625    2.155729   -0.676562
  H     -1.641687   -1.917703    0.198687
  H     -1.493017   -1.382023   -1.476786
  H     -2.865559   -0.846541   -0.500008
  H     -1.353133   -0.223542    2.096771
  H     -0.952625    1.454598    1.716472
  H     -2.557413    0.822434    1.330367
  H      2.833778   -0.902916   -0.250530
  H      3.118277    0.700158    0.470105
  H      3.146318    0.515032   -1.309499

 Total Charge           Charge          ....    0
 Multiplicity           Mult            ....    1
 Number of Electrons    NEL             ....   64
 Basis Dimension        Dim             ....  222

ORBITAL ENERGIES
----------------

  NO   OCC          E(Eh)            E(eV)
   0   2.0000     -19.001804      -517.0654
   1   2.0000     -18.926773      -515.0237
   2   2.0000     -10.149356      -276.1780
   3   2.0000     -10.087161      -274.4856
   4   2.0000     -10.057743      -273.6851
   5   2.0000     -10.023695      -272.7586
   6   2.0000     -10.021092      -272.6878
   7   2.0000     -10.019342      -272.6402
   8   2.0000      -1.075188       -29.2574
   9   2.0000      -0.975455       -26.5435
  10   2.0000      -0.794379       -21.6162
  11   2.0000      -0.703503       -19.1433
  12   2.0000      -0.658865       -17.9286
  13   2.0000      -0.655440       -17.8354
  14   2.0000      -0.579813       -15.7775
  15   2.0000      -0.519973       -14.1492
  16   2.0000      -0.463620       -12.6157
  17   2.0000      -0.456183       -12.4134
  18   2.0000      -0.438329       -11.9276
  19   2.0000      -0.410652       -11.1744
  20   2.0000      -0.407340       -11.0843
  21   2.0000      -0.403844       -10.9892
  22   2.0000      -0.377740       -10.2788
  23   2.0000      -0.359439        -9.7808
  24   2.0000      -0.344607        -9.3772
  25   2.0000      -0.339073        -9.2266
  26   2.0000      -0.335641        -9.1333
  27   2.0000      -0.311793        -8.4843
  28   2.0000      -0.304764        -8.2930
  29   2.0000      -0.303204        -8.2506
  30   2.0000      -0.272478        -7.4145
  31   2.0000      -0.234003        -6.3676
  32   0.0000      -0.015031        -0.4090
  33   0.0000       0.057047         1.5523
  34   0.0000       0.090399         2.4599
  35   0.0000       0.106889         2.9086
  36   0.0000       0.131541         3.5794

MULLIKEN ATOMIC CHARGES
-----------------------
   0 C :   -0.508506
   1 C :    0.127274
   2 C :   -0.503633
   3 C :   -0.500916
   4 C :    0.329691
   5 O :   -0.434410
   6 O :   -0.149144
   7 C :   -0.300917
   8 H :    0.161075
   9 H :    0.154241
  10 H :    0.161760
  11 H :    0.181036
  12 H :    0.151639
  13 H :    0.157660
  14 H :    0.178207
  15 H :    0.153648
  16 H :    0.159132
  17 H :    0.179630
  18 H :    0.152673
  19 H :    0.149860
Sum of atomic charges:   -0.0000000

LOEWDIN ATOMIC CHARGES
----------------------
   0 C :   -0.381991
   1 C :   -0.145314
   2 C :   -0.377927
   3 C :   -0.375923
   4 C :    0.366423
   5 O :   -0.442761
   6 O :   -0.604630
   7 C :   -0.042280
   8 H :    0.164513
   9 H :    0.155556
  10 H :    0.166212
  11 H :    0.173623
  12 H :    0.160547
  13 H :    0.156989
  14 H :    0.171398
  15 H :    0.160571
  16 H :    0.157934
  17 H :    0.188381
  18 H :    0.173229
  19 H :    0.175450

  Mayer bond orders larger than 0.100000
B(  0-C ,  1-C ) :   0.9301 B(  0-C ,  8-H ) :   0.9741 B(  0-C ,  9-H ) :   0.9726
B(  0-C , 10-H ) :   0.9713 B(  1-C ,  2-C ) :   0.9241 B(  1-C ,  3-C ) :   0.9201
B(  1-C ,  4-C ) :   0.9458 B(  2-C , 11-H ) :   0.9655 B(  2-C , 12-H ) :   0.9682
B(  2-C , 13-H ) :   0.9793 B(  3-C , 14-H ) :   0.9667 B(  3-C , 15-H ) :   0.9670
B(  3-C , 16-H ) :   0.9781 B(  4-C ,  5-O ) :   1.8325 B(  4-C ,  6-O ) :   1.1187
B(  6-O ,  7-C ) :   0.8350 B(  7-C , 17-H ) :   0.9658 B(  7-C , 18-H ) :   0.9591
B(  7-C , 19-H ) :   0.9709

Dispersion correction           -0.005655088
FINAL SINGLE POINT ENERGY      -386.233031536039

DIPOLE MOMENT
-------------

Method             : SCF
Type of density    : Electron Density
Multiplicity       :   1
Irrep              :   0
Energy             :  -386.2400479033547072 Eh
Relativity type    :
Basis              : AO
                                X                 Y                 Z
Electronic contribution:      5.052332799      -2.134910606       0.966759776
Nuclear contribution   :     -4.958261803       2.726906939      -1.393305563
                        -----------------------------------------
Total Dipole Moment    :      0.094070996       0.591996333      -0.426545787
                        -----------------------------------------
Magnitude (a.u.)       :      0.735697165
Magnitude (Debye)      :      1.869993583

Rotational constants in cm-1:             0.105443             0.050340             0.044219
Rotational constants in MHz :          3161.102825          1509.150745          1325.661912

                             ****ORCA TERMINATED NORMALLY****
TOTAL RUN TIME: 0 days 0 hours 1 minutes 9 seconds 286 msec
