                         Program Version 6.0.0  -   RELEASE  -
|  1> ! r2scan-3c def2/J RI DEFGRID2 scfconv6 printgap
|  2> %output
|  3>     printlevel normal
|  4> end
|  5> %cpcm
|  6>     smd true
|  7>     smdsolvent "water"
|  8> end
|  9> * xyz 0 1
| 10> C -1.1457948801 1.2842645787 -1.0089813273
| 11> C -1.0079716988 0.1387742694 -0.0091495377
| 12> C -1.8058056351 -1.0831972329 -0.4789949009
| 13> C -1.5000480953 0.5783335248 1.3770040574
| 14> C 0.4404036152 -0.2969997822 0.1630761485
| 15> O 0.7790498423 -1.2530772519 0.8325600864
| 16> O 1.3009772418 0.4747144334 -0.4830361684
| 17> C 2.6947438172 0.1707106131 -0.3834536417
| 18> H -0.7701883671 0.9896615673 -1.9852030286
| 19> H -2.1940549986 1.5540484103 -1.1044747676
| 20> H -0.5886250153 2.1557293215 -0.6765615944
| 21> H -1.6416873675 -1.9177031274 0.1986865754
| 22> H -1.4930167997 -1.3820232271 -1.4767858264
| 23> H -2.8655590999 -0.8465406725 -0.5000079353
| 24> H -1.3531334125 -0.2235423616 2.096771306
| 25> H -0.9526253328 1.4545982878 1.7164718337
| 26> H -2.5574127811 0.8224341676 1.3303673255
| 27> H 2.8337776583 -0.9029162396 -0.2505300436
| 28> H 3.1182774627 0.7001577597 0.4701047813
| 29> H 3.1463180976 0.5150322012 -1.3094994684
| 30> *
| 31>
| 32>                          ****END OF INPUT****

CARTESIAN COORDINATES (ANGSTROEM)
---------------------------------
  C     -1.145795    1.284265   -1.008981
  C     -1.007972    0.138774   -0.009150
  C     -1.805806   -1.083197   -0.478995
  C     -1.500048    0.578334    1.377004
  C      0.440404   -0.297000    0.163076
  O      0.779050   -1.253077    0.832560
  O      1.300977    0.474714   -0.483036
  C      2.694744    0.170711   -0.383454
  H     -0.770188    0.989662   -1.985203
  H     -2.194055    1.554048   -1.104475
  H     -0.588625    2.155729   -0.676562
  H     -1.641687   -1.917703    0.198687
  H     -1.493017   -1.382023   -1.476786
  H     -2.865559   -0.846541   -0.500008
  H     -1.353133   -0.223542    2.096771
  H     -0.952625    1.454598    1.716472
  H     -2.557413    0.822434    1.330367
  H      2.833778   -0.902916   -0.250530
  H      3.118277    0.700158    0.470105
  H      3.146318    0.515032   -1.309499

 Total Charge           Charge          ....    0
 Multiplicity           Mult            ....    1
 Number of Electrons    NEL             ....   64
 Basis Dimension        Dim             ....  222

ORBITAL ENERGIES
----------------

  NO   OCC          E(Eh)            E(eV)
   0   2.0000     -19.005640      -517.1698
   1   2.0000     -18.941572      -515.4264
   2   2.0000     -10.159155      -276.4446
   3   2.0000     -10.075978      -274.1813
   4   2.0000     -10.054993      -273.6103
   5   2.0000     -10.017035      -272.5774
   6   2.0000     -10.015556      -272.5371
   7   2.0000     -10.011968      -272.4395
   8   2.0000      -1.080682       -29.4069
   9   2.0000      -0.987996       -26.8847
  10   2.0000      -0.790797       -21.5187
  11   2.0000      -0.698219       -18.9995
  12   2.0000      -0.653132       -17.7726
  13   2.0000      -0.649616       -17.6769
  14   2.0000      -0.576079       -15.6759
  15   2.0000      -0.519105       -14.1256
  16   2.0000      -0.460315       -12.5258
  17   2.0000      -0.454901       -12.3785
  18   2.0000      -0.451500       -12.2859
  19   2.0000      -0.404035       -10.9943
  20   2.0000      -0.403092       -10.9687
  21   2.0000      -0.400685       -10.9032
  22   2.0000      -0.376012       -10.2318
  23   2.0000      -0.353273        -9.6130
  24   2.0000      -0.340715        -9.2713
  25   2.0000      -0.335611        -9.1324
  26   2.0000      -0.329852        -8.9757
  27   2.0000      -0.312895        -8.5143
  28   2.0000      -0.299377        -8.1465
  29   2.0000      -0.299028        -8.1370
  30   2.0000      -0.279533        -7.6065
  31   2.0000      -0.248254        -6.7553
  32   0.0000      -0.022413        -0.6099
  33   0.0000       0.062210         1.6928
  34   0.0000       0.099850         2.7171
  35   0.0000       0.115971         3.1557
  36   0.0000       0.137019         3.7285

MULLIKEN ATOMIC CHARGES
-----------------------
   0 C :   -0.559013
   1 C :    0.183017
   2 C :   -0.545057
   3 C :   -0.538597
   4 C :    0.352673
   5 O :   -0.518081
   6 O :   -0.161381
   7 C :   -0.325906
   8 H :    0.174492
   9 H :    0.173511
  10 H :    0.172578
  11 H :    0.173198
  12 H :    0.172487
  13 H :    0.179817
  14 H :    0.173897
  15 H :    0.174152
  16 H :    0.180921
  17 H :    0.179869
  18 H :    0.180569
  19 H :    0.176853
Sum of atomic charges:   -0.0000000

LOEWDIN ATOMIC CHARGES
----------------------
   0 C :   -0.386601
   1 C :   -0.140456
   2 C :   -0.382740
   3 C :   -0.379710
   4 C :    0.375980
   5 O :   -0.503188
   6 O :   -0.603730
   7 C :   -0.038116
   8 H :    0.167344
   9 H :    0.162595
  10 H :    0.168290
  11 H :    0.169035
  12 H :    0.166137
  13 H :    0.165292
  14 H :    0.168215
  15 H :    0.166524
  16 H :    0.166041
  17 H :    0.188533
  18 H :    0.183136
  19 H :    0.187418

  Mayer bond orders larger than 0.100000
B(  0-C ,  1-C ) :   0.9010 B(  0-C ,  8-H ) :   0.9740 B(  0-C ,  9-H ) :   0.9675
B(  0-C , 10-H ) :   0.9711 B(  1-C ,  2-C ) :   0.9040 B(  1-C ,  3-C ) :   0.9039
B(  1-C ,  4-C ) :   0.9559 B(  2-C , 11-H ) :   0.9665 B(  2-C , 12-H ) :   0.9669
B(  2-C , 13-H ) :   0.9728 B(  3-C , 14-H ) :   0.9660 B(  3-C , 15-H ) :   0.9642
B(  3-C , 16-H ) :   0.9717 B(  4-C ,  5-O ) :   1.7701 B(  4-C ,  6-O ) :   1.1439
B(  6-O ,  7-C ) :   0.8192 B(  7-C , 17-H ) :   0.9621 B(  7-C , 18-H ) :   0.9515
B(  7-C , 19-H ) :   0.9608

Dispersion correction           -0.005655088
FINAL SINGLE POINT ENERGY      -386.236523093712

DIPOLE MOMENT
-------------

Method             : SCF
Type of density    : Electron Density
Multiplicity       :   1
Irrep              :   0
Energy             :  -386.2435394610277513 Eh
Relativity type    :
Basis              : AO
                                X                 Y                 Z
Electronic contribution:      5.003513796      -1.821593577       0.750621077
Nuclear contribution   :     -4.958261803       2.726906939      -1.393305563
                        -----------------------------------------
Total Dipole Moment    :      0.045251993       0.905313362      -0.642684485
                        -----------------------------------------
Magnitude (a.u.)       :      1.111163072
Magnitude (Debye)      :      2.824352075

Rotational constants in cm-1:             0.105443             0.050340             0.044219
Rotational constants in MHz :          3161.102825          1509.150745          1325.661912

                             ****ORCA TERMINATED NORMALLY****
TOTAL RUN TIME: 0 days 0 hours 1 minutes 9 seconds 618 msec
