                         Program Version 6.0.1  -  RELEASE   -
|  1> ! r2scan-3c def2/J RI DEFGRID2 scfconv6 printgap
|  2> %output
|  3>     printlevel normal
|  4> end
|  5> * xyz 0 1
|  6> C 2.1508167504 -3.0170768829 -2.9569098833
|  7> C 3.0517346527 -3.1422826634 -1.7384225635
|  8> O 2.9447617586 -1.9659741117 -0.9121298097
|  9> C 2.0245654809 -1.9411124125 0.0282385271
| 10> O 1.2949222267 -2.8663056154 0.3090960925
| 11> C 1.9577743742 -0.5838271711 0.7016262783
| 12> C 1.3303312399 0.4183866883 -0.2695959669
| 13> H 2.018768354 0.5995001135 -1.1020865003
| 14> C 1.0586748332 1.7540150384 0.4047320317
| 15> O 1.8225920987 2.2385430359 1.2036250241
| 16> O -0.0595882176 2.3121799227 -0.0178136901
| 17> C -0.4125244 3.6074679332 0.508545001
| 18> C 0.2252532952 4.7134432246 -0.3141329847
| 19> S -0.1602895144 -0.2486605641 -1.0824034781
| 20> P -1.6205040285 0.0197242043 0.4397076062
| 21> S -1.0653091963 0.3627586305 2.2883083116
| 22> O -2.6346458038 1.1087664468 -0.0881076996
| 23> C -3.2443505421 1.0271758876 -1.3929429625
| 24> O -2.500590565 -1.3084300431 0.2650984739
| 25> C -2.0563638266 -2.5665652862 0.783540454
| 26> H 2.2612529855 -3.9002797155 -3.577033131
| 27> H 1.1121250676 -2.9270911879 -2.6466714574
| 28> H 2.4192623371 -2.1368334734 -3.5337946565
| 29> H 4.1034160429 -3.1869863951 -2.021377061
| 30> H 2.7798574997 -4.0155298903 -1.1390820321
| 31> H 2.9574252397 -0.2383471901 0.9642638711
| 32> H 1.3534755521 -0.6668228449 1.6069317983
| 33> H -1.5013203028 3.6339842062 0.4533700522
| 34> H -0.0902177144 3.6510389713 1.5528604042
| 35> H -0.1164712956 5.6731895558 0.058598162
| 36> H 1.3082462177 4.6663916011 -0.2272239984
| 37> H -0.054947284 4.6128586323 -1.3589774921
| 38> H -2.4719800727 0.9661975908 -2.1595982243
| 39> H -3.8194033869 1.9437080485 -1.4947398398
| 40> H -3.8927981096 0.1549228315 -1.4443990723
| 41> H -1.0888744652 -2.8435717222 0.361920753
| 42> H -2.818864995 -3.2856256621 0.4971884613
| 43> H -1.9694123198 -2.5103451127 1.8692587758
| 44> *
| 45>
| 46>                          ****END OF INPUT****

CARTESIAN COORDINATES (ANGSTROEM)
---------------------------------
  C      2.150817   -3.017077   -2.956910
  C      3.051735   -3.142283   -1.738423
  O      2.944762   -1.965974   -0.912130
  C      2.024565   -1.941112    0.028239
  O      1.294922   -2.866306    0.309096
  C      1.957774   -0.583827    0.701626
  C      1.330331    0.418387   -0.269596
  H      2.018768    0.599500   -1.102087
  C      1.058675    1.754015    0.404732
  O      1.822592    2.238543    1.203625
  O     -0.059588    2.312180   -0.017814
  C     -0.412524    3.607468    0.508545
  C      0.225253    4.713443   -0.314133
  S     -0.160290   -0.248661   -1.082403
  P     -1.620504    0.019724    0.439708
  S     -1.065309    0.362759    2.288308
  O     -2.634646    1.108766   -0.088108
  C     -3.244351    1.027176   -1.392943
  O     -2.500591   -1.308430    0.265098
  C     -2.056364   -2.566565    0.783540
  H      2.261253   -3.900280   -3.577033
  H      1.112125   -2.927091   -2.646671
  H      2.419262   -2.136833   -3.533795
  H      4.103416   -3.186986   -2.021377
  H      2.779857   -4.015530   -1.139082
  H      2.957425   -0.238347    0.964264
  H      1.353476   -0.666823    1.606932
  H     -1.501320    3.633984    0.453370
  H     -0.090218    3.651039    1.552860
  H     -0.116471    5.673190    0.058598
  H      1.308246    4.666392   -0.227224
  H     -0.054947    4.612859   -1.358977
  H     -2.471980    0.966198   -2.159598
  H     -3.819403    1.943708   -1.494740
  H     -3.892798    0.154923   -1.444399
  H     -1.088874   -2.843572    0.361921
  H     -2.818865   -3.285626    0.497188
  H     -1.969412   -2.510345    1.869259

 Total Charge           Charge          ....    0
 Multiplicity           Mult            ....    1
 Number of Electrons    NEL             ....  174
 Basis Dimension        Dim             ....  510

ORBITAL ENERGIES
----------------

  NO   OCC          E(Eh)            E(eV)
   0   2.0000     -88.574759     -2410.2417
   1   2.0000     -88.518430     -2408.7089
   2   2.0000     -76.914351     -2092.9459
   3   2.0000     -19.006942      -517.2052
   4   2.0000     -19.003680      -517.1164
   5   2.0000     -18.994866      -516.8766
   6   2.0000     -18.986845      -516.6583
   7   2.0000     -18.938650      -515.3469
   8   2.0000     -18.935248      -515.2543
   9   2.0000     -10.166699      -276.6500
  10   2.0000     -10.160877      -276.4915
  11   2.0000     -10.103923      -274.9417
  12   2.0000     -10.099270      -274.8151
  13   2.0000     -10.098063      -274.7823
  14   2.0000     -10.091099      -274.5928
  15   2.0000     -10.078970      -274.2627
  16   2.0000     -10.050315      -273.4830
  17   2.0000     -10.034818      -273.0613
  18   2.0000     -10.030833      -272.9528
  19   2.0000      -7.869478      -214.1394
  20   2.0000      -7.813141      -212.6064
  21   2.0000      -6.592483      -179.3906
  22   2.0000      -5.816484      -158.2746
  23   2.0000      -5.813303      -158.1880
  24   2.0000      -5.806386      -157.9998
  25   2.0000      -5.761122      -156.7681
  26   2.0000      -5.753367      -156.5571
  27   2.0000      -5.752883      -156.5439
  28   2.0000      -4.738179      -128.9324
  29   2.0000      -4.737542      -128.9151
  30   2.0000      -4.736006      -128.8733
  31   2.0000      -1.083277       -29.4775
  32   2.0000      -1.082457       -29.4551
  33   2.0000      -1.049214       -28.5506
  34   2.0000      -1.006224       -27.3807
  35   2.0000      -0.989141       -26.9159
  36   2.0000      -0.985044       -26.8044
  37   2.0000      -0.813320       -22.1316
  38   2.0000      -0.757409       -20.6102
  39   2.0000      -0.741820       -20.1860
  40   2.0000      -0.731390       -19.9021
  41   2.0000      -0.696003       -18.9392
  42   2.0000      -0.671555       -18.2739
  43   2.0000      -0.659646       -17.9499
  44   2.0000      -0.652171       -17.7465
  45   2.0000      -0.632679       -17.2161
  46   2.0000      -0.602321       -16.3900
  47   2.0000      -0.540965       -14.7204
  48   2.0000      -0.531776       -14.4704
  49   2.0000      -0.527162       -14.3448
  50   2.0000      -0.504324       -13.7234
  51   2.0000      -0.492528       -13.4024
  52   2.0000      -0.475597       -12.9417
  53   2.0000      -0.466101       -12.6833
  54   2.0000      -0.454269       -12.3613
  55   2.0000      -0.452823       -12.3220
  56   2.0000      -0.448736       -12.2107
  57   2.0000      -0.445965       -12.1353
  58   2.0000      -0.434184       -11.8148
  59   2.0000      -0.424199       -11.5430
  60   2.0000      -0.421690       -11.4748
  61   2.0000      -0.416548       -11.3349
  62   2.0000      -0.414974       -11.2920
  63   2.0000      -0.403495       -10.9797
  64   2.0000      -0.400407       -10.8956
  65   2.0000      -0.382305       -10.4030
  66   2.0000      -0.376455       -10.2439
  67   2.0000      -0.371581       -10.1112
  68   2.0000      -0.359487        -9.7821
  69   2.0000      -0.354728        -9.6526
  70   2.0000      -0.350853        -9.5472
  71   2.0000      -0.344592        -9.3768
  72   2.0000      -0.340295        -9.2599
  73   2.0000      -0.331453        -9.0193
  74   2.0000      -0.322273        -8.7695
  75   2.0000      -0.315167        -8.5761
  76   2.0000      -0.312767        -8.5108
  77   2.0000      -0.310531        -8.4500
  78   2.0000      -0.288425        -7.8484
  79   2.0000      -0.281378        -7.6567
  80   2.0000      -0.278530        -7.5792
  81   2.0000      -0.274339        -7.4651
  82   2.0000      -0.255512        -6.9528
  83   2.0000      -0.242820        -6.6075
  84   2.0000      -0.228451        -6.2165
  85   2.0000      -0.215999        -5.8776
  86   2.0000      -0.215224        -5.8566
  87   0.0000      -0.045222        -1.2305
  88   0.0000      -0.033593        -0.9141
  89   0.0000      -0.014832        -0.4036
  90   0.0000       0.002693         0.0733
  91   0.0000       0.012746         0.3468

MULLIKEN ATOMIC CHARGES
-----------------------
   0 C :   -0.478755
   1 C :   -0.126418
   2 O :   -0.165613
   3 C :    0.396137
   4 O :   -0.397598
   5 C :   -0.460833
   6 C :    0.019179
   7 H :    0.200725
   8 C :    0.260507
   9 O :   -0.394708
  10 O :   -0.142662
  11 C :   -0.151519
  12 C :   -0.471639
  13 S :   -0.194632
  14 P :    0.796302
  15 S :   -0.432569
  16 O :   -0.318764
  17 C :   -0.294215
  18 O :   -0.363358
  19 C :   -0.301639
  20 H :    0.149374
  21 H :    0.175784
  22 H :    0.153153
  23 H :    0.150487
  24 H :    0.173108
  25 H :    0.187176
  26 H :    0.218084
  27 H :    0.164960
  28 H :    0.181301
  29 H :    0.150759
  30 H :    0.170759
  31 H :    0.151719
  32 H :    0.166795
  33 H :    0.154999
  34 H :    0.171288
  35 H :    0.188545
  36 H :    0.144065
  37 H :    0.169716
Sum of atomic charges:   -0.0000000

LOEWDIN ATOMIC CHARGES
----------------------
   0 C :   -0.390903
   1 C :    0.030663
   2 O :   -0.588658
   3 C :    0.339524
   4 O :   -0.445125
   5 C :   -0.205792
   6 C :   -0.186085
   7 H :    0.206340
   8 C :    0.339475
   9 O :   -0.410432
  10 O :   -0.635805
  11 C :    0.031494
  12 C :   -0.387687
  13 S :    0.218788
  14 P :    0.411507
  15 S :   -0.054987
  16 O :   -0.654082
  17 C :   -0.052381
  18 O :   -0.685107
  19 C :   -0.057987
  20 H :    0.159956
  21 H :    0.166138
  22 H :    0.156899
  23 H :    0.178767
  24 H :    0.190496
  25 H :    0.193641
  26 H :    0.200888
  27 H :    0.185609
  28 H :    0.194892
  29 H :    0.160493
  30 H :    0.164585
  31 H :    0.156897
  32 H :    0.173242
  33 H :    0.179161
  34 H :    0.174755
  35 H :    0.191157
  36 H :    0.173519
  37 H :    0.176146

  Mayer bond orders larger than 0.100000
B(  0-C ,  1-C ) :   0.9281 B(  0-C , 20-H ) :   0.9648 B(  0-C , 21-H ) :   0.9691
B(  0-C , 22-H ) :   0.9727 B(  1-C ,  2-O ) :   0.8029 B(  1-C , 23-H ) :   0.9624
B(  1-C , 24-H ) :   0.9684 B(  2-O ,  3-C ) :   1.0362 B(  3-C ,  4-O ) :   1.8214
B(  3-C ,  5-C ) :   0.9061 B(  5-C ,  6-C ) :   0.9015 B(  5-C , 25-H ) :   0.9395
B(  5-C , 26-H ) :   0.9798 B(  6-C ,  7-H ) :   0.8808 B(  6-C ,  8-C ) :   0.9458
B(  6-C , 13-S ) :   0.8441 B(  8-C ,  9-O ) :   1.8667 B(  8-C , 10-O ) :   1.0992
B( 10-O , 11-C ) :   0.7922 B( 11-C , 12-C ) :   0.9232 B( 11-C , 27-H ) :   0.9565
B( 11-C , 28-H ) :   0.9632 B( 12-C , 29-H ) :   0.9657 B( 12-C , 30-H ) :   0.9726
B( 12-C , 31-H ) :   0.9766 B( 13-S , 14-P ) :   1.0019 B( 14-P , 15-S ) :   1.7652
B( 14-P , 16-O ) :   1.1396 B( 14-P , 18-O ) :   1.0393 B( 16-O , 17-C ) :   0.8025
B( 17-C , 32-H ) :   0.9552 B( 17-C , 33-H ) :   0.9654 B( 17-C , 34-H ) :   0.9609
B( 18-O , 19-C ) :   0.8312 B( 19-C , 35-H ) :   0.9412 B( 19-C , 36-H ) :   0.9680
B( 19-C , 37-H ) :   0.9576

Dispersion correction           -0.018214690
FINAL SINGLE POINT ENERGY     -1981.453000800188

DIPOLE MOMENT
-------------

Method             : SCF
Type of density    : Electron Density
Multiplicity       :   1
Irrep              :   0
Energy             : -1981.4722807112702867 Eh
Relativity type    :
Basis              : AO
                                X                 Y                 Z
Electronic contribution:     -3.978457290      -0.166089973      10.901540584
Nuclear contribution   :      3.831871683       0.150535195     -12.932299006
                        -----------------------------------------
Total Dipole Moment    :     -0.146585607      -0.015554778      -2.030758422
                        -----------------------------------------
Magnitude (a.u.)       :      2.036101436
Magnitude (Debye)      :      5.175358559

Rotational constants in cm-1:             0.012747             0.007861             0.006359
Rotational constants in MHz :           382.137002           235.659887           190.638345

                             ****ORCA TERMINATED NORMALLY****
TOTAL RUN TIME: 0 days 0 hours 1 minutes 25 seconds 691 msec
