                         Program Version 6.0.1  -  RELEASE   -
|  1> ! r2scan-3c def2/J RI DEFGRID2 scfconv6 printgap
|  2> %output
|  3>     printlevel normal
|  4> end
|  5> %cpcm
|  6>     smd true
|  7>     smdsolvent "water"
|  8> end
|  9> * xyz 0 1
| 10> C 2.1508167504 -3.0170768829 -2.9569098833
| 11> C 3.0517346527 -3.1422826634 -1.7384225635
| 12> O 2.9447617586 -1.9659741117 -0.9121298097
| 13> C 2.0245654809 -1.9411124125 0.0282385271
| 14> O 1.2949222267 -2.8663056154 0.3090960925
| 15> C 1.9577743742 -0.5838271711 0.7016262783
| 16> C 1.3303312399 0.4183866883 -0.2695959669
| 17> H 2.018768354 0.5995001135 -1.1020865003
| 18> C 1.0586748332 1.7540150384 0.4047320317
| 19> O 1.8225920987 2.2385430359 1.2036250241
| 20> O -0.0595882176 2.3121799227 -0.0178136901
| 21> C -0.4125244 3.6074679332 0.508545001
| 22> C 0.2252532952 4.7134432246 -0.3141329847
| 23> S -0.1602895144 -0.2486605641 -1.0824034781
| 24> P -1.6205040285 0.0197242043 0.4397076062
| 25> S -1.0653091963 0.3627586305 2.2883083116
| 26> O -2.6346458038 1.1087664468 -0.0881076996
| 27> C -3.2443505421 1.0271758876 -1.3929429625
| 28> O -2.500590565 -1.3084300431 0.2650984739
| 29> C -2.0563638266 -2.5665652862 0.783540454
| 30> H 2.2612529855 -3.9002797155 -3.577033131
| 31> H 1.1121250676 -2.9270911879 -2.6466714574
| 32> H 2.4192623371 -2.1368334734 -3.5337946565
| 33> H 4.1034160429 -3.1869863951 -2.021377061
| 34> H 2.7798574997 -4.0155298903 -1.1390820321
| 35> H 2.9574252397 -0.2383471901 0.9642638711
| 36> H 1.3534755521 -0.6668228449 1.6069317983
| 37> H -1.5013203028 3.6339842062 0.4533700522
| 38> H -0.0902177144 3.6510389713 1.5528604042
| 39> H -0.1164712956 5.6731895558 0.058598162
| 40> H 1.3082462177 4.6663916011 -0.2272239984
| 41> H -0.054947284 4.6128586323 -1.3589774921
| 42> H -2.4719800727 0.9661975908 -2.1595982243
| 43> H -3.8194033869 1.9437080485 -1.4947398398
| 44> H -3.8927981096 0.1549228315 -1.4443990723
| 45> H -1.0888744652 -2.8435717222 0.361920753
| 46> H -2.818864995 -3.2856256621 0.4971884613
| 47> H -1.9694123198 -2.5103451127 1.8692587758
| 48> *
| 49>
| 50>                          ****END OF INPUT****

CARTESIAN COORDINATES (ANGSTROEM)
---------------------------------
  C      2.150817   -3.017077   -2.956910
  C      3.051735   -3.142283   -1.738423
  O      2.944762   -1.965974   -0.912130
  C      2.024565   -1.941112    0.028239
  O      1.294922   -2.866306    0.309096
  C      1.957774   -0.583827    0.701626
  C      1.330331    0.418387   -0.269596
  H      2.018768    0.599500   -1.102087
  C      1.058675    1.754015    0.404732
  O      1.822592    2.238543    1.203625
  O     -0.059588    2.312180   -0.017814
  C     -0.412524    3.607468    0.508545
  C      0.225253    4.713443   -0.314133
  S     -0.160290   -0.248661   -1.082403
  P     -1.620504    0.019724    0.439708
  S     -1.065309    0.362759    2.288308
  O     -2.634646    1.108766   -0.088108
  C     -3.244351    1.027176   -1.392943
  O     -2.500591   -1.308430    0.265098
  C     -2.056364   -2.566565    0.783540
  H      2.261253   -3.900280   -3.577033
  H      1.112125   -2.927091   -2.646671
  H      2.419262   -2.136833   -3.533795
  H      4.103416   -3.186986   -2.021377
  H      2.779857   -4.015530   -1.139082
  H      2.957425   -0.238347    0.964264
  H      1.353476   -0.666823    1.606932
  H     -1.501320    3.633984    0.453370
  H     -0.090218    3.651039    1.552860
  H     -0.116471    5.673190    0.058598
  H      1.308246    4.666392   -0.227224
  H     -0.054947    4.612859   -1.358977
  H     -2.471980    0.966198   -2.159598
  H     -3.819403    1.943708   -1.494740
  H     -3.892798    0.154923   -1.444399
  H     -1.088874   -2.843572    0.361921
  H     -2.818865   -3.285626    0.497188
  H     -1.969412   -2.510345    1.869259

 Total Charge           Charge          ....    0
 Multiplicity           Mult            ....    1
 Number of Electrons    NEL             ....  174
 Basis Dimension        Dim             ....  510

ORBITAL ENERGIES
----------------

  NO   OCC          E(Eh)            E(eV)
   0   2.0000     -88.579424     -2410.3687
   1   2.0000     -88.531425     -2409.0625
   2   2.0000     -76.922729     -2093.1739
   3   2.0000     -19.011222      -517.3216
   4   2.0000     -19.008673      -517.2523
   5   2.0000     -18.998163      -516.9663
   6   2.0000     -18.994218      -516.8589
   7   2.0000     -18.954607      -515.7811
   8   2.0000     -18.947473      -515.5869
   9   2.0000     -10.179471      -276.9975
  10   2.0000     -10.169888      -276.7367
  11   2.0000     -10.104136      -274.9475
  12   2.0000     -10.087279      -274.4888
  13   2.0000     -10.085962      -274.4530
  14   2.0000     -10.085305      -274.4351
  15   2.0000     -10.079334      -274.2726
  16   2.0000     -10.052734      -273.5488
  17   2.0000     -10.020135      -272.6617
  18   2.0000     -10.019745      -272.6511
  19   2.0000      -7.874015      -214.2628
  20   2.0000      -7.826502      -212.9699
  21   2.0000      -6.600957      -179.6212
  22   2.0000      -5.821067      -158.3993
  23   2.0000      -5.817851      -158.3118
  24   2.0000      -5.810883      -158.1222
  25   2.0000      -5.774337      -157.1277
  26   2.0000      -5.766772      -156.9218
  27   2.0000      -5.766272      -156.9082
  28   2.0000      -4.746605      -129.1617
  29   2.0000      -4.745981      -129.1447
  30   2.0000      -4.744594      -129.1070
  31   2.0000      -1.092006       -29.7150
  32   2.0000      -1.086601       -29.5679
  33   2.0000      -1.053976       -28.6801
  34   2.0000      -1.011357       -27.5204
  35   2.0000      -1.003290       -27.3009
  36   2.0000      -0.995122       -27.0786
  37   2.0000      -0.815907       -22.2020
  38   2.0000      -0.752283       -20.4707
  39   2.0000      -0.739103       -20.1120
  40   2.0000      -0.730650       -19.8820
  41   2.0000      -0.695133       -18.9155
  42   2.0000      -0.670372       -18.2418
  43   2.0000      -0.662592       -18.0300
  44   2.0000      -0.654448       -17.8084
  45   2.0000      -0.626719       -17.0539
  46   2.0000      -0.600455       -16.3392
  47   2.0000      -0.542857       -14.7719
  48   2.0000      -0.528833       -14.3903
  49   2.0000      -0.524897       -14.2832
  50   2.0000      -0.507877       -13.8200
  51   2.0000      -0.493193       -13.4205
  52   2.0000      -0.475046       -12.9267
  53   2.0000      -0.471463       -12.8292
  54   2.0000      -0.464871       -12.6498
  55   2.0000      -0.455982       -12.4079
  56   2.0000      -0.450777       -12.2663
  57   2.0000      -0.447612       -12.1801
  58   2.0000      -0.435502       -11.8506
  59   2.0000      -0.426513       -11.6060
  60   2.0000      -0.423480       -11.5235
  61   2.0000      -0.414584       -11.2814
  62   2.0000      -0.410616       -11.1734
  63   2.0000      -0.401495       -10.9252
  64   2.0000      -0.400198       -10.8899
  65   2.0000      -0.378838       -10.3087
  66   2.0000      -0.373720       -10.1694
  67   2.0000      -0.366589        -9.9754
  68   2.0000      -0.359362        -9.7787
  69   2.0000      -0.355212        -9.6658
  70   2.0000      -0.348447        -9.4817
  71   2.0000      -0.344649        -9.3784
  72   2.0000      -0.337423        -9.1817
  73   2.0000      -0.331753        -9.0274
  74   2.0000      -0.323342        -8.7986
  75   2.0000      -0.315765        -8.5924
  76   2.0000      -0.310465        -8.4482
  77   2.0000      -0.307514        -8.3679
  78   2.0000      -0.291390        -7.9291
  79   2.0000      -0.284958        -7.7541
  80   2.0000      -0.284792        -7.7496
  81   2.0000      -0.280452        -7.6315
  82   2.0000      -0.267864        -7.2889
  83   2.0000      -0.256099        -6.9688
  84   2.0000      -0.238375        -6.4865
  85   2.0000      -0.229746        -6.2517
  86   2.0000      -0.227702        -6.1961
  87   0.0000      -0.052314        -1.4235
  88   0.0000      -0.042070        -1.1448
  89   0.0000      -0.022480        -0.6117
  90   0.0000      -0.000689        -0.0187
  91   0.0000       0.006146         0.1672

MULLIKEN ATOMIC CHARGES
-----------------------
   0 C :   -0.506056
   1 C :   -0.127415
   2 O :   -0.175245
   3 C :    0.414108
   4 O :   -0.461617
   5 C :   -0.479173
   6 C :    0.038483
   7 H :    0.250720
   8 C :    0.278006
   9 O :   -0.463838
  10 O :   -0.155512
  11 C :   -0.145739
  12 C :   -0.499846
  13 S :   -0.188758
  14 P :    0.818984
  15 S :   -0.490801
  16 O :   -0.354141
  17 C :   -0.299427
  18 O :   -0.382481
  19 C :   -0.322248
  20 H :    0.172441
  21 H :    0.170230
  22 H :    0.170771
  23 H :    0.176390
  24 H :    0.176415
  25 H :    0.207107
  26 H :    0.215301
  27 H :    0.182521
  28 H :    0.178884
  29 H :    0.173478
  30 H :    0.171058
  31 H :    0.169003
  32 H :    0.178529
  33 H :    0.183961
  34 H :    0.186300
  35 H :    0.182431
  36 H :    0.177224
  37 H :    0.179954
Sum of atomic charges:   -0.0000000

LOEWDIN ATOMIC CHARGES
----------------------
   0 C :   -0.392689
   1 C :    0.037147
   2 O :   -0.584603
   3 C :    0.347003
   4 O :   -0.491243
   5 C :   -0.206414
   6 C :   -0.180813
   7 H :    0.226136
   8 C :    0.348281
   9 O :   -0.460714
  10 O :   -0.635432
  11 C :    0.034808
  12 C :   -0.387620
  13 S :    0.233370
  14 P :    0.412332
  15 S :   -0.098558
  16 O :   -0.671555
  17 C :   -0.042931
  18 O :   -0.693349
  19 C :   -0.057321
  20 H :    0.168643
  21 H :    0.162596
  22 H :    0.162733
  23 H :    0.190357
  24 H :    0.191640
  25 H :    0.202900
  26 H :    0.196749
  27 H :    0.193108
  28 H :    0.193368
  29 H :    0.169113
  30 H :    0.163908
  31 H :    0.163723
  32 H :    0.179343
  33 H :    0.191768
  34 H :    0.181828
  35 H :    0.187413
  36 H :    0.187360
  37 H :    0.177617

  Mayer bond orders larger than 0.100000
B(  0-C ,  1-C ) :   0.9230 B(  0-C , 20-H ) :   0.9594 B(  0-C , 21-H ) :   0.9678
B(  0-C , 22-H ) :   0.9689 B(  1-C ,  2-O ) :   0.7865 B(  1-C , 23-H ) :   0.9525
B(  1-C , 24-H ) :   0.9646 B(  2-O ,  3-C ) :   1.0681 B(  3-C ,  4-O ) :   1.7696
B(  3-C ,  5-C ) :   0.9240 B(  5-C ,  6-C ) :   0.8785 B(  5-C , 25-H ) :   0.9191
B(  5-C , 26-H ) :   0.9892 B(  6-C ,  7-H ) :   0.8592 B(  6-C ,  8-C ) :   0.9555
B(  6-C , 13-S ) :   0.8244 B(  8-C ,  9-O ) :   1.8176 B(  8-C , 10-O ) :   1.1203
B( 10-O , 11-C ) :   0.7727 B( 11-C , 12-C ) :   0.9320 B( 11-C , 27-H ) :   0.9474
B( 11-C , 28-H ) :   0.9547 B( 12-C , 29-H ) :   0.9598 B( 12-C , 30-H ) :   0.9693
B( 12-C , 31-H ) :   0.9720 B( 13-S , 14-P ) :   1.0203 B( 14-P , 15-S ) :   1.7338
B( 14-P , 16-O ) :   1.1449 B( 14-P , 18-O ) :   1.0356 B( 16-O , 17-C ) :   0.7935
B( 17-C , 32-H ) :   0.9467 B( 17-C , 33-H ) :   0.9542 B( 17-C , 34-H ) :   0.9520
B( 18-O , 19-C ) :   0.8228 B( 19-C , 35-H ) :   0.9418 B( 19-C , 36-H ) :   0.9573
B( 19-C , 37-H ) :   0.9549

Dispersion correction           -0.018214690
FINAL SINGLE POINT ENERGY     -1981.466137210223

DIPOLE MOMENT
-------------

Method             : SCF
Type of density    : Electron Density
Multiplicity       :   1
Irrep              :   0
Energy             : -1981.4854171213053178 Eh
Relativity type    :
Basis              : AO
                                X                 Y                 Z
Electronic contribution:     -3.920081137      -0.116434939       9.884007428
Nuclear contribution   :      3.831871683       0.150535195     -12.932299006
                        -----------------------------------------
Total Dipole Moment    :     -0.088209454       0.034100256      -3.048291578
                        -----------------------------------------
Magnitude (a.u.)       :      3.049758233
Magnitude (Debye)      :      7.751869376

Rotational constants in cm-1:             0.012747             0.007861             0.006359
Rotational constants in MHz :           382.137002           235.659887           190.638345

                             ****ORCA TERMINATED NORMALLY****
TOTAL RUN TIME: 0 days 0 hours 1 minutes 52 seconds 574 msec
