                         Program Version 6.0.0  -   RELEASE  -
|  1> ! pbe def2-sv(p) def2/J RI DEFGRID1 loosescf d4 GCP(DFT/SV(P)) printgap
|  2> %output
|  3>     printlevel normal
|  4> end
|  5> * xyz 0 1
|  6> C 5.2215431785 -2.395680841 -1.724828501
|  7> C 4.1279902015 -1.3515062948 -1.8199916247
|  8> O 3.5425002471 -1.2086770209 -0.5086746793
|  9> P 2.6166609956 0.0270408088 -0.1437774351
| 10> S 3.3500228798 1.8073709728 -0.4869349281
| 11> O 2.3205267692 -0.202096971 1.3798654091
| 12> C 1.8265592586 -1.4576666496 1.9216372691
| 13> C 1.0780451448 -1.1424668432 3.1998776894
| 14> S 0.8151003336 -0.4110269987 -1.2118936217
| 15> C 0.0083372413 1.1665772225 -0.8568118005
| 16> S -0.8876918656 1.146997056 0.7087577282
| 17> P -2.6962750398 0.336811877 -0.1037255
| 18> S -3.2569465216 1.1086870825 -1.8128286083
| 19> O -3.6916511927 0.3792671203 1.132268247
| 20> C -3.956854491 1.531783954 1.9539885602
| 21> C -4.4020699386 2.7345526434 1.149287053
| 22> O -2.4749876049 -1.2089986251 -0.284917642
| 23> C -2.0840728274 -2.1008198805 0.792152246
| 24> C -1.3938964201 -3.2975178027 0.1707200382
| 25> H 5.6728842704 -2.528040249 -2.7025435965
| 26> H 5.9826447677 -2.074830933 -1.019236054
| 27> H 4.8044780135 -3.3406320579 -1.3896278722
| 28> H 3.3400588396 -1.6570092135 -2.5136866055
| 29> H 4.5232381738 -0.3797612001 -2.1331777808
| 30> H 1.1802733626 -1.9293511441 1.1762655624
| 31> H 2.6909294999 -2.0974733859 2.1051400707
| 32> H 0.2622272267 -0.4526655037 2.9968943675
| 33> H 0.6832811746 -2.061929337 3.6199621978
| 34> H 1.7476308306 -0.6767568107 3.916864749
| 35> H -0.6997753879 1.3688750029 -1.6631994991
| 36> H 0.7716910203 1.9446299178 -0.7979239529
| 37> H -4.7431996598 1.189056019 2.6287616916
| 38> H -3.0510532724 1.7609397189 2.5220546104
| 39> H -4.6671697603 3.5428370555 1.8232266425
| 40> H -3.5979933232 3.0684562905 0.4945693677
| 41> H -5.2618343488 2.4822534477 0.5330005646
| 42> H -1.4212083225 -1.5588011432 1.4724846428
| 43> H -2.9907695212 -2.3892975111 1.3263953599
| 44> H -2.0761500639 -3.8126001738 -0.4990696316
| 45> H -0.529340674 -2.9749897785 -0.4048404648
| 46> H -1.0778807058 -3.9769216299 0.9557504241
| 47> *
| 48>
| 49>                          ****END OF INPUT****

CARTESIAN COORDINATES (ANGSTROEM)
---------------------------------
  C      5.221543   -2.395681   -1.724829
  C      4.127990   -1.351506   -1.819992
  O      3.542500   -1.208677   -0.508675
  P      2.616661    0.027041   -0.143777
  S      3.350023    1.807371   -0.486935
  O      2.320527   -0.202097    1.379865
  C      1.826559   -1.457667    1.921637
  C      1.078045   -1.142467    3.199878
  S      0.815100   -0.411027   -1.211894
  C      0.008337    1.166577   -0.856812
  S     -0.887692    1.146997    0.708758
  P     -2.696275    0.336812   -0.103725
  S     -3.256947    1.108687   -1.812829
  O     -3.691651    0.379267    1.132268
  C     -3.956854    1.531784    1.953989
  C     -4.402070    2.734553    1.149287
  O     -2.474988   -1.208999   -0.284918
  C     -2.084073   -2.100820    0.792152
  C     -1.393896   -3.297518    0.170720
  H      5.672884   -2.528040   -2.702544
  H      5.982645   -2.074831   -1.019236
  H      4.804478   -3.340632   -1.389628
  H      3.340059   -1.657009   -2.513687
  H      4.523238   -0.379761   -2.133178
  H      1.180273   -1.929351    1.176266
  H      2.690929   -2.097473    2.105140
  H      0.262227   -0.452666    2.996894
  H      0.683281   -2.061929    3.619962
  H      1.747631   -0.676757    3.916865
  H     -0.699775    1.368875   -1.663199
  H      0.771691    1.944630   -0.797924
  H     -4.743200    1.189056    2.628762
  H     -3.051053    1.760940    2.522055
  H     -4.667170    3.542837    1.823227
  H     -3.597993    3.068456    0.494569
  H     -5.261834    2.482253    0.533001
  H     -1.421208   -1.558801    1.472485
  H     -2.990770   -2.389298    1.326395
  H     -2.076150   -3.812600   -0.499070
  H     -0.529341   -2.974990   -0.404840
  H     -1.077881   -3.976922    0.955750

 Total Charge           Charge          ....    0
 Multiplicity           Mult            ....    1
 Number of Electrons    NEL             ....  202
 Basis Dimension        Dim             ....  334

ORBITAL ENERGIES
----------------

  NO   OCC          E(Eh)            E(eV)
   0   2.0000     -88.046593     -2395.8696
   1   2.0000     -88.044218     -2395.8050
   2   2.0000     -87.986478     -2394.2338
   3   2.0000     -87.984337     -2394.1755
   4   2.0000     -76.428942     -2079.7372
   5   2.0000     -76.428374     -2079.7218
   6   2.0000     -18.799828      -511.5693
   7   2.0000     -18.799670      -511.5650
   8   2.0000     -18.798391      -511.5302
   9   2.0000     -18.794460      -511.4233
  10   2.0000      -9.963359      -271.1168
  11   2.0000      -9.962542      -271.0945
  12   2.0000      -9.959668      -271.0164
  13   2.0000      -9.958898      -270.9954
  14   2.0000      -9.951187      -270.7856
  15   2.0000      -9.893681      -269.2207
  16   2.0000      -9.893265      -269.2094
  17   2.0000      -9.891617      -269.1646
  18   2.0000      -9.885645      -269.0021
  19   2.0000      -7.691262      -209.2899
  20   2.0000      -7.689073      -209.2303
  21   2.0000      -7.631794      -207.6717
  22   2.0000      -7.629657      -207.6135
  23   2.0000      -6.426331      -174.8694
  24   2.0000      -6.426295      -174.8684
  25   2.0000      -5.718798      -155.6164
  26   2.0000      -5.716626      -155.5573
  27   2.0000      -5.715777      -155.5342
  28   2.0000      -5.713664      -155.4767
  29   2.0000      -5.708652      -155.3403
  30   2.0000      -5.706342      -155.2774
  31   2.0000      -5.660809      -154.0384
  32   2.0000      -5.658769      -153.9829
  33   2.0000      -5.652462      -153.8113
  34   2.0000      -5.651777      -153.7927
  35   2.0000      -5.650259      -153.7514
  36   2.0000      -5.649596      -153.7333
  37   2.0000      -4.649276      -126.5132
  38   2.0000      -4.649258      -126.5128
  39   2.0000      -4.648326      -126.4874
  40   2.0000      -4.648035      -126.4795
  41   2.0000      -4.646335      -126.4332
  42   2.0000      -4.646243      -126.4307
  43   2.0000      -0.995085       -27.0776
  44   2.0000      -0.993270       -27.0283
  45   2.0000      -0.951871       -25.9017
  46   2.0000      -0.949443       -25.8357
  47   2.0000      -0.766031       -20.8448
  48   2.0000      -0.728270       -19.8172
  49   2.0000      -0.719478       -19.5780
  50   2.0000      -0.698141       -18.9974
  51   2.0000      -0.694604       -18.9011
  52   2.0000      -0.679657       -18.4944
  53   2.0000      -0.651208       -17.7203
  54   2.0000      -0.639251       -17.3949
  55   2.0000      -0.593417       -16.1477
  56   2.0000      -0.588653       -16.0181
  57   2.0000      -0.577698       -15.7200
  58   2.0000      -0.575951       -15.6724
  59   2.0000      -0.567685       -15.4475
  60   2.0000      -0.518493       -14.1089
  61   2.0000      -0.509457       -13.8630
  62   2.0000      -0.490298       -13.3417
  63   2.0000      -0.479612       -13.0509
  64   2.0000      -0.467191       -12.7129
  65   2.0000      -0.452221       -12.3055
  66   2.0000      -0.445126       -12.1125
  67   2.0000      -0.441249       -12.0070
  68   2.0000      -0.433734       -11.8025
  69   2.0000      -0.422264       -11.4904
  70   2.0000      -0.417608       -11.3637
  71   2.0000      -0.403915       -10.9911
  72   2.0000      -0.394619       -10.7381
  73   2.0000      -0.390093       -10.6150
  74   2.0000      -0.380850       -10.3635
  75   2.0000      -0.371556       -10.1106
  76   2.0000      -0.369344       -10.0504
  77   2.0000      -0.362520        -9.8647
  78   2.0000      -0.361229        -9.8295
  79   2.0000      -0.353931        -9.6309
  80   2.0000      -0.352142        -9.5823
  81   2.0000      -0.349944        -9.5225
  82   2.0000      -0.345256        -9.3949
  83   2.0000      -0.342117        -9.3095
  84   2.0000      -0.338616        -9.2142
  85   2.0000      -0.323192        -8.7945
  86   2.0000      -0.320654        -8.7254
  87   2.0000      -0.307441        -8.3659
  88   2.0000      -0.305436        -8.3113
  89   2.0000      -0.301166        -8.1951
  90   2.0000      -0.299158        -8.1405
  91   2.0000      -0.281656        -7.6642
  92   2.0000      -0.278052        -7.5662
  93   2.0000      -0.268169        -7.2972
  94   2.0000      -0.258683        -7.0391
  95   2.0000      -0.242782        -6.6064
  96   2.0000      -0.226483        -6.1629
  97   2.0000      -0.209507        -5.7010
  98   2.0000      -0.202998        -5.5239
  99   2.0000      -0.200409        -5.4534
 100   2.0000      -0.196603        -5.3499
 101   0.0000      -0.043118        -1.1733
 102   0.0000      -0.030105        -0.8192
 103   0.0000      -0.012897        -0.3509
 104   0.0000       0.001425         0.0388
 105   0.0000       0.013440         0.3657

MULLIKEN ATOMIC CHARGES
-----------------------
   0 C :   -0.280392
   1 C :   -0.014217
   2 O :   -0.388406
   3 P :    0.593874
   4 S :   -0.305480
   5 O :   -0.354424
   6 C :   -0.025018
   7 C :   -0.293615
   8 S :   -0.099462
   9 C :   -0.364260
  10 S :   -0.108769
  11 P :    0.590938
  12 S :   -0.299517
  13 O :   -0.383286
  14 C :   -0.012610
  15 C :   -0.310338
  16 O :   -0.352781
  17 C :   -0.024066
  18 C :   -0.293699
  19 H :    0.115486
  20 H :    0.122552
  21 H :    0.114216
  22 H :    0.107603
  23 H :    0.110670
  24 H :    0.110925
  25 H :    0.110823
  26 H :    0.137446
  27 H :    0.106612
  28 H :    0.123284
  29 H :    0.195173
  30 H :    0.193642
  31 H :    0.110053
  32 H :    0.114210
  33 H :    0.113144
  34 H :    0.129634
  35 H :    0.128162
  36 H :    0.106766
  37 H :    0.108829
  38 H :    0.123221
  39 H :    0.138056
  40 H :    0.105018
Sum of atomic charges:   -0.0000000

LOEWDIN ATOMIC CHARGES
----------------------
   0 C :   -0.350110
   1 C :   -0.117939
   2 O :   -0.251495
   3 P :    0.566099
   4 S :   -0.308029
   5 O :   -0.233713
   6 C :   -0.113711
   7 C :   -0.356537
   8 S :    0.069853
   9 C :   -0.491678
  10 S :    0.068018
  11 P :    0.568296
  12 S :   -0.301993
  13 O :   -0.246321
  14 C :   -0.113734
  15 C :   -0.368429
  16 O :   -0.234149
  17 C :   -0.116026
  18 C :   -0.356596
  19 H :    0.132674
  20 H :    0.129981
  21 H :    0.125880
  22 H :    0.110552
  23 H :    0.112627
  24 H :    0.104264
  25 H :    0.118069
  26 H :    0.121998
  27 H :    0.128085
  28 H :    0.131438
  29 H :    0.128295
  30 H :    0.127968
  31 H :    0.121664
  32 H :    0.108634
  33 H :    0.131063
  34 H :    0.123647
  35 H :    0.131315
  36 H :    0.102289
  37 H :    0.116916
  38 H :    0.131419
  39 H :    0.122334
  40 H :    0.127084

  Mayer bond orders larger than 0.100000
B(  0-C ,  1-C ) :   1.1602 B(  0-C , 19-H ) :   0.9414 B(  0-C , 20-H ) :   0.9508
B(  0-C , 21-H ) :   0.9510 B(  1-C ,  2-O ) :   0.9010 B(  1-C , 22-H ) :   0.9289
B(  1-C , 23-H ) :   0.9126 B(  2-O ,  3-P ) :   1.0888 B(  3-P ,  4-S ) :   1.6561
B(  3-P ,  5-O ) :   1.1487 B(  3-P ,  8-S ) :   0.9486 B(  4-S ,  8-S ) :   0.1092
B(  4-S , 30-H ) :   0.1062 B(  5-O ,  6-C ) :   0.8832 B(  6-C ,  7-C ) :   1.1693
B(  6-C , 24-H ) :   0.9044 B(  6-C , 25-H ) :   0.9304 B(  7-C , 26-H ) :   0.9310
B(  7-C , 27-H ) :   0.9400 B(  7-C , 28-H ) :   0.9453 B(  8-S ,  9-C ) :   1.0006
B(  9-C , 10-S ) :   1.0000 B(  9-C , 29-H ) :   0.8551 B(  9-C , 30-H ) :   0.8579
B( 10-S , 11-P ) :   0.9381 B( 10-S , 12-S ) :   0.1103 B( 11-P , 12-S ) :   1.6495
B( 11-P , 13-O ) :   1.0897 B( 11-P , 16-O ) :   1.1418 B( 12-S , 29-H ) :   0.1103
B( 13-O , 14-C ) :   0.9111 B( 14-C , 15-C ) :   1.1669 B( 14-C , 31-H ) :   0.9333
B( 14-C , 32-H ) :   0.9267 B( 15-C , 33-H ) :   0.9348 B( 15-C , 34-H ) :   0.9319
B( 15-C , 35-H ) :   0.9435 B( 16-O , 17-C ) :   0.8857 B( 17-C , 18-C ) :   1.1691
B( 17-C , 36-H ) :   0.9049 B( 17-C , 37-H ) :   0.9302 B( 18-C , 38-H ) :   0.9454
B( 18-C , 39-H ) :   0.9316 B( 18-C , 40-H ) :   0.9404

Dispersion correction           -0.062953485
FINAL SINGLE POINT ENERGY     -2929.518832803595

DIPOLE MOMENT
-------------

Method             : SCF
Type of density    : Electron Density
Multiplicity       :   1
Irrep              :   0
Energy             : -2929.6402329592997376 Eh
Relativity type    :
Basis              : AO
                                X                 Y                 Z
Electronic contribution:     -1.472496182      14.357679353     -10.599537831
Nuclear contribution   :      1.513609578     -15.994510555      12.006156719
                        -----------------------------------------
Total Dipole Moment    :      0.041113395      -1.636831203       1.406618887
                        -----------------------------------------
Magnitude (a.u.)       :      2.158583654
Magnitude (Debye)      :      5.486683615

Rotational constants in cm-1:             0.012737             0.004382             0.004219
Rotational constants in MHz :           381.837974           131.377717           126.470056

                             ****ORCA TERMINATED NORMALLY****
TOTAL RUN TIME: 0 days 0 hours 0 minutes 20 seconds 877 msec
