                         Program Version 6.0.1  -  RELEASE   -
|  1> ! pbe def2-sv(p) def2/J RI DEFGRID1 loosescf d4 GCP(DFT/SV(P)) printgap
|  2> %output
|  3>     printlevel normal
|  4> end
|  5> * xyz 0 1
|  6> C 5.0263954664 -2.6310648894 -0.7740278712
|  7> C 3.6453488583 -3.1028845524 -1.1997218552
|  8> O 2.9108725637 -2.0347291322 -1.8308331245
|  9> C 2.2112396368 -1.2180950686 -1.078975969
| 10> O 2.098972498 -1.3072660682 0.1282833851
| 11> C 1.5472038515 -0.125318179 -1.8898354089
| 12> C 0.3958992764 0.4639666489 -1.0889909745
| 13> H 0.0179568035 1.3805350715 -1.5515099214
| 14> C 0.8120907853 0.7944094441 0.3328743047
| 15> O 0.1293805235 0.4963060057 1.294532643
| 16> O 1.9075678061 1.504524002 0.3718893971
| 17> C 2.3575597315 1.9828205476 1.6571198489
| 18> C 1.6554325147 3.280560693 2.0213799818
| 19> S -0.9890035068 -0.7216752416 -0.9883471767
| 20> P -2.2412903737 0.3242592374 0.370047513
| 21> S -2.1452997858 2.2791595162 0.3811740078
| 22> O -3.6717702416 -0.187809451 -0.1757842574
| 23> C -4.1880459797 0.239595609 -1.4380435761
| 24> O -2.3123419281 -0.3594972655 1.7947290587
| 25> C -2.163809714 -1.7772426042 1.9825685248
| 26> H 4.9405009778 -1.8623191006 -0.0093017762
| 27> H 5.5823951824 -3.4695727911 -0.3679478797
| 28> H 5.5622900961 -2.2249754669 -1.6272775401
| 29> H 3.0730659291 -3.4596243145 -0.3388769542
| 30> H 3.7071510199 -3.8777366839 -1.9635689842
| 31> H 1.2022436274 -0.5292906487 -2.8406247358
| 32> H 2.2900653808 0.6519011416 -2.0821200698
| 33> H 2.1627441392 1.2065676734 2.401961271
| 34> H 3.4299110583 2.1293683869 1.5285859516
| 35> H 2.0240665401 3.6330767086 2.9787797624
| 36> H 1.8417006219 4.0348910454 1.2621694698
| 37> H 0.5809834357 3.1197891316 2.0944898292
| 38> H -4.1079893805 1.3247080174 -1.5251821054
| 39> H -5.2310297256 -0.0660557347 -1.4470244795
| 40> H -3.6372454484 -0.2413740559 -2.2464292165
| 41> H -1.1221616392 -2.0558020135 1.8178211498
| 42> H -2.8163981807 -2.3208338726 1.3004852016
| 43> H -2.4463500846 -1.9570427433 3.0165563641
| 44> *
| 45>
| 46>                          ****END OF INPUT****

CARTESIAN COORDINATES (ANGSTROEM)
---------------------------------
  C      5.026395   -2.631065   -0.774028
  C      3.645349   -3.102885   -1.199722
  O      2.910873   -2.034729   -1.830833
  C      2.211240   -1.218095   -1.078976
  O      2.098972   -1.307266    0.128283
  C      1.547204   -0.125318   -1.889835
  C      0.395899    0.463967   -1.088991
  H      0.017957    1.380535   -1.551510
  C      0.812091    0.794409    0.332874
  O      0.129381    0.496306    1.294533
  O      1.907568    1.504524    0.371889
  C      2.357560    1.982821    1.657120
  C      1.655433    3.280561    2.021380
  S     -0.989004   -0.721675   -0.988347
  P     -2.241290    0.324259    0.370048
  S     -2.145300    2.279160    0.381174
  O     -3.671770   -0.187809   -0.175784
  C     -4.188046    0.239596   -1.438044
  O     -2.312342   -0.359497    1.794729
  C     -2.163810   -1.777243    1.982569
  H      4.940501   -1.862319   -0.009302
  H      5.582395   -3.469573   -0.367948
  H      5.562290   -2.224975   -1.627278
  H      3.073066   -3.459624   -0.338877
  H      3.707151   -3.877737   -1.963569
  H      1.202244   -0.529291   -2.840625
  H      2.290065    0.651901   -2.082120
  H      2.162744    1.206568    2.401961
  H      3.429911    2.129368    1.528586
  H      2.024067    3.633077    2.978780
  H      1.841701    4.034891    1.262169
  H      0.580983    3.119789    2.094490
  H     -4.107989    1.324708   -1.525182
  H     -5.231030   -0.066056   -1.447024
  H     -3.637245   -0.241374   -2.246429
  H     -1.122162   -2.055802    1.817821
  H     -2.816398   -2.320834    1.300485
  H     -2.446350   -1.957043    3.016556

 Total Charge           Charge          ....    0
 Multiplicity           Mult            ....    1
 Number of Electrons    NEL             ....  174
 Basis Dimension        Dim             ....  316

ORBITAL ENERGIES
----------------

  NO   OCC          E(Eh)            E(eV)
   0   2.0000     -88.032612     -2395.4892
   1   2.0000     -87.966147     -2393.6805
   2   2.0000     -76.414076     -2079.3327
   3   2.0000     -18.816987      -512.0363
   4   2.0000     -18.806181      -511.7422
   5   2.0000     -18.774057      -510.8681
   6   2.0000     -18.771286      -510.7927
   7   2.0000     -18.754288      -510.3301
   8   2.0000     -18.735957      -509.8313
   9   2.0000     -10.024213      -272.7727
  10   2.0000     -10.014052      -272.4962
  11   2.0000      -9.959325      -271.0070
  12   2.0000      -9.945868      -270.6408
  13   2.0000      -9.945067      -270.6190
  14   2.0000      -9.935147      -270.3491
  15   2.0000      -9.928527      -270.1690
  16   2.0000      -9.923514      -270.0325
  17   2.0000      -9.897447      -269.3232
  18   2.0000      -9.877737      -268.7869
  19   2.0000      -7.677372      -208.9119
  20   2.0000      -7.611504      -207.1196
  21   2.0000      -6.409705      -174.4169
  22   2.0000      -5.705212      -155.2467
  23   2.0000      -5.702014      -155.1597
  24   2.0000      -5.694309      -154.9500
  25   2.0000      -5.640697      -153.4912
  26   2.0000      -5.632251      -153.2613
  27   2.0000      -5.631164      -153.2318
  28   2.0000      -4.632343      -126.0525
  29   2.0000      -4.631956      -126.0419
  30   2.0000      -4.630066      -125.9905
  31   2.0000      -1.026222       -27.9249
  32   2.0000      -1.014588       -27.6083
  33   2.0000      -0.967776       -26.3345
  34   2.0000      -0.931080       -25.3360
  35   2.0000      -0.923143       -25.1200
  36   2.0000      -0.916536       -24.9402
  37   2.0000      -0.765784       -20.8380
  38   2.0000      -0.720434       -19.6040
  39   2.0000      -0.701727       -19.0950
  40   2.0000      -0.686308       -18.6754
  41   2.0000      -0.658234       -17.9115
  42   2.0000      -0.622862       -16.9489
  43   2.0000      -0.617080       -16.7916
  44   2.0000      -0.606376       -16.5003
  45   2.0000      -0.600537       -16.3414
  46   2.0000      -0.562501       -15.3064
  47   2.0000      -0.510885       -13.9019
  48   2.0000      -0.505562       -13.7570
  49   2.0000      -0.495937       -13.4951
  50   2.0000      -0.484693       -13.1892
  51   2.0000      -0.466004       -12.6806
  52   2.0000      -0.457597       -12.4519
  53   2.0000      -0.446984       -12.1631
  54   2.0000      -0.438987       -11.9454
  55   2.0000      -0.429397       -11.6845
  56   2.0000      -0.423766       -11.5313
  57   2.0000      -0.415381       -11.3031
  58   2.0000      -0.414488       -11.2788
  59   2.0000      -0.401393       -10.9225
  60   2.0000      -0.398561       -10.8454
  61   2.0000      -0.394799       -10.7430
  62   2.0000      -0.387922       -10.5559
  63   2.0000      -0.385593       -10.4925
  64   2.0000      -0.381538       -10.3822
  65   2.0000      -0.370578       -10.0839
  66   2.0000      -0.365440        -9.9441
  67   2.0000      -0.349672        -9.5150
  68   2.0000      -0.346876        -9.4390
  69   2.0000      -0.339709        -9.2440
  70   2.0000      -0.333090        -9.0638
  71   2.0000      -0.328185        -8.9304
  72   2.0000      -0.324585        -8.8324
  73   2.0000      -0.307807        -8.3759
  74   2.0000      -0.305955        -8.3255
  75   2.0000      -0.295045        -8.0286
  76   2.0000      -0.284044        -7.7292
  77   2.0000      -0.281135        -7.6501
  78   2.0000      -0.275134        -7.4868
  79   2.0000      -0.262358        -7.1391
  80   2.0000      -0.254319        -6.9204
  81   2.0000      -0.244007        -6.6398
  82   2.0000      -0.239109        -6.5065
  83   2.0000      -0.226506        -6.1636
  84   2.0000      -0.214290        -5.8311
  85   2.0000      -0.188486        -5.1290
  86   2.0000      -0.179770        -4.8918
  87   0.0000      -0.040916        -1.1134
  88   0.0000      -0.028643        -0.7794
  89   0.0000      -0.019150        -0.5211
  90   0.0000       0.011528         0.3137
  91   0.0000       0.033847         0.9210

MULLIKEN ATOMIC CHARGES
-----------------------
   0 C :   -0.305934
   1 C :   -0.014735
   2 O :   -0.221390
   3 C :    0.117970
   4 O :   -0.195738
   5 C :   -0.099199
   6 C :   -0.285757
   7 H :    0.146575
   8 C :    0.238237
   9 O :   -0.194915
  10 O :   -0.235281
  11 C :   -0.007028
  12 C :   -0.310276
  13 S :   -0.105157
  14 P :    0.615966
  15 S :   -0.337066
  16 O :   -0.392389
  17 C :   -0.096720
  18 O :   -0.353560
  19 C :   -0.098484
  20 H :    0.126743
  21 H :    0.118046
  22 H :    0.117008
  23 H :    0.115741
  24 H :    0.108315
  25 H :    0.128755
  26 H :    0.140682
  27 H :    0.116034
  28 H :    0.097311
  29 H :    0.109307
  30 H :    0.109500
  31 H :    0.146555
  32 H :    0.111436
  33 H :    0.117954
  34 H :    0.104415
  35 H :    0.130180
  36 H :    0.111093
  37 H :    0.125805
Sum of atomic charges:    0.0000000

LOEWDIN ATOMIC CHARGES
----------------------
   0 C :   -0.355240
   1 C :   -0.108857
   2 O :   -0.050801
   3 C :    0.037029
   4 O :   -0.148782
   5 C :   -0.251548
   6 C :   -0.262769
   7 H :    0.143788
   8 C :    0.015620
   9 O :   -0.160523
  10 O :   -0.047824
  11 C :   -0.104410
  12 C :   -0.358702
  13 S :    0.089449
  14 P :    0.592534
  15 S :   -0.333077
  16 O :   -0.271614
  17 C :   -0.221936
  18 O :   -0.232562
  19 C :   -0.207957
  20 H :    0.130534
  21 H :    0.133216
  22 H :    0.126252
  23 H :    0.123049
  24 H :    0.120626
  25 H :    0.143061
  26 H :    0.156296
  27 H :    0.124411
  28 H :    0.115277
  29 H :    0.129288
  30 H :    0.123515
  31 H :    0.135842
  32 H :    0.107091
  33 H :    0.118539
  34 H :    0.101964
  35 H :    0.116794
  36 H :    0.108408
  37 H :    0.124015

  Mayer bond orders larger than 0.100000
B(  0-C ,  1-C ) :   1.1746 B(  0-C , 20-H ) :   0.9465 B(  0-C , 21-H ) :   0.9438
B(  0-C , 22-H ) :   0.9486 B(  1-C ,  2-O ) :   0.9077 B(  1-C , 23-H ) :   0.9143
B(  1-C , 24-H ) :   0.9368 B(  2-O ,  3-C ) :   1.2573 B(  3-C ,  4-O ) :   1.9882
B(  3-C ,  5-C ) :   0.9903 B(  4-O ,  8-C ) :   0.1013 B(  5-C ,  6-C ) :   1.0577
B(  5-C , 25-H ) :   0.9011 B(  5-C , 26-H ) :   0.8754 B(  6-C ,  7-H ) :   0.8582
B(  6-C ,  8-C ) :   0.8786 B(  6-C , 13-S ) :   1.0334 B(  8-C ,  9-O ) :   1.9548
B(  8-C , 10-O ) :   1.2510 B(  9-O , 14-P ) :   0.1145 B( 10-O , 11-C ) :   0.9033
B( 11-C , 12-C ) :   1.1777 B( 11-C , 27-H ) :   0.9153 B( 11-C , 28-H ) :   0.9378
B( 12-C , 29-H ) :   0.9426 B( 12-C , 30-H ) :   0.9483 B( 12-C , 31-H ) :   0.9338
B( 13-S , 14-P ) :   0.9369 B( 13-S , 15-S ) :   0.1091 B( 14-P , 15-S ) :   1.6059
B( 14-P , 16-O ) :   1.0493 B( 14-P , 18-O ) :   1.1312 B( 16-O , 17-C ) :   0.9447
B( 17-C , 32-H ) :   0.9324 B( 17-C , 33-H ) :   0.9592 B( 17-C , 34-H ) :   0.9453
B( 18-O , 19-C ) :   0.9239 B( 19-C , 35-H ) :   0.9431 B( 19-C , 36-H ) :   0.9452
B( 19-C , 37-H ) :   0.9594

Dispersion correction           -0.051907824
FINAL SINGLE POINT ENERGY     -1979.014184660008

DIPOLE MOMENT
-------------

Method             : SCF
Type of density    : Electron Density
Multiplicity       :   1
Irrep              :   0
Energy             : -1979.1448274101185234 Eh
Relativity type    :
Basis              : AO
                                X                 Y                 Z
Electronic contribution:    -16.365672765       3.451553001      -1.002396274
Nuclear contribution   :     18.108560259      -4.663163989       0.086571667
                        -----------------------------------------
Total Dipole Moment    :      1.742887494      -1.211610988      -0.915824608
                        -----------------------------------------
Magnitude (a.u.)       :      2.311794263
Magnitude (Debye)      :      5.876114035

Rotational constants in cm-1:             0.014165             0.006614             0.005459
Rotational constants in MHz :           424.663674           198.281752           163.661892

                             ****ORCA TERMINATED NORMALLY****
TOTAL RUN TIME: 0 days 0 hours 0 minutes 36 seconds 468 msec
