                         Program Version 6.0.0  -   RELEASE  -
|  1> ! pbe def2-sv(p) def2/J RI DEFGRID1 loosescf d4 GCP(DFT/SV(P)) printgap
|  2> %output
|  3>     printlevel normal
|  4> end
|  5> * xyz 0 1
|  6> C 5.75880254 0.6470072138 -0.8229242855
|  7> C 4.3400883504 0.2279422018 -1.1504121099
|  8> O 3.4500230122 0.8787634689 -0.2083348117
|  9> P 2.1260976164 0.199536778 0.3362597975
| 10> S 1.3394270282 1.3260874191 1.7214343497
| 11> O 2.4868655305 -1.2938505709 0.7755322441
| 12> C 2.7168684753 -1.6382127076 2.1571234888
| 13> C 4.0739387588 -1.15191673 2.6218893414
| 14> S 1.065422235 -0.2235213643 -1.454283399
| 15> C 0.0165718898 -1.5872988429 -0.86358267
| 16> S -1.0696067218 -1.1303175957 0.5024227872
| 17> P -2.40906017 0.0847158683 -0.6378877476
| 18> S -2.6183630472 -0.4361406305 -2.5101538764
| 19> O -1.8882111161 1.5712653798 -0.56709432
| 20> C -1.8190650447 2.3544675911 0.6474292128
| 21> C -3.0288716907 3.25702052 0.7652836615
| 22> O -3.6975700067 0.1395968317 0.287860555
| 23> C -4.3531889735 -1.0050278037 0.8679580624
| 24> C -4.7253810416 -2.0528958954 -0.1593276765
| 25> H 6.4358371831 0.2054473704 -1.5471312813
| 26> H 5.8435430336 1.7291399717 -0.8641091162
| 27> H 6.0315653578 0.3144473218 0.1749095121
| 28> H 4.2124783069 -0.8544741907 -1.0704496071
| 29> H 4.047129747 0.5533162963 -2.151088559
| 30> H 1.9192997203 -1.1984693764 2.7636961977
| 31> H 2.6435663228 -2.7262383312 2.1776251292
| 32> H 4.8612390115 -1.5737832674 2.0023236742
| 33> H 4.1134224249 -0.0645448685 2.5591724305
| 34> H 4.2299092106 -1.4507499701 3.6535516421
| 35> H 0.6407530001 -2.4062789673 -0.5177549128
| 36> H -0.589745863 -1.8767511227 -1.7240332726
| 37> H -1.731810096 1.684200605 1.5068710423
| 38> H -0.8960219503 2.930852381 0.556384411
| 39> H -3.1024816602 3.8932152469 -0.1124972311
| 40> H -3.935394712 2.6628768368 0.8453882419
| 41> H -2.921831509 3.8753781662 1.6508419462
| 42> H -3.6913652037 -1.4262922549 1.6298259983
| 43> H -5.2391058595 -0.5786907086 1.3418780067
| 44> H -5.3229310797 -1.6107727717 -0.9529631845
| 45> H -3.8277977481 -2.4798271968 -0.6041666544
| 46> H -5.2930197932 -2.8426034331 0.3221293684
| 47> *
| 48>
| 49>                          ****END OF INPUT****

CARTESIAN COORDINATES (ANGSTROEM)
---------------------------------
  C      5.758803    0.647007   -0.822924
  C      4.340088    0.227942   -1.150412
  O      3.450023    0.878763   -0.208335
  P      2.126098    0.199537    0.336260
  S      1.339427    1.326087    1.721434
  O      2.486866   -1.293851    0.775532
  C      2.716868   -1.638213    2.157123
  C      4.073939   -1.151917    2.621889
  S      1.065422   -0.223521   -1.454283
  C      0.016572   -1.587299   -0.863583
  S     -1.069607   -1.130318    0.502423
  P     -2.409060    0.084716   -0.637888
  S     -2.618363   -0.436141   -2.510154
  O     -1.888211    1.571265   -0.567094
  C     -1.819065    2.354468    0.647429
  C     -3.028872    3.257021    0.765284
  O     -3.697570    0.139597    0.287861
  C     -4.353189   -1.005028    0.867958
  C     -4.725381   -2.052896   -0.159328
  H      6.435837    0.205447   -1.547131
  H      5.843543    1.729140   -0.864109
  H      6.031565    0.314447    0.174910
  H      4.212478   -0.854474   -1.070450
  H      4.047130    0.553316   -2.151089
  H      1.919300   -1.198469    2.763696
  H      2.643566   -2.726238    2.177625
  H      4.861239   -1.573783    2.002324
  H      4.113422   -0.064545    2.559172
  H      4.229909   -1.450750    3.653552
  H      0.640753   -2.406279   -0.517755
  H     -0.589746   -1.876751   -1.724033
  H     -1.731810    1.684201    1.506871
  H     -0.896022    2.930852    0.556384
  H     -3.102482    3.893215   -0.112497
  H     -3.935395    2.662877    0.845388
  H     -2.921832    3.875378    1.650842
  H     -3.691365   -1.426292    1.629826
  H     -5.239106   -0.578691    1.341878
  H     -5.322931   -1.610773   -0.952963
  H     -3.827798   -2.479827   -0.604167
  H     -5.293020   -2.842603    0.322129

 Total Charge           Charge          ....    0
 Multiplicity           Mult            ....    1
 Number of Electrons    NEL             ....  202
 Basis Dimension        Dim             ....  334

ORBITAL ENERGIES
----------------

  NO   OCC          E(Eh)            E(eV)
   0   2.0000     -88.041335     -2395.7265
   1   2.0000     -88.038710     -2395.6551
   2   2.0000     -87.983643     -2394.1566
   3   2.0000     -87.979541     -2394.0450
   4   2.0000     -76.425769     -2079.6509
   5   2.0000     -76.423007     -2079.5758
   6   2.0000     -18.799287      -511.5546
   7   2.0000     -18.794868      -511.4343
   8   2.0000     -18.793868      -511.4072
   9   2.0000     -18.780848      -511.0528
  10   2.0000      -9.958839      -270.9938
  11   2.0000      -9.958107      -270.9739
  12   2.0000      -9.956581      -270.9324
  13   2.0000      -9.954194      -270.8674
  14   2.0000      -9.940020      -270.4817
  15   2.0000      -9.892784      -269.1963
  16   2.0000      -9.890523      -269.1348
  17   2.0000      -9.883155      -268.9343
  18   2.0000      -9.875657      -268.7303
  19   2.0000      -7.686134      -209.1503
  20   2.0000      -7.683916      -209.0900
  21   2.0000      -7.628930      -207.5937
  22   2.0000      -7.624925      -207.4847
  23   2.0000      -6.423523      -174.7930
  24   2.0000      -6.420175      -174.7018
  25   2.0000      -5.713831      -155.4812
  26   2.0000      -5.711944      -155.4299
  27   2.0000      -5.710622      -155.3939
  28   2.0000      -5.708397      -155.3334
  29   2.0000      -5.703349      -155.1960
  30   2.0000      -5.700749      -155.1253
  31   2.0000      -5.657910      -153.9595
  32   2.0000      -5.653980      -153.8526
  33   2.0000      -5.649321      -153.7258
  34   2.0000      -5.649158      -153.7214
  35   2.0000      -5.645490      -153.6216
  36   2.0000      -5.644936      -153.6065
  37   2.0000      -4.646704      -126.4433
  38   2.0000      -4.645024      -126.3975
  39   2.0000      -4.643686      -126.3611
  40   2.0000      -4.643081      -126.3447
  41   2.0000      -4.642119      -126.3185
  42   2.0000      -4.640225      -126.2669
  43   2.0000      -0.988672       -26.9031
  44   2.0000      -0.985016       -26.8036
  45   2.0000      -0.949091       -25.8261
  46   2.0000      -0.939205       -25.5571
  47   2.0000      -0.762046       -20.7363
  48   2.0000      -0.722217       -19.6525
  49   2.0000      -0.708825       -19.2881
  50   2.0000      -0.696070       -18.9410
  51   2.0000      -0.687085       -18.6965
  52   2.0000      -0.670348       -18.2411
  53   2.0000      -0.650387       -17.6979
  54   2.0000      -0.637691       -17.3524
  55   2.0000      -0.593762       -16.1571
  56   2.0000      -0.588066       -16.0021
  57   2.0000      -0.575076       -15.6486
  58   2.0000      -0.568070       -15.4580
  59   2.0000      -0.564240       -15.3537
  60   2.0000      -0.509412       -13.8618
  61   2.0000      -0.496091       -13.4993
  62   2.0000      -0.485265       -13.2047
  63   2.0000      -0.468227       -12.7411
  64   2.0000      -0.460471       -12.5301
  65   2.0000      -0.447637       -12.1808
  66   2.0000      -0.445202       -12.1146
  67   2.0000      -0.430609       -11.7175
  68   2.0000      -0.427494       -11.6327
  69   2.0000      -0.408090       -11.1047
  70   2.0000      -0.405710       -11.0399
  71   2.0000      -0.401435       -10.9236
  72   2.0000      -0.394842       -10.7442
  73   2.0000      -0.392881       -10.6908
  74   2.0000      -0.379013       -10.3135
  75   2.0000      -0.370211       -10.0740
  76   2.0000      -0.362757        -9.8711
  77   2.0000      -0.360155        -9.8003
  78   2.0000      -0.352325        -9.5872
  79   2.0000      -0.350400        -9.5349
  80   2.0000      -0.346833        -9.4378
  81   2.0000      -0.346396        -9.4259
  82   2.0000      -0.345167        -9.3925
  83   2.0000      -0.336021        -9.1436
  84   2.0000      -0.332069        -9.0361
  85   2.0000      -0.322077        -8.7641
  86   2.0000      -0.313140        -8.5210
  87   2.0000      -0.311663        -8.4808
  88   2.0000      -0.295707        -8.0466
  89   2.0000      -0.286425        -7.7940
  90   2.0000      -0.280384        -7.6296
  91   2.0000      -0.272850        -7.4246
  92   2.0000      -0.271671        -7.3926
  93   2.0000      -0.269604        -7.3363
  94   2.0000      -0.257350        -7.0028
  95   2.0000      -0.238344        -6.4857
  96   2.0000      -0.218329        -5.9410
  97   2.0000      -0.203545        -5.5387
  98   2.0000      -0.198557        -5.4030
  99   2.0000      -0.197388        -5.3712
 100   2.0000      -0.190467        -5.1829
 101   0.0000      -0.045947        -1.2503
 102   0.0000      -0.019203        -0.5225
 103   0.0000      -0.009359        -0.2547
 104   0.0000       0.000782         0.0213
 105   0.0000       0.015120         0.4114

MULLIKEN ATOMIC CHARGES
-----------------------
   0 C :   -0.284358
   1 C :   -0.024210
   2 O :   -0.369260
   3 P :    0.611963
   4 S :   -0.305811
   5 O :   -0.393640
   6 C :   -0.010495
   7 C :   -0.317258
   8 S :   -0.076082
   9 C :   -0.354504
  10 S :   -0.112256
  11 P :    0.611271
  12 S :   -0.314338
  13 O :   -0.345930
  14 C :   -0.016929
  15 C :   -0.282425
  16 O :   -0.380693
  17 C :   -0.009680
  18 C :   -0.307680
  19 H :    0.112430
  20 H :    0.124684
  21 H :    0.117528
  22 H :    0.107047
  23 H :    0.115642
  24 H :    0.116415
  25 H :    0.102870
  26 H :    0.115575
  27 H :    0.133350
  28 H :    0.115385
  29 H :    0.184831
  30 H :    0.193316
  31 H :    0.101802
  32 H :    0.119827
  33 H :    0.116775
  34 H :    0.114391
  35 H :    0.107245
  36 H :    0.113054
  37 H :    0.108833
  38 H :    0.127937
  39 H :    0.122925
  40 H :    0.110453
Sum of atomic charges:   -0.0000000

LOEWDIN ATOMIC CHARGES
----------------------
   0 C :   -0.351081
   1 C :   -0.120405
   2 O :   -0.245271
   3 P :    0.563980
   4 S :   -0.298891
   5 O :   -0.254278
   6 C :   -0.122091
   7 C :   -0.365489
   8 S :    0.085522
   9 C :   -0.482262
  10 S :    0.064074
  11 P :    0.572614
  12 S :   -0.306688
  13 O :   -0.227757
  14 C :   -0.117889
  15 C :   -0.359337
  16 O :   -0.242787
  17 C :   -0.115058
  18 C :   -0.369245
  19 H :    0.130930
  20 H :    0.131544
  21 H :    0.125878
  22 H :    0.108256
  23 H :    0.116936
  24 H :    0.111454
  25 H :    0.116428
  26 H :    0.122201
  27 H :    0.126642
  28 H :    0.132701
  29 H :    0.131208
  30 H :    0.127538
  31 H :    0.103213
  32 H :    0.119068
  33 H :    0.127480
  34 H :    0.122788
  35 H :    0.128247
  36 H :    0.108034
  37 H :    0.120871
  38 H :    0.131010
  39 H :    0.120180
  40 H :    0.129732

  Mayer bond orders larger than 0.100000
B(  0-C ,  1-C ) :   1.1628 B(  0-C , 19-H ) :   0.9406 B(  0-C , 20-H ) :   0.9482
B(  0-C , 21-H ) :   0.9479 B(  1-C ,  2-O ) :   0.8932 B(  1-C , 22-H ) :   0.9162
B(  1-C , 23-H ) :   0.9314 B(  2-O ,  3-P ) :   1.1250 B(  3-P ,  4-S ) :   1.6488
B(  3-P ,  5-O ) :   1.0524 B(  3-P ,  8-S ) :   0.9750 B(  4-S ,  8-S ) :   0.1036
B(  5-O ,  6-C ) :   0.9018 B(  6-C ,  7-C ) :   1.1638 B(  6-C , 24-H ) :   0.9101
B(  6-C , 25-H ) :   0.9330 B(  7-C , 26-H ) :   0.9438 B(  7-C , 27-H ) :   0.9335
B(  7-C , 28-H ) :   0.9384 B(  8-S ,  9-C ) :   0.9986 B(  9-C , 10-S ) :   1.0177
B(  9-C , 29-H ) :   0.8990 B(  9-C , 30-H ) :   0.8681 B( 10-S , 11-P ) :   0.9294
B( 10-S , 12-S ) :   0.1113 B( 11-P , 12-S ) :   1.6392 B( 11-P , 13-O ) :   1.1552
B( 11-P , 16-O ) :   1.0793 B( 13-O , 14-C ) :   0.8865 B( 14-C , 15-C ) :   1.1554
B( 14-C , 31-H ) :   0.9189 B( 14-C , 32-H ) :   0.9270 B( 15-C , 33-H ) :   0.9466
B( 15-C , 34-H ) :   0.9431 B( 15-C , 35-H ) :   0.9415 B( 16-O , 17-C ) :   0.9117
B( 17-C , 18-C ) :   1.1673 B( 17-C , 36-H ) :   0.9258 B( 17-C , 37-H ) :   0.9329
B( 18-C , 38-H ) :   0.9428 B( 18-C , 39-H ) :   0.9321 B( 18-C , 40-H ) :   0.9348

Dispersion correction           -0.064827457
FINAL SINGLE POINT ENERGY     -2929.517585042864

DIPOLE MOMENT
-------------

Method             : SCF
Type of density    : Electron Density
Multiplicity       :   1
Irrep              :   0
Energy             : -2929.6375300635772874 Eh
Relativity type    :
Basis              : AO
                                X                 Y                 Z
Electronic contribution:     -7.368944863       2.139924145     -10.142524860
Nuclear contribution   :      8.201368115      -3.261603822      11.244854580
                        -----------------------------------------
Total Dipole Moment    :      0.832423252      -1.121679678       1.102329719
                        -----------------------------------------
Magnitude (a.u.)       :      1.779388822
Magnitude (Debye)      :      4.522846949

Rotational constants in cm-1:             0.013563             0.004449             0.004373
Rotational constants in MHz :           406.609597           133.379262           131.103551

                             ****ORCA TERMINATED NORMALLY****
TOTAL RUN TIME: 0 days 0 hours 0 minutes 20 seconds 767 msec
