                         Program Version 6.0.0  -   RELEASE  -
|  1> ! r2scan-3c def2/J RI DEFGRID2 scfconv6 printgap
|  2> %output
|  3>     printlevel normal
|  4> end
|  5> * xyz 0 1
|  6> C 4.5027805834 -1.1798992697 -2.4023341151
|  7> C 3.7990045802 -2.1307833756 -1.4574841706
|  8> O 3.420677689 -1.5061378228 -0.2155565386
|  9> P 2.5495420871 -0.1848840666 -0.0731136245
| 10> S 3.3979516081 1.5472927462 -0.3974402679
| 11> O 2.0983894132 -0.2755593634 1.432676097
| 12> C 1.4895796282 -1.4569152027 2.0134630782
| 13> C 0.5917860693 -1.0131178373 3.1497044502
| 14> S 0.8406682233 -0.6134292867 -1.2834050299
| 15> C 0.2070684182 1.074956045 -1.3007879864
| 16> S -0.4527858563 1.5871759032 0.3082148162
| 17> P -2.2602843342 0.5016453408 0.1665171981
| 18> S -3.1346789945 0.5345058679 -1.5929250751
| 19> O -3.1054860463 1.0548235578 1.3943080812
| 20> C -3.7504661404 2.3446221769 1.3718612501
| 21> C -5.2010600131 2.2110657494 0.9503776304
| 22> O -1.8552659609 -0.9267672777 0.7026413135
| 23> C -2.5907123771 -2.1285290043 0.3661196391
| 24> C -1.6085561296 -3.2480504419 0.08900986
| 25> H 4.8389548899 -1.7248682994 -3.2785000495
| 26> H 3.8232504186 -0.388487973 -2.7154655124
| 27> H 5.3582808551 -0.7211091469 -1.9123110146
| 28> H 4.4571713508 -2.9429201851 -1.1439451504
| 29> H 2.8969521094 -2.5392905478 -1.9211405699
| 30> H 0.9225387265 -1.9774671176 1.2363114915
| 31> H 2.2988692775 -2.0991177041 2.3656550744
| 32> H -0.2339731006 -0.4163172984 2.7688519975
| 33> H 0.1956785527 -1.8882150351 3.6549320541
| 34> H 1.1580825927 -0.4130577108 3.8562181542
| 35> H -0.5862852412 1.1158833581 -2.0482483754
| 36> H 1.0213449501 1.7606185982 -1.5386282929
| 37> H -3.6646785608 2.7144352772 2.3952615847
| 38> H -3.20453039 3.01107958 0.6980000723
| 39> H -5.6796648184 3.1836261895 1.0023952762
| 40> H -5.2642785478 1.8391485579 -0.0699481777
| 41> H -5.718113974 1.5189987284 1.6089521316
| 42> H -3.2315879585 -2.3581199238 1.2193661186
| 43> H -3.2130181622 -1.9243860763 -0.5116788683
| 44> H -0.9557606178 -2.9764404324 -0.7373027833
| 45> H -1.0069276839 -3.4480749525 0.9709692275
| 46> H -2.1625621625 -4.1430608351 -0.1751669392
| 47> *
| 48>
| 49>                          ****END OF INPUT****

CARTESIAN COORDINATES (ANGSTROEM)
---------------------------------
  C      4.502781   -1.179899   -2.402334
  C      3.799005   -2.130783   -1.457484
  O      3.420678   -1.506138   -0.215557
  P      2.549542   -0.184884   -0.073114
  S      3.397952    1.547293   -0.397440
  O      2.098389   -0.275559    1.432676
  C      1.489580   -1.456915    2.013463
  C      0.591786   -1.013118    3.149704
  S      0.840668   -0.613429   -1.283405
  C      0.207068    1.074956   -1.300788
  S     -0.452786    1.587176    0.308215
  P     -2.260284    0.501645    0.166517
  S     -3.134679    0.534506   -1.592925
  O     -3.105486    1.054824    1.394308
  C     -3.750466    2.344622    1.371861
  C     -5.201060    2.211066    0.950378
  O     -1.855266   -0.926767    0.702641
  C     -2.590712   -2.128529    0.366120
  C     -1.608556   -3.248050    0.089010
  H      4.838955   -1.724868   -3.278500
  H      3.823250   -0.388488   -2.715466
  H      5.358281   -0.721109   -1.912311
  H      4.457171   -2.942920   -1.143945
  H      2.896952   -2.539291   -1.921141
  H      0.922539   -1.977467    1.236311
  H      2.298869   -2.099118    2.365655
  H     -0.233973   -0.416317    2.768852
  H      0.195679   -1.888215    3.654932
  H      1.158083   -0.413058    3.856218
  H     -0.586285    1.115883   -2.048248
  H      1.021345    1.760619   -1.538628
  H     -3.664679    2.714435    2.395262
  H     -3.204530    3.011080    0.698000
  H     -5.679665    3.183626    1.002395
  H     -5.264279    1.839149   -0.069948
  H     -5.718114    1.518999    1.608952
  H     -3.231588   -2.358120    1.219366
  H     -3.213018   -1.924386   -0.511679
  H     -0.955761   -2.976440   -0.737303
  H     -1.006928   -3.448075    0.970969
  H     -2.162562   -4.143061   -0.175167

 Total Charge           Charge          ....    0
 Multiplicity           Mult            ....    1
 Number of Electrons    NEL             ....  202
 Basis Dimension        Dim             ....  539

ORBITAL ENERGIES
----------------

  NO   OCC          E(Eh)            E(eV)
   0   2.0000     -88.577587     -2410.3187
   1   2.0000     -88.576652     -2410.2932
   2   2.0000     -88.523879     -2408.8572
   3   2.0000     -88.516515     -2408.6568
   4   2.0000     -76.917637     -2093.0353
   5   2.0000     -76.913324     -2092.9180
   6   2.0000     -18.995980      -516.9069
   7   2.0000     -18.995757      -516.9008
   8   2.0000     -18.995682      -516.8988
   9   2.0000     -18.987587      -516.6785
  10   2.0000     -10.106542      -275.0130
  11   2.0000     -10.103448      -274.9288
  12   2.0000     -10.103178      -274.9215
  13   2.0000     -10.102635      -274.9067
  14   2.0000     -10.098116      -274.7837
  15   2.0000     -10.036591      -273.1095
  16   2.0000     -10.028588      -272.8918
  17   2.0000     -10.028128      -272.8792
  18   2.0000     -10.026964      -272.8476
  19   2.0000      -7.871666      -214.1989
  20   2.0000      -7.871115      -214.1839
  21   2.0000      -7.818775      -212.7597
  22   2.0000      -7.811312      -212.5566
  23   2.0000      -6.596159      -179.4906
  24   2.0000      -6.591661      -179.3682
  25   2.0000      -5.818567      -158.3313
  26   2.0000      -5.817824      -158.3110
  27   2.0000      -5.815492      -158.2476
  28   2.0000      -5.814867      -158.2306
  29   2.0000      -5.808832      -158.0664
  30   2.0000      -5.808483      -158.0569
  31   2.0000      -5.766274      -156.9083
  32   2.0000      -5.759130      -156.7139
  33   2.0000      -5.759000      -156.7104
  34   2.0000      -5.758951      -156.7090
  35   2.0000      -5.751549      -156.5076
  36   2.0000      -5.751197      -156.4980
  37   2.0000      -4.741683      -129.0277
  38   2.0000      -4.741076      -129.0112
  39   2.0000      -4.739849      -128.9778
  40   2.0000      -4.737471      -128.9131
  41   2.0000      -4.736887      -128.8972
  42   2.0000      -4.734863      -128.8422
  43   2.0000      -1.054073       -28.6828
  44   2.0000      -1.051506       -28.6129
  45   2.0000      -1.014714       -27.6118
  46   2.0000      -1.009115       -27.4594
  47   2.0000      -0.804021       -21.8785
  48   2.0000      -0.762432       -20.7468
  49   2.0000      -0.753398       -20.5010
  50   2.0000      -0.734738       -19.9932
  51   2.0000      -0.734135       -19.9768
  52   2.0000      -0.712911       -19.3993
  53   2.0000      -0.685620       -18.6567
  54   2.0000      -0.670384       -18.2421
  55   2.0000      -0.630252       -17.1500
  56   2.0000      -0.621338       -16.9075
  57   2.0000      -0.608501       -16.5581
  58   2.0000      -0.602810       -16.4033
  59   2.0000      -0.594318       -16.1722
  60   2.0000      -0.537785       -14.6339
  61   2.0000      -0.527390       -14.3510
  62   2.0000      -0.503031       -13.6882
  63   2.0000      -0.494106       -13.4453
  64   2.0000      -0.478950       -13.0329
  65   2.0000      -0.464406       -12.6371
  66   2.0000      -0.459255       -12.4970
  67   2.0000      -0.452259       -12.3066
  68   2.0000      -0.450318       -12.2538
  69   2.0000      -0.437203       -11.8969
  70   2.0000      -0.428790       -11.6680
  71   2.0000      -0.420641       -11.4462
  72   2.0000      -0.408619       -11.1191
  73   2.0000      -0.403604       -10.9826
  74   2.0000      -0.401241       -10.9183
  75   2.0000      -0.391992       -10.6667
  76   2.0000      -0.379975       -10.3396
  77   2.0000      -0.372808       -10.1446
  78   2.0000      -0.367227        -9.9928
  79   2.0000      -0.365266        -9.9394
  80   2.0000      -0.362459        -9.8630
  81   2.0000      -0.359264        -9.7761
  82   2.0000      -0.358192        -9.7469
  83   2.0000      -0.353873        -9.6294
  84   2.0000      -0.352003        -9.5785
  85   2.0000      -0.335966        -9.1421
  86   2.0000      -0.327480        -8.9112
  87   2.0000      -0.316079        -8.6010
  88   2.0000      -0.312903        -8.5145
  89   2.0000      -0.310864        -8.4590
  90   2.0000      -0.308443        -8.3932
  91   2.0000      -0.295959        -8.0535
  92   2.0000      -0.290556        -7.9064
  93   2.0000      -0.282833        -7.6963
  94   2.0000      -0.271390        -7.3849
  95   2.0000      -0.249369        -6.7857
  96   2.0000      -0.235411        -6.4059
  97   2.0000      -0.224671        -6.1136
  98   2.0000      -0.217756        -5.9254
  99   2.0000      -0.213661        -5.8140
 100   2.0000      -0.211582        -5.7574
 101   0.0000      -0.047440        -1.2909
 102   0.0000      -0.026462        -0.7201
 103   0.0000      -0.006563        -0.1786
 104   0.0000      -0.002878        -0.0783
 105   0.0000       0.013265         0.3610

MULLIKEN ATOMIC CHARGES
-----------------------
   0 C :   -0.426470
   1 C :   -0.160253
   2 O :   -0.292152
   3 P :    0.653189
   4 S :   -0.430222
   5 O :   -0.262801
   6 C :   -0.104839
   7 C :   -0.458959
   8 S :   -0.183326
   9 C :   -0.235270
  10 S :   -0.110526
  11 P :    0.678991
  12 S :   -0.495824
  13 O :   -0.312261
  14 C :   -0.128778
  15 C :   -0.452029
  16 O :   -0.257479
  17 C :   -0.111184
  18 C :   -0.482023
  19 H :    0.146392
  20 H :    0.169632
  21 H :    0.165323
  22 H :    0.149861
  23 H :    0.150138
  24 H :    0.153830
  25 H :    0.153655
  26 H :    0.174365
  27 H :    0.140505
  28 H :    0.155528
  29 H :    0.215296
  30 H :    0.220569
  31 H :    0.151572
  32 H :    0.154495
  33 H :    0.145922
  34 H :    0.180397
  35 H :    0.151126
  36 H :    0.150180
  37 H :    0.171777
  38 H :    0.172673
  39 H :    0.150378
  40 H :    0.148600
Sum of atomic charges:    0.0000000

LOEWDIN ATOMIC CHARGES
----------------------
   0 C :   -0.405460
   1 C :    0.024095
   2 O :   -0.662003
   3 P :    0.377831
   4 S :   -0.100700
   5 O :   -0.653740
   6 C :    0.022804
   7 C :   -0.390817
   8 S :    0.128088
   9 C :   -0.424682
  10 S :    0.183192
  11 P :    0.371262
  12 S :   -0.141788
  13 O :   -0.659684
  14 C :    0.023422
  15 C :   -0.399996
  16 O :   -0.670157
  17 C :    0.024562
  18 C :   -0.397379
  19 H :    0.158396
  20 H :    0.167119
  21 H :    0.166022
  22 H :    0.181346
  23 H :    0.170938
  24 H :    0.176484
  25 H :    0.173667
  26 H :    0.169781
  27 H :    0.158299
  28 H :    0.162388
  29 H :    0.193224
  30 H :    0.194382
  31 H :    0.179029
  32 H :    0.176675
  33 H :    0.158715
  34 H :    0.168579
  35 H :    0.158145
  36 H :    0.172788
  37 H :    0.184161
  38 H :    0.165239
  39 H :    0.155558
  40 H :    0.160214

  Mayer bond orders larger than 0.100000
B(  0-C ,  1-C ) :   0.9443 B(  0-C , 19-H ) :   0.9619 B(  0-C , 20-H ) :   0.9541
B(  0-C , 21-H ) :   0.9658 B(  1-C ,  2-O ) :   0.8048 B(  1-C , 22-H ) :   0.9586
B(  1-C , 23-H ) :   0.9616 B(  2-O ,  3-P ) :   1.0404 B(  3-P ,  4-S ) :   1.8618
B(  3-P ,  5-O ) :   1.1574 B(  3-P ,  8-S ) :   0.9802 B(  5-O ,  6-C ) :   0.7396
B(  6-C ,  7-C ) :   0.9508 B(  6-C , 24-H ) :   0.9480 B(  6-C , 25-H ) :   0.9491
B(  7-C , 26-H ) :   0.9611 B(  7-C , 27-H ) :   0.9673 B(  7-C , 28-H ) :   0.9711
B(  8-S ,  9-C ) :   0.9176 B(  9-C , 10-S ) :   0.9115 B(  9-C , 29-H ) :   0.9017
B(  9-C , 30-H ) :   0.9025 B( 10-S , 11-P ) :   1.1126 B( 11-P , 12-S ) :   1.7358
B( 11-P , 13-O ) :   1.0697 B( 11-P , 16-O ) :   1.1483 B( 13-O , 14-C ) :   0.7736
B( 14-C , 15-C ) :   0.9575 B( 14-C , 31-H ) :   0.9634 B( 14-C , 32-H ) :   0.9618
B( 15-C , 33-H ) :   0.9644 B( 15-C , 34-H ) :   0.9572 B( 15-C , 35-H ) :   0.9750
B( 16-O , 17-C ) :   0.7559 B( 17-C , 18-C ) :   0.9471 B( 17-C , 36-H ) :   0.9504
B( 17-C , 37-H ) :   0.9506 B( 18-C , 38-H ) :   0.9679 B( 18-C , 39-H ) :   0.9737
B( 18-C , 40-H ) :   0.9628

Dispersion correction           -0.021649482
FINAL SINGLE POINT ENERGY     -2932.461774272509

DIPOLE MOMENT
-------------

Method             : SCF
Type of density    : Electron Density
Multiplicity       :   1
Irrep              :   0
Energy             : -2932.4867021741465578 Eh
Relativity type    :
Basis              : AO
                                X                 Y                 Z
Electronic contribution:      7.039150803      12.746522289      -4.921966532
Nuclear contribution   :     -7.727741086     -14.296993912       5.422107167
                        -----------------------------------------
Total Dipole Moment    :     -0.688590283      -1.550471623       0.500140634
                        -----------------------------------------
Magnitude (a.u.)       :      1.768688635
Magnitude (Debye)      :      4.495649235

Rotational constants in cm-1:             0.013204             0.004729             0.004559
Rotational constants in MHz :           395.853402           141.761516           136.661546

                             ****ORCA TERMINATED NORMALLY****
TOTAL RUN TIME: 0 days 0 hours 1 minutes 24 seconds 245 msec
