                         Program Version 6.0.0  -   RELEASE  -
|  1> ! r2scan-3c def2/J RI DEFGRID2 scfconv6 printgap
|  2> %output
|  3>     printlevel normal
|  4> end
|  5> %cpcm
|  6>     smd true
|  7>     smdsolvent "water"
|  8> end
|  9> * xyz 0 1
| 10> C 4.5027805834 -1.1798992697 -2.4023341151
| 11> C 3.7990045802 -2.1307833756 -1.4574841706
| 12> O 3.420677689 -1.5061378228 -0.2155565386
| 13> P 2.5495420871 -0.1848840666 -0.0731136245
| 14> S 3.3979516081 1.5472927462 -0.3974402679
| 15> O 2.0983894132 -0.2755593634 1.432676097
| 16> C 1.4895796282 -1.4569152027 2.0134630782
| 17> C 0.5917860693 -1.0131178373 3.1497044502
| 18> S 0.8406682233 -0.6134292867 -1.2834050299
| 19> C 0.2070684182 1.074956045 -1.3007879864
| 20> S -0.4527858563 1.5871759032 0.3082148162
| 21> P -2.2602843342 0.5016453408 0.1665171981
| 22> S -3.1346789945 0.5345058679 -1.5929250751
| 23> O -3.1054860463 1.0548235578 1.3943080812
| 24> C -3.7504661404 2.3446221769 1.3718612501
| 25> C -5.2010600131 2.2110657494 0.9503776304
| 26> O -1.8552659609 -0.9267672777 0.7026413135
| 27> C -2.5907123771 -2.1285290043 0.3661196391
| 28> C -1.6085561296 -3.2480504419 0.08900986
| 29> H 4.8389548899 -1.7248682994 -3.2785000495
| 30> H 3.8232504186 -0.388487973 -2.7154655124
| 31> H 5.3582808551 -0.7211091469 -1.9123110146
| 32> H 4.4571713508 -2.9429201851 -1.1439451504
| 33> H 2.8969521094 -2.5392905478 -1.9211405699
| 34> H 0.9225387265 -1.9774671176 1.2363114915
| 35> H 2.2988692775 -2.0991177041 2.3656550744
| 36> H -0.2339731006 -0.4163172984 2.7688519975
| 37> H 0.1956785527 -1.8882150351 3.6549320541
| 38> H 1.1580825927 -0.4130577108 3.8562181542
| 39> H -0.5862852412 1.1158833581 -2.0482483754
| 40> H 1.0213449501 1.7606185982 -1.5386282929
| 41> H -3.6646785608 2.7144352772 2.3952615847
| 42> H -3.20453039 3.01107958 0.6980000723
| 43> H -5.6796648184 3.1836261895 1.0023952762
| 44> H -5.2642785478 1.8391485579 -0.0699481777
| 45> H -5.718113974 1.5189987284 1.6089521316
| 46> H -3.2315879585 -2.3581199238 1.2193661186
| 47> H -3.2130181622 -1.9243860763 -0.5116788683
| 48> H -0.9557606178 -2.9764404324 -0.7373027833
| 49> H -1.0069276839 -3.4480749525 0.9709692275
| 50> H -2.1625621625 -4.1430608351 -0.1751669392
| 51> *
| 52>
| 53>                          ****END OF INPUT****

CARTESIAN COORDINATES (ANGSTROEM)
---------------------------------
  C      4.502781   -1.179899   -2.402334
  C      3.799005   -2.130783   -1.457484
  O      3.420678   -1.506138   -0.215557
  P      2.549542   -0.184884   -0.073114
  S      3.397952    1.547293   -0.397440
  O      2.098389   -0.275559    1.432676
  C      1.489580   -1.456915    2.013463
  C      0.591786   -1.013118    3.149704
  S      0.840668   -0.613429   -1.283405
  C      0.207068    1.074956   -1.300788
  S     -0.452786    1.587176    0.308215
  P     -2.260284    0.501645    0.166517
  S     -3.134679    0.534506   -1.592925
  O     -3.105486    1.054824    1.394308
  C     -3.750466    2.344622    1.371861
  C     -5.201060    2.211066    0.950378
  O     -1.855266   -0.926767    0.702641
  C     -2.590712   -2.128529    0.366120
  C     -1.608556   -3.248050    0.089010
  H      4.838955   -1.724868   -3.278500
  H      3.823250   -0.388488   -2.715466
  H      5.358281   -0.721109   -1.912311
  H      4.457171   -2.942920   -1.143945
  H      2.896952   -2.539291   -1.921141
  H      0.922539   -1.977467    1.236311
  H      2.298869   -2.099118    2.365655
  H     -0.233973   -0.416317    2.768852
  H      0.195679   -1.888215    3.654932
  H      1.158083   -0.413058    3.856218
  H     -0.586285    1.115883   -2.048248
  H      1.021345    1.760619   -1.538628
  H     -3.664679    2.714435    2.395262
  H     -3.204530    3.011080    0.698000
  H     -5.679665    3.183626    1.002395
  H     -5.264279    1.839149   -0.069948
  H     -5.718114    1.518999    1.608952
  H     -3.231588   -2.358120    1.219366
  H     -3.213018   -1.924386   -0.511679
  H     -0.955761   -2.976440   -0.737303
  H     -1.006928   -3.448075    0.970969
  H     -2.162562   -4.143061   -0.175167

 Total Charge           Charge          ....    0
 Multiplicity           Mult            ....    1
 Number of Electrons    NEL             ....  202
 Basis Dimension        Dim             ....  539

ORBITAL ENERGIES
----------------

  NO   OCC          E(Eh)            E(eV)
   0   2.0000     -88.581457     -2410.4240
   1   2.0000     -88.579452     -2410.3694
   2   2.0000     -88.528902     -2408.9939
   3   2.0000     -88.528362     -2408.9792
   4   2.0000     -76.920620     -2093.1165
   5   2.0000     -76.920558     -2093.1148
   6   2.0000     -18.997156      -516.9389
   7   2.0000     -18.996174      -516.9122
   8   2.0000     -18.994488      -516.8663
   9   2.0000     -18.993564      -516.8412
  10   2.0000     -10.104149      -274.9479
  11   2.0000     -10.093824      -274.6669
  12   2.0000     -10.091878      -274.6139
  13   2.0000     -10.090681      -274.5814
  14   2.0000     -10.089367      -274.5456
  15   2.0000     -10.018981      -272.6303
  16   2.0000     -10.018682      -272.6222
  17   2.0000     -10.018265      -272.6108
  18   2.0000     -10.017008      -272.5767
  19   2.0000      -7.875660      -214.3076
  20   2.0000      -7.873819      -214.2575
  21   2.0000      -7.824063      -212.9036
  22   2.0000      -7.823554      -212.8897
  23   2.0000      -6.599128      -179.5714
  24   2.0000      -6.598943      -179.5664
  25   2.0000      -5.822518      -158.4388
  26   2.0000      -5.820576      -158.3859
  27   2.0000      -5.819470      -158.3558
  28   2.0000      -5.817600      -158.3049
  29   2.0000      -5.812882      -158.1766
  30   2.0000      -5.811118      -158.1286
  31   2.0000      -5.771515      -157.0509
  32   2.0000      -5.771230      -157.0432
  33   2.0000      -5.764297      -156.8545
  34   2.0000      -5.764230      -156.8527
  35   2.0000      -5.763798      -156.8409
  36   2.0000      -5.763497      -156.8327
  37   2.0000      -4.744693      -129.1097
  38   2.0000      -4.744586      -129.1067
  39   2.0000      -4.744117      -129.0940
  40   2.0000      -4.744045      -129.0920
  41   2.0000      -4.742922      -129.0615
  42   2.0000      -4.742297      -129.0445
  43   2.0000      -1.054660       -28.6988
  44   2.0000      -1.053214       -28.6594
  45   2.0000      -1.013087       -27.5675
  46   2.0000      -1.011957       -27.5367
  47   2.0000      -0.806322       -21.9411
  48   2.0000      -0.758180       -20.6311
  49   2.0000      -0.747180       -20.3318
  50   2.0000      -0.726166       -19.7600
  51   2.0000      -0.722874       -19.6704
  52   2.0000      -0.711720       -19.3669
  53   2.0000      -0.689157       -18.7529
  54   2.0000      -0.675837       -18.3905
  55   2.0000      -0.625748       -17.0275
  56   2.0000      -0.617375       -16.7996
  57   2.0000      -0.601389       -16.3646
  58   2.0000      -0.598758       -16.2930
  59   2.0000      -0.589971       -16.0539
  60   2.0000      -0.532635       -14.4937
  61   2.0000      -0.522865       -14.2279
  62   2.0000      -0.497079       -13.5262
  63   2.0000      -0.490310       -13.3420
  64   2.0000      -0.478643       -13.0245
  65   2.0000      -0.457395       -12.4463
  66   2.0000      -0.455268       -12.3885
  67   2.0000      -0.447219       -12.1694
  68   2.0000      -0.440986       -11.9998
  69   2.0000      -0.434047       -11.8110
  70   2.0000      -0.425952       -11.5907
  71   2.0000      -0.417810       -11.3692
  72   2.0000      -0.405456       -11.0330
  73   2.0000      -0.399038       -10.8584
  74   2.0000      -0.396969       -10.8021
  75   2.0000      -0.388585       -10.5739
  76   2.0000      -0.374054       -10.1785
  77   2.0000      -0.365919        -9.9572
  78   2.0000      -0.360490        -9.8094
  79   2.0000      -0.358478        -9.7547
  80   2.0000      -0.355888        -9.6842
  81   2.0000      -0.353495        -9.6191
  82   2.0000      -0.348834        -9.4923
  83   2.0000      -0.348080        -9.4717
  84   2.0000      -0.345002        -9.3880
  85   2.0000      -0.332502        -9.0478
  86   2.0000      -0.323473        -8.8022
  87   2.0000      -0.311975        -8.4893
  88   2.0000      -0.309039        -8.4094
  89   2.0000      -0.307547        -8.3688
  90   2.0000      -0.304433        -8.2840
  91   2.0000      -0.290946        -7.9170
  92   2.0000      -0.288256        -7.8438
  93   2.0000      -0.282430        -7.6853
  94   2.0000      -0.272751        -7.4219
  95   2.0000      -0.252418        -6.8686
  96   2.0000      -0.240767        -6.5516
  97   2.0000      -0.231881        -6.3098
  98   2.0000      -0.224943        -6.1210
  99   2.0000      -0.223381        -6.0785
 100   2.0000      -0.221692        -6.0326
 101   0.0000      -0.052187        -1.4201
 102   0.0000      -0.032285        -0.8785
 103   0.0000      -0.009101        -0.2477
 104   0.0000      -0.007425        -0.2021
 105   0.0000       0.013784         0.3751

MULLIKEN ATOMIC CHARGES
-----------------------
   0 C :   -0.464948
   1 C :   -0.160484
   2 O :   -0.313622
   3 P :    0.671328
   4 S :   -0.494188
   5 O :   -0.293309
   6 C :   -0.105613
   7 C :   -0.502420
   8 S :   -0.171532
   9 C :   -0.241734
  10 S :   -0.137299
  11 P :    0.709840
  12 S :   -0.535668
  13 O :   -0.338079
  14 C :   -0.123542
  15 C :   -0.490946
  16 O :   -0.278649
  17 C :   -0.108786
  18 C :   -0.508913
  19 H :    0.173747
  20 H :    0.164539
  21 H :    0.170550
  22 H :    0.177725
  23 H :    0.172431
  24 H :    0.173466
  25 H :    0.176454
  26 H :    0.168952
  27 H :    0.172158
  28 H :    0.166870
  29 H :    0.233041
  30 H :    0.234336
  31 H :    0.177232
  32 H :    0.164711
  33 H :    0.169857
  34 H :    0.170887
  35 H :    0.167256
  36 H :    0.173958
  37 H :    0.169910
  38 H :    0.169940
  39 H :    0.170938
  40 H :    0.169606
Sum of atomic charges:   -0.0000000

LOEWDIN ATOMIC CHARGES
----------------------
   0 C :   -0.409148
   1 C :    0.031746
   2 O :   -0.669412
   3 P :    0.380405
   4 S :   -0.148902
   5 O :   -0.677309
   6 C :    0.029073
   7 C :   -0.395538
   8 S :    0.141819
   9 C :   -0.421144
  10 S :    0.166711
  11 P :    0.376818
  12 S :   -0.167806
  13 O :   -0.671116
  14 C :    0.028182
  15 C :   -0.404384
  16 O :   -0.678012
  17 C :    0.030376
  18 C :   -0.398721
  19 H :    0.168799
  20 H :    0.162017
  21 H :    0.164441
  22 H :    0.193338
  23 H :    0.179607
  24 H :    0.183715
  25 H :    0.183917
  26 H :    0.165280
  27 H :    0.170441
  28 H :    0.164489
  29 H :    0.198259
  30 H :    0.198058
  31 H :    0.189944
  32 H :    0.180344
  33 H :    0.167627
  34 H :    0.162660
  35 H :    0.162598
  36 H :    0.182795
  37 H :    0.183663
  38 H :    0.163444
  39 H :    0.162884
  40 H :    0.168043

  Mayer bond orders larger than 0.100000
B(  0-C ,  1-C ) :   0.9224 B(  0-C , 19-H ) :   0.9559 B(  0-C , 20-H ) :   0.9575
B(  0-C , 21-H ) :   0.9668 B(  1-C ,  2-O ) :   0.7931 B(  1-C , 22-H ) :   0.9488
B(  1-C , 23-H ) :   0.9573 B(  2-O ,  3-P ) :   1.0589 B(  3-P ,  4-S ) :   1.8264
B(  3-P ,  5-O ) :   1.1628 B(  3-P ,  8-S ) :   0.9962 B(  5-O ,  6-C ) :   0.7275
B(  6-C ,  7-C ) :   0.9363 B(  6-C , 24-H ) :   0.9426 B(  6-C , 25-H ) :   0.9385
B(  7-C , 26-H ) :   0.9634 B(  7-C , 27-H ) :   0.9605 B(  7-C , 28-H ) :   0.9696
B(  8-S ,  9-C ) :   0.9069 B(  9-C , 10-S ) :   0.8982 B(  9-C , 29-H ) :   0.8988
B(  9-C , 30-H ) :   0.8988 B( 10-S , 11-P ) :   1.1133 B( 11-P , 12-S ) :   1.7091
B( 11-P , 13-O ) :   1.0745 B( 11-P , 16-O ) :   1.1623 B( 13-O , 14-C ) :   0.7610
B( 14-C , 15-C ) :   0.9468 B( 14-C , 31-H ) :   0.9532 B( 14-C , 32-H ) :   0.9558
B( 15-C , 33-H ) :   0.9594 B( 15-C , 34-H ) :   0.9616 B( 15-C , 35-H ) :   0.9721
B( 16-O , 17-C ) :   0.7459 B( 17-C , 18-C ) :   0.9459 B( 17-C , 36-H ) :   0.9407
B( 17-C , 37-H ) :   0.9501 B( 18-C , 38-H ) :   0.9665 B( 18-C , 39-H ) :   0.9678
B( 18-C , 40-H ) :   0.9581

Dispersion correction           -0.021649482
FINAL SINGLE POINT ENERGY     -2932.471450201896

DIPOLE MOMENT
-------------

Method             : SCF
Type of density    : Electron Density
Multiplicity       :   1
Irrep              :   0
Energy             : -2932.4963781035339707 Eh
Relativity type    :
Basis              : AO
                                X                 Y                 Z
Electronic contribution:      6.741579033      11.990832015      -4.888359321
Nuclear contribution   :     -7.727741086     -14.296993912       5.422107167
                        -----------------------------------------
Total Dipole Moment    :     -0.986162053      -2.306161897       0.533747846
                        -----------------------------------------
Magnitude (a.u.)       :      2.564329357
Magnitude (Debye)      :      6.518007232

Rotational constants in cm-1:             0.013204             0.004729             0.004559
Rotational constants in MHz :           395.853402           141.761516           136.661546

                             ****ORCA TERMINATED NORMALLY****
TOTAL RUN TIME: 0 days 0 hours 1 minutes 57 seconds 230 msec
