                         Program Version 6.0.1  -  RELEASE   -
|  1> ! pbe def2-sv(p) def2/J RI DEFGRID1 loosescf d4 GCP(DFT/SV(P)) printgap
|  2> %output
|  3>     printlevel normal
|  4> end
|  5> * xyz 0 1
|  6> C 3.7767659421 -1.8713462531 1.4988777722
|  7> C 2.9253907589 -2.6212115215 0.4873897259
|  8> O 2.7196337744 -1.8212934437 -0.6951442447
|  9> C 1.7281443776 -0.9694662407 -0.712576527
| 10> O 0.9462110253 -0.8061463232 0.2123731497
| 11> C 1.6214105599 -0.2023471422 -2.0033181792
| 12> C 0.5794153119 0.8932571249 -1.8576607835
| 13> H 0.4953407367 1.4747292922 -2.7805210506
| 14> C 0.9053518215 1.8619536831 -0.7286143535
| 15> O 1.9588501492 1.8527806708 -0.1325993079
| 16> O -0.0594077003 2.7366327807 -0.5528618463
| 17> C 0.1635436062 3.8497481069 0.3380181209
| 18> C -0.060438741 3.4881786135 1.7959346802
| 19> S -1.1281479231 0.24177847 -1.6969980706
| 20> P -1.4780935907 -0.7178367028 0.1633889171
| 21> S -1.1903393276 -2.6277688037 0.5073536915
| 22> O -1.166595439 0.3291458214 1.3424652164
| 23> C -0.3820943795 0.0098644934 2.4900840047
| 24> O -3.0802085654 -0.6091355867 0.0799231268
| 25> C -3.8088340842 0.6255869892 -0.0109788172
| 26> H 4.7364057697 -1.6117054946 1.0608237795
| 27> H 3.2729951608 -0.9577089349 1.8077853573
| 28> H 3.9348901951 -2.4984594979 2.3697001335
| 29> H 1.9493608466 -2.8841874329 0.9064414549
| 30> H 3.4309227319 -3.5153228621 0.123475522
| 31> H 1.3436369386 -0.8894497819 -2.8042152198
| 32> H 2.5991503263 0.2240323582 -2.2333973147
| 33> H 1.1861596959 4.2073348 0.1865384306
| 34> H -0.5565483462 4.5949237779 -0.0005087702
| 35> H 0.7089361849 2.7999241235 2.1364426917
| 36> H -0.0155546382 4.3908989861 2.3962931325
| 37> H -1.0330404555 3.0203696777 1.9226883189
| 38> H -0.852570111 0.5119681611 3.3324733395
| 39> H 0.6360220066 0.3671969625 2.3415265404
| 40> H -0.3650252823 -1.0697019096 2.6486426285
| 41> H -4.7914248785 0.412736199 0.4036859855
| 42> H -3.8902387289 0.9233475383 -1.0553570547
| 43> H -3.3122088165 1.4048163664 0.5649433947
| 44> *
| 45>
| 46>                          ****END OF INPUT****

CARTESIAN COORDINATES (ANGSTROEM)
---------------------------------
  C      3.776766   -1.871346    1.498878
  C      2.925391   -2.621212    0.487390
  O      2.719634   -1.821293   -0.695144
  C      1.728144   -0.969466   -0.712577
  O      0.946211   -0.806146    0.212373
  C      1.621411   -0.202347   -2.003318
  C      0.579415    0.893257   -1.857661
  H      0.495341    1.474729   -2.780521
  C      0.905352    1.861954   -0.728614
  O      1.958850    1.852781   -0.132599
  O     -0.059408    2.736633   -0.552862
  C      0.163544    3.849748    0.338018
  C     -0.060439    3.488179    1.795935
  S     -1.128148    0.241778   -1.696998
  P     -1.478094   -0.717837    0.163389
  S     -1.190339   -2.627769    0.507354
  O     -1.166595    0.329146    1.342465
  C     -0.382094    0.009864    2.490084
  O     -3.080209   -0.609136    0.079923
  C     -3.808834    0.625587   -0.010979
  H      4.736406   -1.611705    1.060824
  H      3.272995   -0.957709    1.807785
  H      3.934890   -2.498459    2.369700
  H      1.949361   -2.884187    0.906441
  H      3.430923   -3.515323    0.123476
  H      1.343637   -0.889450   -2.804215
  H      2.599150    0.224032   -2.233397
  H      1.186160    4.207335    0.186538
  H     -0.556548    4.594924   -0.000509
  H      0.708936    2.799924    2.136443
  H     -0.015555    4.390899    2.396293
  H     -1.033040    3.020370    1.922688
  H     -0.852570    0.511968    3.332473
  H      0.636022    0.367197    2.341527
  H     -0.365025   -1.069702    2.648643
  H     -4.791425    0.412736    0.403686
  H     -3.890239    0.923348   -1.055357
  H     -3.312209    1.404816    0.564943

 Total Charge           Charge          ....    0
 Multiplicity           Mult            ....    1
 Number of Electrons    NEL             ....  174
 Basis Dimension        Dim             ....  316

ORBITAL ENERGIES
----------------

  NO   OCC          E(Eh)            E(eV)
   0   2.0000     -88.034299     -2395.5351
   1   2.0000     -87.959972     -2393.5125
   2   2.0000     -76.414974     -2079.3572
   3   2.0000     -18.812573      -511.9161
   4   2.0000     -18.810488      -511.8594
   5   2.0000     -18.781371      -511.0671
   6   2.0000     -18.768587      -510.7192
   7   2.0000     -18.755810      -510.3715
   8   2.0000     -18.751187      -510.2457
   9   2.0000     -10.023307      -272.7481
  10   2.0000     -10.022133      -272.7161
  11   2.0000      -9.955940      -270.9149
  12   2.0000      -9.954764      -270.8829
  13   2.0000      -9.948287      -270.7066
  14   2.0000      -9.932068      -270.2653
  15   2.0000      -9.930877      -270.2329
  16   2.0000      -9.918281      -269.8902
  17   2.0000      -9.888868      -269.0898
  18   2.0000      -9.887676      -269.0574
  19   2.0000      -7.678899      -208.9535
  20   2.0000      -7.605452      -206.9549
  21   2.0000      -6.410434      -174.4368
  22   2.0000      -5.707575      -155.3110
  23   2.0000      -5.702846      -155.1823
  24   2.0000      -5.695680      -154.9873
  25   2.0000      -5.635020      -153.3367
  26   2.0000      -5.626111      -153.0943
  27   2.0000      -5.624842      -153.0597
  28   2.0000      -4.633687      -126.0890
  29   2.0000      -4.632261      -126.0502
  30   2.0000      -4.630684      -126.0073
  31   2.0000      -1.023501       -27.8509
  32   2.0000      -1.019600       -27.7447
  33   2.0000      -0.966463       -26.2988
  34   2.0000      -0.933164       -25.3927
  35   2.0000      -0.925951       -25.1964
  36   2.0000      -0.922069       -25.0908
  37   2.0000      -0.765674       -20.8351
  38   2.0000      -0.717761       -19.5313
  39   2.0000      -0.704688       -19.1755
  40   2.0000      -0.688380       -18.7318
  41   2.0000      -0.655984       -17.8502
  42   2.0000      -0.626791       -17.0558
  43   2.0000      -0.619057       -16.8454
  44   2.0000      -0.604201       -16.4411
  45   2.0000      -0.599204       -16.3052
  46   2.0000      -0.571032       -15.5386
  47   2.0000      -0.509771       -13.8716
  48   2.0000      -0.505746       -13.7621
  49   2.0000      -0.495114       -13.4727
  50   2.0000      -0.489597       -13.3226
  51   2.0000      -0.470489       -12.8027
  52   2.0000      -0.458328       -12.4717
  53   2.0000      -0.446580       -12.1521
  54   2.0000      -0.440816       -11.9952
  55   2.0000      -0.437157       -11.8956
  56   2.0000      -0.430478       -11.7139
  57   2.0000      -0.417858       -11.3705
  58   2.0000      -0.410425       -11.1682
  59   2.0000      -0.405443       -11.0327
  60   2.0000      -0.399432       -10.8691
  61   2.0000      -0.396372       -10.7858
  62   2.0000      -0.386614       -10.5203
  63   2.0000      -0.384223       -10.4552
  64   2.0000      -0.381256       -10.3745
  65   2.0000      -0.380402       -10.3513
  66   2.0000      -0.359287        -9.7767
  67   2.0000      -0.357290        -9.7223
  68   2.0000      -0.345186        -9.3930
  69   2.0000      -0.340206        -9.2575
  70   2.0000      -0.332054        -9.0357
  71   2.0000      -0.329168        -8.9571
  72   2.0000      -0.325468        -8.8564
  73   2.0000      -0.305240        -8.3060
  74   2.0000      -0.302296        -8.2259
  75   2.0000      -0.298184        -8.1140
  76   2.0000      -0.290988        -7.9182
  77   2.0000      -0.281163        -7.6508
  78   2.0000      -0.272978        -7.4281
  79   2.0000      -0.267754        -7.2859
  80   2.0000      -0.255925        -6.9641
  81   2.0000      -0.248837        -6.7712
  82   2.0000      -0.243926        -6.6376
  83   2.0000      -0.234070        -6.3694
  84   2.0000      -0.213881        -5.8200
  85   2.0000      -0.180828        -4.9206
  86   2.0000      -0.169492        -4.6121
  87   0.0000      -0.046543        -1.2665
  88   0.0000      -0.044591        -1.2134
  89   0.0000      -0.018663        -0.5078
  90   0.0000       0.000242         0.0066
  91   0.0000       0.030886         0.8404

MULLIKEN ATOMIC CHARGES
-----------------------
   0 C :   -0.312447
   1 C :   -0.026272
   2 O :   -0.217703
   3 C :    0.162386
   4 O :   -0.228846
   5 C :   -0.049396
   6 C :   -0.316060
   7 H :    0.150279
   8 C :    0.208167
   9 O :   -0.198722
  10 O :   -0.217520
  11 C :   -0.011314
  12 C :   -0.318715
  13 S :   -0.103215
  14 P :    0.648118
  15 S :   -0.328540
  16 O :   -0.403796
  17 C :   -0.112320
  18 O :   -0.380948
  19 C :   -0.114726
  20 H :    0.114375
  21 H :    0.134442
  22 H :    0.115542
  23 H :    0.131303
  24 H :    0.106254
  25 H :    0.131749
  26 H :    0.125350
  27 H :    0.104030
  28 H :    0.104327
  29 H :    0.130111
  30 H :    0.110272
  31 H :    0.134760
  32 H :    0.111697
  33 H :    0.137234
  34 H :    0.120474
  35 H :    0.121687
  36 H :    0.119660
  37 H :    0.118320
Sum of atomic charges:    0.0000000

LOEWDIN ATOMIC CHARGES
----------------------
   0 C :   -0.355549
   1 C :   -0.110106
   2 O :   -0.038800
   3 C :    0.055925
   4 O :   -0.164602
   5 C :   -0.249672
   6 C :   -0.265726
   7 H :    0.152906
   8 C :    0.019116
   9 O :   -0.160834
  10 O :   -0.051267
  11 C :   -0.103828
  12 C :   -0.358367
  13 S :    0.107621
  14 P :    0.585807
  15 S :   -0.331812
  16 O :   -0.259050
  17 C :   -0.217967
  18 O :   -0.263228
  19 C :   -0.219007
  20 H :    0.125293
  21 H :    0.130904
  22 H :    0.132068
  23 H :    0.124669
  24 H :    0.120214
  25 H :    0.150854
  26 H :    0.150519
  27 H :    0.117769
  28 H :    0.119258
  29 H :    0.129222
  30 H :    0.129956
  31 H :    0.128454
  32 H :    0.113132
  33 H :    0.110536
  34 H :    0.109174
  35 H :    0.120191
  36 H :    0.108706
  37 H :    0.107519

  Mayer bond orders larger than 0.100000
B(  0-C ,  1-C ) :   1.1702 B(  0-C , 20-H ) :   0.9474 B(  0-C , 21-H ) :   0.9431
B(  0-C , 22-H ) :   0.9437 B(  1-C ,  2-O ) :   0.8998 B(  1-C , 23-H ) :   0.9078
B(  1-C , 24-H ) :   0.9372 B(  2-O ,  3-C ) :   1.2855 B(  3-C ,  4-O ) :   1.8384
B(  3-C ,  5-C ) :   1.0203 B(  4-O , 14-P ) :   0.1366 B(  5-C ,  6-C ) :   1.0315
B(  5-C , 25-H ) :   0.8800 B(  5-C , 26-H ) :   0.8777 B(  6-C ,  7-H ) :   0.8714
B(  6-C ,  8-C ) :   0.8880 B(  6-C , 13-S ) :   1.0208 B(  8-C ,  9-O ) :   2.0441
B(  8-C , 10-O ) :   1.2635 B( 10-O , 11-C ) :   0.9173 B( 11-C , 12-C ) :   1.1776
B( 11-C , 27-H ) :   0.9209 B( 11-C , 28-H ) :   0.9378 B( 12-C , 29-H ) :   0.9370
B( 12-C , 30-H ) :   0.9386 B( 12-C , 31-H ) :   0.9379 B( 13-S , 14-P ) :   0.9558
B( 14-P , 15-S ) :   1.5927 B( 14-P , 16-O ) :   1.0479 B( 14-P , 18-O ) :   1.0709
B( 16-O , 17-C ) :   0.9243 B( 17-C , 32-H ) :   0.9523 B( 17-C , 33-H ) :   0.9348
B( 17-C , 34-H ) :   0.9270 B( 18-O , 19-C ) :   0.9321 B( 19-C , 35-H ) :   0.9582
B( 19-C , 36-H ) :   0.9497 B( 19-C , 37-H ) :   0.9416

Dispersion correction           -0.055181415
FINAL SINGLE POINT ENERGY     -1979.004079290881

DIPOLE MOMENT
-------------

Method             : SCF
Type of density    : Electron Density
Multiplicity       :   1
Irrep              :   0
Energy             : -1979.1350554280593315 Eh
Relativity type    :
Basis              : AO
                                X                 Y                 Z
Electronic contribution:     -9.388984392      -9.334639161     -12.346041072
Nuclear contribution   :     10.298576408      10.966828359      12.395655780
                        -----------------------------------------
Total Dipole Moment    :      0.909592016       1.632189198       0.049614708
                        -----------------------------------------
Magnitude (a.u.)       :      1.869187212
Magnitude (Debye)      :      4.751096316

Rotational constants in cm-1:             0.011447             0.009663             0.007331
Rotational constants in MHz :           343.177716           289.704260           219.789597

                             ****ORCA TERMINATED NORMALLY****
TOTAL RUN TIME: 0 days 0 hours 0 minutes 42 seconds 85 msec
