                         Program Version 6.0.0  -   RELEASE  -
|  1> ! r2scan-3c def2/J RI DEFGRID2 scfconv6 printgap
|  2> %output
|  3>     printlevel normal
|  4> end
|  5> * xyz 0 1
|  6> C 5.4252004639 -1.2646158468 -0.6668413583
|  7> C 4.1605625485 -2.0996921938 -0.7003753634
|  8> O 3.0452535319 -1.3689532499 -1.2540710576
|  9> P 2.2496630105 -0.2529030999 -0.4602909428
| 10> S 3.0659034371 1.5115167436 -0.183439298
| 11> O 1.8349353509 -0.9995660725 0.8888441624
| 12> C 1.8572508892 -0.3990812114 2.1959553911
| 13> C 3.0698749235 -0.881916698 2.9666023859
| 14> S 0.5574874946 -0.3010044901 -1.7205573431
| 15> C -0.1629999318 1.2640552987 -1.1461422794
| 16> S -0.7242430236 1.1854450218 0.5732470918
| 17> P -2.6212913288 0.2468800425 0.258231243
| 18> S -3.3410929943 0.4001114628 -1.5644419901
| 19> O -3.551022759 0.8322762264 1.3924849251
| 20> C -4.3743068229 1.9918661561 1.177565983
| 21> C -3.5529787999 3.262127871 1.0787567657
| 22> O -2.4997463736 -1.1886115318 0.9156364577
| 23> C -1.5819819891 -2.2257459229 0.5347417821
| 24> C -1.9383803303 -2.8539271957 -0.7982494359
| 25> H 6.2475239815 -1.8713719153 -0.3009467252
| 26> H 5.6618341846 -0.9014206452 -1.6635940617
| 27> H 5.2971039616 -0.4049534046 -0.0113134673
| 28> H 3.890228718 -2.4473233919 0.299959871
| 29> H 4.2666443933 -2.9540244765 -1.3711903772
| 30> H 1.8717958761 0.6901887887 2.0902680439
| 31> H 0.9253068816 -0.7035015898 2.6755200425
| 32> H 3.9806002744 -0.5406656394 2.4786842972
| 33> H 3.0361386985 -0.4748579587 3.9718694858
| 34> H 3.0773337001 -1.9671619192 3.0195283249
| 35> H -1.0123313633 1.4744642962 -1.797605844
| 36> H 0.5895296244 2.0504147038 -1.1967838815
| 37> H -4.9617517971 1.8406439062 0.2659975898
| 38> H -5.0352525971 2.0072742622 2.045161394
| 39> H -4.2184281552 4.1190343458 1.0518795609
| 40> H -2.8869926767 3.3481083852 1.9335678897
| 41> H -2.9563552792 3.2513915794 0.1676383222
| 42> H -0.5647518698 -1.8221496204 0.5120380828
| 43> H -1.6656399735 -2.950695269 1.3469988795
| 44> H -1.2871370159 -3.7031471698 -0.9786591295
| 45> H -2.9730284436 -3.1868897031 -0.7901622633
| 46> H -1.8079675243 -2.1367534731 -1.6067638281
| 47> *
| 48>
| 49>                          ****END OF INPUT****

CARTESIAN COORDINATES (ANGSTROEM)
---------------------------------
  C      5.425200   -1.264616   -0.666841
  C      4.160563   -2.099692   -0.700375
  O      3.045254   -1.368953   -1.254071
  P      2.249663   -0.252903   -0.460291
  S      3.065903    1.511517   -0.183439
  O      1.834935   -0.999566    0.888844
  C      1.857251   -0.399081    2.195955
  C      3.069875   -0.881917    2.966602
  S      0.557487   -0.301004   -1.720557
  C     -0.163000    1.264055   -1.146142
  S     -0.724243    1.185445    0.573247
  P     -2.621291    0.246880    0.258231
  S     -3.341093    0.400111   -1.564442
  O     -3.551023    0.832276    1.392485
  C     -4.374307    1.991866    1.177566
  C     -3.552979    3.262128    1.078757
  O     -2.499746   -1.188612    0.915636
  C     -1.581982   -2.225746    0.534742
  C     -1.938380   -2.853927   -0.798249
  H      6.247524   -1.871372   -0.300947
  H      5.661834   -0.901421   -1.663594
  H      5.297104   -0.404953   -0.011313
  H      3.890229   -2.447323    0.299960
  H      4.266644   -2.954024   -1.371190
  H      1.871796    0.690189    2.090268
  H      0.925307   -0.703502    2.675520
  H      3.980600   -0.540666    2.478684
  H      3.036139   -0.474858    3.971869
  H      3.077334   -1.967162    3.019528
  H     -1.012331    1.474464   -1.797606
  H      0.589530    2.050415   -1.196784
  H     -4.961752    1.840644    0.265998
  H     -5.035253    2.007274    2.045161
  H     -4.218428    4.119034    1.051880
  H     -2.886993    3.348108    1.933568
  H     -2.956355    3.251392    0.167638
  H     -0.564752   -1.822150    0.512038
  H     -1.665640   -2.950695    1.346999
  H     -1.287137   -3.703147   -0.978659
  H     -2.973028   -3.186890   -0.790162
  H     -1.807968   -2.136753   -1.606764

 Total Charge           Charge          ....    0
 Multiplicity           Mult            ....    1
 Number of Electrons    NEL             ....  202
 Basis Dimension        Dim             ....  539

ORBITAL ENERGIES
----------------

  NO   OCC          E(Eh)            E(eV)
   0   2.0000     -88.576913     -2410.3003
   1   2.0000     -88.576399     -2410.2863
   2   2.0000     -88.526263     -2408.9221
   3   2.0000     -88.524024     -2408.8612
   4   2.0000     -76.919657     -2093.0903
   5   2.0000     -76.915504     -2092.9773
   6   2.0000     -18.997801      -516.9565
   7   2.0000     -18.997725      -516.9544
   8   2.0000     -18.991565      -516.7868
   9   2.0000     -18.989222      -516.7230
  10   2.0000     -10.108072      -275.0546
  11   2.0000     -10.103400      -274.9275
  12   2.0000     -10.100512      -274.8489
  13   2.0000     -10.097563      -274.7687
  14   2.0000     -10.095319      -274.7076
  15   2.0000     -10.036594      -273.1096
  16   2.0000     -10.032934      -273.0100
  17   2.0000     -10.027755      -272.8691
  18   2.0000     -10.020625      -272.6751
  19   2.0000      -7.871149      -214.1849
  20   2.0000      -7.870603      -214.1700
  21   2.0000      -7.821026      -212.8209
  22   2.0000      -7.818778      -212.7598
  23   2.0000      -6.597854      -179.5367
  24   2.0000      -6.593911      -179.4294
  25   2.0000      -5.818009      -158.3161
  26   2.0000      -5.817476      -158.3016
  27   2.0000      -5.814937      -158.2325
  28   2.0000      -5.814535      -158.2215
  29   2.0000      -5.808390      -158.0543
  30   2.0000      -5.807666      -158.0346
  31   2.0000      -5.768684      -156.9739
  32   2.0000      -5.766417      -156.9122
  33   2.0000      -5.761470      -156.7776
  34   2.0000      -5.760864      -156.7611
  35   2.0000      -5.759005      -156.7105
  36   2.0000      -5.758855      -156.7064
  37   2.0000      -4.743653      -129.0814
  38   2.0000      -4.742514      -129.0504
  39   2.0000      -4.741597      -129.0254
  40   2.0000      -4.739199      -128.9602
  41   2.0000      -4.739125      -128.9582
  42   2.0000      -4.737583      -128.9162
  43   2.0000      -1.055229       -28.7143
  44   2.0000      -1.052787       -28.6478
  45   2.0000      -1.015392       -27.6302
  46   2.0000      -1.009338       -27.4655
  47   2.0000      -0.802368       -21.8335
  48   2.0000      -0.762990       -20.7620
  49   2.0000      -0.751758       -20.4564
  50   2.0000      -0.738069       -20.0839
  51   2.0000      -0.725448       -19.7405
  52   2.0000      -0.712990       -19.4014
  53   2.0000      -0.689729       -18.7685
  54   2.0000      -0.671661       -18.2768
  55   2.0000      -0.633981       -17.2515
  56   2.0000      -0.627466       -17.0742
  57   2.0000      -0.615643       -16.7525
  58   2.0000      -0.601397       -16.3648
  59   2.0000      -0.592335       -16.1183
  60   2.0000      -0.531770       -14.4702
  61   2.0000      -0.518636       -14.1128
  62   2.0000      -0.501659       -13.6508
  63   2.0000      -0.487973       -13.2784
  64   2.0000      -0.480375       -13.0717
  65   2.0000      -0.465742       -12.6735
  66   2.0000      -0.459057       -12.4916
  67   2.0000      -0.454523       -12.3682
  68   2.0000      -0.437268       -11.8987
  69   2.0000      -0.436783       -11.8855
  70   2.0000      -0.430064       -11.7026
  71   2.0000      -0.425509       -11.5787
  72   2.0000      -0.413951       -11.2642
  73   2.0000      -0.401725       -10.9315
  74   2.0000      -0.397447       -10.8151
  75   2.0000      -0.392421       -10.6783
  76   2.0000      -0.387548       -10.5457
  77   2.0000      -0.376383       -10.2419
  78   2.0000      -0.372064       -10.1244
  79   2.0000      -0.370641       -10.0857
  80   2.0000      -0.362403        -9.8615
  81   2.0000      -0.359369        -9.7789
  82   2.0000      -0.356379        -9.6976
  83   2.0000      -0.353067        -9.6074
  84   2.0000      -0.349304        -9.5051
  85   2.0000      -0.338807        -9.2194
  86   2.0000      -0.323500        -8.8029
  87   2.0000      -0.313598        -8.5334
  88   2.0000      -0.313070        -8.5191
  89   2.0000      -0.310840        -8.4584
  90   2.0000      -0.302636        -8.2351
  91   2.0000      -0.298404        -8.1200
  92   2.0000      -0.286545        -7.7973
  93   2.0000      -0.281350        -7.6559
  94   2.0000      -0.275183        -7.4881
  95   2.0000      -0.249663        -6.7937
  96   2.0000      -0.232371        -6.3231
  97   2.0000      -0.229688        -6.2501
  98   2.0000      -0.220634        -6.0038
  99   2.0000      -0.218470        -5.9449
 100   2.0000      -0.215846        -5.8735
 101   0.0000      -0.052049        -1.4163
 102   0.0000      -0.030281        -0.8240
 103   0.0000      -0.009423        -0.2564
 104   0.0000      -0.003666        -0.0997
 105   0.0000       0.010303         0.2803

MULLIKEN ATOMIC CHARGES
-----------------------
   0 C :   -0.423074
   1 C :   -0.165505
   2 O :   -0.299865
   3 P :    0.668286
   4 S :   -0.464510
   5 O :   -0.291647
   6 C :   -0.102829
   7 C :   -0.492587
   8 S :   -0.119064
   9 C :   -0.241011
  10 S :   -0.140185
  11 P :    0.682132
  12 S :   -0.462491
  13 O :   -0.313481
  14 C :   -0.150456
  15 C :   -0.437849
  16 O :   -0.276127
  17 C :   -0.162212
  18 C :   -0.419700
  19 H :    0.146758
  20 H :    0.159841
  21 H :    0.165072
  22 H :    0.159704
  23 H :    0.152108
  24 H :    0.179357
  25 H :    0.158682
  26 H :    0.164557
  27 H :    0.150633
  28 H :    0.155451
  29 H :    0.216801
  30 H :    0.218032
  31 H :    0.173227
  32 H :    0.149502
  33 H :    0.147460
  34 H :    0.154777
  35 H :    0.169436
  36 H :    0.174784
  37 H :    0.147481
  38 H :    0.144670
  39 H :    0.152731
  40 H :    0.171110
Sum of atomic charges:   -0.0000000

LOEWDIN ATOMIC CHARGES
----------------------
   0 C :   -0.401556
   1 C :    0.031004
   2 O :   -0.664724
   3 P :    0.382123
   4 S :   -0.126108
   5 O :   -0.691594
   6 C :    0.000120
   7 C :   -0.397180
   8 S :    0.174339
   9 C :   -0.426175
  10 S :    0.153857
  11 P :    0.394872
  12 S :   -0.125537
  13 O :   -0.651011
  14 C :    0.022006
  15 C :   -0.405453
  16 O :   -0.648006
  17 C :    0.020521
  18 C :   -0.408903
  19 H :    0.158462
  20 H :    0.163930
  21 H :    0.165063
  22 H :    0.175089
  23 H :    0.182032
  24 H :    0.184289
  25 H :    0.177988
  26 H :    0.160800
  27 H :    0.162006
  28 H :    0.157203
  29 H :    0.194336
  30 H :    0.190876
  31 H :    0.180103
  32 H :    0.180240
  33 H :    0.158901
  34 H :    0.160782
  35 H :    0.163021
  36 H :    0.186530
  37 H :    0.179437
  38 H :    0.158992
  39 H :    0.160990
  40 H :    0.166335

  Mayer bond orders larger than 0.100000
B(  0-C ,  1-C ) :   0.9443 B(  0-C , 19-H ) :   0.9661 B(  0-C , 20-H ) :   0.9685
B(  0-C , 21-H ) :   0.9531 B(  1-C ,  2-O ) :   0.7912 B(  1-C , 22-H ) :   0.9677
B(  1-C , 23-H ) :   0.9598 B(  2-O ,  3-P ) :   1.1549 B(  3-P ,  4-S ) :   1.7778
B(  3-P ,  5-O ) :   1.0390 B(  3-P ,  8-S ) :   1.0951 B(  5-O ,  6-C ) :   0.7425
B(  6-C ,  7-C ) :   0.9279 B(  6-C , 24-H ) :   0.9488 B(  6-C , 25-H ) :   0.9582
B(  7-C , 26-H ) :   0.9714 B(  7-C , 27-H ) :   0.9621 B(  7-C , 28-H ) :   0.9789
B(  8-S ,  9-C ) :   0.9062 B(  9-C , 10-S ) :   0.8917 B(  9-C , 29-H ) :   0.8978
B(  9-C , 30-H ) :   0.9081 B( 10-S , 11-P ) :   1.0471 B( 11-P , 12-S ) :   1.7500
B( 11-P , 13-O ) :   1.1296 B( 11-P , 16-O ) :   1.1447 B( 13-O , 14-C ) :   0.8168
B( 14-C , 15-C ) :   0.9220 B( 14-C , 31-H ) :   0.9678 B( 14-C , 32-H ) :   0.9589
B( 15-C , 33-H ) :   0.9604 B( 15-C , 34-H ) :   0.9676 B( 15-C , 35-H ) :   0.9658
B( 16-O , 17-C ) :   0.8057 B( 17-C , 18-C ) :   0.9332 B( 17-C , 36-H ) :   0.9529
B( 17-C , 37-H ) :   0.9635 B( 18-C , 38-H ) :   0.9661 B( 18-C , 39-H ) :   0.9691
B( 18-C , 40-H ) :   0.9516

Dispersion correction           -0.021818808
FINAL SINGLE POINT ENERGY     -2932.463471625957

DIPOLE MOMENT
-------------

Method             : SCF
Type of density    : Electron Density
Multiplicity       :   1
Irrep              :   0
Energy             : -2932.4884239971806892 Eh
Relativity type    :
Basis              : AO
                                X                 Y                 Z
Electronic contribution:     -8.574676102       6.187341836     -10.462860188
Nuclear contribution   :      9.216126707      -6.948989134      11.684492366
                        -----------------------------------------
Total Dipole Moment    :      0.641450605      -0.761647298       1.221632178
                        -----------------------------------------
Magnitude (a.u.)       :      1.576055413
Magnitude (Debye)      :      4.006014497

Rotational constants in cm-1:             0.013782             0.004608             0.004417
Rotational constants in MHz :           413.180025           138.136514           132.415671

                             ****ORCA TERMINATED NORMALLY****
TOTAL RUN TIME: 0 days 0 hours 1 minutes 19 seconds 310 msec
