                         Program Version 6.0.0  -   RELEASE  -
|  1> ! r2scan-3c def2/J RI DEFGRID2 scfconv6 printgap
|  2> %output
|  3>     printlevel normal
|  4> end
|  5> %cpcm
|  6>     smd true
|  7>     smdsolvent "water"
|  8> end
|  9> * xyz 0 1
| 10> C 5.4252004639 -1.2646158468 -0.6668413583
| 11> C 4.1605625485 -2.0996921938 -0.7003753634
| 12> O 3.0452535319 -1.3689532499 -1.2540710576
| 13> P 2.2496630105 -0.2529030999 -0.4602909428
| 14> S 3.0659034371 1.5115167436 -0.183439298
| 15> O 1.8349353509 -0.9995660725 0.8888441624
| 16> C 1.8572508892 -0.3990812114 2.1959553911
| 17> C 3.0698749235 -0.881916698 2.9666023859
| 18> S 0.5574874946 -0.3010044901 -1.7205573431
| 19> C -0.1629999318 1.2640552987 -1.1461422794
| 20> S -0.7242430236 1.1854450218 0.5732470918
| 21> P -2.6212913288 0.2468800425 0.258231243
| 22> S -3.3410929943 0.4001114628 -1.5644419901
| 23> O -3.551022759 0.8322762264 1.3924849251
| 24> C -4.3743068229 1.9918661561 1.177565983
| 25> C -3.5529787999 3.262127871 1.0787567657
| 26> O -2.4997463736 -1.1886115318 0.9156364577
| 27> C -1.5819819891 -2.2257459229 0.5347417821
| 28> C -1.9383803303 -2.8539271957 -0.7982494359
| 29> H 6.2475239815 -1.8713719153 -0.3009467252
| 30> H 5.6618341846 -0.9014206452 -1.6635940617
| 31> H 5.2971039616 -0.4049534046 -0.0113134673
| 32> H 3.890228718 -2.4473233919 0.299959871
| 33> H 4.2666443933 -2.9540244765 -1.3711903772
| 34> H 1.8717958761 0.6901887887 2.0902680439
| 35> H 0.9253068816 -0.7035015898 2.6755200425
| 36> H 3.9806002744 -0.5406656394 2.4786842972
| 37> H 3.0361386985 -0.4748579587 3.9718694858
| 38> H 3.0773337001 -1.9671619192 3.0195283249
| 39> H -1.0123313633 1.4744642962 -1.797605844
| 40> H 0.5895296244 2.0504147038 -1.1967838815
| 41> H -4.9617517971 1.8406439062 0.2659975898
| 42> H -5.0352525971 2.0072742622 2.045161394
| 43> H -4.2184281552 4.1190343458 1.0518795609
| 44> H -2.8869926767 3.3481083852 1.9335678897
| 45> H -2.9563552792 3.2513915794 0.1676383222
| 46> H -0.5647518698 -1.8221496204 0.5120380828
| 47> H -1.6656399735 -2.950695269 1.3469988795
| 48> H -1.2871370159 -3.7031471698 -0.9786591295
| 49> H -2.9730284436 -3.1868897031 -0.7901622633
| 50> H -1.8079675243 -2.1367534731 -1.6067638281
| 51> *
| 52>
| 53>                          ****END OF INPUT****

CARTESIAN COORDINATES (ANGSTROEM)
---------------------------------
  C      5.425200   -1.264616   -0.666841
  C      4.160563   -2.099692   -0.700375
  O      3.045254   -1.368953   -1.254071
  P      2.249663   -0.252903   -0.460291
  S      3.065903    1.511517   -0.183439
  O      1.834935   -0.999566    0.888844
  C      1.857251   -0.399081    2.195955
  C      3.069875   -0.881917    2.966602
  S      0.557487   -0.301004   -1.720557
  C     -0.163000    1.264055   -1.146142
  S     -0.724243    1.185445    0.573247
  P     -2.621291    0.246880    0.258231
  S     -3.341093    0.400111   -1.564442
  O     -3.551023    0.832276    1.392485
  C     -4.374307    1.991866    1.177566
  C     -3.552979    3.262128    1.078757
  O     -2.499746   -1.188612    0.915636
  C     -1.581982   -2.225746    0.534742
  C     -1.938380   -2.853927   -0.798249
  H      6.247524   -1.871372   -0.300947
  H      5.661834   -0.901421   -1.663594
  H      5.297104   -0.404953   -0.011313
  H      3.890229   -2.447323    0.299960
  H      4.266644   -2.954024   -1.371190
  H      1.871796    0.690189    2.090268
  H      0.925307   -0.703502    2.675520
  H      3.980600   -0.540666    2.478684
  H      3.036139   -0.474858    3.971869
  H      3.077334   -1.967162    3.019528
  H     -1.012331    1.474464   -1.797606
  H      0.589530    2.050415   -1.196784
  H     -4.961752    1.840644    0.265998
  H     -5.035253    2.007274    2.045161
  H     -4.218428    4.119034    1.051880
  H     -2.886993    3.348108    1.933568
  H     -2.956355    3.251392    0.167638
  H     -0.564752   -1.822150    0.512038
  H     -1.665640   -2.950695    1.346999
  H     -1.287137   -3.703147   -0.978659
  H     -2.973028   -3.186890   -0.790162
  H     -1.807968   -2.136753   -1.606764

 Total Charge           Charge          ....    0
 Multiplicity           Mult            ....    1
 Number of Electrons    NEL             ....  202
 Basis Dimension        Dim             ....  539

ORBITAL ENERGIES
----------------

  NO   OCC          E(Eh)            E(eV)
   0   2.0000     -88.579825     -2410.3796
   1   2.0000     -88.579795     -2410.3788
   2   2.0000     -88.531862     -2409.0744
   3   2.0000     -88.530425     -2409.0354
   4   2.0000     -76.921414     -2093.1381
   5   2.0000     -76.921286     -2093.1346
   6   2.0000     -18.996309      -516.9158
   7   2.0000     -18.996261      -516.9145
   8   2.0000     -18.995103      -516.8830
   9   2.0000     -18.994437      -516.8649
  10   2.0000     -10.103601      -274.9330
  11   2.0000     -10.091758      -274.6107
  12   2.0000     -10.090064      -274.5646
  13   2.0000     -10.090047      -274.5641
  14   2.0000     -10.087620      -274.4981
  15   2.0000     -10.018227      -272.6098
  16   2.0000     -10.017821      -272.5988
  17   2.0000     -10.017766      -272.5973
  18   2.0000     -10.016234      -272.5556
  19   2.0000      -7.874111      -214.2654
  20   2.0000      -7.874026      -214.2631
  21   2.0000      -7.826868      -212.9799
  22   2.0000      -7.825483      -212.9422
  23   2.0000      -6.599938      -179.5934
  24   2.0000      -6.599482      -179.5810
  25   2.0000      -5.820932      -158.3956
  26   2.0000      -5.820912      -158.3951
  27   2.0000      -5.818000      -158.3158
  28   2.0000      -5.817831      -158.3112
  29   2.0000      -5.811282      -158.1330
  30   2.0000      -5.811209      -158.1310
  31   2.0000      -5.774447      -157.1307
  32   2.0000      -5.773074      -157.0933
  33   2.0000      -5.767102      -156.9308
  34   2.0000      -5.766953      -156.9268
  35   2.0000      -5.765851      -156.8968
  36   2.0000      -5.765410      -156.8848
  37   2.0000      -4.745226      -129.1242
  38   2.0000      -4.745198      -129.1234
  39   2.0000      -4.745124      -129.1214
  40   2.0000      -4.744149      -129.0949
  41   2.0000      -4.743644      -129.0811
  42   2.0000      -4.743340      -129.0728
  43   2.0000      -1.057916       -28.7873
  44   2.0000      -1.052306       -28.6347
  45   2.0000      -1.013645       -27.5827
  46   2.0000      -1.011654       -27.5285
  47   2.0000      -0.804005       -21.8781
  48   2.0000      -0.758310       -20.6347
  49   2.0000      -0.746174       -20.3044
  50   2.0000      -0.723686       -19.6925
  51   2.0000      -0.719713       -19.5844
  52   2.0000      -0.711034       -19.3482
  53   2.0000      -0.691814       -18.8252
  54   2.0000      -0.676395       -18.4056
  55   2.0000      -0.632514       -17.2116
  56   2.0000      -0.622206       -16.9311
  57   2.0000      -0.603727       -16.4282
  58   2.0000      -0.598014       -16.2728
  59   2.0000      -0.589495       -16.0410
  60   2.0000      -0.525172       -14.2906
  61   2.0000      -0.515015       -14.0143
  62   2.0000      -0.492290       -13.3959
  63   2.0000      -0.487525       -13.2662
  64   2.0000      -0.478841       -13.0299
  65   2.0000      -0.461753       -12.5650
  66   2.0000      -0.451234       -12.2787
  67   2.0000      -0.449028       -12.2187
  68   2.0000      -0.434629       -11.8269
  69   2.0000      -0.433284       -11.7903
  70   2.0000      -0.426748       -11.6124
  71   2.0000      -0.424927       -11.5628
  72   2.0000      -0.402480       -10.9520
  73   2.0000      -0.397516       -10.8170
  74   2.0000      -0.392835       -10.6896
  75   2.0000      -0.390478       -10.6255
  76   2.0000      -0.386055       -10.5051
  77   2.0000      -0.373027       -10.1506
  78   2.0000      -0.359752        -9.7894
  79   2.0000      -0.357717        -9.7340
  80   2.0000      -0.355476        -9.6730
  81   2.0000      -0.351681        -9.5697
  82   2.0000      -0.350457        -9.5364
  83   2.0000      -0.346411        -9.4263
  84   2.0000      -0.344775        -9.3818
  85   2.0000      -0.335911        -9.1406
  86   2.0000      -0.320297        -8.7157
  87   2.0000      -0.309298        -8.4164
  88   2.0000      -0.306417        -8.3380
  89   2.0000      -0.302949        -8.2437
  90   2.0000      -0.300406        -8.1745
  91   2.0000      -0.292259        -7.9528
  92   2.0000      -0.286811        -7.8045
  93   2.0000      -0.279802        -7.6138
  94   2.0000      -0.278995        -7.5918
  95   2.0000      -0.251612        -6.8467
  96   2.0000      -0.237791        -6.4706
  97   2.0000      -0.235640        -6.4121
  98   2.0000      -0.226890        -6.1740
  99   2.0000      -0.225547        -6.1374
 100   2.0000      -0.220432        -5.9983
 101   0.0000      -0.056567        -1.5393
 102   0.0000      -0.035228        -0.9586
 103   0.0000      -0.013782        -0.3750
 104   0.0000      -0.005577        -0.1518
 105   0.0000       0.009831         0.2675

MULLIKEN ATOMIC CHARGES
-----------------------
   0 C :   -0.477595
   1 C :   -0.144752
   2 O :   -0.334277
   3 P :    0.695912
   4 S :   -0.510718
   5 O :   -0.301333
   6 C :   -0.096692
   7 C :   -0.520667
   8 S :   -0.142258
   9 C :   -0.249782
  10 S :   -0.136081
  11 P :    0.707872
  12 S :   -0.502089
  13 O :   -0.344094
  14 C :   -0.148308
  15 C :   -0.476469
  16 O :   -0.307526
  17 C :   -0.149679
  18 C :   -0.467101
  19 H :    0.171224
  20 H :    0.168875
  21 H :    0.165552
  22 H :    0.177939
  23 H :    0.175347
  24 H :    0.173497
  25 H :    0.179505
  26 H :    0.168888
  27 H :    0.169762
  28 H :    0.169849
  29 H :    0.230093
  30 H :    0.238461
  31 H :    0.177540
  32 H :    0.175633
  33 H :    0.171896
  34 H :    0.167382
  35 H :    0.170315
  36 H :    0.175280
  37 H :    0.176809
  38 H :    0.172073
  39 H :    0.165186
  40 H :    0.164533
Sum of atomic charges:    0.0000000

LOEWDIN ATOMIC CHARGES
----------------------
   0 C :   -0.406017
   1 C :    0.038583
   2 O :   -0.680902
   3 P :    0.384864
   4 S :   -0.156841
   5 O :   -0.691425
   6 C :    0.005888
   7 C :   -0.398746
   8 S :    0.158424
   9 C :   -0.420579
  10 S :    0.160237
  11 P :    0.396846
  12 S :   -0.152913
  13 O :   -0.667732
  14 C :    0.026669
  15 C :   -0.408372
  16 O :   -0.664989
  17 C :    0.026456
  18 C :   -0.414171
  19 H :    0.168369
  20 H :    0.163224
  21 H :    0.162364
  22 H :    0.184089
  23 H :    0.191725
  24 H :    0.182372
  25 H :    0.185908
  26 H :    0.162028
  27 H :    0.168274
  28 H :    0.163366
  29 H :    0.198774
  30 H :    0.196591
  31 H :    0.181720
  32 H :    0.191249
  33 H :    0.167957
  34 H :    0.163763
  35 H :    0.160910
  36 H :    0.187690
  37 H :    0.191760
  38 H :    0.168741
  39 H :    0.162817
  40 H :    0.161028

  Mayer bond orders larger than 0.100000
B(  0-C ,  1-C ) :   0.9252 B(  0-C , 19-H ) :   0.9593 B(  0-C , 20-H ) :   0.9707
B(  0-C , 21-H ) :   0.9573 B(  1-C ,  2-O ) :   0.7852 B(  1-C , 22-H ) :   0.9583
B(  1-C , 23-H ) :   0.9524 B(  2-O ,  3-P ) :   1.1640 B(  3-P ,  4-S ) :   1.7452
B(  3-P ,  5-O ) :   1.0536 B(  3-P ,  8-S ) :   1.0992 B(  5-O ,  6-C ) :   0.7291
B(  6-C ,  7-C ) :   0.9349 B(  6-C , 24-H ) :   0.9474 B(  6-C , 25-H ) :   0.9494
B(  7-C , 26-H ) :   0.9685 B(  7-C , 27-H ) :   0.9586 B(  7-C , 28-H ) :   0.9728
B(  8-S ,  9-C ) :   0.8992 B(  9-C , 10-S ) :   0.8873 B(  9-C , 29-H ) :   0.8947
B(  9-C , 30-H ) :   0.9030 B( 10-S , 11-P ) :   1.0615 B( 11-P , 12-S ) :   1.7264
B( 11-P , 13-O ) :   1.1311 B( 11-P , 16-O ) :   1.1440 B( 13-O , 14-C ) :   0.8060
B( 14-C , 15-C ) :   0.9121 B( 14-C , 31-H ) :   0.9641 B( 14-C , 32-H ) :   0.9489
B( 15-C , 33-H ) :   0.9548 B( 15-C , 34-H ) :   0.9657 B( 15-C , 35-H ) :   0.9655
B( 16-O , 17-C ) :   0.7975 B( 17-C , 18-C ) :   0.9146 B( 17-C , 36-H ) :   0.9511
B( 17-C , 37-H ) :   0.9543 B( 18-C , 38-H ) :   0.9606 B( 18-C , 39-H ) :   0.9694
B( 18-C , 40-H ) :   0.9545

Dispersion correction           -0.021818808
FINAL SINGLE POINT ENERGY     -2932.470614447760

DIPOLE MOMENT
-------------

Method             : SCF
Type of density    : Electron Density
Multiplicity       :   1
Irrep              :   0
Energy             : -2932.4955668189836615 Eh
Relativity type    :
Basis              : AO
                                X                 Y                 Z
Electronic contribution:     -8.372521909       5.935548925      -9.931413405
Nuclear contribution   :      9.216126707      -6.948989134      11.684492366
                        -----------------------------------------
Total Dipole Moment    :      0.843604798      -1.013440209       1.753078961
                        -----------------------------------------
Magnitude (a.u.)       :      2.193630770
Magnitude (Debye)      :      5.575766305

Rotational constants in cm-1:             0.013782             0.004608             0.004417
Rotational constants in MHz :           413.180025           138.136514           132.415671

                             ****ORCA TERMINATED NORMALLY****
TOTAL RUN TIME: 0 days 0 hours 1 minutes 55 seconds 278 msec
