                         Program Version 6.0.0  -   RELEASE  -
|  1> ! pbe def2-sv(p) def2/J RI DEFGRID1 loosescf d4 GCP(DFT/SV(P)) printgap
|  2> %output
|  3>     printlevel normal
|  4> end
|  5> * xyz 0 1
|  6> C 1.7815215069 -2.8840433645 0.3472484264
|  7> C 2.3873025729 -1.9943695065 1.4123202463
|  8> O 3.2485446253 -0.9749904294 0.873356486
|  9> P 2.8650683489 0.0420870645 -0.2867300462
| 10> S 2.9444113673 -0.6003873508 -2.1379268622
| 11> O 3.9649342027 1.15494188 -0.0931520193
| 12> C 4.5022898486 1.6077353312 1.1729518976
| 13> C 3.452532964 2.248919702 2.0557188457
| 14> S 0.9836957464 0.8867265405 0.3002511231
| 15> C 0.0146085438 0.5605312389 -1.191781128
| 16> S -1.2055751434 -0.752613154 -0.9793079852
| 17> P -2.8540237392 0.4172895847 -0.2717249388
| 18> S -2.6612823378 2.342336858 -0.5910379041
| 19> O -3.1015548243 0.0062333874 1.2455419582
| 20> C -2.1773462346 0.3392494516 2.3001945419
| 21> C -1.3784047095 -0.8858853456 2.7008079967
| 22> O -4.1367291597 -0.1605323255 -0.9726090243
| 23> C -4.8074614946 -1.395613438 -0.6119649062
| 24> C -3.9143749087 -2.6072290565 -0.7674596834
| 25> H 1.2279482523 -3.6882281155 0.8211226845
| 26> H 1.1013178636 -2.3162969798 -0.2881915662
| 27> H 2.5606554868 -3.3065748232 -0.2827913212
| 28> H 3.0447978465 -2.5598404978 2.0750140271
| 29> H 1.6063366404 -1.5012280582 1.997402596
| 30> H 4.9661018287 0.7541749785 1.6705638393
| 31> H 5.268378041 2.3251262476 0.8746410854
| 32> H 3.9321996395 2.6454439494 2.9452013632
| 33> H 2.9537628745 3.0581173378 1.5281139163
| 34> H 2.7051060749 1.5153111358 2.3528298742
| 35> H 0.6968908429 0.2459661629 -1.9859207464
| 36> H -0.5093268176 1.4811566963 -1.4541988505
| 37> H -1.5235421887 1.1525620173 1.9679858051
| 38> H -2.800929316 0.6941716298 3.1229204396
| 39> H -0.7179632776 -0.6232951459 3.5206530926
| 40> H -2.0481207739 -1.6796082384 3.0187817842
| 41> H -0.7868680794 -1.2400362685 1.8604893776
| 42> H -5.1649490743 -1.2991400125 0.4145821409
| 43> H -5.6533230793 -1.4260775017 -1.3003280418
| 44> H -3.5154345057 -2.6599735387 -1.7773412394
| 45> H -3.0828546397 -2.556641839 -0.067162274
| 46> H -4.4937118765 -3.5026828024 -0.5648945125
| 47> *
| 48>
| 49>                          ****END OF INPUT****

CARTESIAN COORDINATES (ANGSTROEM)
---------------------------------
  C      1.781522   -2.884043    0.347248
  C      2.387303   -1.994370    1.412320
  O      3.248545   -0.974990    0.873356
  P      2.865068    0.042087   -0.286730
  S      2.944411   -0.600387   -2.137927
  O      3.964934    1.154942   -0.093152
  C      4.502290    1.607735    1.172952
  C      3.452533    2.248920    2.055719
  S      0.983696    0.886727    0.300251
  C      0.014609    0.560531   -1.191781
  S     -1.205575   -0.752613   -0.979308
  P     -2.854024    0.417290   -0.271725
  S     -2.661282    2.342337   -0.591038
  O     -3.101555    0.006233    1.245542
  C     -2.177346    0.339249    2.300195
  C     -1.378405   -0.885885    2.700808
  O     -4.136729   -0.160532   -0.972609
  C     -4.807461   -1.395613   -0.611965
  C     -3.914375   -2.607229   -0.767460
  H      1.227948   -3.688228    0.821123
  H      1.101318   -2.316297   -0.288192
  H      2.560655   -3.306575   -0.282791
  H      3.044798   -2.559840    2.075014
  H      1.606337   -1.501228    1.997403
  H      4.966102    0.754175    1.670564
  H      5.268378    2.325126    0.874641
  H      3.932200    2.645444    2.945201
  H      2.953763    3.058117    1.528114
  H      2.705106    1.515311    2.352830
  H      0.696891    0.245966   -1.985921
  H     -0.509327    1.481157   -1.454199
  H     -1.523542    1.152562    1.967986
  H     -2.800929    0.694172    3.122920
  H     -0.717963   -0.623295    3.520653
  H     -2.048121   -1.679608    3.018782
  H     -0.786868   -1.240036    1.860489
  H     -5.164949   -1.299140    0.414582
  H     -5.653323   -1.426078   -1.300328
  H     -3.515435   -2.659974   -1.777341
  H     -3.082855   -2.556642   -0.067162
  H     -4.493712   -3.502683   -0.564895

 Total Charge           Charge          ....    0
 Multiplicity           Mult            ....    1
 Number of Electrons    NEL             ....  202
 Basis Dimension        Dim             ....  334

ORBITAL ENERGIES
----------------

  NO   OCC          E(Eh)            E(eV)
   0   2.0000     -88.045837     -2395.8490
   1   2.0000     -88.045667     -2395.8444
   2   2.0000     -87.986519     -2394.2349
   3   2.0000     -87.985770     -2394.2145
   4   2.0000     -76.429375     -2079.7490
   5   2.0000     -76.428987     -2079.7385
   6   2.0000     -18.798494      -511.5330
   7   2.0000     -18.796062      -511.4669
   8   2.0000     -18.795772      -511.4589
   9   2.0000     -18.791387      -511.3396
  10   2.0000      -9.962492      -271.0932
  11   2.0000      -9.962384      -271.0903
  12   2.0000      -9.959380      -271.0085
  13   2.0000      -9.959090      -271.0006
  14   2.0000      -9.945353      -270.6268
  15   2.0000      -9.896044      -269.2851
  16   2.0000      -9.894573      -269.2450
  17   2.0000      -9.891526      -269.1621
  18   2.0000      -9.887077      -269.0411
  19   2.0000      -7.689991      -209.2553
  20   2.0000      -7.689628      -209.2454
  21   2.0000      -7.631687      -207.6688
  22   2.0000      -7.630952      -207.6488
  23   2.0000      -6.426525      -174.8746
  24   2.0000      -6.426508      -174.8742
  25   2.0000      -5.717766      -155.5883
  26   2.0000      -5.717440      -155.5795
  27   2.0000      -5.714432      -155.4976
  28   2.0000      -5.714098      -155.4885
  29   2.0000      -5.707340      -155.3046
  30   2.0000      -5.706933      -155.2936
  31   2.0000      -5.660732      -154.0364
  32   2.0000      -5.660074      -154.0184
  33   2.0000      -5.652100      -153.8015
  34   2.0000      -5.651905      -153.7961
  35   2.0000      -5.651474      -153.7844
  36   2.0000      -5.650973      -153.7708
  37   2.0000      -4.649468      -126.5185
  38   2.0000      -4.649390      -126.5163
  39   2.0000      -4.648310      -126.4870
  40   2.0000      -4.648109      -126.4815
  41   2.0000      -4.646788      -126.4455
  42   2.0000      -4.646712      -126.4435
  43   2.0000      -0.992855       -27.0170
  44   2.0000      -0.991660       -26.9844
  45   2.0000      -0.948348       -25.8059
  46   2.0000      -0.946675       -25.7603
  47   2.0000      -0.761411       -20.7190
  48   2.0000      -0.725715       -19.7477
  49   2.0000      -0.717331       -19.5196
  50   2.0000      -0.697844       -18.9893
  51   2.0000      -0.695826       -18.9344
  52   2.0000      -0.682565       -18.5735
  53   2.0000      -0.652791       -17.7634
  54   2.0000      -0.637450       -17.3459
  55   2.0000      -0.601609       -16.3706
  56   2.0000      -0.594767       -16.1844
  57   2.0000      -0.586698       -15.9649
  58   2.0000      -0.582810       -15.8591
  59   2.0000      -0.558866       -15.2075
  60   2.0000      -0.507109       -13.7991
  61   2.0000      -0.499958       -13.6046
  62   2.0000      -0.480481       -13.0745
  63   2.0000      -0.474053       -12.8996
  64   2.0000      -0.461145       -12.5484
  65   2.0000      -0.452600       -12.3159
  66   2.0000      -0.446736       -12.1563
  67   2.0000      -0.439665       -11.9639
  68   2.0000      -0.436005       -11.8643
  69   2.0000      -0.431516       -11.7421
  70   2.0000      -0.414644       -11.2830
  71   2.0000      -0.413879       -11.2622
  72   2.0000      -0.397018       -10.8034
  73   2.0000      -0.394103       -10.7241
  74   2.0000      -0.385821       -10.4987
  75   2.0000      -0.372885       -10.1467
  76   2.0000      -0.364878        -9.9288
  77   2.0000      -0.361550        -9.8383
  78   2.0000      -0.358699        -9.7607
  79   2.0000      -0.357001        -9.7145
  80   2.0000      -0.355265        -9.6673
  81   2.0000      -0.349740        -9.5169
  82   2.0000      -0.345858        -9.4113
  83   2.0000      -0.343196        -9.3388
  84   2.0000      -0.342046        -9.3076
  85   2.0000      -0.320864        -8.7312
  86   2.0000      -0.317151        -8.6301
  87   2.0000      -0.304306        -8.2806
  88   2.0000      -0.302222        -8.2239
  89   2.0000      -0.297756        -8.1024
  90   2.0000      -0.294577        -8.0158
  91   2.0000      -0.281450        -7.6586
  92   2.0000      -0.280278        -7.6268
  93   2.0000      -0.265058        -7.2126
  94   2.0000      -0.259521        -7.0619
  95   2.0000      -0.236664        -6.4399
  96   2.0000      -0.221266        -6.0209
  97   2.0000      -0.208873        -5.6837
  98   2.0000      -0.203704        -5.5431
  99   2.0000      -0.200162        -5.4467
 100   2.0000      -0.198568        -5.4033
 101   0.0000      -0.045840        -1.2474
 102   0.0000      -0.037519        -1.0210
 103   0.0000      -0.015165        -0.4127
 104   0.0000       0.002878         0.0783
 105   0.0000       0.005769         0.1570

MULLIKEN ATOMIC CHARGES
-----------------------
   0 C :   -0.319425
   1 C :   -0.010519
   2 O :   -0.384475
   3 P :    0.604542
   4 S :   -0.299579
   5 O :   -0.355359
   6 C :    0.004535
   7 C :   -0.329358
   8 S :   -0.132577
   9 C :   -0.336260
  10 S :   -0.127896
  11 P :    0.606711
  12 S :   -0.301880
  13 O :   -0.383794
  14 C :   -0.007671
  15 C :   -0.321482
  16 O :   -0.359844
  17 C :    0.006589
  18 C :   -0.339383
  19 H :    0.110755
  20 H :    0.132090
  21 H :    0.129503
  22 H :    0.106869
  23 H :    0.112311
  24 H :    0.110556
  25 H :    0.113465
  26 H :    0.117591
  27 H :    0.133818
  28 H :    0.122869
  29 H :    0.194449
  30 H :    0.199924
  31 H :    0.107556
  32 H :    0.110515
  33 H :    0.112189
  34 H :    0.111413
  35 H :    0.148326
  36 H :    0.113060
  37 H :    0.114750
  38 H :    0.134340
  39 H :    0.130887
  40 H :    0.119889
Sum of atomic charges:    0.0000000

LOEWDIN ATOMIC CHARGES
----------------------
   0 C :   -0.370648
   1 C :   -0.115946
   2 O :   -0.245833
   3 P :    0.569490
   4 S :   -0.293088
   5 O :   -0.235503
   6 C :   -0.109731
   7 C :   -0.369508
   8 S :    0.072063
   9 C :   -0.496717
  10 S :    0.081794
  11 P :    0.568210
  12 S :   -0.298791
  13 O :   -0.250885
  14 C :   -0.115596
  15 C :   -0.368352
  16 O :   -0.234145
  17 C :   -0.107052
  18 C :   -0.372827
  19 H :    0.130286
  20 H :    0.113282
  21 H :    0.131677
  22 H :    0.120795
  23 H :    0.107262
  24 H :    0.114511
  25 H :    0.124302
  26 H :    0.133409
  27 H :    0.131561
  28 H :    0.114249
  29 H :    0.125588
  30 H :    0.127320
  31 H :    0.103622
  32 H :    0.121175
  33 H :    0.128681
  34 H :    0.124014
  35 H :    0.116835
  36 H :    0.116138
  37 H :    0.124836
  38 H :    0.130865
  39 H :    0.117634
  40 H :    0.135023

  Mayer bond orders larger than 0.100000
B(  0-C ,  1-C ) :   1.1707 B(  0-C , 19-H ) :   0.9342 B(  0-C , 20-H ) :   0.9243
B(  0-C , 21-H ) :   0.9402 B(  1-C ,  2-O ) :   0.9095 B(  1-C , 22-H ) :   0.9309
B(  1-C , 23-H ) :   0.9196 B(  2-O ,  3-P ) :   1.0744 B(  3-P ,  4-S ) :   1.6439
B(  3-P ,  5-O ) :   1.1410 B(  3-P ,  8-S ) :   0.9339 B(  4-S ,  8-S ) :   0.1188
B(  4-S , 29-H ) :   0.1283 B(  5-O ,  6-C ) :   0.9035 B(  6-C ,  7-C ) :   1.1680
B(  6-C , 24-H ) :   0.9276 B(  6-C , 25-H ) :   0.9334 B(  7-C , 26-H ) :   0.9356
B(  7-C , 27-H ) :   0.9422 B(  7-C , 28-H ) :   0.9353 B(  8-S ,  9-C ) :   1.0047
B(  9-C , 10-S ) :   1.0125 B(  9-C , 29-H ) :   0.8403 B(  9-C , 30-H ) :   0.8525
B( 10-S , 11-P ) :   0.9324 B( 10-S , 12-S ) :   0.1169 B( 11-P , 12-S ) :   1.6549
B( 11-P , 13-O ) :   1.0675 B( 11-P , 16-O ) :   1.1502 B( 12-S , 30-H ) :   0.1083
B( 13-O , 14-C ) :   0.9045 B( 14-C , 15-C ) :   1.1649 B( 14-C , 31-H ) :   0.9023
B( 14-C , 32-H ) :   0.9348 B( 15-C , 33-H ) :   0.9387 B( 15-C , 34-H ) :   0.9418
B( 15-C , 35-H ) :   0.9179 B( 16-O , 17-C ) :   0.8965 B( 17-C , 18-C ) :   1.1691
B( 17-C , 36-H ) :   0.9276 B( 17-C , 37-H ) :   0.9334 B( 18-C , 38-H ) :   0.9408
B( 18-C , 39-H ) :   0.9316 B( 18-C , 40-H ) :   0.9348

Dispersion correction           -0.064716453
FINAL SINGLE POINT ENERGY     -2929.512123739920

DIPOLE MOMENT
-------------

Method             : SCF
Type of density    : Electron Density
Multiplicity       :   1
Irrep              :   0
Energy             : -2929.6338185506547234 Eh
Relativity type    :
Basis              : AO
                                X                 Y                 Z
Electronic contribution:      0.074902577      12.795930400     -17.581658627
Nuclear contribution   :     -0.231098432     -14.056234237      19.798351888
                        -----------------------------------------
Total Dipole Moment    :     -0.156195855      -1.260303836       2.216693261
                        -----------------------------------------
Magnitude (a.u.)       :      2.554699967
Magnitude (Debye)      :      6.493531266

Rotational constants in cm-1:             0.012760             0.004454             0.004260
Rotational constants in MHz :           382.545982           133.537501           127.717176

                             ****ORCA TERMINATED NORMALLY****
TOTAL RUN TIME: 0 days 0 hours 0 minutes 21 seconds 283 msec
