                         Program Version 6.0.0  -   RELEASE  -
|  1> ! pbe def2-sv(p) def2/J RI DEFGRID1 loosescf d4 GCP(DFT/SV(P)) printgap
|  2> %output
|  3>     printlevel normal
|  4> end
|  5> * xyz 0 1
|  6> C 4.3624642016 -0.4960344105 -2.6965775818
|  7> C 4.1008656106 -1.3121174984 -1.4449298728
|  8> O 3.7056835393 -0.4806476426 -0.3390266001
|  9> P 2.1972477773 -0.0563344566 -0.0429567215
| 10> S 1.3404984707 1.0582305561 -1.4168575496
| 11> O 2.3920698633 0.5699291312 1.3904808465
| 12> C 2.4848903868 1.9894724372 1.6111971389
| 13> C 3.7917479538 2.5434985135 1.0854313337
| 14> S 1.262993759 -1.9066351729 0.3720420126
| 15> C -0.0616458585 -1.8968459601 -0.8881863788
| 16> S -1.7384912542 -1.929048964 -0.2086628947
| 17> P -1.9703880862 0.1168139517 0.3408854361
| 18> S -0.7676082974 0.8306437756 1.7103901771
| 19> O -3.5059944513 0.1494726542 0.7416294232
| 20> C -3.9721414777 -0.4487917717 1.968541902
| 21> C -5.3625296099 0.0847158265 2.247113935
| 22> O -1.9141071301 0.9480253752 -0.9890928514
| 23> C -2.7467114547 0.6935907931 -2.1502526065
| 24> C -3.9868715952 1.5619140688 -2.1214440082
| 25> H 3.4545228399 0.0088268173 -3.0184899877
| 26> H 5.1257478979 0.2522099464 -2.5016687292
| 27> H 4.7018724196 -1.1565096886 -3.4878585481
| 28> H 5.0113314442 -1.8032644307 -1.0958863782
| 29> H 3.3266157989 -2.0662446497 -1.6190118435
| 30> H 1.627217563 2.4756131586 1.1340139617
| 31> H 2.3955938664 2.0914471394 2.6934910605
| 32> H 3.8306936007 2.4245328509 0.002877752
| 33> H 3.86090866 3.5986510261 1.3301833128
| 34> H 4.6280844212 2.0089368555 1.5278034745
| 35> H 0.0307923447 -2.8112491456 -1.4677950831
| 36> H 0.0642316295 -1.0074740345 -1.5134133864
| 37> H -3.9778950645 -1.5339623004 1.8362845127
| 38> H -3.2725867052 -0.1887075429 2.769888542
| 39> H -6.0302390337 -0.1722005882 1.430007896
| 40> H -5.7339333926 -0.3558944295 3.1663799453
| 41> H -5.3329071447 1.165460493 2.354202907
| 42> H -2.1028486648 0.9415858124 -2.9965492414
| 43> H -3.0072335158 -0.3680987653 -2.1741623275
| 44> H -4.6053336464 1.3066054868 -1.265316387
| 45> H -3.7061697232 2.6092964089 -2.0516676148
| 46> H -4.5514461183 1.4016989914 -3.0346412806
| 47> *
| 48>
| 49>                          ****END OF INPUT****

CARTESIAN COORDINATES (ANGSTROEM)
---------------------------------
  C      4.362464   -0.496034   -2.696578
  C      4.100866   -1.312117   -1.444930
  O      3.705684   -0.480648   -0.339027
  P      2.197248   -0.056334   -0.042957
  S      1.340498    1.058231   -1.416858
  O      2.392070    0.569929    1.390481
  C      2.484890    1.989472    1.611197
  C      3.791748    2.543499    1.085431
  S      1.262994   -1.906635    0.372042
  C     -0.061646   -1.896846   -0.888186
  S     -1.738491   -1.929049   -0.208663
  P     -1.970388    0.116814    0.340885
  S     -0.767608    0.830644    1.710390
  O     -3.505994    0.149473    0.741629
  C     -3.972141   -0.448792    1.968542
  C     -5.362530    0.084716    2.247114
  O     -1.914107    0.948025   -0.989093
  C     -2.746711    0.693591   -2.150253
  C     -3.986872    1.561914   -2.121444
  H      3.454523    0.008827   -3.018490
  H      5.125748    0.252210   -2.501669
  H      4.701872   -1.156510   -3.487859
  H      5.011331   -1.803264   -1.095886
  H      3.326616   -2.066245   -1.619012
  H      1.627218    2.475613    1.134014
  H      2.395594    2.091447    2.693491
  H      3.830694    2.424533    0.002878
  H      3.860909    3.598651    1.330183
  H      4.628084    2.008937    1.527803
  H      0.030792   -2.811249   -1.467795
  H      0.064232   -1.007474   -1.513413
  H     -3.977895   -1.533962    1.836285
  H     -3.272587   -0.188708    2.769889
  H     -6.030239   -0.172201    1.430008
  H     -5.733933   -0.355894    3.166380
  H     -5.332907    1.165460    2.354203
  H     -2.102849    0.941586   -2.996549
  H     -3.007234   -0.368099   -2.174162
  H     -4.605334    1.306605   -1.265316
  H     -3.706170    2.609296   -2.051668
  H     -4.551446    1.401699   -3.034641

 Total Charge           Charge          ....    0
 Multiplicity           Mult            ....    1
 Number of Electrons    NEL             ....  202
 Basis Dimension        Dim             ....  334

ORBITAL ENERGIES
----------------

  NO   OCC          E(Eh)            E(eV)
   0   2.0000     -88.040903     -2395.7148
   1   2.0000     -88.037948     -2395.6344
   2   2.0000     -87.984308     -2394.1747
   3   2.0000     -87.975315     -2393.9300
   4   2.0000     -76.421293     -2079.5291
   5   2.0000     -76.420993     -2079.5209
   6   2.0000     -18.792066      -511.3581
   7   2.0000     -18.790286      -511.3097
   8   2.0000     -18.781709      -511.0763
   9   2.0000     -18.780776      -511.0509
  10   2.0000      -9.955731      -270.9092
  11   2.0000      -9.953935      -270.8604
  12   2.0000      -9.953610      -270.8515
  13   2.0000      -9.949446      -270.7382
  14   2.0000      -9.940960      -270.5073
  15   2.0000      -9.889620      -269.1103
  16   2.0000      -9.884834      -268.9800
  17   2.0000      -9.877468      -268.7796
  18   2.0000      -9.874953      -268.7111
  19   2.0000      -7.686116      -209.1498
  20   2.0000      -7.683202      -209.0706
  21   2.0000      -7.629113      -207.5987
  22   2.0000      -7.620344      -207.3601
  23   2.0000      -6.418985      -174.6695
  24   2.0000      -6.418318      -174.6513
  25   2.0000      -5.713741      -155.4788
  26   2.0000      -5.711029      -155.4050
  27   2.0000      -5.710504      -155.3907
  28   2.0000      -5.707811      -155.3174
  29   2.0000      -5.703444      -155.1986
  30   2.0000      -5.700084      -155.1072
  31   2.0000      -5.657831      -153.9574
  32   2.0000      -5.650280      -153.7519
  33   2.0000      -5.649374      -153.7273
  34   2.0000      -5.648892      -153.7142
  35   2.0000      -5.640894      -153.4965
  36   2.0000      -5.640442      -153.4842
  37   2.0000      -4.641995      -126.3151
  38   2.0000      -4.640925      -126.2860
  39   2.0000      -4.640519      -126.2749
  40   2.0000      -4.640053      -126.2623
  41   2.0000      -4.639181      -126.2385
  42   2.0000      -4.638826      -126.2289
  43   2.0000      -0.987487       -26.8709
  44   2.0000      -0.978922       -26.6378
  45   2.0000      -0.945423       -25.7263
  46   2.0000      -0.935871       -25.4663
  47   2.0000      -0.758164       -20.6307
  48   2.0000      -0.718708       -19.5570
  49   2.0000      -0.706995       -19.2383
  50   2.0000      -0.692394       -18.8410
  51   2.0000      -0.679527       -18.4909
  52   2.0000      -0.670869       -18.2553
  53   2.0000      -0.646652       -17.5963
  54   2.0000      -0.632989       -17.2245
  55   2.0000      -0.593499       -16.1499
  56   2.0000      -0.585562       -15.9340
  57   2.0000      -0.570747       -15.5308
  58   2.0000      -0.565531       -15.3889
  59   2.0000      -0.558651       -15.2017
  60   2.0000      -0.507964       -13.8224
  61   2.0000      -0.492076       -13.3901
  62   2.0000      -0.481895       -13.1130
  63   2.0000      -0.466221       -12.6865
  64   2.0000      -0.448760       -12.2114
  65   2.0000      -0.443767       -12.0755
  66   2.0000      -0.439273       -11.9532
  67   2.0000      -0.431523       -11.7423
  68   2.0000      -0.430910       -11.7257
  69   2.0000      -0.411939       -11.2094
  70   2.0000      -0.400403       -10.8955
  71   2.0000      -0.397082       -10.8052
  72   2.0000      -0.389458       -10.5977
  73   2.0000      -0.382366       -10.4047
  74   2.0000      -0.382130       -10.3983
  75   2.0000      -0.367007        -9.9868
  76   2.0000      -0.362338        -9.8597
  77   2.0000      -0.355788        -9.6815
  78   2.0000      -0.353393        -9.6163
  79   2.0000      -0.348677        -9.4880
  80   2.0000      -0.344947        -9.3865
  81   2.0000      -0.341640        -9.2965
  82   2.0000      -0.337829        -9.1928
  83   2.0000      -0.331271        -9.0143
  84   2.0000      -0.329774        -8.9736
  85   2.0000      -0.316462        -8.6114
  86   2.0000      -0.307387        -8.3644
  87   2.0000      -0.298952        -8.1349
  88   2.0000      -0.291340        -7.9278
  89   2.0000      -0.289908        -7.8888
  90   2.0000      -0.278905        -7.5894
  91   2.0000      -0.272683        -7.4201
  92   2.0000      -0.267354        -7.2751
  93   2.0000      -0.259794        -7.0694
  94   2.0000      -0.254123        -6.9150
  95   2.0000      -0.237113        -6.4522
  96   2.0000      -0.219754        -5.9798
  97   2.0000      -0.206009        -5.6058
  98   2.0000      -0.201365        -5.4794
  99   2.0000      -0.186673        -5.0796
 100   2.0000      -0.183866        -5.0033
 101   0.0000      -0.035724        -0.9721
 102   0.0000      -0.027707        -0.7539
 103   0.0000      -0.009471        -0.2577
 104   0.0000       0.005477         0.1490
 105   0.0000       0.025728         0.7001

MULLIKEN ATOMIC CHARGES
-----------------------
   0 C :   -0.294993
   1 C :   -0.005014
   2 O :   -0.368537
   3 P :    0.618496
   4 S :   -0.319236
   5 O :   -0.359789
   6 C :   -0.009548
   7 C :   -0.298948
   8 S :   -0.069451
   9 C :   -0.355823
  10 S :   -0.116110
  11 P :    0.602479
  12 S :   -0.304425
  13 O :   -0.384767
  14 C :   -0.014725
  15 C :   -0.283477
  16 O :   -0.343484
  17 C :   -0.014390
  18 C :   -0.290993
  19 H :    0.124422
  20 H :    0.113498
  21 H :    0.103383
  22 H :    0.105499
  23 H :    0.088319
  24 H :    0.125460
  25 H :    0.105151
  26 H :    0.122478
  27 H :    0.108890
  28 H :    0.113640
  29 H :    0.179915
  30 H :    0.192296
  31 H :    0.105618
  32 H :    0.108860
  33 H :    0.115819
  34 H :    0.113614
  35 H :    0.123383
  36 H :    0.111151
  37 H :    0.098312
  38 H :    0.122988
  39 H :    0.121769
  40 H :    0.108267
Sum of atomic charges:   -0.0000000

LOEWDIN ATOMIC CHARGES
----------------------
   0 C :   -0.366849
   1 C :   -0.118284
   2 O :   -0.248051
   3 P :    0.573920
   4 S :   -0.299254
   5 O :   -0.229707
   6 C :   -0.118076
   7 C :   -0.364570
   8 S :    0.089804
   9 C :   -0.484277
  10 S :    0.059770
  11 P :    0.562151
  12 S :   -0.301805
  13 O :   -0.250651
  14 C :   -0.120533
  15 C :   -0.350805
  16 O :   -0.223860
  17 C :   -0.115300
  18 C :   -0.359838
  19 H :    0.120716
  20 H :    0.125579
  21 H :    0.126455
  22 H :    0.118349
  23 H :    0.098710
  24 H :    0.111668
  25 H :    0.119480
  26 H :    0.121690
  27 H :    0.129185
  28 H :    0.125110
  29 H :    0.135201
  30 H :    0.118915
  31 H :    0.109345
  32 H :    0.110938
  33 H :    0.125374
  34 H :    0.131750
  35 H :    0.130110
  36 H :    0.121109
  37 H :    0.102206
  38 H :    0.125635
  39 H :    0.129645
  40 H :    0.129043

  Mayer bond orders larger than 0.100000
B(  0-C ,  1-C ) :   1.1616 B(  0-C , 19-H ) :   0.9297 B(  0-C , 20-H ) :   0.9471
B(  0-C , 21-H ) :   0.9394 B(  1-C ,  2-O ) :   0.9210 B(  1-C , 22-H ) :   0.9372
B(  1-C , 23-H ) :   0.9128 B(  2-O ,  3-P ) :   1.0942 B(  3-P ,  4-S ) :   1.5841
B(  3-P ,  5-O ) :   1.1544 B(  3-P ,  8-S ) :   0.9547 B(  4-S ,  8-S ) :   0.1193
B(  4-S , 30-H ) :   0.1194 B(  5-O ,  6-C ) :   0.8957 B(  6-C ,  7-C ) :   1.1617
B(  6-C , 24-H ) :   0.9122 B(  6-C , 25-H ) :   0.9352 B(  7-C , 26-H ) :   0.9355
B(  7-C , 27-H ) :   0.9395 B(  7-C , 28-H ) :   0.9457 B(  8-S ,  9-C ) :   1.0039
B(  9-C , 10-S ) :   0.9964 B(  9-C , 29-H ) :   0.9117 B(  9-C , 30-H ) :   0.8483
B( 10-S , 11-P ) :   0.9495 B( 10-S , 12-S ) :   0.1114 B( 11-P , 12-S ) :   1.6760
B( 11-P , 13-O ) :   1.0723 B( 11-P , 16-O ) :   1.1457 B( 13-O , 14-C ) :   0.9057
B( 14-C , 15-C ) :   1.1601 B( 14-C , 31-H ) :   0.9289 B( 14-C , 32-H ) :   0.9080
B( 15-C , 33-H ) :   0.9508 B( 15-C , 34-H ) :   0.9417 B( 15-C , 35-H ) :   0.9508
B( 16-O , 17-C ) :   0.8929 B( 17-C , 18-C ) :   1.1676 B( 17-C , 36-H ) :   0.9329
B( 17-C , 37-H ) :   0.9085 B( 18-C , 38-H ) :   0.9408 B( 18-C , 39-H ) :   0.9472
B( 18-C , 40-H ) :   0.9396

Dispersion correction           -0.065481416
FINAL SINGLE POINT ENERGY     -2929.516986974899

DIPOLE MOMENT
-------------

Method             : SCF
Type of density    : Electron Density
Multiplicity       :   1
Irrep              :   0
Energy             : -2929.6355983848375217 Eh
Relativity type    :
Basis              : AO
                                X                 Y                 Z
Electronic contribution:      3.595155596      -8.809994695       7.051149634
Nuclear contribution   :     -4.194891550       8.295749203      -7.755376205
                        -----------------------------------------
Total Dipole Moment    :     -0.599735954      -0.514245491      -0.704226571
                        -----------------------------------------
Magnitude (a.u.)       :      1.058332039
Magnitude (Debye)      :      2.690066259

Rotational constants in cm-1:             0.013080             0.004795             0.004593
Rotational constants in MHz :           392.135194           143.759698           137.701397

                             ****ORCA TERMINATED NORMALLY****
TOTAL RUN TIME: 0 days 0 hours 0 minutes 20 seconds 763 msec
