                         Program Version 6.0.0  -   RELEASE  -
|  1> ! pbe def2-sv(p) def2/J RI DEFGRID1 loosescf d4 GCP(DFT/SV(P)) printgap
|  2> %output
|  3>     printlevel normal
|  4> end
|  5> * xyz 0 1
|  6> C 5.0062972064 1.4795595421 -0.2971390285
|  7> C 4.8275101878 0.013892185 -0.634333916
|  8> O 3.7223860642 -0.5912786554 0.0632459391
|  9> P 2.2363507641 -0.0320867122 0.0864187975
| 10> S 1.8721191071 1.4135283982 1.3653883306
| 11> O 1.3954297532 -1.353366297 0.3489153142
| 12> C 1.0552029422 -1.7964436479 1.6723401264
| 13> C 2.2489927933 -2.4141292187 2.367901593
| 14> S 1.8221751412 0.3377743318 -1.9468837936
| 15> C 0.0919559117 0.8260624122 -1.7776829449
| 16> S -0.9920013089 -0.6502847274 -1.6685128776
| 17> P -2.2742518364 -0.1448210903 -0.0821936688
| 18> S -3.4450705541 -1.6185703808 0.4621699473
| 19> O -3.0392298099 1.1977833396 -0.4908420526
| 20> C -4.3153941867 1.1639700101 -1.1504001298
| 21> C -4.1884580102 0.7352907421 -2.5981393974
| 22> O -1.2225449591 0.4203093334 0.9649855593
| 23> C -1.5993641728 1.2743315944 2.0711198803
| 24> C -2.3043735555 0.5064827328 3.1689015867
| 25> H 5.1029261054 1.6139965084 0.7778073811
| 26> H 5.8989392265 1.8546156321 -0.7872774434
| 27> H 4.1456730385 2.0515787629 -0.6417783781
| 28> H 5.6866081254 -0.5779948527 -0.3136970973
| 29> H 4.6643501097 -0.1193101721 -1.7073039667
| 30> H 0.6749802873 -0.9397158079 2.2391302368
| 31> H 0.249079267 -2.5168351749 1.5168856414
| 32> H 1.9440285992 -2.7987067528 3.3361035152
| 33> H 2.6549588876 -3.2229419369 1.7664637145
| 34> H 3.0206110008 -1.6580183013 2.5081730487
| 35> H -0.1628642784 1.3740319027 -2.6803607885
| 36> H -0.0299658197 1.4344875033 -0.8824448032
| 37> H -4.9693072708 0.4773528234 -0.6031394598
| 38> H -4.6882871694 2.185277074 -1.0615898058
| 39> H -5.1618927307 0.7906235892 -3.0745688648
| 40> H -3.492236599 1.3807418481 -3.1269968194
| 41> H -3.8278669236 -0.2916201599 -2.6504025089
| 42> H -0.6458718526 1.6843690498 2.413152456
| 43> H -2.2276753645 2.0806030916 1.6878846601
| 44> H -3.2473321059 0.1024880294 2.8049210042
| 45> H -1.6855507549 -0.3185505475 3.5131777153
| 46> H -2.500614583 1.1769907258 3.999519563
| 47> *
| 48>
| 49>                          ****END OF INPUT****

CARTESIAN COORDINATES (ANGSTROEM)
---------------------------------
  C      5.006297    1.479560   -0.297139
  C      4.827510    0.013892   -0.634334
  O      3.722386   -0.591279    0.063246
  P      2.236351   -0.032087    0.086419
  S      1.872119    1.413528    1.365388
  O      1.395430   -1.353366    0.348915
  C      1.055203   -1.796444    1.672340
  C      2.248993   -2.414129    2.367902
  S      1.822175    0.337774   -1.946884
  C      0.091956    0.826062   -1.777683
  S     -0.992001   -0.650285   -1.668513
  P     -2.274252   -0.144821   -0.082194
  S     -3.445071   -1.618570    0.462170
  O     -3.039230    1.197783   -0.490842
  C     -4.315394    1.163970   -1.150400
  C     -4.188458    0.735291   -2.598139
  O     -1.222545    0.420309    0.964986
  C     -1.599364    1.274332    2.071120
  C     -2.304374    0.506483    3.168902
  H      5.102926    1.613997    0.777807
  H      5.898939    1.854616   -0.787277
  H      4.145673    2.051579   -0.641778
  H      5.686608   -0.577995   -0.313697
  H      4.664350   -0.119310   -1.707304
  H      0.674980   -0.939716    2.239130
  H      0.249079   -2.516835    1.516886
  H      1.944029   -2.798707    3.336104
  H      2.654959   -3.222942    1.766464
  H      3.020611   -1.658018    2.508173
  H     -0.162864    1.374032   -2.680361
  H     -0.029966    1.434488   -0.882445
  H     -4.969307    0.477353   -0.603139
  H     -4.688287    2.185277   -1.061590
  H     -5.161893    0.790624   -3.074569
  H     -3.492237    1.380742   -3.126997
  H     -3.827867   -0.291620   -2.650403
  H     -0.645872    1.684369    2.413152
  H     -2.227675    2.080603    1.687885
  H     -3.247332    0.102488    2.804921
  H     -1.685551   -0.318551    3.513178
  H     -2.500615    1.176991    3.999520

 Total Charge           Charge          ....    0
 Multiplicity           Mult            ....    1
 Number of Electrons    NEL             ....  202
 Basis Dimension        Dim             ....  334

ORBITAL ENERGIES
----------------

  NO   OCC          E(Eh)            E(eV)
   0   2.0000     -88.051161     -2395.9939
   1   2.0000     -88.040385     -2395.7007
   2   2.0000     -87.986632     -2394.2380
   3   2.0000     -87.985984     -2394.2203
   4   2.0000     -76.428926     -2079.7368
   5   2.0000     -76.425318     -2079.6386
   6   2.0000     -18.796741      -511.4853
   7   2.0000     -18.793424      -511.3951
   8   2.0000     -18.789835      -511.2974
   9   2.0000     -18.784990      -511.1656
  10   2.0000      -9.962735      -271.0998
  11   2.0000      -9.961713      -271.0720
  12   2.0000      -9.951979      -270.8071
  13   2.0000      -9.946270      -270.6518
  14   2.0000      -9.941836      -270.5311
  15   2.0000      -9.887106      -269.0418
  16   2.0000      -9.884616      -268.9741
  17   2.0000      -9.878549      -268.8090
  18   2.0000      -9.878346      -268.8035
  19   2.0000      -7.696707      -209.4381
  20   2.0000      -7.685676      -209.1379
  21   2.0000      -7.631580      -207.6658
  22   2.0000      -7.631117      -207.6532
  23   2.0000      -6.426416      -174.8717
  24   2.0000      -6.422871      -174.7752
  25   2.0000      -5.724606      -155.7745
  26   2.0000      -5.721128      -155.6798
  27   2.0000      -5.714116      -155.4890
  28   2.0000      -5.713654      -155.4764
  29   2.0000      -5.709892      -155.3741
  30   2.0000      -5.702342      -155.1686
  31   2.0000      -5.660350      -154.0259
  32   2.0000      -5.660064      -154.0182
  33   2.0000      -5.652433      -153.8105
  34   2.0000      -5.651738      -153.7916
  35   2.0000      -5.651640      -153.7889
  36   2.0000      -5.651256      -153.7785
  37   2.0000      -4.648989      -126.5054
  38   2.0000      -4.648384      -126.4890
  39   2.0000      -4.646703      -126.4432
  40   2.0000      -4.645613      -126.4136
  41   2.0000      -4.644739      -126.3898
  42   2.0000      -4.643095      -126.3450
  43   2.0000      -0.987254       -26.8646
  44   2.0000      -0.986240       -26.8369
  45   2.0000      -0.945227       -25.7209
  46   2.0000      -0.942347       -25.6426
  47   2.0000      -0.766341       -20.8532
  48   2.0000      -0.722124       -19.6500
  49   2.0000      -0.708350       -19.2752
  50   2.0000      -0.688607       -18.7379
  51   2.0000      -0.685450       -18.6520
  52   2.0000      -0.673835       -18.3360
  53   2.0000      -0.655577       -17.8392
  54   2.0000      -0.639396       -17.3988
  55   2.0000      -0.598038       -16.2734
  56   2.0000      -0.590116       -16.0579
  57   2.0000      -0.575899       -15.6710
  58   2.0000      -0.573544       -15.6069
  59   2.0000      -0.563657       -15.3379
  60   2.0000      -0.498688       -13.5700
  61   2.0000      -0.494571       -13.4580
  62   2.0000      -0.470766       -12.8102
  63   2.0000      -0.469016       -12.7626
  64   2.0000      -0.459437       -12.5019
  65   2.0000      -0.453659       -12.3447
  66   2.0000      -0.437726       -11.9111
  67   2.0000      -0.431798       -11.7498
  68   2.0000      -0.427279       -11.6269
  69   2.0000      -0.420339       -11.4380
  70   2.0000      -0.414924       -11.2907
  71   2.0000      -0.402307       -10.9473
  72   2.0000      -0.394576       -10.7370
  73   2.0000      -0.390989       -10.6394
  74   2.0000      -0.385975       -10.5029
  75   2.0000      -0.371942       -10.1211
  76   2.0000      -0.366795        -9.9810
  77   2.0000      -0.353042        -9.6068
  78   2.0000      -0.350522        -9.5382
  79   2.0000      -0.347057        -9.4439
  80   2.0000      -0.345911        -9.4127
  81   2.0000      -0.343667        -9.3516
  82   2.0000      -0.341579        -9.2948
  83   2.0000      -0.335706        -9.1350
  84   2.0000      -0.329637        -8.9699
  85   2.0000      -0.320256        -8.7146
  86   2.0000      -0.311845        -8.4857
  87   2.0000      -0.300527        -8.1778
  88   2.0000      -0.295454        -8.0397
  89   2.0000      -0.290515        -7.9053
  90   2.0000      -0.284162        -7.7324
  91   2.0000      -0.274414        -7.4672
  92   2.0000      -0.269084        -7.3221
  93   2.0000      -0.263093        -7.1591
  94   2.0000      -0.261858        -7.1255
  95   2.0000      -0.242090        -6.5876
  96   2.0000      -0.220480        -5.9996
  97   2.0000      -0.206013        -5.6059
  98   2.0000      -0.203722        -5.5436
  99   2.0000      -0.201051        -5.4709
 100   2.0000      -0.197594        -5.3768
 101   0.0000      -0.044193        -1.2026
 102   0.0000      -0.029523        -0.8034
 103   0.0000      -0.020696        -0.5632
 104   0.0000       0.004050         0.1102
 105   0.0000       0.016292         0.4433

MULLIKEN ATOMIC CHARGES
-----------------------
   0 C :   -0.310434
   1 C :   -0.018035
   2 O :   -0.372988
   3 P :    0.627142
   4 S :   -0.335801
   5 O :   -0.354678
   6 C :   -0.032146
   7 C :   -0.295813
   8 S :   -0.095709
   9 C :   -0.352232
  10 S :   -0.060010
  11 P :    0.620251
  12 S :   -0.321914
  13 O :   -0.387836
  14 C :   -0.008076
  15 C :   -0.308095
  16 O :   -0.373850
  17 C :   -0.014782
  18 C :   -0.308721
  19 H :    0.128191
  20 H :    0.112964
  21 H :    0.125934
  22 H :    0.113294
  23 H :    0.117870
  24 H :    0.125367
  25 H :    0.111959
  26 H :    0.109481
  27 H :    0.115210
  28 H :    0.117894
  29 H :    0.186256
  30 H :    0.198278
  31 H :    0.111656
  32 H :    0.102534
  33 H :    0.112808
  34 H :    0.109670
  35 H :    0.127676
  36 H :    0.119436
  37 H :    0.105333
  38 H :    0.125752
  39 H :    0.118347
  40 H :    0.107815
Sum of atomic charges:    0.0000000

LOEWDIN ATOMIC CHARGES
----------------------
   0 C :   -0.370333
   1 C :   -0.113918
   2 O :   -0.242828
   3 P :    0.579666
   4 S :   -0.313123
   5 O :   -0.232489
   6 C :   -0.124098
   7 C :   -0.362253
   8 S :    0.087094
   9 C :   -0.470774
  10 S :    0.095166
  11 P :    0.563870
  12 S :   -0.317883
  13 O :   -0.252440
  14 C :   -0.122936
  15 C :   -0.366362
  16 O :   -0.236026
  17 C :   -0.120840
  18 C :   -0.365484
  19 H :    0.130677
  20 H :    0.130789
  21 H :    0.121091
  22 H :    0.123620
  23 H :    0.110309
  24 H :    0.107061
  25 H :    0.120549
  26 H :    0.129249
  27 H :    0.125869
  28 H :    0.121809
  29 H :    0.135928
  30 H :    0.131024
  31 H :    0.109287
  32 H :    0.116708
  33 H :    0.130901
  34 H :    0.121971
  35 H :    0.122142
  36 H :    0.111570
  37 H :    0.110293
  38 H :    0.120369
  39 H :    0.125837
  40 H :    0.128939

  Mayer bond orders larger than 0.100000
B(  0-C ,  1-C ) :   1.1637 B(  0-C , 19-H ) :   0.9421 B(  0-C , 20-H ) :   0.9345
B(  0-C , 21-H ) :   0.9327 B(  1-C ,  2-O ) :   0.9139 B(  1-C , 22-H ) :   0.9340
B(  1-C , 23-H ) :   0.9272 B(  2-O ,  3-P ) :   1.1059 B(  3-P ,  4-S ) :   1.6024
B(  3-P ,  5-O ) :   1.1404 B(  3-P ,  8-S ) :   0.9504 B(  4-S ,  8-S ) :   0.1083
B(  5-O ,  6-C ) :   0.9001 B(  6-C ,  7-C ) :   1.1574 B(  6-C , 24-H ) :   0.9042
B(  6-C , 25-H ) :   0.9304 B(  7-C , 26-H ) :   0.9404 B(  7-C , 27-H ) :   0.9463
B(  7-C , 28-H ) :   0.9387 B(  8-S ,  9-C ) :   1.0189 B(  9-C , 10-S ) :   0.9622
B(  9-C , 29-H ) :   0.9105 B(  9-C , 30-H ) :   0.8682 B( 10-S , 11-P ) :   1.0004
B( 11-P , 12-S ) :   1.6433 B( 11-P , 13-O ) :   1.0530 B( 11-P , 16-O ) :   1.1077
B( 13-O , 14-C ) :   0.9152 B( 14-C , 15-C ) :   1.1644 B( 14-C , 31-H ) :   0.9106
B( 14-C , 32-H ) :   0.9329 B( 15-C , 33-H ) :   0.9391 B( 15-C , 34-H ) :   0.9470
B( 15-C , 35-H ) :   0.9358 B( 16-O , 17-C ) :   0.8924 B( 17-C , 18-C ) :   1.1712
B( 17-C , 36-H ) :   0.9120 B( 17-C , 37-H ) :   0.9246 B( 18-C , 38-H ) :   0.9321
B( 18-C , 39-H ) :   0.9484 B( 18-C , 40-H ) :   0.9378

Dispersion correction           -0.066290945
FINAL SINGLE POINT ENERGY     -2929.517066941442

DIPOLE MOMENT
-------------

Method             : SCF
Type of density    : Electron Density
Multiplicity       :   1
Irrep              :   0
Energy             : -2929.6380514260699783 Eh
Relativity type    :
Basis              : AO
                                X                 Y                 Z
Electronic contribution:     -0.862144061      -4.688162725      -8.889983827
Nuclear contribution   :      1.384007736       5.575331736       8.536228249
                        -----------------------------------------
Total Dipole Moment    :      0.521863676       0.887169012      -0.353755578
                        -----------------------------------------
Magnitude (a.u.)       :      1.088371977
Magnitude (Debye)      :      2.766421714

Rotational constants in cm-1:             0.013020             0.005129             0.004568
Rotational constants in MHz :           390.315065           153.777287           136.945191

                             ****ORCA TERMINATED NORMALLY****
TOTAL RUN TIME: 0 days 0 hours 0 minutes 21 seconds 604 msec
