                         Program Version 6.0.0  -   RELEASE  -
|  1> ! wb97x-v def2-tzvp def2/J RIJCOSX DEFGRID2 scfconv7 GCP(DFT/TZ) printgap
|  2> %output
|  3>     printlevel normal
|  4> end
|  5> * xyz 0 1
|  6> C -0.6927003167714487 -2.068826318636524 -1.9225799718040037e-05
|  7> C 0.6927156853806078 -2.0688219317850542 -1.098375904866708e-05
|  8> C 1.386336781972613 -0.8657396191352914 1.2430911566250785e-05
|  9> C 0.7012068868138909 0.352350964613316 2.6262013014175007e-05
| 10> C -0.7012072421835136 0.3523465375435373 1.804649042026543e-05
| 11> C -1.3863291877174104 -0.8657484420955476 -5.661225426201975e-06
| 12> Cl -3.1279398643509526 -0.8986464539101687 -1.5533341479781045e-05
| 13> Cl -1.5711226556650613 1.8501869751073385 2.796519052579471e-05
| 14> Cl 1.5711125622017637 1.8501972303341934 4.9195719182575634e-05
| 15> Cl 3.12794761514695 -0.8986265015293967 2.6401311289440283e-05
| 16> H -1.234902719940889 -3.0066760893204245 -3.874055822362274e-05
| 17> H 1.2349240806984965 -3.0066682369573856 -2.5504952151901437e-05
| 18> *
| 19>
| 20>                          ****END OF INPUT****

CARTESIAN COORDINATES (ANGSTROEM)
---------------------------------
  C     -0.692700   -2.068826   -0.000019
  C      0.692716   -2.068822   -0.000011
  C      1.386337   -0.865740    0.000012
  C      0.701207    0.352351    0.000026
  C     -0.701207    0.352347    0.000018
  C     -1.386329   -0.865748   -0.000006
  Cl    -3.127940   -0.898646   -0.000016
  Cl    -1.571123    1.850187    0.000028
  Cl     1.571113    1.850197    0.000049
  Cl     3.127948   -0.898627    0.000026
  H     -1.234903   -3.006676   -0.000039
  H      1.234924   -3.006668   -0.000026

 Total Charge           Charge          ....    0
 Multiplicity           Mult            ....    1
 Number of Electrons    NEL             ....  106
 Basis Dimension        Dim             ....  346

ORBITAL ENERGIES
----------------

  NO   OCC          E(Eh)            E(eV)
   0   2.0000    -107.166197     -2916.1405
   1   2.0000    -107.166160     -2916.1395
   2   2.0000    -107.164312     -2916.0892
   3   2.0000    -107.164297     -2916.0888
   4   2.0000     -12.155180      -330.7593
   5   2.0000     -12.153246      -330.7066
   6   2.0000     -12.147859      -330.5601
   7   2.0000     -12.147830      -330.5593
   8   2.0000     -12.095055      -329.1232
   9   2.0000     -12.093002      -329.0673
  10   2.0000     -11.319205      -308.0112
  11   2.0000     -11.319164      -308.0101
  12   2.0000     -11.317383      -307.9616
  13   2.0000     -11.317310      -307.9597
  14   2.0000      -9.111219      -247.9289
  15   2.0000      -9.110708      -247.9150
  16   2.0000      -9.108933      -247.8667
  17   2.0000      -9.108822      -247.8636
  18   2.0000      -9.108452      -247.8536
  19   2.0000      -9.108027      -247.8420
  20   2.0000      -9.107910      -247.8388
  21   2.0000      -9.107500      -247.8277
  22   2.0000      -9.106348      -247.7963
  23   2.0000      -9.106041      -247.7880
  24   2.0000      -9.105984      -247.7864
  25   2.0000      -9.105973      -247.7861
  26   2.0000      -1.491822       -40.5945
  27   2.0000      -1.456129       -39.6233
  28   2.0000      -1.440333       -39.1935
  29   2.0000      -1.424838       -38.7718
  30   2.0000      -1.386289       -37.7229
  31   2.0000      -1.304177       -35.4885
  32   2.0000      -1.290771       -35.1237
  33   2.0000      -1.157255       -31.4905
  34   2.0000      -1.143739       -31.1227
  35   2.0000      -1.032461       -28.0947
  36   2.0000      -1.011840       -27.5336
  37   2.0000      -0.980324       -26.6760
  38   2.0000      -0.952833       -25.9279
  39   2.0000      -0.945252       -25.7216
  40   2.0000      -0.900624       -24.5072
  41   2.0000      -0.887662       -24.1545
  42   2.0000      -0.883559       -24.0429
  43   2.0000      -0.843704       -22.9583
  44   2.0000      -0.829582       -22.5741
  45   2.0000      -0.821112       -22.3436
  46   2.0000      -0.819994       -22.3132
  47   2.0000      -0.817376       -22.2419
  48   2.0000      -0.810769       -22.0621
  49   2.0000      -0.804123       -21.8813
  50   2.0000      -0.778479       -21.1835
  51   2.0000      -0.685220       -18.6458
  52   2.0000      -0.684321       -18.6213
  53   0.0000      -0.339746        -9.2449
  54   0.0000      -0.307498        -8.3674
  55   0.0000      -0.301752        -8.2111
  56   0.0000      -0.284156        -7.7323
  57   0.0000      -0.255416        -6.9502

MULLIKEN ATOMIC CHARGES
-----------------------
   0 C :   -0.178689
   1 C :   -0.178695
   2 C :    0.072012
   3 C :    0.037087
   4 C :    0.037124
   5 C :    0.072024
   6 Cl:   -0.052206
   7 Cl:   -0.024016
   8 Cl:   -0.023995
   9 Cl:   -0.052147
  10 H :    0.145752
  11 H :    0.145747
Sum of atomic charges:    0.0000000

LOEWDIN ATOMIC CHARGES
----------------------
   0 C :   -0.132289
   1 C :   -0.132289
   2 C :   -0.427644
   3 C :   -0.440257
   4 C :   -0.440255
   5 C :   -0.427645
   6 Cl:    0.411797
   7 Cl:    0.434509
   8 Cl:    0.434509
   9 Cl:    0.411797
  10 H :    0.153883
  11 H :    0.153883

  Mayer bond orders larger than 0.100000
B(  0-C ,  1-C ) :   1.4228 B(  0-C ,  5-C ) :   1.4069 B(  0-C , 10-H ) :   0.9570
B(  1-C ,  2-C ) :   1.4069 B(  1-C , 11-H ) :   0.9570 B(  2-C ,  3-C ) :   1.3233
B(  2-C ,  9-Cl) :   1.0908 B(  3-C ,  4-C ) :   1.3076 B(  3-C ,  8-Cl) :   1.2033
B(  4-C ,  5-C ) :   1.3232 B(  4-C ,  7-Cl) :   1.2033 B(  5-C ,  6-Cl) :   1.0908

FINAL SINGLE POINT ENERGY     -2070.431145104516

DIPOLE MOMENT
-------------

Method             : SCF
Type of density    : Electron Density
Multiplicity       :   1
Irrep              :   0
Energy             : -2070.4370677204155982 Eh
Relativity type    :
Basis              : AO
                                X                 Y                 Z
Electronic contribution:     -0.000024142       7.419279190       0.000112429
Nuclear contribution   :      0.000026582      -8.205985999      -0.000124933
                        -----------------------------------------
Total Dipole Moment    :      0.000002440      -0.786706809      -0.000012504
                        -----------------------------------------
Magnitude (a.u.)       :      0.786706809
Magnitude (Debye)      :      1.999649794

Rotational constants in cm-1:             0.038138             0.017908             0.012186
Rotational constants in MHz :          1143.363413           536.865179           365.326484

                             ****ORCA TERMINATED NORMALLY****
TOTAL RUN TIME: 0 days 0 hours 3 minutes 2 seconds 333 msec
