                         Program Version 6.0.0  -   RELEASE  -
|  1> ! wb97x-v def2-tzvp def2/J RIJCOSX DEFGRID2 scfconv7 GCP(DFT/TZ) printgap
|  2> %output
|  3>     printlevel normal
|  4> end
|  5> %cpcm
|  6>     smd true
|  7>     smdsolvent "water"
|  8> end
|  9> * xyz 0 1
| 10> C -0.6927003167714487 -2.068826318636524 -1.9225799718040037e-05
| 11> C 0.6927156853806078 -2.0688219317850542 -1.098375904866708e-05
| 12> C 1.386336781972613 -0.8657396191352914 1.2430911566250785e-05
| 13> C 0.7012068868138909 0.352350964613316 2.6262013014175007e-05
| 14> C -0.7012072421835136 0.3523465375435373 1.804649042026543e-05
| 15> C -1.3863291877174104 -0.8657484420955476 -5.661225426201975e-06
| 16> Cl -3.1279398643509526 -0.8986464539101687 -1.5533341479781045e-05
| 17> Cl -1.5711226556650613 1.8501869751073385 2.796519052579471e-05
| 18> Cl 1.5711125622017637 1.8501972303341934 4.9195719182575634e-05
| 19> Cl 3.12794761514695 -0.8986265015293967 2.6401311289440283e-05
| 20> H -1.234902719940889 -3.0066760893204245 -3.874055822362274e-05
| 21> H 1.2349240806984965 -3.0066682369573856 -2.5504952151901437e-05
| 22> *
| 23>
| 24>                          ****END OF INPUT****

CARTESIAN COORDINATES (ANGSTROEM)
---------------------------------
  C     -0.692700   -2.068826   -0.000019
  C      0.692716   -2.068822   -0.000011
  C      1.386337   -0.865740    0.000012
  C      0.701207    0.352351    0.000026
  C     -0.701207    0.352347    0.000018
  C     -1.386329   -0.865748   -0.000006
  Cl    -3.127940   -0.898646   -0.000016
  Cl    -1.571123    1.850187    0.000028
  Cl     1.571113    1.850197    0.000049
  Cl     3.127948   -0.898627    0.000026
  H     -1.234903   -3.006676   -0.000039
  H      1.234924   -3.006668   -0.000026

 Total Charge           Charge          ....    0
 Multiplicity           Mult            ....    1
 Number of Electrons    NEL             ....  106
 Basis Dimension        Dim             ....  346

ORBITAL ENERGIES
----------------

  NO   OCC          E(Eh)            E(eV)
   0   2.0000    -107.165605     -2916.1244
   1   2.0000    -107.165568     -2916.1234
   2   2.0000    -107.161072     -2916.0010
   3   2.0000    -107.161057     -2916.0006
   4   2.0000     -12.149218      -330.5970
   5   2.0000     -12.147219      -330.5426
   6   2.0000     -12.140328      -330.3551
   7   2.0000     -12.140301      -330.3544
   8   2.0000     -12.081996      -328.7678
   9   2.0000     -12.079944      -328.7120
  10   2.0000     -11.318690      -307.9972
  11   2.0000     -11.318646      -307.9960
  12   2.0000     -11.314215      -307.8754
  13   2.0000     -11.314141      -307.8734
  14   2.0000      -9.110680      -247.9142
  15   2.0000      -9.110066      -247.8975
  16   2.0000      -9.107967      -247.8404
  17   2.0000      -9.107530      -247.8285
  18   2.0000      -9.107432      -247.8258
  19   2.0000      -9.106978      -247.8135
  20   2.0000      -9.105743      -247.7799
  21   2.0000      -9.105708      -247.7789
  22   2.0000      -9.103206      -247.7108
  23   2.0000      -9.102973      -247.7045
  24   2.0000      -9.102917      -247.7030
  25   2.0000      -9.102850      -247.7011
  26   2.0000      -1.487256       -40.4703
  27   2.0000      -1.452674       -39.5293
  28   2.0000      -1.437104       -39.1056
  29   2.0000      -1.423263       -38.7290
  30   2.0000      -1.379368       -37.5345
  31   2.0000      -1.296131       -35.2695
  32   2.0000      -1.283640       -34.9296
  33   2.0000      -1.148647       -31.2563
  34   2.0000      -1.136199       -30.9175
  35   2.0000      -1.023844       -27.8602
  36   2.0000      -1.005625       -27.3644
  37   2.0000      -0.975322       -26.5399
  38   2.0000      -0.948422       -25.8079
  39   2.0000      -0.937838       -25.5199
  40   2.0000      -0.890627       -24.2352
  41   2.0000      -0.878911       -23.9164
  42   2.0000      -0.874436       -23.7946
  43   2.0000      -0.840857       -22.8809
  44   2.0000      -0.827437       -22.5157
  45   2.0000      -0.820506       -22.3271
  46   2.0000      -0.819331       -22.2951
  47   2.0000      -0.814884       -22.1741
  48   2.0000      -0.807880       -21.9835
  49   2.0000      -0.802921       -21.8486
  50   2.0000      -0.772839       -21.0300
  51   2.0000      -0.677623       -18.4391
  52   2.0000      -0.676597       -18.4111
  53   0.0000      -0.335655        -9.1336
  54   0.0000      -0.299084        -8.1385
  55   0.0000      -0.292891        -7.9700
  56   0.0000      -0.279054        -7.5934
  57   0.0000      -0.252399        -6.8681

MULLIKEN ATOMIC CHARGES
-----------------------
   0 C :   -0.202016
   1 C :   -0.202056
   2 C :    0.084976
   3 C :    0.046490
   4 C :    0.046534
   5 C :    0.084966
   6 Cl:   -0.069338
   7 Cl:   -0.044986
   8 Cl:   -0.044966
   9 Cl:   -0.069279
  10 H :    0.184841
  11 H :    0.184834
Sum of atomic charges:   -0.0000000

LOEWDIN ATOMIC CHARGES
----------------------
   0 C :   -0.118102
   1 C :   -0.118101
   2 C :   -0.427009
   3 C :   -0.441052
   4 C :   -0.441050
   5 C :   -0.427009
   6 Cl:    0.399767
   7 Cl:    0.419780
   8 Cl:    0.419780
   9 Cl:    0.399767
  10 H :    0.166614
  11 H :    0.166614

  Mayer bond orders larger than 0.100000
B(  0-C ,  1-C ) :   1.4306 B(  0-C ,  5-C ) :   1.3781 B(  0-C , 10-H ) :   0.9574
B(  1-C ,  2-C ) :   1.3781 B(  1-C , 11-H ) :   0.9574 B(  2-C ,  3-C ) :   1.3212
B(  2-C ,  9-Cl) :   1.0762 B(  3-C ,  4-C ) :   1.3138 B(  3-C ,  8-Cl) :   1.1770
B(  4-C ,  5-C ) :   1.3211 B(  4-C ,  7-Cl) :   1.1770 B(  5-C ,  6-Cl) :   1.0761

FINAL SINGLE POINT ENERGY     -2070.431932747226

DIPOLE MOMENT
-------------

Method             : SCF
Type of density    : Electron Density
Multiplicity       :   1
Irrep              :   0
Energy             : -2070.4378553631263458 Eh
Relativity type    :
Basis              : AO
                                X                 Y                 Z
Electronic contribution:     -0.000022592       6.946632435       0.000105234
Nuclear contribution   :      0.000026582      -8.205985999      -0.000124933
                        -----------------------------------------
Total Dipole Moment    :      0.000003990      -1.259353564      -0.000019699
                        -----------------------------------------
Magnitude (a.u.)       :      1.259353564
Magnitude (Debye)      :      3.201022371

Rotational constants in cm-1:             0.038138             0.017908             0.012186
Rotational constants in MHz :          1143.363413           536.865179           365.326484

                             ****ORCA TERMINATED NORMALLY****
TOTAL RUN TIME: 0 days 0 hours 3 minutes 2 seconds 371 msec
