                         Program Version 6.0.0  -   RELEASE  -
|  1> ! wb97x-v def2-tzvp def2/J RIJCOSX DEFGRID2 scfconv7 GCP(DFT/TZ) printgap
|  2> %output
|  3>     printlevel normal
|  4> end
|  5> * xyz 0 1
|  6> C -1.7721524707616976 0.6826260691466519 -0.0013830581747695304
|  7> C -0.4793914900095965 -0.0877010702771588 0.002268771411085452
|  8> O -0.4778978265018826 -1.3339876171742362 -0.0017784494861210513
|  9> N 0.6487391191538556 0.6461449591567014 0.004339862064299443
| 10> C 1.9909310275146912 0.08390192371609792 -0.0011043241049199176
| 11> H -2.3179872955472156 0.4424531817691955 -0.9190631937635021
| 12> H -2.382636304794607 0.3471594532628376 0.8417953807927497
| 13> H -1.6329624704364627 1.7637237925428944 0.059870747711168716
| 14> H 0.5581288169901726 1.651033230369872 0.00623362580190612
| 15> H 2.540448590280499 0.4064675832072638 -0.8909750036996428
| 16> H 1.9233006516757283 -1.0040595334050288 -0.003000721483604501
| 17> H 2.5457318771202533 0.40302946751549606 0.8866957212376347
| 18> *
| 19>
| 20>                          ****END OF INPUT****

CARTESIAN COORDINATES (ANGSTROEM)
---------------------------------
  C     -1.772152    0.682626   -0.001383
  C     -0.479391   -0.087701    0.002269
  O     -0.477898   -1.333988   -0.001778
  N      0.648739    0.646145    0.004340
  C      1.990931    0.083902   -0.001104
  H     -2.317987    0.442453   -0.919063
  H     -2.382636    0.347159    0.841795
  H     -1.632962    1.763724    0.059871
  H      0.558129    1.651033    0.006234
  H      2.540449    0.406468   -0.890975
  H      1.923301   -1.004060   -0.003001
  H      2.545732    0.403029    0.886696

 Total Charge           Charge          ....    0
 Multiplicity           Mult            ....    1
 Number of Electrons    NEL             ....   40
 Basis Dimension        Dim             ....  197

ORBITAL ENERGIES
----------------

  NO   OCC          E(Eh)            E(eV)
   0   2.0000     -21.622101      -588.3673
   1   2.0000     -16.557446      -450.5510
   2   2.0000     -12.146833      -330.5321
   3   2.0000     -12.080420      -328.7249
   4   2.0000     -12.052902      -327.9761
   5   2.0000      -1.670268       -45.4503
   6   2.0000      -1.520071       -41.3632
   7   2.0000      -1.273893       -34.6644
   8   2.0000      -1.203778       -32.7565
   9   2.0000      -1.113122       -30.2896
  10   2.0000      -1.022269       -27.8174
  11   2.0000      -0.989428       -26.9237
  12   2.0000      -0.920676       -25.0529
  13   2.0000      -0.917030       -24.9537
  14   2.0000      -0.866827       -23.5876
  15   2.0000      -0.840323       -22.8663
  16   2.0000      -0.833499       -22.6807
  17   2.0000      -0.824745       -22.4425
  18   2.0000      -0.812727       -22.1154
  19   2.0000      -0.755612       -20.5613
  20   0.0000      -0.269173        -7.3246
  21   0.0000      -0.106320        -2.8931
  22   0.0000      -0.061211        -1.6656
  23   0.0000      -0.037064        -1.0086
  24   0.0000       0.002874         0.0782

MULLIKEN ATOMIC CHARGES
-----------------------
   0 C :   -0.334010
   1 C :    0.307226
   2 O :   -0.426998
   3 N :   -0.293002
   4 C :   -0.239419
   5 H :    0.135953
   6 H :    0.137274
   7 H :    0.090903
   8 H :    0.218581
   9 H :    0.118172
  10 H :    0.167080
  11 H :    0.118239
Sum of atomic charges:   -0.0000000

LOEWDIN ATOMIC CHARGES
----------------------
   0 C :   -0.260167
   1 C :   -0.468171
   2 O :    0.010192
   3 N :    0.093440
   4 C :   -0.296790
   5 H :    0.137410
   6 H :    0.137214
   7 H :    0.114508
   8 H :    0.179792
   9 H :    0.110754
  10 H :    0.131032
  11 H :    0.110785

  Mayer bond orders larger than 0.100000
B(  0-C ,  1-C ) :   0.9456 B(  0-C ,  5-H ) :   0.9618 B(  0-C ,  6-H ) :   0.9666
B(  0-C ,  7-H ) :   0.9798 B(  1-C ,  2-O ) :   2.0012 B(  1-C ,  3-N ) :   1.2443
B(  3-N ,  4-C ) :   0.8993 B(  3-N ,  8-H ) :   0.9244 B(  4-C ,  9-H ) :   0.9767
B(  4-C , 10-H ) :   0.9660 B(  4-C , 11-H ) :   0.9765

FINAL SINGLE POINT ENERGY      -248.537212324658

DIPOLE MOMENT
-------------

Method             : SCF
Type of density    : Electron Density
Multiplicity       :   1
Irrep              :   0
Energy             :  -248.5450753180581671 Eh
Relativity type    :
Basis              : AO
                                X                 Y                 Z
Electronic contribution:     -0.786598942      -2.188656682       0.016579212
Nuclear contribution   :      1.194370604       3.754445324      -0.018307621
                        -----------------------------------------
Total Dipole Moment    :      0.407771662       1.565788641      -0.001728410
                        -----------------------------------------
Magnitude (a.u.)       :      1.618015694
Magnitude (Debye)      :      4.112669054

Rotational constants in cm-1:             0.331831             0.127993             0.095682
Rotational constants in MHz :          9948.043659          3837.131185          2868.463081

                             ****ORCA TERMINATED NORMALLY****
TOTAL RUN TIME: 0 days 0 hours 0 minutes 56 seconds 91 msec
