                         Program Version 6.0.0  -   RELEASE  -
|  1> ! wb97x-v def2-tzvp def2/J RIJCOSX DEFGRID2 scfconv7 GCP(DFT/TZ) printgap
|  2> %output
|  3>     printlevel normal
|  4> end
|  5> %cpcm
|  6>     smd true
|  7>     smdsolvent "water"
|  8> end
|  9> * xyz 0 1
| 10> C -1.7721524707616976 0.6826260691466519 -0.0013830581747695304
| 11> C -0.4793914900095965 -0.0877010702771588 0.002268771411085452
| 12> O -0.4778978265018826 -1.3339876171742362 -0.0017784494861210513
| 13> N 0.6487391191538556 0.6461449591567014 0.004339862064299443
| 14> C 1.9909310275146912 0.08390192371609792 -0.0011043241049199176
| 15> H -2.3179872955472156 0.4424531817691955 -0.9190631937635021
| 16> H -2.382636304794607 0.3471594532628376 0.8417953807927497
| 17> H -1.6329624704364627 1.7637237925428944 0.059870747711168716
| 18> H 0.5581288169901726 1.651033230369872 0.00623362580190612
| 19> H 2.540448590280499 0.4064675832072638 -0.8909750036996428
| 20> H 1.9233006516757283 -1.0040595334050288 -0.003000721483604501
| 21> H 2.5457318771202533 0.40302946751549606 0.8866957212376347
| 22> *
| 23>
| 24>                          ****END OF INPUT****

CARTESIAN COORDINATES (ANGSTROEM)
---------------------------------
  C     -1.772152    0.682626   -0.001383
  C     -0.479391   -0.087701    0.002269
  O     -0.477898   -1.333988   -0.001778
  N      0.648739    0.646145    0.004340
  C      1.990931    0.083902   -0.001104
  H     -2.317987    0.442453   -0.919063
  H     -2.382636    0.347159    0.841795
  H     -1.632962    1.763724    0.059871
  H      0.558129    1.651033    0.006234
  H      2.540449    0.406468   -0.890975
  H      1.923301   -1.004060   -0.003001
  H      2.545732    0.403029    0.886696

 Total Charge           Charge          ....    0
 Multiplicity           Mult            ....    1
 Number of Electrons    NEL             ....   40
 Basis Dimension        Dim             ....  197

ORBITAL ENERGIES
----------------

  NO   OCC          E(Eh)            E(eV)
   0   2.0000     -21.639879      -588.8510
   1   2.0000     -16.552689      -450.4216
   2   2.0000     -12.155274      -330.7618
   3   2.0000     -12.067957      -328.3858
   4   2.0000     -12.041245      -327.6589
   5   2.0000      -1.690639       -46.0046
   6   2.0000      -1.515514       -41.2392
   7   2.0000      -1.267588       -34.4928
   8   2.0000      -1.194574       -32.5060
   9   2.0000      -1.112481       -30.2721
  10   2.0000      -1.037954       -28.2442
  11   2.0000      -0.981624       -26.7114
  12   2.0000      -0.925127       -25.1740
  13   2.0000      -0.924911       -25.1681
  14   2.0000      -0.865102       -23.5406
  15   2.0000      -0.832276       -22.6474
  16   2.0000      -0.824113       -22.4252
  17   2.0000      -0.822124       -22.3711
  18   2.0000      -0.819829       -22.3087
  19   2.0000      -0.748956       -20.3801
  20   0.0000      -0.271806        -7.3962
  21   0.0000      -0.095319        -2.5938
  22   0.0000      -0.048061        -1.3078
  23   0.0000      -0.023725        -0.6456
  24   0.0000       0.016382         0.4458

MULLIKEN ATOMIC CHARGES
-----------------------
   0 C :   -0.384679
   1 C :    0.351229
   2 O :   -0.592499
   3 N :   -0.280816
   4 C :   -0.265483
   5 H :    0.154291
   6 H :    0.152558
   7 H :    0.143405
   8 H :    0.283264
   9 H :    0.146065
  10 H :    0.146586
  11 H :    0.146080
Sum of atomic charges:   -0.0000000

LOEWDIN ATOMIC CHARGES
----------------------
   0 C :   -0.256735
   1 C :   -0.460615
   2 O :   -0.089382
   3 N :    0.118455
   4 C :   -0.293351
   5 H :    0.141764
   6 H :    0.140325
   7 H :    0.131480
   8 H :    0.204726
   9 H :    0.120131
  10 H :    0.123066
  11 H :    0.120135

  Mayer bond orders larger than 0.100000
B(  0-C ,  1-C ) :   0.9664 B(  0-C ,  5-H ) :   0.9541 B(  0-C ,  6-H ) :   0.9590
B(  0-C ,  7-H ) :   0.9709 B(  1-C ,  2-O ) :   1.8137 B(  1-C ,  3-N ) :   1.3273
B(  3-N ,  4-C ) :   0.8985 B(  3-N ,  8-H ) :   0.8957 B(  4-C ,  9-H ) :   0.9710
B(  4-C , 10-H ) :   0.9692 B(  4-C , 11-H ) :   0.9709

FINAL SINGLE POINT ENERGY      -248.552913798527

DIPOLE MOMENT
-------------

Method             : SCF
Type of density    : Electron Density
Multiplicity       :   1
Irrep              :   0
Energy             :  -248.5607767919271964 Eh
Relativity type    :
Basis              : AO
                                X                 Y                 Z
Electronic contribution:     -0.608748550      -1.447239164       0.016017005
Nuclear contribution   :      1.194370604       3.754445324      -0.018307621
                        -----------------------------------------
Total Dipole Moment    :      0.585622054       2.307206159      -0.002290616
                        -----------------------------------------
Magnitude (a.u.)       :      2.380369446
Magnitude (Debye)      :      6.050418296

Rotational constants in cm-1:             0.331831             0.127993             0.095682
Rotational constants in MHz :          9948.043659          3837.131185          2868.463081

                             ****ORCA TERMINATED NORMALLY****
TOTAL RUN TIME: 0 days 0 hours 0 minutes 59 seconds 460 msec
