                         Program Version 6.0.0  -   RELEASE  -
|  1> ! r2scan-3c def2/J RI DEFGRID2 scfconv6 printgap
|  2> %output
|  3>     printlevel normal
|  4> end
|  5> %cpcm
|  6>     smd true
|  7>     smdsolvent "water"
|  8> end
|  9> * xyz 0 1
| 10> C -2.2191355052 1.9031e-06 1.23823e-05
| 11> C -1.5289140383 -1.2029662795 2.84199e-05
| 12> C -0.147179665 -1.2115980123 -3.19689e-05
| 13> C 0.5470669236 -2.3359e-06 -6.8967e-05
| 14> C -0.147176794 1.2115964161 -2.31422e-05
| 15> C -1.528912121 1.2029688156 3.69949e-05
| 16> C 1.9577297159 -5.4071e-06 -1.94874e-05
| 17> N 3.1066836932 3.9142e-06 6.29874e-05
| 18> H -3.2979478421 2.8046e-06 3.64308e-05
| 19> H -2.0687436535 -2.1369449172 8.62524e-05
| 20> H 0.4024314629 -2.1406715344 -9.17135e-05
| 21> H 0.4024357506 2.1406689863 -0.0001256777
| 22> H -2.0687408389 2.1369486584 3.1161e-06
| 23> *
| 24>
| 25>                          ****END OF INPUT****

CARTESIAN COORDINATES (ANGSTROEM)
---------------------------------
  C     -2.219136    0.000002    0.000012
  C     -1.528914   -1.202966    0.000028
  C     -0.147180   -1.211598   -0.000032
  C      0.547067   -0.000002   -0.000069
  C     -0.147177    1.211596   -0.000023
  C     -1.528912    1.202969    0.000037
  C      1.957730   -0.000005   -0.000019
  N      3.106684    0.000004    0.000063
  H     -3.297948    0.000003    0.000036
  H     -2.068744   -2.136945    0.000086
  H      0.402431   -2.140672   -0.000092
  H      0.402436    2.140669   -0.000126
  H     -2.068741    2.136949    0.000003

 Total Charge           Charge          ....    0
 Multiplicity           Mult            ....    1
 Number of Electrons    NEL             ....   54
 Basis Dimension        Dim             ....  182

ORBITAL ENERGIES
----------------

  NO   OCC          E(Eh)            E(eV)
   0   2.0000     -14.164760      -385.4427
   1   2.0000     -10.082057      -274.3467
   2   2.0000     -10.081053      -274.3194
   3   2.0000     -10.056379      -273.6480
   4   2.0000     -10.056371      -273.6478
   5   2.0000     -10.048972      -273.4464
   6   2.0000     -10.046666      -273.3837
   7   2.0000     -10.046617      -273.3823
   8   2.0000      -0.890964       -24.2444
   9   2.0000      -0.845893       -23.0179
  10   2.0000      -0.752108       -20.4659
  11   2.0000      -0.733281       -19.9536
  12   2.0000      -0.621242       -16.9048
  13   2.0000      -0.591598       -16.0982
  14   2.0000      -0.529284       -14.4025
  15   2.0000      -0.465607       -12.6698
  16   2.0000      -0.444449       -12.0941
  17   2.0000      -0.415658       -11.3106
  18   2.0000      -0.402762       -10.9597
  19   2.0000      -0.385339       -10.4856
  20   2.0000      -0.354890        -9.6570
  21   2.0000      -0.337850        -9.1934
  22   2.0000      -0.334118        -9.0918
  23   2.0000      -0.332248        -9.0409
  24   2.0000      -0.314243        -8.5510
  25   2.0000      -0.254695        -6.9306
  26   2.0000      -0.251128        -6.8335
  27   0.0000      -0.078381        -2.1329
  28   0.0000      -0.046056        -1.2533
  29   0.0000      -0.001070        -0.0291
  30   0.0000       0.046236         1.2581
  31   0.0000       0.062866         1.7107

MULLIKEN ATOMIC CHARGES
-----------------------
   0 C :   -0.119601
   1 C :   -0.205726
   2 C :   -0.171385
   3 C :   -0.023684
   4 C :   -0.171390
   5 C :   -0.205721
   6 C :    0.287362
   7 N :   -0.345474
   8 H :    0.188945
   9 H :    0.187315
  10 H :    0.196021
  11 H :    0.196022
  12 H :    0.187317
Sum of atomic charges:   -0.0000000

LOEWDIN ATOMIC CHARGES
----------------------
   0 C :   -0.136602
   1 C :   -0.153733
   2 C :   -0.110885
   3 C :   -0.089800
   4 C :   -0.110885
   5 C :   -0.153733
   6 C :    0.183933
   7 N :   -0.368548
   8 H :    0.183882
   9 H :    0.185333
  10 H :    0.192853
  11 H :    0.192853
  12 H :    0.185333

  Mayer bond orders larger than 0.100000
B(  0-C ,  1-C ) :   1.3791 B(  0-C ,  5-C ) :   1.3791 B(  0-C ,  8-H ) :   0.9449
B(  1-C ,  2-C ) :   1.4133 B(  1-C ,  9-H ) :   0.9561 B(  2-C ,  3-C ) :   1.3483
B(  2-C , 10-H ) :   0.9476 B(  3-C ,  4-C ) :   1.3483 B(  3-C ,  6-C ) :   1.0515
B(  4-C ,  5-C ) :   1.4133 B(  4-C , 11-H ) :   0.9476 B(  5-C , 12-H ) :   0.9561
B(  6-C ,  7-N ) :   2.8319

Dispersion correction           -0.004227951
FINAL SINGLE POINT ENERGY      -324.410176298392

DIPOLE MOMENT
-------------

Method             : SCF
Type of density    : Electron Density
Multiplicity       :   1
Irrep              :   0
Energy             :  -324.4085043271983295 Eh
Relativity type    :
Basis              : AO
                                X                 Y                 Z
Electronic contribution:      3.710877092      -0.000008404      -0.000034454
Nuclear contribution   :     -6.203519610       0.000003772      -0.000085582
                        -----------------------------------------
Total Dipole Moment    :     -2.492642518      -0.000004632      -0.000120036
                        -----------------------------------------
Magnitude (a.u.)       :      2.492642520
Magnitude (Debye)      :      6.335793773

Rotational constants in cm-1:             0.190545             0.052588             0.041214
Rotational constants in MHz :          5712.380417          1576.561889          1235.559412

                             ****ORCA TERMINATED NORMALLY****
TOTAL RUN TIME: 0 days 0 hours 0 minutes 23 seconds 25 msec
