                         Program Version 6.0.0  -   RELEASE  -
|  1> ! pbe def2-sv(p) def2/J RI DEFGRID1 loosescf d4 GCP(DFT/SV(P)) printgap
|  2> %output
|  3>     printlevel normal
|  4> end
|  5> * xyz 0 1
|  6> C 4.2205029703 -0.3535455072 -2.3815529917
|  7> C 4.4383071904 0.4301161643 -1.1033334186
|  8> O 3.7438361253 -0.1492886795 0.0136134292
|  9> P 2.1579985528 -0.1805833258 0.1184997734
| 10> S 1.2708316243 1.475808512 -0.4754189787
| 11> O 1.9343674562 -0.5665846032 1.6374056148
| 12> C 1.8794175826 0.4152451249 2.6908095029
| 13> C 3.2580564841 0.9240158454 3.0576159488
| 14> S 1.6259807028 -2.0095549607 -0.770106938
| 15> C -0.1290426566 -1.6899249673 -1.0859838295
| 16> S -1.0612378625 -1.2729857523 0.4192675114
| 17> P -2.1529417656 0.4288333593 -0.2913515313
| 18> S -1.9199442045 0.9261581058 -2.1659659779
| 19> O -1.8097062646 1.5932554605 0.7117926428
| 20> C -1.8217061878 1.4817643288 2.1546810097
| 21> C -3.196672793 1.7508872412 2.7303375648
| 22> O -3.6607647521 0.0935668212 0.1072786489
| 23> C -4.5551609041 -0.6165741041 -0.7652735565
| 24> C -4.1113828034 -2.0435808619 -1.0154218138
| 25> H 4.4499976312 -1.40441232 -2.2241671108
| 26> H 3.1823833429 -0.2650191039 -2.7005316089
| 27> H 4.8613972341 0.0447375389 -3.1616829982
| 28> H 4.0971935552 1.4635913883 -1.2239935922
| 29> H 5.4848251478 0.4167163034 -0.7957595104
| 30> H 1.2375059622 1.2396690987 2.3619448251
| 31> H 1.4097560641 -0.1151289456 3.5204612471
| 32> H 3.916308624 0.0886832167 3.2795165441
| 33> H 3.6789320595 1.4926875372 2.2304386819
| 34> H 3.1824823954 1.5677766651 3.9284418774
| 35> H -0.5203751421 -2.6176375582 -1.4967080361
| 36> H -0.2410729714 -0.8656458404 -1.796789112
| 37> H -1.4638347928 0.4857582374 2.4332618828
| 38> H -1.1033938965 2.2381804224 2.4785708005
| 39> H -3.1260265984 1.7634909626 3.8135828401
| 40> H -3.5622679743 2.7133314925 2.3827696805
| 41> H -3.8953960744 0.9777077992 2.4244397971
| 42> H -5.512206575 -0.5778280104 -0.243168595
| 43> H -4.6230813109 -0.0659994509 -1.708511457
| 44> H -3.9215299561 -2.5534445304 -0.0742689303
| 45> H -4.8890533848 -2.5687763446 -1.5604611926
| 46> H -3.2010931443 -2.0463485558 -1.6134147934
| 47> *
| 48>
| 49>                          ****END OF INPUT****

CARTESIAN COORDINATES (ANGSTROEM)
---------------------------------
  C      4.220503   -0.353546   -2.381553
  C      4.438307    0.430116   -1.103333
  O      3.743836   -0.149289    0.013613
  P      2.157999   -0.180583    0.118500
  S      1.270832    1.475809   -0.475419
  O      1.934367   -0.566585    1.637406
  C      1.879418    0.415245    2.690810
  C      3.258056    0.924016    3.057616
  S      1.625981   -2.009555   -0.770107
  C     -0.129043   -1.689925   -1.085984
  S     -1.061238   -1.272986    0.419268
  P     -2.152942    0.428833   -0.291352
  S     -1.919944    0.926158   -2.165966
  O     -1.809706    1.593255    0.711793
  C     -1.821706    1.481764    2.154681
  C     -3.196673    1.750887    2.730338
  O     -3.660765    0.093567    0.107279
  C     -4.555161   -0.616574   -0.765274
  C     -4.111383   -2.043581   -1.015422
  H      4.449998   -1.404412   -2.224167
  H      3.182383   -0.265019   -2.700532
  H      4.861397    0.044738   -3.161683
  H      4.097194    1.463591   -1.223994
  H      5.484825    0.416716   -0.795760
  H      1.237506    1.239669    2.361945
  H      1.409756   -0.115129    3.520461
  H      3.916309    0.088683    3.279517
  H      3.678932    1.492688    2.230439
  H      3.182482    1.567777    3.928442
  H     -0.520375   -2.617638   -1.496708
  H     -0.241073   -0.865646   -1.796789
  H     -1.463835    0.485758    2.433262
  H     -1.103394    2.238180    2.478571
  H     -3.126027    1.763491    3.813583
  H     -3.562268    2.713331    2.382770
  H     -3.895396    0.977708    2.424440
  H     -5.512207   -0.577828   -0.243169
  H     -4.623081   -0.065999   -1.708511
  H     -3.921530   -2.553445   -0.074269
  H     -4.889053   -2.568776   -1.560461
  H     -3.201093   -2.046349   -1.613415

 Total Charge           Charge          ....    0
 Multiplicity           Mult            ....    1
 Number of Electrons    NEL             ....  202
 Basis Dimension        Dim             ....  334

ORBITAL ENERGIES
----------------

  NO   OCC          E(Eh)            E(eV)
   0   2.0000     -88.042134     -2395.7483
   1   2.0000     -88.039773     -2395.6840
   2   2.0000     -87.983233     -2394.1455
   3   2.0000     -87.982212     -2394.1177
   4   2.0000     -76.423599     -2079.5918
   5   2.0000     -76.422597     -2079.5646
   6   2.0000     -18.790093      -511.3044
   7   2.0000     -18.788783      -511.2688
   8   2.0000     -18.787783      -511.2416
   9   2.0000     -18.785197      -511.1712
  10   2.0000      -9.957137      -270.9475
  11   2.0000      -9.953113      -270.8380
  12   2.0000      -9.950807      -270.7752
  13   2.0000      -9.950657      -270.7712
  14   2.0000      -9.950586      -270.7692
  15   2.0000      -9.885656      -269.0024
  16   2.0000      -9.884111      -268.9603
  17   2.0000      -9.884033      -268.9582
  18   2.0000      -9.882137      -268.9066
  19   2.0000      -7.687713      -209.1933
  20   2.0000      -7.684054      -209.0937
  21   2.0000      -7.628464      -207.5811
  22   2.0000      -7.626674      -207.5323
  23   2.0000      -6.420852      -174.7203
  24   2.0000      -6.420090      -174.6995
  25   2.0000      -5.715688      -155.5318
  26   2.0000      -5.712148      -155.4355
  27   2.0000      -5.711932      -155.4296
  28   2.0000      -5.708707      -155.3418
  29   2.0000      -5.704563      -155.2291
  30   2.0000      -5.700985      -155.1317
  31   2.0000      -5.657443      -153.9469
  32   2.0000      -5.655503      -153.8941
  33   2.0000      -5.649148      -153.7211
  34   2.0000      -5.648433      -153.7017
  35   2.0000      -5.647407      -153.6738
  36   2.0000      -5.646921      -153.6605
  37   2.0000      -4.643591      -126.3585
  38   2.0000      -4.642515      -126.3292
  39   2.0000      -4.642468      -126.3280
  40   2.0000      -4.641867      -126.3116
  41   2.0000      -4.641352      -126.2976
  42   2.0000      -4.640651      -126.2785
  43   2.0000      -0.984279       -26.7836
  44   2.0000      -0.983781       -26.7700
  45   2.0000      -0.943030       -25.6612
  46   2.0000      -0.941485       -25.6191
  47   2.0000      -0.760670       -20.6989
  48   2.0000      -0.719015       -19.5654
  49   2.0000      -0.708421       -19.2771
  50   2.0000      -0.688792       -18.7430
  51   2.0000      -0.686071       -18.6689
  52   2.0000      -0.674596       -18.3567
  53   2.0000      -0.649194       -17.6655
  54   2.0000      -0.633759       -17.2455
  55   2.0000      -0.600500       -16.3404
  56   2.0000      -0.591148       -16.0860
  57   2.0000      -0.574804       -15.6412
  58   2.0000      -0.571111       -15.5407
  59   2.0000      -0.560120       -15.2416
  60   2.0000      -0.498461       -13.5638
  61   2.0000      -0.491053       -13.3622
  62   2.0000      -0.472222       -12.8498
  63   2.0000      -0.470041       -12.7905
  64   2.0000      -0.447743       -12.1837
  65   2.0000      -0.446688       -12.1550
  66   2.0000      -0.442396       -12.0382
  67   2.0000      -0.436403       -11.8751
  68   2.0000      -0.429638       -11.6910
  69   2.0000      -0.422181       -11.4881
  70   2.0000      -0.408997       -11.1294
  71   2.0000      -0.394035       -10.7222
  72   2.0000      -0.390649       -10.6301
  73   2.0000      -0.385758       -10.4970
  74   2.0000      -0.380486       -10.3535
  75   2.0000      -0.374301       -10.1853
  76   2.0000      -0.366559        -9.9746
  77   2.0000      -0.356571        -9.7028
  78   2.0000      -0.351539        -9.5659
  79   2.0000      -0.350698        -9.5430
  80   2.0000      -0.348477        -9.4825
  81   2.0000      -0.346266        -9.4224
  82   2.0000      -0.341320        -9.2878
  83   2.0000      -0.338632        -9.2146
  84   2.0000      -0.334361        -9.0984
  85   2.0000      -0.313143        -8.5210
  86   2.0000      -0.311384        -8.4732
  87   2.0000      -0.295201        -8.0328
  88   2.0000      -0.293188        -7.9780
  89   2.0000      -0.288526        -7.8512
  90   2.0000      -0.279859        -7.6153
  91   2.0000      -0.275197        -7.4885
  92   2.0000      -0.267391        -7.2761
  93   2.0000      -0.261206        -7.1078
  94   2.0000      -0.258091        -7.0230
  95   2.0000      -0.231231        -6.2921
  96   2.0000      -0.219509        -5.9731
  97   2.0000      -0.211770        -5.7625
  98   2.0000      -0.199235        -5.4215
  99   2.0000      -0.196702        -5.3525
 100   2.0000      -0.186165        -5.0658
 101   0.0000      -0.042503        -1.1566
 102   0.0000      -0.032732        -0.8907
 103   0.0000      -0.009627        -0.2620
 104   0.0000       0.009717         0.2644
 105   0.0000       0.017772         0.4836

MULLIKEN ATOMIC CHARGES
-----------------------
   0 C :   -0.318010
   1 C :   -0.002937
   2 O :   -0.372293
   3 P :    0.603643
   4 S :   -0.313097
   5 O :   -0.360577
   6 C :   -0.030903
   7 C :   -0.292454
   8 S :   -0.085617
   9 C :   -0.349677
  10 S :   -0.124511
  11 P :    0.620665
  12 S :   -0.293457
  13 O :   -0.349256
  14 C :   -0.045527
  15 C :   -0.279195
  16 O :   -0.382436
  17 C :    0.004157
  18 C :   -0.318342
  19 H :    0.117862
  20 H :    0.131295
  21 H :    0.113408
  22 H :    0.110659
  23 H :    0.104155
  24 H :    0.121409
  25 H :    0.103433
  26 H :    0.117410
  27 H :    0.121196
  28 H :    0.108006
  29 H :    0.181674
  30 H :    0.205435
  31 H :    0.116033
  32 H :    0.122214
  33 H :    0.106703
  34 H :    0.120062
  35 H :    0.123681
  36 H :    0.102364
  37 H :    0.111475
  38 H :    0.119202
  39 H :    0.112170
  40 H :    0.119978
Sum of atomic charges:    0.0000000

LOEWDIN ATOMIC CHARGES
----------------------
   0 C :   -0.369947
   1 C :   -0.119635
   2 O :   -0.245130
   3 P :    0.561328
   4 S :   -0.307931
   5 O :   -0.240018
   6 C :   -0.120542
   7 C :   -0.360814
   8 S :    0.093524
   9 C :   -0.479438
  10 S :    0.061942
  11 P :    0.577358
  12 S :   -0.287206
  13 O :   -0.227379
  14 C :   -0.114268
  15 C :   -0.361024
  16 O :   -0.251271
  17 C :   -0.117510
  18 C :   -0.370937
  19 H :    0.123847
  20 H :    0.122939
  21 H :    0.131244
  22 H :    0.110624
  23 H :    0.118142
  24 H :    0.107900
  25 H :    0.116749
  26 H :    0.127314
  27 H :    0.124526
  28 H :    0.128445
  29 H :    0.133233
  30 H :    0.123138
  31 H :    0.104393
  32 H :    0.121150
  33 H :    0.128277
  34 H :    0.129806
  35 H :    0.125929
  36 H :    0.117190
  37 H :    0.111505
  38 H :    0.123690
  39 H :    0.130170
  40 H :    0.118686

  Mayer bond orders larger than 0.100000
B(  0-C ,  1-C ) :   1.1671 B(  0-C , 19-H ) :   0.9442 B(  0-C , 20-H ) :   0.9353
B(  0-C , 21-H ) :   0.9377 B(  1-C ,  2-O ) :   0.9085 B(  1-C , 22-H ) :   0.9151
B(  1-C , 23-H ) :   0.9339 B(  2-O ,  3-P ) :   1.1005 B(  3-P ,  4-S ) :   1.6207
B(  3-P ,  5-O ) :   1.1199 B(  3-P ,  8-S ) :   0.9581 B(  4-S ,  8-S ) :   0.1140
B(  5-O ,  6-C ) :   0.9131 B(  6-C ,  7-C ) :   1.1620 B(  6-C , 24-H ) :   0.9024
B(  6-C , 25-H ) :   0.9346 B(  7-C , 26-H ) :   0.9465 B(  7-C , 27-H ) :   0.9411
B(  7-C , 28-H ) :   0.9398 B(  8-S ,  9-C ) :   1.0007 B(  9-C , 10-S ) :   1.0017
B(  9-C , 29-H ) :   0.9060 B(  9-C , 30-H ) :   0.8488 B( 10-S , 11-P ) :   0.9360
B( 10-S , 12-S ) :   0.1174 B( 11-P , 12-S ) :   1.6255 B( 11-P , 13-O ) :   1.1421
B( 11-P , 16-O ) :   1.0715 B( 12-S , 30-H ) :   0.1075 B( 13-O , 14-C ) :   0.9041
B( 14-C , 15-C ) :   1.1583 B( 14-C , 31-H ) :   0.9124 B( 14-C , 32-H ) :   0.9275
B( 15-C , 33-H ) :   0.9389 B( 15-C , 34-H ) :   0.9461 B( 15-C , 35-H ) :   0.9373
B( 16-O , 17-C ) :   0.9157 B( 17-C , 18-C ) :   1.1643 B( 17-C , 36-H ) :   0.9342
B( 17-C , 37-H ) :   0.9174 B( 18-C , 38-H ) :   0.9415 B( 18-C , 39-H ) :   0.9370
B( 18-C , 40-H ) :   0.9365

Dispersion correction           -0.067044156
FINAL SINGLE POINT ENERGY     -2929.516496138546

DIPOLE MOMENT
-------------

Method             : SCF
Type of density    : Electron Density
Multiplicity       :   1
Irrep              :   0
Energy             : -2929.6343640318837060 Eh
Relativity type    :
Basis              : AO
                                X                 Y                 Z
Electronic contribution:      0.512871726      -1.689672616      -8.809338733
Nuclear contribution   :     -0.523015068       1.142840455       9.897629772
                        -----------------------------------------
Total Dipole Moment    :     -0.010143342      -0.546832161       1.088291039
                        -----------------------------------------
Magnitude (a.u.)       :      1.217992481
Magnitude (Debye)      :      3.095890853

Rotational constants in cm-1:             0.012269             0.005431             0.004708
Rotational constants in MHz :           367.817837           162.805354           141.141121

                             ****ORCA TERMINATED NORMALLY****
TOTAL RUN TIME: 0 days 0 hours 0 minutes 21 seconds 62 msec
