                         Program Version 6.0.0  -   RELEASE  -
|  1> ! r2scan-3c def2/J RI DEFGRID2 scfconv6 printgap
|  2> %output
|  3>     printlevel normal
|  4> end
|  5> * xyz 0 1
|  6> C 5.2336667832 -1.250708203 -0.8267524482
|  7> C 3.8630237802 -1.8301341242 -1.1199075416
|  8> O 2.9283363536 -1.5178289918 -0.0678263166
|  9> P 2.0319818772 -0.2077570929 -0.0649280968
| 10> S 2.9469481952 1.528663293 -0.1264818981
| 11> O 1.1455569698 -0.486069578 1.212855995
| 12> C 1.3152667945 0.2417154806 2.4449033278
| 13> C 2.5574634015 -0.2170634055 3.1786678231
| 14> S 0.6814185801 -0.5810743657 -1.6585277386
| 15> C 0.0590647577 1.1148238437 -1.8004620715
| 16> S -0.7592737529 1.7054545715 -0.2978694041
| 17> P -2.3290098871 0.2765971455 -0.2910454708
| 18> S -3.0635082884 -0.2054762185 -2.0334832685
| 19> O -3.4303958384 0.9020042334 0.6570226283
| 20> C -3.2387546834 1.1676673216 2.0693730442
| 21> C -2.8273662286 2.6068662054 2.3050596121
| 22> O -1.6729827189 -0.9081753493 0.5588080904
| 23> C -1.7848850301 -2.2955315512 0.1971840314
| 24> C -3.0990570519 -2.8723378418 0.6825468395
| 25> H 5.9233032833 -1.552184675 -1.6085719694
| 26> H 5.1872372635 -0.1644356058 -0.7951151081
| 27> H 5.5957473933 -1.6136883104 0.1311077564
| 28> H 3.8899586082 -2.9212671415 -1.1417367409
| 29> H 3.4724119911 -1.4578111369 -2.0715985843
| 30> H 1.3682461121 1.3116528794 2.2179900917
| 31> H 0.405442546 0.0278158484 3.007386151
| 32> H 2.5201017285 -1.2898052822 3.347824401
| 33> H 3.4387989024 0.0139164579 2.5813329785
| 34> H 2.6286336356 0.3000534035 4.1302317424
| 35> H -0.6513772975 1.1152740148 -2.6266060942
| 36> H 0.8896002468 1.7958563476 -1.9850915692
| 37> H -4.2145535221 0.959423691 2.5116049157
| 38> H -2.4960443359 0.4700005006 2.4624797415
| 39> H -1.8497478422 2.8047608812 1.8697607812
| 40> H -3.5510109854 3.2789819883 1.8523381749
| 41> H -2.7849496092 2.7927585954 3.3737041177
| 42> H -1.6993799702 -2.3874572867 -0.8902946941
| 43> H -0.924540282 -2.7691982699 0.6734308977
| 44> H -3.9260037643 -2.3512096501 0.2011821476
| 45> H -3.1467463521 -3.9252286872 0.4237522919
| 46> H -3.1892850585 -2.7606853281 1.7597099875
| 47> *
| 48>
| 49>                          ****END OF INPUT****

CARTESIAN COORDINATES (ANGSTROEM)
---------------------------------
  C      5.233667   -1.250708   -0.826752
  C      3.863024   -1.830134   -1.119908
  O      2.928336   -1.517829   -0.067826
  P      2.031982   -0.207757   -0.064928
  S      2.946948    1.528663   -0.126482
  O      1.145557   -0.486070    1.212856
  C      1.315267    0.241715    2.444903
  C      2.557463   -0.217063    3.178668
  S      0.681419   -0.581074   -1.658528
  C      0.059065    1.114824   -1.800462
  S     -0.759274    1.705455   -0.297869
  P     -2.329010    0.276597   -0.291045
  S     -3.063508   -0.205476   -2.033483
  O     -3.430396    0.902004    0.657023
  C     -3.238755    1.167667    2.069373
  C     -2.827366    2.606866    2.305060
  O     -1.672983   -0.908175    0.558808
  C     -1.784885   -2.295532    0.197184
  C     -3.099057   -2.872338    0.682547
  H      5.923303   -1.552185   -1.608572
  H      5.187237   -0.164436   -0.795115
  H      5.595747   -1.613688    0.131108
  H      3.889959   -2.921267   -1.141737
  H      3.472412   -1.457811   -2.071599
  H      1.368246    1.311653    2.217990
  H      0.405443    0.027816    3.007386
  H      2.520102   -1.289805    3.347824
  H      3.438799    0.013916    2.581333
  H      2.628634    0.300053    4.130232
  H     -0.651377    1.115274   -2.626606
  H      0.889600    1.795856   -1.985092
  H     -4.214554    0.959424    2.511605
  H     -2.496044    0.470001    2.462480
  H     -1.849748    2.804761    1.869761
  H     -3.551011    3.278982    1.852338
  H     -2.784950    2.792759    3.373704
  H     -1.699380   -2.387457   -0.890295
  H     -0.924540   -2.769198    0.673431
  H     -3.926004   -2.351210    0.201182
  H     -3.146746   -3.925229    0.423752
  H     -3.189285   -2.760685    1.759710

 Total Charge           Charge          ....    0
 Multiplicity           Mult            ....    1
 Number of Electrons    NEL             ....  202
 Basis Dimension        Dim             ....  539

ORBITAL ENERGIES
----------------

  NO   OCC          E(Eh)            E(eV)
   0   2.0000     -88.575538     -2410.2629
   1   2.0000     -88.573078     -2410.1960
   2   2.0000     -88.523188     -2408.8384
   3   2.0000     -88.518774     -2408.7183
   4   2.0000     -76.916084     -2092.9930
   5   2.0000     -76.913158     -2092.9134
   6   2.0000     -18.995335      -516.8893
   7   2.0000     -18.992932      -516.8239
   8   2.0000     -18.989813      -516.7391
   9   2.0000     -18.985098      -516.6108
  10   2.0000     -10.106946      -275.0240
  11   2.0000     -10.104685      -274.9625
  12   2.0000     -10.103580      -274.9324
  13   2.0000     -10.098936      -274.8060
  14   2.0000     -10.092450      -274.6295
  15   2.0000     -10.036426      -273.1050
  16   2.0000     -10.029817      -272.9252
  17   2.0000     -10.027988      -272.8754
  18   2.0000     -10.026701      -272.8404
  19   2.0000      -7.869824      -214.1488
  20   2.0000      -7.867520      -214.0861
  21   2.0000      -7.818057      -212.7402
  22   2.0000      -7.813657      -212.6204
  23   2.0000      -6.594488      -179.4451
  24   2.0000      -6.591341      -179.3595
  25   2.0000      -5.816680      -158.2799
  26   2.0000      -5.814391      -158.2176
  27   2.0000      -5.813677      -158.1982
  28   2.0000      -5.811424      -158.1369
  29   2.0000      -5.806978      -158.0159
  30   2.0000      -5.804568      -157.9503
  31   2.0000      -5.765658      -156.8915
  32   2.0000      -5.761424      -156.7763
  33   2.0000      -5.758291      -156.6911
  34   2.0000      -5.758143      -156.6870
  35   2.0000      -5.753854      -156.5703
  36   2.0000      -5.753594      -156.5632
  37   2.0000      -4.739865      -128.9783
  38   2.0000      -4.739471      -128.9676
  39   2.0000      -4.738300      -128.9357
  40   2.0000      -4.737222      -128.9064
  41   2.0000      -4.735886      -128.8700
  42   2.0000      -4.735144      -128.8498
  43   2.0000      -1.052512       -28.6403
  44   2.0000      -1.046704       -28.4823
  45   2.0000      -1.012779       -27.5591
  46   2.0000      -1.006766       -27.3955
  47   2.0000      -0.802405       -21.8346
  48   2.0000      -0.760096       -20.6833
  49   2.0000      -0.751719       -20.4553
  50   2.0000      -0.733923       -19.9711
  51   2.0000      -0.732025       -19.9194
  52   2.0000      -0.710330       -19.3291
  53   2.0000      -0.687761       -18.7149
  54   2.0000      -0.670204       -18.2372
  55   2.0000      -0.630936       -17.1686
  56   2.0000      -0.621703       -16.9174
  57   2.0000      -0.612186       -16.6584
  58   2.0000      -0.604669       -16.4539
  59   2.0000      -0.593576       -16.1520
  60   2.0000      -0.529820       -14.4171
  61   2.0000      -0.521340       -14.1864
  62   2.0000      -0.497241       -13.5306
  63   2.0000      -0.496715       -13.5163
  64   2.0000      -0.472073       -12.8458
  65   2.0000      -0.465977       -12.6799
  66   2.0000      -0.460502       -12.5309
  67   2.0000      -0.455549       -12.3961
  68   2.0000      -0.444737       -12.1019
  69   2.0000      -0.428797       -11.6682
  70   2.0000      -0.424873       -11.5614
  71   2.0000      -0.414236       -11.2719
  72   2.0000      -0.411004       -11.1840
  73   2.0000      -0.406830       -11.0704
  74   2.0000      -0.394199       -10.7267
  75   2.0000      -0.390447       -10.6246
  76   2.0000      -0.385740       -10.4965
  77   2.0000      -0.375257       -10.2113
  78   2.0000      -0.373812       -10.1719
  79   2.0000      -0.368760       -10.0345
  80   2.0000      -0.364735        -9.9249
  81   2.0000      -0.363136        -9.8814
  82   2.0000      -0.358894        -9.7660
  83   2.0000      -0.352334        -9.5875
  84   2.0000      -0.348012        -9.4699
  85   2.0000      -0.337412        -9.1815
  86   2.0000      -0.326317        -8.8795
  87   2.0000      -0.316074        -8.6008
  88   2.0000      -0.313451        -8.5294
  89   2.0000      -0.304066        -8.2740
  90   2.0000      -0.296235        -8.0610
  91   2.0000      -0.293473        -7.9858
  92   2.0000      -0.285659        -7.7732
  93   2.0000      -0.282688        -7.6923
  94   2.0000      -0.270537        -7.3617
  95   2.0000      -0.244950        -6.6654
  96   2.0000      -0.229821        -6.2538
  97   2.0000      -0.227262        -6.1841
  98   2.0000      -0.221260        -6.0208
  99   2.0000      -0.214029        -5.8240
 100   2.0000      -0.210934        -5.7398
 101   0.0000      -0.047790        -1.3004
 102   0.0000      -0.024157        -0.6573
 103   0.0000      -0.002777        -0.0756
 104   0.0000       0.004613         0.1255
 105   0.0000       0.007938         0.2160

MULLIKEN ATOMIC CHARGES
-----------------------
   0 C :   -0.451961
   1 C :   -0.137654
   2 O :   -0.303963
   3 P :    0.692299
   4 S :   -0.480793
   5 O :   -0.248899
   6 C :   -0.156339
   7 C :   -0.447765
   8 S :   -0.151818
   9 C :   -0.227231
  10 S :   -0.158292
  11 P :    0.690531
  12 S :   -0.452619
  13 O :   -0.285791
  14 C :   -0.172039
  15 C :   -0.418766
  16 O :   -0.267762
  17 C :   -0.157965
  18 C :   -0.451991
  19 H :    0.145790
  20 H :    0.181285
  21 H :    0.152000
  22 H :    0.150665
  23 H :    0.154693
  24 H :    0.177828
  25 H :    0.148745
  26 H :    0.154383
  27 H :    0.169273
  28 H :    0.146387
  29 H :    0.211917
  30 H :    0.210933
  31 H :    0.154335
  32 H :    0.161896
  33 H :    0.153816
  34 H :    0.163435
  35 H :    0.147712
  36 H :    0.177985
  37 H :    0.160600
  38 H :    0.172793
  39 H :    0.146631
  40 H :    0.145712
Sum of atomic charges:   -0.0000000

LOEWDIN ATOMIC CHARGES
----------------------
   0 C :   -0.401859
   1 C :    0.022636
   2 O :   -0.657400
   3 P :    0.382670
   4 S :   -0.128997
   5 O :   -0.663491
   6 C :    0.013214
   7 C :   -0.398609
   8 S :    0.166478
   9 C :   -0.420236
  10 S :    0.153177
  11 P :    0.383915
  12 S :   -0.098794
  13 O :   -0.651497
  14 C :    0.024347
  15 C :   -0.397483
  16 O :   -0.693491
  17 C :    0.006830
  18 C :   -0.398767
  19 H :    0.158227
  20 H :    0.169125
  21 H :    0.158448
  22 H :    0.179366
  23 H :    0.175747
  24 H :    0.182027
  25 H :    0.177876
  26 H :    0.159414
  27 H :    0.165848
  28 H :    0.159316
  29 H :    0.191068
  30 H :    0.190471
  31 H :    0.181637
  32 H :    0.177710
  33 H :    0.162976
  34 H :    0.164434
  35 H :    0.159453
  36 H :    0.182693
  37 H :    0.180847
  38 H :    0.166136
  39 H :    0.159756
  40 H :    0.154781

  Mayer bond orders larger than 0.100000
B(  0-C ,  1-C ) :   0.9547 B(  0-C , 19-H ) :   0.9646 B(  0-C , 20-H ) :   0.9560
B(  0-C , 21-H ) :   0.9744 B(  1-C ,  2-O ) :   0.7844 B(  1-C , 22-H ) :   0.9629
B(  1-C , 23-H ) :   0.9625 B(  2-O ,  3-P ) :   1.0786 B(  3-P ,  4-S ) :   1.7415
B(  3-P ,  5-O ) :   1.1535 B(  3-P ,  8-S ) :   1.0767 B(  5-O ,  6-C ) :   0.7793
B(  6-C ,  7-C ) :   0.9307 B(  6-C , 24-H ) :   0.9600 B(  6-C , 25-H ) :   0.9623
B(  7-C , 26-H ) :   0.9738 B(  7-C , 27-H ) :   0.9598 B(  7-C , 28-H ) :   0.9641
B(  8-S ,  9-C ) :   0.8878 B(  9-C , 10-S ) :   0.8966 B(  9-C , 29-H ) :   0.9102
B(  9-C , 30-H ) :   0.9115 B( 10-S , 11-P ) :   1.0263 B( 11-P , 12-S ) :   1.8351
B( 11-P , 13-O ) :   1.1356 B( 11-P , 16-O ) :   1.0387 B( 13-O , 14-C ) :   0.7607
B( 14-C , 15-C ) :   0.9581 B( 14-C , 31-H ) :   0.9611 B( 14-C , 32-H ) :   0.9698
B( 15-C , 33-H ) :   0.9511 B( 15-C , 34-H ) :   0.9707 B( 15-C , 35-H ) :   0.9660
B( 16-O , 17-C ) :   0.7680 B( 17-C , 18-C ) :   0.9278 B( 17-C , 36-H ) :   0.9552
B( 17-C , 37-H ) :   0.9647 B( 18-C , 38-H ) :   0.9635 B( 18-C , 39-H ) :   0.9644
B( 18-C , 40-H ) :   0.9764

Dispersion correction           -0.022020737
FINAL SINGLE POINT ENERGY     -2932.460682112518

DIPOLE MOMENT
-------------

Method             : SCF
Type of density    : Electron Density
Multiplicity       :   1
Irrep              :   0
Energy             : -2932.4852133673562093 Eh
Relativity type    :
Basis              : AO
                                X                 Y                 Z
Electronic contribution:     -6.183563974       7.135624284     -17.202047021
Nuclear contribution   :      6.715880424      -7.970041809      18.696006045
                        -----------------------------------------
Total Dipole Moment    :      0.532316451      -0.834417526       1.493959023
                        -----------------------------------------
Magnitude (a.u.)       :      1.792073373
Magnitude (Debye)      :      4.555088515

Rotational constants in cm-1:             0.012036             0.005393             0.005012
Rotational constants in MHz :           360.832645           161.675284           150.265230

                             ****ORCA TERMINATED NORMALLY****
TOTAL RUN TIME: 0 days 0 hours 1 minutes 26 seconds 749 msec
