                         Program Version 6.0.0  -   RELEASE  -
|  1> ! r2scan-3c def2/J RI DEFGRID2 scfconv6 printgap
|  2> %output
|  3>     printlevel normal
|  4> end
|  5> %cpcm
|  6>     smd true
|  7>     smdsolvent "water"
|  8> end
|  9> * xyz 0 1
| 10> C 5.2336667832 -1.250708203 -0.8267524482
| 11> C 3.8630237802 -1.8301341242 -1.1199075416
| 12> O 2.9283363536 -1.5178289918 -0.0678263166
| 13> P 2.0319818772 -0.2077570929 -0.0649280968
| 14> S 2.9469481952 1.528663293 -0.1264818981
| 15> O 1.1455569698 -0.486069578 1.212855995
| 16> C 1.3152667945 0.2417154806 2.4449033278
| 17> C 2.5574634015 -0.2170634055 3.1786678231
| 18> S 0.6814185801 -0.5810743657 -1.6585277386
| 19> C 0.0590647577 1.1148238437 -1.8004620715
| 20> S -0.7592737529 1.7054545715 -0.2978694041
| 21> P -2.3290098871 0.2765971455 -0.2910454708
| 22> S -3.0635082884 -0.2054762185 -2.0334832685
| 23> O -3.4303958384 0.9020042334 0.6570226283
| 24> C -3.2387546834 1.1676673216 2.0693730442
| 25> C -2.8273662286 2.6068662054 2.3050596121
| 26> O -1.6729827189 -0.9081753493 0.5588080904
| 27> C -1.7848850301 -2.2955315512 0.1971840314
| 28> C -3.0990570519 -2.8723378418 0.6825468395
| 29> H 5.9233032833 -1.552184675 -1.6085719694
| 30> H 5.1872372635 -0.1644356058 -0.7951151081
| 31> H 5.5957473933 -1.6136883104 0.1311077564
| 32> H 3.8899586082 -2.9212671415 -1.1417367409
| 33> H 3.4724119911 -1.4578111369 -2.0715985843
| 34> H 1.3682461121 1.3116528794 2.2179900917
| 35> H 0.405442546 0.0278158484 3.007386151
| 36> H 2.5201017285 -1.2898052822 3.347824401
| 37> H 3.4387989024 0.0139164579 2.5813329785
| 38> H 2.6286336356 0.3000534035 4.1302317424
| 39> H -0.6513772975 1.1152740148 -2.6266060942
| 40> H 0.8896002468 1.7958563476 -1.9850915692
| 41> H -4.2145535221 0.959423691 2.5116049157
| 42> H -2.4960443359 0.4700005006 2.4624797415
| 43> H -1.8497478422 2.8047608812 1.8697607812
| 44> H -3.5510109854 3.2789819883 1.8523381749
| 45> H -2.7849496092 2.7927585954 3.3737041177
| 46> H -1.6993799702 -2.3874572867 -0.8902946941
| 47> H -0.924540282 -2.7691982699 0.6734308977
| 48> H -3.9260037643 -2.3512096501 0.2011821476
| 49> H -3.1467463521 -3.9252286872 0.4237522919
| 50> H -3.1892850585 -2.7606853281 1.7597099875
| 51> *
| 52>
| 53>                          ****END OF INPUT****

CARTESIAN COORDINATES (ANGSTROEM)
---------------------------------
  C      5.233667   -1.250708   -0.826752
  C      3.863024   -1.830134   -1.119908
  O      2.928336   -1.517829   -0.067826
  P      2.031982   -0.207757   -0.064928
  S      2.946948    1.528663   -0.126482
  O      1.145557   -0.486070    1.212856
  C      1.315267    0.241715    2.444903
  C      2.557463   -0.217063    3.178668
  S      0.681419   -0.581074   -1.658528
  C      0.059065    1.114824   -1.800462
  S     -0.759274    1.705455   -0.297869
  P     -2.329010    0.276597   -0.291045
  S     -3.063508   -0.205476   -2.033483
  O     -3.430396    0.902004    0.657023
  C     -3.238755    1.167667    2.069373
  C     -2.827366    2.606866    2.305060
  O     -1.672983   -0.908175    0.558808
  C     -1.784885   -2.295532    0.197184
  C     -3.099057   -2.872338    0.682547
  H      5.923303   -1.552185   -1.608572
  H      5.187237   -0.164436   -0.795115
  H      5.595747   -1.613688    0.131108
  H      3.889959   -2.921267   -1.141737
  H      3.472412   -1.457811   -2.071599
  H      1.368246    1.311653    2.217990
  H      0.405443    0.027816    3.007386
  H      2.520102   -1.289805    3.347824
  H      3.438799    0.013916    2.581333
  H      2.628634    0.300053    4.130232
  H     -0.651377    1.115274   -2.626606
  H      0.889600    1.795856   -1.985092
  H     -4.214554    0.959424    2.511605
  H     -2.496044    0.470001    2.462480
  H     -1.849748    2.804761    1.869761
  H     -3.551011    3.278982    1.852338
  H     -2.784950    2.792759    3.373704
  H     -1.699380   -2.387457   -0.890295
  H     -0.924540   -2.769198    0.673431
  H     -3.926004   -2.351210    0.201182
  H     -3.146746   -3.925229    0.423752
  H     -3.189285   -2.760685    1.759710

 Total Charge           Charge          ....    0
 Multiplicity           Mult            ....    1
 Number of Electrons    NEL             ....  202
 Basis Dimension        Dim             ....  539

ORBITAL ENERGIES
----------------

  NO   OCC          E(Eh)            E(eV)
   0   2.0000     -88.578376     -2410.3402
   1   2.0000     -88.577644     -2410.3202
   2   2.0000     -88.529674     -2409.0149
   3   2.0000     -88.528377     -2408.9796
   4   2.0000     -76.920048     -2093.1009
   5   2.0000     -76.919612     -2093.0891
   6   2.0000     -18.996162      -516.9119
   7   2.0000     -18.995642      -516.8977
   8   2.0000     -18.991970      -516.7978
   9   2.0000     -18.988348      -516.6992
  10   2.0000     -10.104280      -274.9514
  11   2.0000     -10.092940      -274.6428
  12   2.0000     -10.091900      -274.6146
  13   2.0000     -10.088975      -274.5350
  14   2.0000     -10.086811      -274.4761
  15   2.0000     -10.021180      -272.6902
  16   2.0000     -10.018064      -272.6054
  17   2.0000     -10.017057      -272.5780
  18   2.0000     -10.016742      -272.5694
  19   2.0000      -7.872705      -214.2272
  20   2.0000      -7.872064      -214.2097
  21   2.0000      -7.824921      -212.9269
  22   2.0000      -7.823502      -212.8883
  23   2.0000      -6.598254      -179.5476
  24   2.0000      -6.598061      -179.5424
  25   2.0000      -5.819547      -158.3579
  26   2.0000      -5.818905      -158.3405
  27   2.0000      -5.816558      -158.2766
  28   2.0000      -5.815942      -158.2598
  29   2.0000      -5.809871      -158.0946
  30   2.0000      -5.809176      -158.0757
  31   2.0000      -5.772578      -157.0798
  32   2.0000      -5.771057      -157.0384
  33   2.0000      -5.765086      -156.8760
  34   2.0000      -5.764927      -156.8717
  35   2.0000      -5.763734      -156.8392
  36   2.0000      -5.763587      -156.8352
  37   2.0000      -4.744081      -129.0930
  38   2.0000      -4.743400      -129.0745
  39   2.0000      -4.743046      -129.0648
  40   2.0000      -4.742774      -129.0574
  41   2.0000      -4.742179      -129.0413
  42   2.0000      -4.741934      -129.0346
  43   2.0000      -1.053699       -28.6726
  44   2.0000      -1.049159       -28.5491
  45   2.0000      -1.013276       -27.5727
  46   2.0000      -1.008869       -27.4527
  47   2.0000      -0.804595       -21.8941
  48   2.0000      -0.756238       -20.5783
  49   2.0000      -0.744367       -20.2553
  50   2.0000      -0.725929       -19.7535
  51   2.0000      -0.722319       -19.6553
  52   2.0000      -0.709174       -19.2976
  53   2.0000      -0.690495       -18.7893
  54   2.0000      -0.675823       -18.3901
  55   2.0000      -0.628317       -17.0974
  56   2.0000      -0.619081       -16.8461
  57   2.0000      -0.604455       -16.4481
  58   2.0000      -0.597332       -16.2542
  59   2.0000      -0.590957       -16.0808
  60   2.0000      -0.525781       -14.3072
  61   2.0000      -0.516306       -14.0494
  62   2.0000      -0.493263       -13.4224
  63   2.0000      -0.492710       -13.4073
  64   2.0000      -0.471511       -12.8305
  65   2.0000      -0.461075       -12.5465
  66   2.0000      -0.455148       -12.3852
  67   2.0000      -0.450125       -12.2485
  68   2.0000      -0.439591       -11.9619
  69   2.0000      -0.426361       -11.6019
  70   2.0000      -0.420069       -11.4307
  71   2.0000      -0.411714       -11.2033
  72   2.0000      -0.406693       -11.0667
  73   2.0000      -0.401031       -10.9126
  74   2.0000      -0.393798       -10.7158
  75   2.0000      -0.386786       -10.5250
  76   2.0000      -0.381937       -10.3930
  77   2.0000      -0.371035       -10.0964
  78   2.0000      -0.364070        -9.9068
  79   2.0000      -0.360061        -9.7978
  80   2.0000      -0.358122        -9.7450
  81   2.0000      -0.353607        -9.6221
  82   2.0000      -0.351434        -9.5630
  83   2.0000      -0.345890        -9.4122
  84   2.0000      -0.344076        -9.3628
  85   2.0000      -0.335090        -9.1183
  86   2.0000      -0.322034        -8.7630
  87   2.0000      -0.308951        -8.4070
  88   2.0000      -0.306652        -8.3444
  89   2.0000      -0.300337        -8.1726
  90   2.0000      -0.295117        -8.0305
  91   2.0000      -0.291784        -7.9398
  92   2.0000      -0.284964        -7.7543
  93   2.0000      -0.282785        -7.6950
  94   2.0000      -0.271706        -7.3935
  95   2.0000      -0.248476        -6.7614
  96   2.0000      -0.237162        -6.4535
  97   2.0000      -0.236162        -6.4263
  98   2.0000      -0.228408        -6.2153
  99   2.0000      -0.221717        -6.0332
 100   2.0000      -0.218897        -5.9565
 101   0.0000      -0.052194        -1.4203
 102   0.0000      -0.030151        -0.8205
 103   0.0000      -0.006151        -0.1674
 104   0.0000       0.000182         0.0049
 105   0.0000       0.008390         0.2283

MULLIKEN ATOMIC CHARGES
-----------------------
   0 C :   -0.491315
   1 C :   -0.128349
   2 O :   -0.333444
   3 P :    0.721660
   4 S :   -0.520020
   5 O :   -0.282657
   6 C :   -0.143687
   7 C :   -0.489319
   8 S :   -0.159870
   9 C :   -0.239435
  10 S :   -0.169427
  11 P :    0.700882
  12 S :   -0.507310
  13 O :   -0.321661
  14 C :   -0.160735
  15 C :   -0.457883
  16 O :   -0.285420
  17 C :   -0.140627
  18 C :   -0.488656
  19 H :    0.169894
  20 H :    0.171028
  21 H :    0.167746
  22 H :    0.177158
  23 H :    0.163860
  24 H :    0.177621
  25 H :    0.179486
  26 H :    0.169241
  27 H :    0.165953
  28 H :    0.172137
  29 H :    0.231706
  30 H :    0.232820
  31 H :    0.178160
  32 H :    0.182025
  33 H :    0.152830
  34 H :    0.173152
  35 H :    0.174593
  36 H :    0.176305
  37 H :    0.179323
  38 H :    0.166268
  39 H :    0.169573
  40 H :    0.166394
Sum of atomic charges:   -0.0000000

LOEWDIN ATOMIC CHARGES
----------------------
   0 C :   -0.406027
   1 C :    0.028659
   2 O :   -0.670152
   3 P :    0.386866
   4 S :   -0.153432
   5 O :   -0.679725
   6 C :    0.019032
   7 C :   -0.402173
   8 S :    0.162984
   9 C :   -0.415770
  10 S :    0.149432
  11 P :    0.384774
  12 S :   -0.139520
  13 O :   -0.672299
  14 C :    0.033030
  15 C :   -0.399451
  16 O :   -0.699675
  17 C :    0.011584
  18 C :   -0.401219
  19 H :    0.167344
  20 H :    0.162972
  21 H :    0.162481
  22 H :    0.190783
  23 H :    0.179893
  24 H :    0.182652
  25 H :    0.190256
  26 H :    0.163547
  27 H :    0.162224
  28 H :    0.168839
  29 H :    0.196580
  30 H :    0.197143
  31 H :    0.192184
  32 H :    0.186688
  33 H :    0.160660
  34 H :    0.165370
  35 H :    0.170717
  36 H :    0.181937
  37 H :    0.188710
  38 H :    0.162160
  39 H :    0.167745
  40 H :    0.162195

  Mayer bond orders larger than 0.100000
B(  0-C ,  1-C ) :   0.9433 B(  0-C , 19-H ) :   0.9594 B(  0-C , 20-H ) :   0.9604
B(  0-C , 21-H ) :   0.9721 B(  1-C ,  2-O ) :   0.7738 B(  1-C , 22-H ) :   0.9530
B(  1-C , 23-H ) :   0.9557 B(  2-O ,  3-P ) :   1.0838 B(  3-P ,  4-S ) :   1.7122
B(  3-P ,  5-O ) :   1.1564 B(  3-P ,  8-S ) :   1.0871 B(  5-O ,  6-C ) :   0.7675
B(  6-C ,  7-C ) :   0.9206 B(  6-C , 24-H ) :   0.9555 B(  6-C , 25-H ) :   0.9512
B(  7-C , 26-H ) :   0.9718 B(  7-C , 27-H ) :   0.9605 B(  7-C , 28-H ) :   0.9583
B(  8-S ,  9-C ) :   0.8808 B(  9-C , 10-S ) :   0.8832 B(  9-C , 29-H ) :   0.9052
B(  9-C , 30-H ) :   0.9055 B( 10-S , 11-P ) :   1.0424 B( 11-P , 12-S ) :   1.8109
B( 11-P , 13-O ) :   1.1424 B( 11-P , 16-O ) :   1.0476 B( 13-O , 14-C ) :   0.7509
B( 14-C , 15-C ) :   0.9468 B( 14-C , 31-H ) :   0.9512 B( 14-C , 32-H ) :   0.9577
B( 15-C , 33-H ) :   0.9509 B( 15-C , 34-H ) :   0.9711 B( 15-C , 35-H ) :   0.9587
B( 16-O , 17-C ) :   0.7544 B( 17-C , 18-C ) :   0.9269 B( 17-C , 36-H ) :   0.9521
B( 17-C , 37-H ) :   0.9542 B( 18-C , 38-H ) :   0.9651 B( 18-C , 39-H ) :   0.9597
B( 18-C , 40-H ) :   0.9713

Dispersion correction           -0.022020737
FINAL SINGLE POINT ENERGY     -2932.470151133119

DIPOLE MOMENT
-------------

Method             : SCF
Type of density    : Electron Density
Multiplicity       :   1
Irrep              :   0
Energy             : -2932.4946823879572548 Eh
Relativity type    :
Basis              : AO
                                X                 Y                 Z
Electronic contribution:     -5.954606018       6.831659991     -16.672062900
Nuclear contribution   :      6.715880424      -7.970041809      18.696006045
                        -----------------------------------------
Total Dipole Moment    :      0.761274406      -1.138381818       2.023943145
                        -----------------------------------------
Magnitude (a.u.)       :      2.443726200
Magnitude (Debye)      :      6.211458367

Rotational constants in cm-1:             0.012036             0.005393             0.005012
Rotational constants in MHz :           360.832645           161.675284           150.265230

                             ****ORCA TERMINATED NORMALLY****
TOTAL RUN TIME: 0 days 0 hours 1 minutes 53 seconds 191 msec
