                         Program Version 6.0.0  -   RELEASE  -
|  1> ! r2scan-3c def2/J RI DEFGRID2 scfconv6 printgap
|  2> %output
|  3>     printlevel normal
|  4> end
|  5> * xyz 0 1
|  6> C 3.1223936585 -1.2552551998 -2.5761877638
|  7> C 1.8997831485 -0.4508562843 -2.1886394933
|  8> O 1.3819332623 -0.8563803015 -0.9100490275
|  9> P 2.1353731254 -0.5384375338 0.4515743777
| 10> S 3.2797760568 1.0581969378 0.4786616805
| 11> O 2.8981793544 -1.9094343424 0.7036315014
| 12> C 3.9666009069 -2.0349126335 1.6595169058
| 13> C 3.4736432101 -1.9091134042 3.0866613631
| 14> S 0.5148875309 -0.6183414367 1.7871779888
| 15> C -0.0280906502 1.111951734 1.6351082458
| 16> S -0.1806208814 1.7205629606 -0.0726927451
| 17> P -1.9167427084 0.696645931 -0.7075550538
| 18> S -2.4287256528 1.1679723678 -2.5383510643
| 19> O -3.0163509954 0.9819498488 0.4114493008
| 20> C -3.9559303067 2.0697847383 0.3237478115
| 21> C -5.2961592652 1.5848053832 0.8407022868
| 22> O -1.5153958165 -0.8000782841 -0.4004008897
| 23> C -2.4601000091 -1.8456331835 -0.0774609677
| 24> C -3.4456724981 -2.0869462071 -1.2005978021
| 25> H 2.8994092136 -2.3181909335 -2.535596358
| 26> H 3.4270780182 -0.9848793713 -3.5822911613
| 27> H 3.9379658597 -1.0380733184 -1.8871602901
| 28> H 1.0669327149 -0.6118618422 -2.8763796175
| 29> H 2.1327627779 0.6192791875 -2.1466423295
| 30> H 4.3801691328 -3.0243938447 1.460161498
| 31> H 4.7152600973 -1.2662045513 1.4424987777
| 32> H 4.2876205918 -2.1350239299 3.7680181589
| 33> H 3.1285080568 -0.8931500566 3.2729699916
| 34> H 2.6506259547 -2.59667277 3.2643057234
| 35> H 0.713352546 1.7619972681 2.0967757605
| 36> H -0.9862278104 1.1806407224 2.1442677636
| 37> H -3.5688915076 2.8925871002 0.9291174098
| 38> H -4.0242699635 2.3923780604 -0.7207439955
| 39> H -6.0011411861 2.4093846611 0.8231589767
| 40> H -5.6737864516 0.7817054289 0.2136093159
| 41> H -5.1945827147 1.2208737491 1.8590737719
| 42> H -1.8230784491 -2.7141385012 0.0980267504
| 43> H -2.9736067626 -1.57047578 0.8458655156
| 44> H -4.106023545 -2.9058177711 -0.9329361412
| 45> H -4.0390971815 -1.1902257449 -1.3761804072
| 46> H -2.9207366553 -2.3322910023 -2.1208487855
| 47> *
| 48>
| 49>                          ****END OF INPUT****

CARTESIAN COORDINATES (ANGSTROEM)
---------------------------------
  C      3.122394   -1.255255   -2.576188
  C      1.899783   -0.450856   -2.188639
  O      1.381933   -0.856380   -0.910049
  P      2.135373   -0.538438    0.451574
  S      3.279776    1.058197    0.478662
  O      2.898179   -1.909434    0.703632
  C      3.966601   -2.034913    1.659517
  C      3.473643   -1.909113    3.086661
  S      0.514888   -0.618341    1.787178
  C     -0.028091    1.111952    1.635108
  S     -0.180621    1.720563   -0.072693
  P     -1.916743    0.696646   -0.707555
  S     -2.428726    1.167972   -2.538351
  O     -3.016351    0.981950    0.411449
  C     -3.955930    2.069785    0.323748
  C     -5.296159    1.584805    0.840702
  O     -1.515396   -0.800078   -0.400401
  C     -2.460100   -1.845633   -0.077461
  C     -3.445672   -2.086946   -1.200598
  H      2.899409   -2.318191   -2.535596
  H      3.427078   -0.984879   -3.582291
  H      3.937966   -1.038073   -1.887160
  H      1.066933   -0.611862   -2.876380
  H      2.132763    0.619279   -2.146642
  H      4.380169   -3.024394    1.460161
  H      4.715260   -1.266205    1.442499
  H      4.287621   -2.135024    3.768018
  H      3.128508   -0.893150    3.272970
  H      2.650626   -2.596673    3.264306
  H      0.713353    1.761997    2.096776
  H     -0.986228    1.180641    2.144268
  H     -3.568892    2.892587    0.929117
  H     -4.024270    2.392378   -0.720744
  H     -6.001141    2.409385    0.823159
  H     -5.673786    0.781705    0.213609
  H     -5.194583    1.220874    1.859074
  H     -1.823078   -2.714139    0.098027
  H     -2.973607   -1.570476    0.845866
  H     -4.106024   -2.905818   -0.932936
  H     -4.039097   -1.190226   -1.376180
  H     -2.920737   -2.332291   -2.120849

 Total Charge           Charge          ....    0
 Multiplicity           Mult            ....    1
 Number of Electrons    NEL             ....  202
 Basis Dimension        Dim             ....  539

ORBITAL ENERGIES
----------------

  NO   OCC          E(Eh)            E(eV)
   0   2.0000     -88.573080     -2410.1960
   1   2.0000     -88.572880     -2410.1906
   2   2.0000     -88.519120     -2408.7277
   3   2.0000     -88.517509     -2408.6839
   4   2.0000     -76.913297     -2092.9172
   5   2.0000     -76.911786     -2092.8761
   6   2.0000     -18.995715      -516.8997
   7   2.0000     -18.991336      -516.7805
   8   2.0000     -18.987176      -516.6673
   9   2.0000     -18.980740      -516.4922
  10   2.0000     -10.110263      -275.1142
  11   2.0000     -10.101256      -274.8692
  12   2.0000     -10.101164      -274.8666
  13   2.0000     -10.097948      -274.7791
  14   2.0000     -10.086853      -274.4772
  15   2.0000     -10.037306      -273.1290
  16   2.0000     -10.029607      -272.9195
  17   2.0000     -10.028882      -272.8998
  18   2.0000     -10.021497      -272.6988
  19   2.0000      -7.867694      -214.0908
  20   2.0000      -7.866976      -214.0713
  21   2.0000      -7.813783      -212.6239
  22   2.0000      -7.812191      -212.5805
  23   2.0000      -6.591307      -179.3586
  24   2.0000      -6.590182      -179.3280
  25   2.0000      -5.814646      -158.2246
  26   2.0000      -5.814347      -158.2164
  27   2.0000      -5.811595      -158.1415
  28   2.0000      -5.810337      -158.1073
  29   2.0000      -5.804583      -157.9507
  30   2.0000      -5.804142      -157.9387
  31   2.0000      -5.761411      -156.7760
  32   2.0000      -5.759804      -156.7322
  33   2.0000      -5.754124      -156.5777
  34   2.0000      -5.753781      -156.5684
  35   2.0000      -5.752484      -156.5330
  36   2.0000      -5.752247      -156.5266
  37   2.0000      -4.737299      -128.9085
  38   2.0000      -4.736132      -128.8767
  39   2.0000      -4.735508      -128.8597
  40   2.0000      -4.735089      -128.8483
  41   2.0000      -4.734763      -128.8395
  42   2.0000      -4.734130      -128.8222
  43   2.0000      -1.051320       -28.6079
  44   2.0000      -1.045621       -28.4528
  45   2.0000      -1.010028       -27.4842
  46   2.0000      -1.005705       -27.3666
  47   2.0000      -0.800195       -21.7744
  48   2.0000      -0.759673       -20.6718
  49   2.0000      -0.746636       -20.3170
  50   2.0000      -0.736511       -20.0415
  51   2.0000      -0.726651       -19.7732
  52   2.0000      -0.709005       -19.2930
  53   2.0000      -0.688241       -18.7280
  54   2.0000      -0.667113       -18.1531
  55   2.0000      -0.629359       -17.1257
  56   2.0000      -0.623095       -16.9553
  57   2.0000      -0.609091       -16.5742
  58   2.0000      -0.600638       -16.3442
  59   2.0000      -0.594027       -16.1643
  60   2.0000      -0.532623       -14.4934
  61   2.0000      -0.514387       -13.9972
  62   2.0000      -0.494731       -13.4623
  63   2.0000      -0.487925       -13.2771
  64   2.0000      -0.475248       -12.9322
  65   2.0000      -0.460372       -12.5274
  66   2.0000      -0.458799       -12.4846
  67   2.0000      -0.454635       -12.3712
  68   2.0000      -0.443606       -12.0711
  69   2.0000      -0.434096       -11.8124
  70   2.0000      -0.427943       -11.6449
  71   2.0000      -0.415583       -11.3086
  72   2.0000      -0.404232       -10.9997
  73   2.0000      -0.402628       -10.9561
  74   2.0000      -0.399477       -10.8703
  75   2.0000      -0.388985       -10.5848
  76   2.0000      -0.384460       -10.4617
  77   2.0000      -0.373634       -10.1671
  78   2.0000      -0.370828       -10.0907
  79   2.0000      -0.365502        -9.9458
  80   2.0000      -0.361764        -9.8441
  81   2.0000      -0.359114        -9.7720
  82   2.0000      -0.354271        -9.6402
  83   2.0000      -0.351323        -9.5600
  84   2.0000      -0.347924        -9.4675
  85   2.0000      -0.338386        -9.2080
  86   2.0000      -0.325643        -8.8612
  87   2.0000      -0.312178        -8.4948
  88   2.0000      -0.308565        -8.3965
  89   2.0000      -0.306912        -8.3515
  90   2.0000      -0.293429        -7.9846
  91   2.0000      -0.290769        -7.9122
  92   2.0000      -0.280553        -7.6342
  93   2.0000      -0.277293        -7.5455
  94   2.0000      -0.273293        -7.4367
  95   2.0000      -0.242585        -6.6011
  96   2.0000      -0.231406        -6.2969
  97   2.0000      -0.218395        -5.9428
  98   2.0000      -0.217594        -5.9210
  99   2.0000      -0.212183        -5.7738
 100   2.0000      -0.208572        -5.6755
 101   0.0000      -0.044476        -1.2102
 102   0.0000      -0.015422        -0.4197
 103   0.0000      -0.005089        -0.1385
 104   0.0000       0.004610         0.1255
 105   0.0000       0.007083         0.1927

MULLIKEN ATOMIC CHARGES
-----------------------
   0 C :   -0.449421
   1 C :   -0.152468
   2 O :   -0.273194
   3 P :    0.683021
   4 S :   -0.473865
   5 O :   -0.304438
   6 C :   -0.149887
   7 C :   -0.457666
   8 S :   -0.107924
   9 C :   -0.255333
  10 S :   -0.126155
  11 P :    0.680146
  12 S :   -0.459496
  13 O :   -0.307498
  14 C :   -0.140956
  15 C :   -0.449321
  16 O :   -0.242995
  17 C :   -0.135325
  18 C :   -0.444932
  19 H :    0.153986
  20 H :    0.147169
  21 H :    0.164546
  22 H :    0.164828
  23 H :    0.176666
  24 H :    0.148344
  25 H :    0.173889
  26 H :    0.148068
  27 H :    0.178290
  28 H :    0.154576
  29 H :    0.206565
  30 H :    0.185994
  31 H :    0.148287
  32 H :    0.176695
  33 H :    0.149056
  34 H :    0.155710
  35 H :    0.151650
  36 H :    0.157749
  37 H :    0.153930
  38 H :    0.146247
  39 H :    0.161792
  40 H :    0.163672
Sum of atomic charges:    0.0000000

LOEWDIN ATOMIC CHARGES
----------------------
   0 C :   -0.399494
   1 C :    0.017907
   2 O :   -0.674071
   3 P :    0.372511
   4 S :   -0.126264
   5 O :   -0.660029
   6 C :    0.018988
   7 C :   -0.407998
   8 S :    0.186468
   9 C :   -0.409553
  10 S :    0.193276
  11 P :    0.367154
  12 S :   -0.118402
  13 O :   -0.689066
  14 C :    0.021620
  15 C :   -0.388379
  16 O :   -0.677155
  17 C :    0.028133
  18 C :   -0.400149
  19 H :    0.159601
  20 H :    0.159298
  21 H :    0.163074
  22 H :    0.184859
  23 H :    0.182111
  24 H :    0.179361
  25 H :    0.179908
  26 H :    0.159102
  27 H :    0.165446
  28 H :    0.159650
  29 H :    0.189005
  30 H :    0.184202
  31 H :    0.171111
  32 H :    0.184813
  33 H :    0.160988
  34 H :    0.159252
  35 H :    0.157822
  36 H :    0.183970
  37 H :    0.174366
  38 H :    0.157783
  39 H :    0.163821
  40 H :    0.164959

  Mayer bond orders larger than 0.100000
B(  0-C ,  1-C ) :   0.9219 B(  0-C , 19-H ) :   0.9737 B(  0-C , 20-H ) :   0.9631
B(  0-C , 21-H ) :   0.9619 B(  1-C ,  2-O ) :   0.7922 B(  1-C , 22-H ) :   0.9583
B(  1-C , 23-H ) :   0.9626 B(  2-O ,  3-P ) :   1.1557 B(  3-P ,  4-S ) :   1.7482
B(  3-P ,  5-O ) :   1.0677 B(  3-P ,  8-S ) :   1.1006 B(  5-O ,  6-C ) :   0.8135
B(  6-C ,  7-C ) :   0.9196 B(  6-C , 24-H ) :   0.9581 B(  6-C , 25-H ) :   0.9687
B(  7-C , 26-H ) :   0.9588 B(  7-C , 27-H ) :   0.9639 B(  7-C , 28-H ) :   0.9684
B(  8-S ,  9-C ) :   0.9137 B(  9-C , 10-S ) :   0.9038 B(  9-C , 29-H ) :   0.9184
B(  9-C , 30-H ) :   0.9201 B( 10-S , 11-P ) :   1.0374 B( 11-P , 12-S ) :   1.8137
B( 11-P , 13-O ) :   1.0315 B( 11-P , 16-O ) :   1.1364 B( 13-O , 14-C ) :   0.7694
B( 14-C , 15-C ) :   0.9530 B( 14-C , 31-H ) :   0.9504 B( 14-C , 32-H ) :   0.9503
B( 15-C , 33-H ) :   0.9646 B( 15-C , 34-H ) :   0.9710 B( 15-C , 35-H ) :   0.9731
B( 16-O , 17-C ) :   0.7766 B( 17-C , 18-C ) :   0.9376 B( 17-C , 36-H ) :   0.9569
B( 17-C , 37-H ) :   0.9695 B( 18-C , 38-H ) :   0.9649 B( 18-C , 39-H ) :   0.9573
B( 18-C , 40-H ) :   0.9673

Dispersion correction           -0.021704984
FINAL SINGLE POINT ENERGY     -2932.457685163625

DIPOLE MOMENT
-------------

Method             : SCF
Type of density    : Electron Density
Multiplicity       :   1
Irrep              :   0
Energy             : -2932.4823355681937755 Eh
Relativity type    :
Basis              : AO
                                X                 Y                 Z
Electronic contribution:      6.939716321      10.780385201      -2.771161655
Nuclear contribution   :     -7.712263657     -11.836648381       4.025161157
                        -----------------------------------------
Total Dipole Moment    :     -0.772547336      -1.056263179       1.253999502
                        -----------------------------------------
Magnitude (a.u.)       :      1.812466839
Magnitude (Debye)      :      4.606924586

Rotational constants in cm-1:             0.013314             0.004874             0.004632
Rotational constants in MHz :           399.133201           146.120042           138.861404

                             ****ORCA TERMINATED NORMALLY****
TOTAL RUN TIME: 0 days 0 hours 1 minutes 24 seconds 880 msec
