                         Program Version 6.0.0  -   RELEASE  -
|  1> ! r2scan-3c def2/J RI DEFGRID2 scfconv6 printgap
|  2> %output
|  3>     printlevel normal
|  4> end
|  5> %cpcm
|  6>     smd true
|  7>     smdsolvent "water"
|  8> end
|  9> * xyz 0 1
| 10> C 3.1223936585 -1.2552551998 -2.5761877638
| 11> C 1.8997831485 -0.4508562843 -2.1886394933
| 12> O 1.3819332623 -0.8563803015 -0.9100490275
| 13> P 2.1353731254 -0.5384375338 0.4515743777
| 14> S 3.2797760568 1.0581969378 0.4786616805
| 15> O 2.8981793544 -1.9094343424 0.7036315014
| 16> C 3.9666009069 -2.0349126335 1.6595169058
| 17> C 3.4736432101 -1.9091134042 3.0866613631
| 18> S 0.5148875309 -0.6183414367 1.7871779888
| 19> C -0.0280906502 1.111951734 1.6351082458
| 20> S -0.1806208814 1.7205629606 -0.0726927451
| 21> P -1.9167427084 0.696645931 -0.7075550538
| 22> S -2.4287256528 1.1679723678 -2.5383510643
| 23> O -3.0163509954 0.9819498488 0.4114493008
| 24> C -3.9559303067 2.0697847383 0.3237478115
| 25> C -5.2961592652 1.5848053832 0.8407022868
| 26> O -1.5153958165 -0.8000782841 -0.4004008897
| 27> C -2.4601000091 -1.8456331835 -0.0774609677
| 28> C -3.4456724981 -2.0869462071 -1.2005978021
| 29> H 2.8994092136 -2.3181909335 -2.535596358
| 30> H 3.4270780182 -0.9848793713 -3.5822911613
| 31> H 3.9379658597 -1.0380733184 -1.8871602901
| 32> H 1.0669327149 -0.6118618422 -2.8763796175
| 33> H 2.1327627779 0.6192791875 -2.1466423295
| 34> H 4.3801691328 -3.0243938447 1.460161498
| 35> H 4.7152600973 -1.2662045513 1.4424987777
| 36> H 4.2876205918 -2.1350239299 3.7680181589
| 37> H 3.1285080568 -0.8931500566 3.2729699916
| 38> H 2.6506259547 -2.59667277 3.2643057234
| 39> H 0.713352546 1.7619972681 2.0967757605
| 40> H -0.9862278104 1.1806407224 2.1442677636
| 41> H -3.5688915076 2.8925871002 0.9291174098
| 42> H -4.0242699635 2.3923780604 -0.7207439955
| 43> H -6.0011411861 2.4093846611 0.8231589767
| 44> H -5.6737864516 0.7817054289 0.2136093159
| 45> H -5.1945827147 1.2208737491 1.8590737719
| 46> H -1.8230784491 -2.7141385012 0.0980267504
| 47> H -2.9736067626 -1.57047578 0.8458655156
| 48> H -4.106023545 -2.9058177711 -0.9329361412
| 49> H -4.0390971815 -1.1902257449 -1.3761804072
| 50> H -2.9207366553 -2.3322910023 -2.1208487855
| 51> *
| 52>
| 53>                          ****END OF INPUT****

CARTESIAN COORDINATES (ANGSTROEM)
---------------------------------
  C      3.122394   -1.255255   -2.576188
  C      1.899783   -0.450856   -2.188639
  O      1.381933   -0.856380   -0.910049
  P      2.135373   -0.538438    0.451574
  S      3.279776    1.058197    0.478662
  O      2.898179   -1.909434    0.703632
  C      3.966601   -2.034913    1.659517
  C      3.473643   -1.909113    3.086661
  S      0.514888   -0.618341    1.787178
  C     -0.028091    1.111952    1.635108
  S     -0.180621    1.720563   -0.072693
  P     -1.916743    0.696646   -0.707555
  S     -2.428726    1.167972   -2.538351
  O     -3.016351    0.981950    0.411449
  C     -3.955930    2.069785    0.323748
  C     -5.296159    1.584805    0.840702
  O     -1.515396   -0.800078   -0.400401
  C     -2.460100   -1.845633   -0.077461
  C     -3.445672   -2.086946   -1.200598
  H      2.899409   -2.318191   -2.535596
  H      3.427078   -0.984879   -3.582291
  H      3.937966   -1.038073   -1.887160
  H      1.066933   -0.611862   -2.876380
  H      2.132763    0.619279   -2.146642
  H      4.380169   -3.024394    1.460161
  H      4.715260   -1.266205    1.442499
  H      4.287621   -2.135024    3.768018
  H      3.128508   -0.893150    3.272970
  H      2.650626   -2.596673    3.264306
  H      0.713353    1.761997    2.096776
  H     -0.986228    1.180641    2.144268
  H     -3.568892    2.892587    0.929117
  H     -4.024270    2.392378   -0.720744
  H     -6.001141    2.409385    0.823159
  H     -5.673786    0.781705    0.213609
  H     -5.194583    1.220874    1.859074
  H     -1.823078   -2.714139    0.098027
  H     -2.973607   -1.570476    0.845866
  H     -4.106024   -2.905818   -0.932936
  H     -4.039097   -1.190226   -1.376180
  H     -2.920737   -2.332291   -2.120849

 Total Charge           Charge          ....    0
 Multiplicity           Mult            ....    1
 Number of Electrons    NEL             ....  202
 Basis Dimension        Dim             ....  539

ORBITAL ENERGIES
----------------

  NO   OCC          E(Eh)            E(eV)
   0   2.0000     -88.577158     -2410.3070
   1   2.0000     -88.575241     -2410.2548
   2   2.0000     -88.527031     -2408.9430
   3   2.0000     -88.526785     -2408.9363
   4   2.0000     -76.918351     -2093.0547
   5   2.0000     -76.917924     -2093.0431
   6   2.0000     -18.994785      -516.8744
   7   2.0000     -18.993154      -516.8300
   8   2.0000     -18.989521      -516.7311
   9   2.0000     -18.988709      -516.7091
  10   2.0000     -10.105942      -274.9967
  11   2.0000     -10.090511      -274.5768
  12   2.0000     -10.089287      -274.5435
  13   2.0000     -10.088223      -274.5145
  14   2.0000     -10.087295      -274.4892
  15   2.0000     -10.018743      -272.6239
  16   2.0000     -10.018584      -272.6195
  17   2.0000     -10.018338      -272.6128
  18   2.0000     -10.017786      -272.5978
  19   2.0000      -7.871214      -214.1866
  20   2.0000      -7.869937      -214.1519
  21   2.0000      -7.821993      -212.8473
  22   2.0000      -7.821886      -212.8443
  23   2.0000      -6.596404      -179.4973
  24   2.0000      -6.596368      -179.4963
  25   2.0000      -5.818499      -158.3294
  26   2.0000      -5.816897      -158.2858
  27   2.0000      -5.814542      -158.2217
  28   2.0000      -5.813841      -158.2027
  29   2.0000      -5.808495      -158.0572
  30   2.0000      -5.806844      -158.0123
  31   2.0000      -5.769558      -156.9977
  32   2.0000      -5.769378      -156.9927
  33   2.0000      -5.762308      -156.8004
  34   2.0000      -5.762166      -156.7965
  35   2.0000      -5.762023      -156.7926
  36   2.0000      -5.761996      -156.7919
  37   2.0000      -4.742234      -129.0427
  38   2.0000      -4.741722      -129.0288
  39   2.0000      -4.741336      -129.0183
  40   2.0000      -4.741200      -129.0146
  41   2.0000      -4.740352      -128.9915
  42   2.0000      -4.739991      -128.9817
  43   2.0000      -1.051320       -28.6079
  44   2.0000      -1.049976       -28.5713
  45   2.0000      -1.011355       -27.5204
  46   2.0000      -1.008560       -27.4443
  47   2.0000      -0.800298       -21.7772
  48   2.0000      -0.756096       -20.5744
  49   2.0000      -0.741748       -20.1840
  50   2.0000      -0.724744       -19.7213
  51   2.0000      -0.722203       -19.6521
  52   2.0000      -0.708213       -19.2715
  53   2.0000      -0.692097       -18.8329
  54   2.0000      -0.673267       -18.3205
  55   2.0000      -0.629589       -17.1320
  56   2.0000      -0.618014       -16.8170
  57   2.0000      -0.598853       -16.2956
  58   2.0000      -0.597803       -16.2670
  59   2.0000      -0.592326       -16.1180
  60   2.0000      -0.526382       -14.3236
  61   2.0000      -0.513458       -13.9719
  62   2.0000      -0.489581       -13.3222
  63   2.0000      -0.487314       -13.2605
  64   2.0000      -0.472790       -12.8653
  65   2.0000      -0.457725       -12.4553
  66   2.0000      -0.453084       -12.3290
  67   2.0000      -0.450925       -12.2703
  68   2.0000      -0.438795       -11.9402
  69   2.0000      -0.432047       -11.7566
  70   2.0000      -0.424053       -11.5391
  71   2.0000      -0.409094       -11.1320
  72   2.0000      -0.405598       -11.0369
  73   2.0000      -0.403551       -10.9812
  74   2.0000      -0.392868       -10.6905
  75   2.0000      -0.385064       -10.4781
  76   2.0000      -0.376133       -10.2351
  77   2.0000      -0.368587       -10.0297
  78   2.0000      -0.363537        -9.8923
  79   2.0000      -0.360412        -9.8073
  80   2.0000      -0.353650        -9.6233
  81   2.0000      -0.351821        -9.5735
  82   2.0000      -0.348313        -9.4781
  83   2.0000      -0.346869        -9.4388
  84   2.0000      -0.342523        -9.3205
  85   2.0000      -0.335421        -9.1273
  86   2.0000      -0.322938        -8.7876
  87   2.0000      -0.308693        -8.4000
  88   2.0000      -0.304260        -8.2793
  89   2.0000      -0.302489        -8.2312
  90   2.0000      -0.294205        -8.0057
  91   2.0000      -0.289332        -7.8731
  92   2.0000      -0.281896        -7.6708
  93   2.0000      -0.278750        -7.5852
  94   2.0000      -0.274277        -7.4634
  95   2.0000      -0.247985        -6.7480
  96   2.0000      -0.237143        -6.4530
  97   2.0000      -0.227973        -6.2035
  98   2.0000      -0.227695        -6.1959
  99   2.0000      -0.218086        -5.9344
 100   2.0000      -0.216893        -5.9020
 101   0.0000      -0.047624        -1.2959
 102   0.0000      -0.021402        -0.5824
 103   0.0000      -0.009488        -0.2582
 104   0.0000       0.000333         0.0091
 105   0.0000       0.004611         0.1255

MULLIKEN ATOMIC CHARGES
-----------------------
   0 C :   -0.491544
   1 C :   -0.151660
   2 O :   -0.300673
   3 P :    0.716947
   4 S :   -0.525360
   5 O :   -0.332835
   6 C :   -0.150320
   7 C :   -0.491930
   8 S :   -0.104727
   9 C :   -0.261042
  10 S :   -0.164364
  11 P :    0.716093
  12 S :   -0.528550
  13 O :   -0.315106
  14 C :   -0.127508
  15 C :   -0.491173
  16 O :   -0.272192
  17 C :   -0.129154
  18 C :   -0.493229
  19 H :    0.169240
  20 H :    0.171103
  21 H :    0.167627
  22 H :    0.178261
  23 H :    0.179418
  24 H :    0.175005
  25 H :    0.178927
  26 H :    0.172791
  27 H :    0.174314
  28 H :    0.169203
  29 H :    0.231656
  30 H :    0.226368
  31 H :    0.171221
  32 H :    0.170204
  33 H :    0.168695
  34 H :    0.166197
  35 H :    0.166648
  36 H :    0.176213
  37 H :    0.174922
  38 H :    0.172326
  39 H :    0.167053
  40 H :    0.170934
Sum of atomic charges:    0.0000000

LOEWDIN ATOMIC CHARGES
----------------------
   0 C :   -0.402521
   1 C :    0.018216
   2 O :   -0.693768
   3 P :    0.376632
   4 S :   -0.157679
   5 O :   -0.673941
   6 C :    0.024540
   7 C :   -0.410466
   8 S :    0.192966
   9 C :   -0.396793
  10 S :    0.172769
  11 P :    0.372585
  12 S :   -0.166346
  13 O :   -0.685279
  14 C :    0.027634
  15 C :   -0.391953
  16 O :   -0.692392
  17 C :    0.034445
  18 C :   -0.403771
  19 H :    0.163792
  20 H :    0.168143
  21 H :    0.162274
  22 H :    0.189806
  23 H :    0.182134
  24 H :    0.190671
  25 H :    0.181533
  26 H :    0.168267
  27 H :    0.161676
  28 H :    0.163551
  29 H :    0.198000
  30 H :    0.200228
  31 H :    0.180472
  32 H :    0.182527
  33 H :    0.168301
  34 H :    0.161615
  35 H :    0.162768
  36 H :    0.191367
  37 H :    0.183186
  38 H :    0.168292
  39 H :    0.162994
  40 H :    0.163524

  Mayer bond orders larger than 0.100000
B(  0-C ,  1-C ) :   0.9169 B(  0-C , 19-H ) :   0.9719 B(  0-C , 20-H ) :   0.9571
B(  0-C , 21-H ) :   0.9606 B(  1-C ,  2-O ) :   0.7788 B(  1-C , 22-H ) :   0.9510
B(  1-C , 23-H ) :   0.9584 B(  2-O ,  3-P ) :   1.1521 B(  3-P ,  4-S ) :   1.6988
B(  3-P ,  5-O ) :   1.0740 B(  3-P ,  8-S ) :   1.1254 B(  5-O ,  6-C ) :   0.8012
B(  6-C ,  7-C ) :   0.9079 B(  6-C , 24-H ) :   0.9483 B(  6-C , 25-H ) :   0.9667
B(  7-C , 26-H ) :   0.9534 B(  7-C , 27-H ) :   0.9645 B(  7-C , 28-H ) :   0.9652
B(  8-S ,  9-C ) :   0.9094 B(  9-C , 10-S ) :   0.8984 B(  9-C , 29-H ) :   0.9089
B(  9-C , 30-H ) :   0.9076 B( 10-S , 11-P ) :   1.0481 B( 11-P , 12-S ) :   1.7559
B( 11-P , 13-O ) :   1.0547 B( 11-P , 16-O ) :   1.1494 B( 13-O , 14-C ) :   0.7587
B( 14-C , 15-C ) :   0.9508 B( 14-C , 31-H ) :   0.9415 B( 14-C , 32-H ) :   0.9503
B( 15-C , 33-H ) :   0.9594 B( 15-C , 34-H ) :   0.9682 B( 15-C , 35-H ) :   0.9695
B( 16-O , 17-C ) :   0.7656 B( 17-C , 18-C ) :   0.9194 B( 17-C , 36-H ) :   0.9499
B( 17-C , 37-H ) :   0.9609 B( 18-C , 38-H ) :   0.9576 B( 18-C , 39-H ) :   0.9573
B( 18-C , 40-H ) :   0.9697

Dispersion correction           -0.021704984
FINAL SINGLE POINT ENERGY     -2932.468582143159

DIPOLE MOMENT
-------------

Method             : SCF
Type of density    : Electron Density
Multiplicity       :   1
Irrep              :   0
Energy             : -2932.4932325477284394 Eh
Relativity type    :
Basis              : AO
                                X                 Y                 Z
Electronic contribution:      6.645811309      10.485952035      -2.028474671
Nuclear contribution   :     -7.712263657     -11.836648381       4.025161157
                        -----------------------------------------
Total Dipole Moment    :     -1.066452348      -1.350696346       1.996686486
                        -----------------------------------------
Magnitude (a.u.)       :      2.635992821
Magnitude (Debye)      :      6.700161280

Rotational constants in cm-1:             0.013314             0.004874             0.004632
Rotational constants in MHz :           399.133201           146.120042           138.861404

                             ****ORCA TERMINATED NORMALLY****
TOTAL RUN TIME: 0 days 0 hours 1 minutes 56 seconds 984 msec
