                         Program Version 6.0.0  -   RELEASE  -
|  1> ! r2scan-3c def2/J RI DEFGRID2 scfconv6 printgap
|  2> %output
|  3>     printlevel normal
|  4> end
|  5> * xyz 0 1
|  6> C 3.9527664718 -1.1823535243 -2.7096207014
|  7> C 4.2587663476 -1.5629208999 -1.2754356171
|  8> O 3.0638418881 -1.701535486 -0.4872708326
|  9> P 2.1524204114 -0.4576450382 -0.0891670268
| 10> S 3.1711386953 1.1574842139 0.3708701312
| 11> O 1.2640544977 -1.1051547847 1.051859399
| 12> C 1.6824680268 -1.1418513441 2.4343207875
| 13> C 0.9393381097 -0.0906251284 3.2348777221
| 14> S 0.7211772878 -0.3316783514 -1.6276026501
| 15> C 0.1786287336 1.369479169 -1.300568022
| 16> S -0.4743561477 1.6049345998 0.3703496792
| 17> P -2.1916119484 0.3913185564 0.1831883429
| 18> S -3.0502259397 0.2974727289 -1.5810605178
| 19> O -3.0973254887 0.8732820446 1.4000891809
| 20> C -3.4844906803 2.2310165439 1.682786014
| 21> C -4.0758577655 2.9431022391 0.4839949294
| 22> O -1.7173669539 -1.0058790168 0.7605759548
| 23> C -2.2834582071 -2.273616522 0.3649032088
| 24> C -1.3663323432 -2.9992666318 -0.5996729643
| 25> H 4.8683346049 -1.2091494414 -3.2916885776
| 26> H 3.2306766283 -1.8729075907 -3.13807572
| 27> H 3.5394611128 -0.1753336874 -2.7477349685
| 28> H 4.8969101608 -0.8081486473 -0.8045203677
| 29> H 4.7314671879 -2.5437396301 -1.209640102
| 30> H 1.4401753924 -2.1495521984 2.7759159085
| 31> H 2.7636680535 -0.9849753388 2.4897125257
| 32> H 1.2252369043 0.9059303278 2.9040595373
| 33> H -0.1327576238 -0.2094829998 3.0953982783
| 34> H 1.1821778289 -0.2011558395 4.286775982
| 35> H -0.5970164068 1.5854283389 -2.0351230121
| 36> H 1.0223365982 2.0516224228 -1.394960371
| 37> H -4.2172065141 2.1255524227 2.4850091402
| 38> H -2.6039907944 2.7634743409 2.0532039853
| 39> H -4.9028741016 2.3702466932 0.0709662821
| 40> H -4.4331860823 3.9216320604 0.7883390472
| 41> H -3.3209432298 3.0669330394 -0.2911725423
| 42> H -2.3996973506 -2.8272669085 1.2980672282
| 43> H -3.2646948998 -2.1044049075 -0.0878378351
| 44> H -0.3593047055 -3.0487613173 -0.1924252999
| 45> H -1.7414499935 -4.0049928613 -0.7596444154
| 46> H -1.3310920309 -2.4760216836 -1.5529632692
| 47> *
| 48>
| 49>                          ****END OF INPUT****

CARTESIAN COORDINATES (ANGSTROEM)
---------------------------------
  C      3.952766   -1.182354   -2.709621
  C      4.258766   -1.562921   -1.275436
  O      3.063842   -1.701535   -0.487271
  P      2.152420   -0.457645   -0.089167
  S      3.171139    1.157484    0.370870
  O      1.264054   -1.105155    1.051859
  C      1.682468   -1.141851    2.434321
  C      0.939338   -0.090625    3.234878
  S      0.721177   -0.331678   -1.627603
  C      0.178629    1.369479   -1.300568
  S     -0.474356    1.604935    0.370350
  P     -2.191612    0.391319    0.183188
  S     -3.050226    0.297473   -1.581061
  O     -3.097325    0.873282    1.400089
  C     -3.484491    2.231017    1.682786
  C     -4.075858    2.943102    0.483995
  O     -1.717367   -1.005879    0.760576
  C     -2.283458   -2.273617    0.364903
  C     -1.366332   -2.999267   -0.599673
  H      4.868335   -1.209149   -3.291689
  H      3.230677   -1.872908   -3.138076
  H      3.539461   -0.175334   -2.747735
  H      4.896910   -0.808149   -0.804520
  H      4.731467   -2.543740   -1.209640
  H      1.440175   -2.149552    2.775916
  H      2.763668   -0.984975    2.489713
  H      1.225237    0.905930    2.904060
  H     -0.132758   -0.209483    3.095398
  H      1.182178   -0.201156    4.286776
  H     -0.597016    1.585428   -2.035123
  H      1.022337    2.051622   -1.394960
  H     -4.217207    2.125552    2.485009
  H     -2.603991    2.763474    2.053204
  H     -4.902874    2.370247    0.070966
  H     -4.433186    3.921632    0.788339
  H     -3.320943    3.066933   -0.291173
  H     -2.399697   -2.827267    1.298067
  H     -3.264695   -2.104405   -0.087838
  H     -0.359305   -3.048761   -0.192425
  H     -1.741450   -4.004993   -0.759644
  H     -1.331092   -2.476022   -1.552963

 Total Charge           Charge          ....    0
 Multiplicity           Mult            ....    1
 Number of Electrons    NEL             ....  202
 Basis Dimension        Dim             ....  539

ORBITAL ENERGIES
----------------

  NO   OCC          E(Eh)            E(eV)
   0   2.0000     -88.577672     -2410.3210
   1   2.0000     -88.576421     -2410.2869
   2   2.0000     -88.521980     -2408.8055
   3   2.0000     -88.517563     -2408.6853
   4   2.0000     -76.914015     -2092.9368
   5   2.0000     -76.913062     -2092.9108
   6   2.0000     -18.992073      -516.8006
   7   2.0000     -18.989317      -516.7256
   8   2.0000     -18.985199      -516.6135
   9   2.0000     -18.982303      -516.5347
  10   2.0000     -10.108739      -275.0728
  11   2.0000     -10.102057      -274.8910
  12   2.0000     -10.097705      -274.7725
  13   2.0000     -10.096579      -274.7419
  14   2.0000     -10.092534      -274.6318
  15   2.0000     -10.028703      -272.8949
  16   2.0000     -10.026440      -272.8333
  17   2.0000     -10.022009      -272.7127
  18   2.0000     -10.018199      -272.6091
  19   2.0000      -7.872122      -214.2113
  20   2.0000      -7.870943      -214.1792
  21   2.0000      -7.816735      -212.7042
  22   2.0000      -7.812429      -212.5870
  23   2.0000      -6.592493      -179.3909
  24   2.0000      -6.591166      -179.3548
  25   2.0000      -5.818986      -158.3427
  26   2.0000      -5.817866      -158.3122
  27   2.0000      -5.815886      -158.2583
  28   2.0000      -5.814872      -158.2307
  29   2.0000      -5.809299      -158.0791
  30   2.0000      -5.807884      -158.0405
  31   2.0000      -5.764370      -156.8565
  32   2.0000      -5.760123      -156.7409
  33   2.0000      -5.757125      -156.6593
  34   2.0000      -5.756654      -156.6465
  35   2.0000      -5.752828      -156.5424
  36   2.0000      -5.752268      -156.5272
  37   2.0000      -4.737942      -128.9260
  38   2.0000      -4.737342      -128.9096
  39   2.0000      -4.736683      -128.8917
  40   2.0000      -4.736365      -128.8830
  41   2.0000      -4.736207      -128.8787
  42   2.0000      -4.734827      -128.8412
  43   2.0000      -1.047933       -28.5157
  44   2.0000      -1.044847       -28.4317
  45   2.0000      -1.007796       -27.4235
  46   2.0000      -1.004211       -27.3260
  47   2.0000      -0.804749       -21.8983
  48   2.0000      -0.757212       -20.6048
  49   2.0000      -0.747351       -20.3364
  50   2.0000      -0.728865       -19.8334
  51   2.0000      -0.726136       -19.7592
  52   2.0000      -0.709938       -19.3184
  53   2.0000      -0.685904       -18.6644
  54   2.0000      -0.670991       -18.2586
  55   2.0000      -0.631234       -17.1767
  56   2.0000      -0.620966       -16.8973
  57   2.0000      -0.607645       -16.5349
  58   2.0000      -0.602953       -16.4072
  59   2.0000      -0.587921       -15.9981
  60   2.0000      -0.525422       -14.2974
  61   2.0000      -0.521478       -14.1902
  62   2.0000      -0.489255       -13.3133
  63   2.0000      -0.484885       -13.1944
  64   2.0000      -0.476885       -12.9767
  65   2.0000      -0.457510       -12.4495
  66   2.0000      -0.456089       -12.4108
  67   2.0000      -0.450529       -12.2595
  68   2.0000      -0.446083       -12.1385
  69   2.0000      -0.434903       -11.8343
  70   2.0000      -0.428595       -11.6627
  71   2.0000      -0.413304       -11.2466
  72   2.0000      -0.409513       -11.1434
  73   2.0000      -0.398464       -10.8427
  74   2.0000      -0.395494       -10.7619
  75   2.0000      -0.387885       -10.5549
  76   2.0000      -0.383400       -10.4328
  77   2.0000      -0.369754       -10.0615
  78   2.0000      -0.366301        -9.9676
  79   2.0000      -0.362228        -9.8567
  80   2.0000      -0.359295        -9.7769
  81   2.0000      -0.355811        -9.6821
  82   2.0000      -0.353257        -9.6126
  83   2.0000      -0.350821        -9.5463
  84   2.0000      -0.350613        -9.5407
  85   2.0000      -0.330125        -8.9832
  86   2.0000      -0.314378        -8.5547
  87   2.0000      -0.311787        -8.4842
  88   2.0000      -0.310094        -8.4381
  89   2.0000      -0.304264        -8.2795
  90   2.0000      -0.293846        -7.9960
  91   2.0000      -0.292678        -7.9642
  92   2.0000      -0.284813        -7.7502
  93   2.0000      -0.278997        -7.5919
  94   2.0000      -0.271044        -7.3755
  95   2.0000      -0.243851        -6.6355
  96   2.0000      -0.231186        -6.2909
  97   2.0000      -0.226699        -6.1688
  98   2.0000      -0.219249        -5.9661
  99   2.0000      -0.212454        -5.7812
 100   2.0000      -0.211167        -5.7461
 101   0.0000      -0.049556        -1.3485
 102   0.0000      -0.027429        -0.7464
 103   0.0000      -0.002961        -0.0806
 104   0.0000      -0.001198        -0.0326
 105   0.0000       0.008548         0.2326

MULLIKEN ATOMIC CHARGES
-----------------------
   0 C :   -0.447312
   1 C :   -0.155146
   2 O :   -0.296668
   3 P :    0.671575
   4 S :   -0.476658
   5 O :   -0.256448
   6 C :   -0.121614
   7 C :   -0.477411
   8 S :   -0.102185
   9 C :   -0.256413
  10 S :   -0.121558
  11 P :    0.654137
  12 S :   -0.467566
  13 O :   -0.282081
  14 C :   -0.157366
  15 C :   -0.427237
  16 O :   -0.255654
  17 C :   -0.126483
  18 C :   -0.472265
  19 H :    0.148108
  20 H :    0.155805
  21 H :    0.173536
  22 H :    0.173236
  23 H :    0.147759
  24 H :    0.147741
  25 H :    0.154974
  26 H :    0.177305
  27 H :    0.166611
  28 H :    0.141450
  29 H :    0.208245
  30 H :    0.210583
  31 H :    0.149260
  32 H :    0.152600
  33 H :    0.166385
  34 H :    0.146511
  35 H :    0.166213
  36 H :    0.145742
  37 H :    0.162602
  38 H :    0.163826
  39 H :    0.140112
  40 H :    0.175747
Sum of atomic charges:   -0.0000000

LOEWDIN ATOMIC CHARGES
----------------------
   0 C :   -0.406684
   1 C :    0.018329
   2 O :   -0.661272
   3 P :    0.376101
   4 S :   -0.128938
   5 O :   -0.673683
   6 C :    0.027306
   7 C :   -0.403085
   8 S :    0.184177
   9 C :   -0.417990
  10 S :    0.177067
  11 P :    0.382941
  12 S :   -0.130033
  13 O :   -0.659172
  14 C :    0.022706
  15 C :   -0.408191
  16 O :   -0.662820
  17 C :    0.024638
  18 C :   -0.406079
  19 H :    0.159208
  20 H :    0.160408
  21 H :    0.164418
  22 H :    0.179768
  23 H :    0.179207
  24 H :    0.177063
  25 H :    0.176497
  26 H :    0.166223
  27 H :    0.164444
  28 H :    0.155794
  29 H :    0.191721
  30 H :    0.188601
  31 H :    0.181269
  32 H :    0.171449
  33 H :    0.165861
  34 H :    0.157739
  35 H :    0.164891
  36 H :    0.175902
  37 H :    0.178762
  38 H :    0.164565
  39 H :    0.155250
  40 H :    0.165641

  Mayer bond orders larger than 0.100000
B(  0-C ,  1-C ) :   0.9221 B(  0-C , 19-H ) :   0.9593 B(  0-C , 20-H ) :   0.9683
B(  0-C , 21-H ) :   0.9633 B(  1-C ,  2-O ) :   0.8182 B(  1-C , 22-H ) :   0.9674
B(  1-C , 23-H ) :   0.9584 B(  2-O ,  3-P ) :   1.0612 B(  3-P ,  4-S ) :   1.7494
B(  3-P ,  5-O ) :   1.1510 B(  3-P ,  8-S ) :   1.0990 B(  5-O ,  6-C ) :   0.7603
B(  6-C ,  7-C ) :   0.9429 B(  6-C , 24-H ) :   0.9609 B(  6-C , 25-H ) :   0.9640
B(  7-C , 26-H ) :   0.9636 B(  7-C , 27-H ) :   0.9689 B(  7-C , 28-H ) :   0.9633
B(  8-S ,  9-C ) :   0.9000 B(  9-C , 10-S ) :   0.9027 B(  9-C , 29-H ) :   0.9095
B(  9-C , 30-H ) :   0.9131 B( 10-S , 11-P ) :   1.0600 B( 11-P , 12-S ) :   1.7716
B( 11-P , 13-O ) :   1.0894 B( 11-P , 16-O ) :   1.1423 B( 13-O , 14-C ) :   0.8113
B( 14-C , 15-C ) :   0.9377 B( 14-C , 31-H ) :   0.9586 B( 14-C , 32-H ) :   0.9646
B( 15-C , 33-H ) :   0.9655 B( 15-C , 34-H ) :   0.9618 B( 15-C , 35-H ) :   0.9556
B( 16-O , 17-C ) :   0.7649 B( 17-C , 18-C ) :   0.9435 B( 17-C , 36-H ) :   0.9600
B( 17-C , 37-H ) :   0.9652 B( 18-C , 38-H ) :   0.9679 B( 18-C , 39-H ) :   0.9636
B( 18-C , 40-H ) :   0.9638

Dispersion correction           -0.022475759
FINAL SINGLE POINT ENERGY     -2932.459929562275

DIPOLE MOMENT
-------------

Method             : SCF
Type of density    : Electron Density
Multiplicity       :   1
Irrep              :   0
Energy             : -2932.4838287389234210 Eh
Relativity type    :
Basis              : AO
                                X                 Y                 Z
Electronic contribution:      0.522714598       5.057469973      -3.854795840
Nuclear contribution   :     -0.361641484      -5.528162170       4.476271731
                        -----------------------------------------
Total Dipole Moment    :      0.161073114      -0.470692197       0.621475890
                        -----------------------------------------
Magnitude (a.u.)       :      0.796070333
Magnitude (Debye)      :      2.023449980

Rotational constants in cm-1:             0.012763             0.005366             0.005111
Rotational constants in MHz :           382.622863           160.879429           153.222368

                             ****ORCA TERMINATED NORMALLY****
TOTAL RUN TIME: 0 days 0 hours 1 minutes 27 seconds 314 msec
