                         Program Version 6.0.0  -   RELEASE  -
|  1> ! r2scan-3c def2/J RI DEFGRID2 scfconv6 printgap
|  2> %output
|  3>     printlevel normal
|  4> end
|  5> %cpcm
|  6>     smd true
|  7>     smdsolvent "water"
|  8> end
|  9> * xyz 0 1
| 10> C 3.9527664718 -1.1823535243 -2.7096207014
| 11> C 4.2587663476 -1.5629208999 -1.2754356171
| 12> O 3.0638418881 -1.701535486 -0.4872708326
| 13> P 2.1524204114 -0.4576450382 -0.0891670268
| 14> S 3.1711386953 1.1574842139 0.3708701312
| 15> O 1.2640544977 -1.1051547847 1.051859399
| 16> C 1.6824680268 -1.1418513441 2.4343207875
| 17> C 0.9393381097 -0.0906251284 3.2348777221
| 18> S 0.7211772878 -0.3316783514 -1.6276026501
| 19> C 0.1786287336 1.369479169 -1.300568022
| 20> S -0.4743561477 1.6049345998 0.3703496792
| 21> P -2.1916119484 0.3913185564 0.1831883429
| 22> S -3.0502259397 0.2974727289 -1.5810605178
| 23> O -3.0973254887 0.8732820446 1.4000891809
| 24> C -3.4844906803 2.2310165439 1.682786014
| 25> C -4.0758577655 2.9431022391 0.4839949294
| 26> O -1.7173669539 -1.0058790168 0.7605759548
| 27> C -2.2834582071 -2.273616522 0.3649032088
| 28> C -1.3663323432 -2.9992666318 -0.5996729643
| 29> H 4.8683346049 -1.2091494414 -3.2916885776
| 30> H 3.2306766283 -1.8729075907 -3.13807572
| 31> H 3.5394611128 -0.1753336874 -2.7477349685
| 32> H 4.8969101608 -0.8081486473 -0.8045203677
| 33> H 4.7314671879 -2.5437396301 -1.209640102
| 34> H 1.4401753924 -2.1495521984 2.7759159085
| 35> H 2.7636680535 -0.9849753388 2.4897125257
| 36> H 1.2252369043 0.9059303278 2.9040595373
| 37> H -0.1327576238 -0.2094829998 3.0953982783
| 38> H 1.1821778289 -0.2011558395 4.286775982
| 39> H -0.5970164068 1.5854283389 -2.0351230121
| 40> H 1.0223365982 2.0516224228 -1.394960371
| 41> H -4.2172065141 2.1255524227 2.4850091402
| 42> H -2.6039907944 2.7634743409 2.0532039853
| 43> H -4.9028741016 2.3702466932 0.0709662821
| 44> H -4.4331860823 3.9216320604 0.7883390472
| 45> H -3.3209432298 3.0669330394 -0.2911725423
| 46> H -2.3996973506 -2.8272669085 1.2980672282
| 47> H -3.2646948998 -2.1044049075 -0.0878378351
| 48> H -0.3593047055 -3.0487613173 -0.1924252999
| 49> H -1.7414499935 -4.0049928613 -0.7596444154
| 50> H -1.3310920309 -2.4760216836 -1.5529632692
| 51> *
| 52>
| 53>                          ****END OF INPUT****

CARTESIAN COORDINATES (ANGSTROEM)
---------------------------------
  C      3.952766   -1.182354   -2.709621
  C      4.258766   -1.562921   -1.275436
  O      3.063842   -1.701535   -0.487271
  P      2.152420   -0.457645   -0.089167
  S      3.171139    1.157484    0.370870
  O      1.264054   -1.105155    1.051859
  C      1.682468   -1.141851    2.434321
  C      0.939338   -0.090625    3.234878
  S      0.721177   -0.331678   -1.627603
  C      0.178629    1.369479   -1.300568
  S     -0.474356    1.604935    0.370350
  P     -2.191612    0.391319    0.183188
  S     -3.050226    0.297473   -1.581061
  O     -3.097325    0.873282    1.400089
  C     -3.484491    2.231017    1.682786
  C     -4.075858    2.943102    0.483995
  O     -1.717367   -1.005879    0.760576
  C     -2.283458   -2.273617    0.364903
  C     -1.366332   -2.999267   -0.599673
  H      4.868335   -1.209149   -3.291689
  H      3.230677   -1.872908   -3.138076
  H      3.539461   -0.175334   -2.747735
  H      4.896910   -0.808149   -0.804520
  H      4.731467   -2.543740   -1.209640
  H      1.440175   -2.149552    2.775916
  H      2.763668   -0.984975    2.489713
  H      1.225237    0.905930    2.904060
  H     -0.132758   -0.209483    3.095398
  H      1.182178   -0.201156    4.286776
  H     -0.597016    1.585428   -2.035123
  H      1.022337    2.051622   -1.394960
  H     -4.217207    2.125552    2.485009
  H     -2.603991    2.763474    2.053204
  H     -4.902874    2.370247    0.070966
  H     -4.433186    3.921632    0.788339
  H     -3.320943    3.066933   -0.291173
  H     -2.399697   -2.827267    1.298067
  H     -3.264695   -2.104405   -0.087838
  H     -0.359305   -3.048761   -0.192425
  H     -1.741450   -4.004993   -0.759644
  H     -1.331092   -2.476022   -1.552963

 Total Charge           Charge          ....    0
 Multiplicity           Mult            ....    1
 Number of Electrons    NEL             ....  202
 Basis Dimension        Dim             ....  539

ORBITAL ENERGIES
----------------

  NO   OCC          E(Eh)            E(eV)
   0   2.0000     -88.580200     -2410.3898
   1   2.0000     -88.578698     -2410.3489
   2   2.0000     -88.527741     -2408.9623
   3   2.0000     -88.524994     -2408.8876
   4   2.0000     -76.918750     -2093.0656
   5   2.0000     -76.918353     -2093.0548
   6   2.0000     -18.994155      -516.8572
   7   2.0000     -18.992530      -516.8130
   8   2.0000     -18.988870      -516.7134
   9   2.0000     -18.988220      -516.6957
  10   2.0000     -10.106437      -275.0101
  11   2.0000     -10.091768      -274.6110
  12   2.0000     -10.089176      -274.5404
  13   2.0000     -10.088487      -274.5217
  14   2.0000     -10.087906      -274.5059
  15   2.0000     -10.018173      -272.6083
  16   2.0000     -10.017906      -272.6011
  17   2.0000     -10.015688      -272.5407
  18   2.0000     -10.014327      -272.5037
  19   2.0000      -7.874629      -214.2796
  20   2.0000      -7.873240      -214.2418
  21   2.0000      -7.822771      -212.8684
  22   2.0000      -7.820153      -212.7972
  23   2.0000      -6.596917      -179.5112
  24   2.0000      -6.596862      -179.5097
  25   2.0000      -5.821508      -158.4113
  26   2.0000      -5.820162      -158.3747
  27   2.0000      -5.818388      -158.3264
  28   2.0000      -5.817159      -158.2929
  29   2.0000      -5.811808      -158.1473
  30   2.0000      -5.810200      -158.1036
  31   2.0000      -5.770358      -157.0194
  32   2.0000      -5.767788      -156.9495
  33   2.0000      -5.763150      -156.8233
  34   2.0000      -5.762697      -156.8110
  35   2.0000      -5.760543      -156.7523
  36   2.0000      -5.760004      -156.7377
  37   2.0000      -4.742399      -129.0472
  38   2.0000      -4.742274      -129.0438
  39   2.0000      -4.741973      -129.0356
  40   2.0000      -4.741726      -129.0289
  41   2.0000      -4.740776      -129.0031
  42   2.0000      -4.740619      -128.9988
  43   2.0000      -1.050517       -28.5860
  44   2.0000      -1.048867       -28.5411
  45   2.0000      -1.009936       -27.4818
  46   2.0000      -1.007855       -27.4251
  47   2.0000      -0.805591       -21.9212
  48   2.0000      -0.755553       -20.5597
  49   2.0000      -0.742930       -20.2161
  50   2.0000      -0.721843       -19.6423
  51   2.0000      -0.720449       -19.6044
  52   2.0000      -0.709664       -19.3110
  53   2.0000      -0.689250       -18.7554
  54   2.0000      -0.675764       -18.3885
  55   2.0000      -0.631074       -17.1724
  56   2.0000      -0.618886       -16.8408
  57   2.0000      -0.603185       -16.4135
  58   2.0000      -0.598726       -16.2922
  59   2.0000      -0.585786       -15.9401
  60   2.0000      -0.521966       -14.2034
  61   2.0000      -0.519071       -14.1246
  62   2.0000      -0.486925       -13.2499
  63   2.0000      -0.483533       -13.1576
  64   2.0000      -0.475809       -12.9474
  65   2.0000      -0.454454       -12.3663
  66   2.0000      -0.453086       -12.3291
  67   2.0000      -0.449253       -12.2248
  68   2.0000      -0.442573       -12.0430
  69   2.0000      -0.432189       -11.7605
  70   2.0000      -0.424984       -11.5644
  71   2.0000      -0.412188       -11.2162
  72   2.0000      -0.406966       -11.0741
  73   2.0000      -0.397473       -10.8158
  74   2.0000      -0.392888       -10.6910
  75   2.0000      -0.387825       -10.5533
  76   2.0000      -0.382043       -10.3959
  77   2.0000      -0.367470        -9.9994
  78   2.0000      -0.362565        -9.8659
  79   2.0000      -0.356668        -9.7054
  80   2.0000      -0.353653        -9.6234
  81   2.0000      -0.350358        -9.5337
  82   2.0000      -0.349273        -9.5042
  83   2.0000      -0.347966        -9.4686
  84   2.0000      -0.346213        -9.4209
  85   2.0000      -0.329588        -8.9686
  86   2.0000      -0.312597        -8.5062
  87   2.0000      -0.309750        -8.4287
  88   2.0000      -0.305582        -8.3153
  89   2.0000      -0.303678        -8.2635
  90   2.0000      -0.293464        -7.9856
  91   2.0000      -0.293071        -7.9749
  92   2.0000      -0.285921        -7.7803
  93   2.0000      -0.279329        -7.6009
  94   2.0000      -0.272820        -7.4238
  95   2.0000      -0.246218        -6.6999
  96   2.0000      -0.235133        -6.3983
  97   2.0000      -0.233469        -6.3530
  98   2.0000      -0.225145        -6.1265
  99   2.0000      -0.219205        -5.9649
 100   2.0000      -0.218425        -5.9436
 101   0.0000      -0.052938        -1.4405
 102   0.0000      -0.032515        -0.8848
 103   0.0000      -0.006130        -0.1668
 104   0.0000      -0.004962        -0.1350
 105   0.0000       0.008367         0.2277

MULLIKEN ATOMIC CHARGES
-----------------------
   0 C :   -0.483715
   1 C :   -0.155092
   2 O :   -0.325911
   3 P :    0.707170
   4 S :   -0.519799
   5 O :   -0.285366
   6 C :   -0.130506
   7 C :   -0.498546
   8 S :   -0.112413
   9 C :   -0.267967
  10 S :   -0.126432
  11 P :    0.691157
  12 S :   -0.513236
  13 O :   -0.317728
  14 C :   -0.158662
  15 C :   -0.466323
  16 O :   -0.288894
  17 C :   -0.128168
  18 C :   -0.496835
  19 H :    0.172510
  20 H :    0.168794
  21 H :    0.171395
  22 H :    0.177757
  23 H :    0.174160
  24 H :    0.174926
  25 H :    0.168854
  26 H :    0.171383
  27 H :    0.165791
  28 H :    0.167173
  29 H :    0.228913
  30 H :    0.235884
  31 H :    0.175354
  32 H :    0.172550
  33 H :    0.169870
  34 H :    0.172511
  35 H :    0.166001
  36 H :    0.172880
  37 H :    0.169853
  38 H :    0.164581
  39 H :    0.165560
  40 H :    0.170564
Sum of atomic charges:    0.0000000

LOEWDIN ATOMIC CHARGES
----------------------
   0 C :   -0.409943
   1 C :    0.023429
   2 O :   -0.673832
   3 P :    0.381468
   4 S :   -0.155134
   5 O :   -0.690808
   6 C :    0.030795
   7 C :   -0.405099
   8 S :    0.179520
   9 C :   -0.410483
  10 S :    0.177365
  11 P :    0.387494
  12 S :   -0.159089
  13 O :   -0.674343
  14 C :    0.028585
  15 C :   -0.411718
  16 O :   -0.680834
  17 C :    0.028313
  18 C :   -0.408587
  19 H :    0.168102
  20 H :    0.163498
  21 H :    0.161182
  22 H :    0.181226
  23 H :    0.190305
  24 H :    0.188081
  25 H :    0.181202
  26 H :    0.162357
  27 H :    0.163168
  28 H :    0.165106
  29 H :    0.198401
  30 H :    0.196817
  31 H :    0.192235
  32 H :    0.179155
  33 H :    0.164119
  34 H :    0.167584
  35 H :    0.161684
  36 H :    0.187122
  37 H :    0.181503
  38 H :    0.163728
  39 H :    0.164485
  40 H :    0.161841

  Mayer bond orders larger than 0.100000
B(  0-C ,  1-C ) :   0.9107 B(  0-C , 19-H ) :   0.9539 B(  0-C , 20-H ) :   0.9657
B(  0-C , 21-H ) :   0.9637 B(  1-C ,  2-O ) :   0.8064 B(  1-C , 22-H ) :   0.9655
B(  1-C , 23-H ) :   0.9489 B(  2-O ,  3-P ) :   1.0680 B(  3-P ,  4-S ) :   1.7120
B(  3-P ,  5-O ) :   1.1544 B(  3-P ,  8-S ) :   1.1097 B(  5-O ,  6-C ) :   0.7470
B(  6-C ,  7-C ) :   0.9333 B(  6-C , 24-H ) :   0.9508 B(  6-C , 25-H ) :   0.9602
B(  7-C , 26-H ) :   0.9657 B(  7-C , 27-H ) :   0.9672 B(  7-C , 28-H ) :   0.9592
B(  8-S ,  9-C ) :   0.8910 B(  9-C , 10-S ) :   0.8927 B(  9-C , 29-H ) :   0.9041
B(  9-C , 30-H ) :   0.9058 B( 10-S , 11-P ) :   1.0760 B( 11-P , 12-S ) :   1.7340
B( 11-P , 13-O ) :   1.0950 B( 11-P , 16-O ) :   1.1415 B( 13-O , 14-C ) :   0.8022
B( 14-C , 15-C ) :   0.9200 B( 14-C , 31-H ) :   0.9490 B( 14-C , 32-H ) :   0.9594
B( 15-C , 33-H ) :   0.9663 B( 15-C , 34-H ) :   0.9558 B( 15-C , 35-H ) :   0.9575
B( 16-O , 17-C ) :   0.7543 B( 17-C , 18-C ) :   0.9350 B( 17-C , 36-H ) :   0.9502
B( 17-C , 37-H ) :   0.9624 B( 18-C , 38-H ) :   0.9662 B( 18-C , 39-H ) :   0.9593
B( 18-C , 40-H ) :   0.9655

Dispersion correction           -0.022475759
FINAL SINGLE POINT ENERGY     -2932.467439586767

DIPOLE MOMENT
-------------

Method             : SCF
Type of density    : Electron Density
Multiplicity       :   1
Irrep              :   0
Energy             : -2932.4913387634155697 Eh
Relativity type    :
Basis              : AO
                                X                 Y                 Z
Electronic contribution:      0.636911620       4.998004682      -3.669656137
Nuclear contribution   :     -0.361641484      -5.528162170       4.476271731
                        -----------------------------------------
Total Dipole Moment    :      0.275270136      -0.530157488       0.806615594
                        -----------------------------------------
Magnitude (a.u.)       :      1.003727715
Magnitude (Debye)      :      2.551273098

Rotational constants in cm-1:             0.012763             0.005366             0.005111
Rotational constants in MHz :           382.622863           160.879429           153.222368

                             ****ORCA TERMINATED NORMALLY****
TOTAL RUN TIME: 0 days 0 hours 1 minutes 53 seconds 236 msec
