                         Program Version 6.0.1  -  RELEASE   -
|  1> ! r2scan-3c def2/J RI DEFGRID2 scfconv6 printgap
|  2> %output
|  3>     printlevel normal
|  4> end
|  5> * xyz 0 1
|  6> C 1.8990736635 -3.2768647257 0.2861158565
|  7> C 2.8347602796 -2.8436702772 -0.8315486072
|  8> O 2.2193348432 -1.8001425035 -1.6094192185
|  9> C 2.4366131752 -0.5482521988 -1.2736332798
| 10> O 3.2007515726 -0.1832122004 -0.4051622933
| 11> C 1.5674197871 0.402052227 -2.0767298471
| 12> C 0.3303437252 0.7240114539 -1.2306639521
| 13> H -0.2336133252 1.5469020913 -1.6746991233
| 14> C 0.7646082589 1.1002458649 0.1770614852
| 15> O 0.6298321761 0.3515567613 1.1250819267
| 16> O 1.301314671 2.2869962486 0.201350884
| 17> C 1.8480515727 2.7838864331 1.4400521852
| 18> C 3.3657929462 2.7476629148 1.3803250547
| 19> S -0.7580869962 -0.7351973285 -1.1124023523
| 20> P -2.0312337088 -0.0203710624 0.4263017766
| 21> S -2.1179523411 1.9239123507 0.6426385667
| 22> O -3.4305319012 -0.6791167251 0.0055200813
| 23> C -4.1373338968 -0.2415935757 -1.1606172276
| 24> O -1.7696465152 -0.8019338633 1.7713561542
| 25> C -1.7694409416 -2.2426114115 1.8330210615
| 26> H 1.685122789 -2.4319905287 0.9398975125
| 27> H 0.9665606109 -3.6424212893 -0.1355348851
| 28> H 2.3662605903 -4.064050758 0.8680899727
| 29> H 3.0126375948 -3.6530324034 -1.5394943845
| 30> H 3.7804248805 -2.4696441901 -0.4288415087
| 31> H 1.2638063679 -0.0696266277 -3.0098019918
| 32> H 2.1146551329 1.3267738072 -2.2589300058
| 33> H 1.4693979779 3.8035737992 1.5283058526
| 34> H 1.4638594078 2.1690603834 2.2586788071
| 35> H 3.7699194333 3.0798135388 2.3305706815
| 36> H 3.7027325635 1.7326422082 1.1799415585
| 37> H 3.7242444 3.3978270438 0.5879342997
| 38> H -5.1212683427 -0.6982561431 -1.0932929053
| 39> H -3.6159779677 -0.5775884736 -2.0566107388
| 40> H -4.2204783058 0.8462558595 -1.1608622829
| 41> H -1.3506098734 -2.4854570067 2.806017721
| 42> H -1.1479036199 -2.6502494373 1.0357544383
| 43> H -2.7894309683 -2.6108227699 1.740627527
| 44> *
| 45>
| 46>                          ****END OF INPUT****

CARTESIAN COORDINATES (ANGSTROEM)
---------------------------------
  C      1.899074   -3.276865    0.286116
  C      2.834760   -2.843670   -0.831549
  O      2.219335   -1.800143   -1.609419
  C      2.436613   -0.548252   -1.273633
  O      3.200752   -0.183212   -0.405162
  C      1.567420    0.402052   -2.076730
  C      0.330344    0.724011   -1.230664
  H     -0.233613    1.546902   -1.674699
  C      0.764608    1.100246    0.177061
  O      0.629832    0.351557    1.125082
  O      1.301315    2.286996    0.201351
  C      1.848052    2.783886    1.440052
  C      3.365793    2.747663    1.380325
  S     -0.758087   -0.735197   -1.112402
  P     -2.031234   -0.020371    0.426302
  S     -2.117952    1.923912    0.642639
  O     -3.430532   -0.679117    0.005520
  C     -4.137334   -0.241594   -1.160617
  O     -1.769647   -0.801934    1.771356
  C     -1.769441   -2.242611    1.833021
  H      1.685123   -2.431991    0.939898
  H      0.966561   -3.642421   -0.135535
  H      2.366261   -4.064051    0.868090
  H      3.012638   -3.653032   -1.539494
  H      3.780425   -2.469644   -0.428842
  H      1.263806   -0.069627   -3.009802
  H      2.114655    1.326774   -2.258930
  H      1.469398    3.803574    1.528306
  H      1.463859    2.169060    2.258679
  H      3.769919    3.079814    2.330571
  H      3.702733    1.732642    1.179942
  H      3.724244    3.397827    0.587934
  H     -5.121268   -0.698256   -1.093293
  H     -3.615978   -0.577588   -2.056611
  H     -4.220478    0.846256   -1.160862
  H     -1.350610   -2.485457    2.806018
  H     -1.147904   -2.650249    1.035754
  H     -2.789431   -2.610823    1.740628

 Total Charge           Charge          ....    0
 Multiplicity           Mult            ....    1
 Number of Electrons    NEL             ....  174
 Basis Dimension        Dim             ....  510

ORBITAL ENERGIES
----------------

  NO   OCC          E(Eh)            E(eV)
   0   2.0000     -88.572455     -2410.1790
   1   2.0000     -88.511731     -2408.5266
   2   2.0000     -76.909285     -2092.8080
   3   2.0000     -19.007735      -517.2268
   4   2.0000     -19.000204      -517.0218
   5   2.0000     -18.986089      -516.6378
   6   2.0000     -18.985981      -516.6348
   7   2.0000     -18.938732      -515.3491
   8   2.0000     -18.927984      -515.0566
   9   2.0000     -10.165004      -276.6038
  10   2.0000     -10.159818      -276.4627
  11   2.0000     -10.098533      -274.7951
  12   2.0000     -10.096585      -274.7420
  13   2.0000     -10.092615      -274.6340
  14   2.0000     -10.087805      -274.5031
  15   2.0000     -10.085043      -274.4280
  16   2.0000     -10.067991      -273.9640
  17   2.0000     -10.030160      -272.9345
  18   2.0000     -10.018564      -272.6190
  19   2.0000      -7.866860      -214.0681
  20   2.0000      -7.806657      -212.4299
  21   2.0000      -6.587417      -179.2527
  22   2.0000      -5.813744      -158.2000
  23   2.0000      -5.810687      -158.1168
  24   2.0000      -5.803971      -157.9341
  25   2.0000      -5.754541      -156.5890
  26   2.0000      -5.746888      -156.3808
  27   2.0000      -5.746441      -156.3686
  28   2.0000      -4.733150      -128.7956
  29   2.0000      -4.732510      -128.7781
  30   2.0000      -4.730878      -128.7337
  31   2.0000      -1.085409       -29.5355
  32   2.0000      -1.078176       -29.3387
  33   2.0000      -1.044948       -28.4345
  34   2.0000      -1.002269       -27.2731
  35   2.0000      -0.988419       -26.8963
  36   2.0000      -0.981138       -26.6981
  37   2.0000      -0.814228       -22.1563
  38   2.0000      -0.754431       -20.5291
  39   2.0000      -0.741056       -20.1652
  40   2.0000      -0.729164       -19.8416
  41   2.0000      -0.696208       -18.9448
  42   2.0000      -0.672037       -18.2870
  43   2.0000      -0.655818       -17.8457
  44   2.0000      -0.648903       -17.6576
  45   2.0000      -0.627461       -17.0741
  46   2.0000      -0.592156       -16.1134
  47   2.0000      -0.536548       -14.6002
  48   2.0000      -0.534721       -14.5505
  49   2.0000      -0.519474       -14.1356
  50   2.0000      -0.506183       -13.7739
  51   2.0000      -0.489085       -13.3087
  52   2.0000      -0.483860       -13.1665
  53   2.0000      -0.470462       -12.8019
  54   2.0000      -0.449637       -12.2352
  55   2.0000      -0.448179       -12.1956
  56   2.0000      -0.445082       -12.1113
  57   2.0000      -0.443378       -12.0649
  58   2.0000      -0.433229       -11.7888
  59   2.0000      -0.428659       -11.6644
  60   2.0000      -0.419731       -11.4215
  61   2.0000      -0.415420       -11.3042
  62   2.0000      -0.409804       -11.1513
  63   2.0000      -0.397550       -10.8179
  64   2.0000      -0.394245       -10.7280
  65   2.0000      -0.390535       -10.6270
  66   2.0000      -0.373439       -10.1618
  67   2.0000      -0.365661        -9.9501
  68   2.0000      -0.356911        -9.7120
  69   2.0000      -0.349080        -9.4990
  70   2.0000      -0.346638        -9.4325
  71   2.0000      -0.343067        -9.3353
  72   2.0000      -0.341443        -9.2911
  73   2.0000      -0.326740        -8.8910
  74   2.0000      -0.315456        -8.5840
  75   2.0000      -0.314566        -8.5598
  76   2.0000      -0.308259        -8.3881
  77   2.0000      -0.302962        -8.2440
  78   2.0000      -0.284839        -7.7509
  79   2.0000      -0.280364        -7.6291
  80   2.0000      -0.272233        -7.4078
  81   2.0000      -0.268746        -7.3129
  82   2.0000      -0.250748        -6.8232
  83   2.0000      -0.241064        -6.5597
  84   2.0000      -0.232134        -6.3167
  85   2.0000      -0.211226        -5.7478
  86   2.0000      -0.208574        -5.6756
  87   0.0000      -0.039512        -1.0752
  88   0.0000      -0.029194        -0.7944
  89   0.0000      -0.016415        -0.4467
  90   0.0000       0.006018         0.1638
  91   0.0000       0.021423         0.5830

MULLIKEN ATOMIC CHARGES
-----------------------
   0 C :   -0.479483
   1 C :   -0.139729
   2 O :   -0.139051
   3 C :    0.346346
   4 O :   -0.389307
   5 C :   -0.406572
   6 C :    0.016117
   7 H :    0.232065
   8 C :    0.287661
   9 O :   -0.410935
  10 O :   -0.129249
  11 C :   -0.175083
  12 C :   -0.466250
  13 S :   -0.212841
  14 P :    0.778531
  15 S :   -0.445219
  16 O :   -0.354599
  17 C :   -0.301845
  18 O :   -0.291120
  19 C :   -0.284871
  20 H :    0.193034
  21 H :    0.148685
  22 H :    0.146312
  23 H :    0.148906
  24 H :    0.173356
  25 H :    0.179541
  26 H :    0.194003
  27 H :    0.150157
  28 H :    0.187232
  29 H :    0.143706
  30 H :    0.188218
  31 H :    0.146490
  32 H :    0.150591
  33 H :    0.156767
  34 H :    0.175504
  35 H :    0.159003
  36 H :    0.158977
  37 H :    0.164954
Sum of atomic charges:    0.0000000

LOEWDIN ATOMIC CHARGES
----------------------
   0 C :   -0.393607
   1 C :    0.032455
   2 O :   -0.585519
   3 C :    0.353747
   4 O :   -0.426984
   5 C :   -0.198118
   6 C :   -0.196165
   7 H :    0.201284
   8 C :    0.319821
   9 O :   -0.457037
  10 O :   -0.562985
  11 C :    0.036572
  12 C :   -0.388686
  13 S :    0.207799
  14 P :    0.405360
  15 S :   -0.064618
  16 O :   -0.686632
  17 C :   -0.063005
  18 O :   -0.635151
  19 C :   -0.048540
  20 H :    0.174164
  21 H :    0.156248
  22 H :    0.157846
  23 H :    0.178505
  24 H :    0.191070
  25 H :    0.186315
  26 H :    0.194047
  27 H :    0.179128
  28 H :    0.196714
  29 H :    0.157026
  30 H :    0.177648
  31 H :    0.155658
  32 H :    0.176188
  33 H :    0.167932
  34 H :    0.176476
  35 H :    0.181236
  36 H :    0.171802
  37 H :    0.172006

  Mayer bond orders larger than 0.100000
B(  0-C ,  1-C ) :   0.9364 B(  0-C , 20-H ) :   0.9622 B(  0-C , 21-H ) :   0.9696
B(  0-C , 22-H ) :   0.9630 B(  1-C ,  2-O ) :   0.8054 B(  1-C , 23-H ) :   0.9620
B(  1-C , 24-H ) :   0.9691 B(  2-O ,  3-C ) :   1.0800 B(  3-C ,  4-O ) :   1.7847
B(  3-C ,  5-C ) :   0.9220 B(  5-C ,  6-C ) :   0.8739 B(  5-C , 25-H ) :   0.9815
B(  5-C , 26-H ) :   0.9655 B(  6-C ,  7-H ) :   0.9319 B(  6-C ,  8-C ) :   0.8805
B(  6-C , 13-S ) :   0.9240 B(  8-C ,  9-O ) :   1.7123 B(  8-C , 10-O ) :   1.1257
B( 10-O , 11-C ) :   0.7832 B( 11-C , 12-C ) :   0.9368 B( 11-C , 27-H ) :   0.9582
B( 11-C , 28-H ) :   0.9760 B( 12-C , 29-H ) :   0.9680 B( 12-C , 30-H ) :   0.9620
B( 12-C , 31-H ) :   0.9734 B( 13-S , 14-P ) :   0.9890 B( 14-P , 15-S ) :   1.7656
B( 14-P , 16-O ) :   1.0034 B( 14-P , 18-O ) :   1.1851 B( 16-O , 17-C ) :   0.8339
B( 17-C , 32-H ) :   0.9685 B( 17-C , 33-H ) :   0.9570 B( 17-C , 34-H ) :   0.9587
B( 18-O , 19-C ) :   0.7956 B( 19-C , 35-H ) :   0.9654 B( 19-C , 36-H ) :   0.9594
B( 19-C , 37-H ) :   0.9622

Dispersion correction           -0.018202087
FINAL SINGLE POINT ENERGY     -1981.447473071646

DIPOLE MOMENT
-------------

Method             : SCF
Type of density    : Electron Density
Multiplicity       :   1
Irrep              :   0
Energy             : -1981.4667719617141302 Eh
Relativity type    :
Basis              : AO
                                X                 Y                 Z
Electronic contribution:    -11.799715409       5.876180110      -2.335819921
Nuclear contribution   :     12.100130922      -7.018090451       1.447998407
                        -----------------------------------------
Total Dipole Moment    :      0.300415514      -1.141910341      -0.887821514
                        -----------------------------------------
Magnitude (a.u.)       :      1.477306924
Magnitude (Debye)      :      3.755015784

Rotational constants in cm-1:             0.012660             0.008382             0.006469
Rotational constants in MHz :           379.522647           251.299042           193.928861

                             ****ORCA TERMINATED NORMALLY****
TOTAL RUN TIME: 0 days 0 hours 1 minutes 18 seconds 919 msec
