                         Program Version 6.0.1  -  RELEASE   -
|  1> ! r2scan-3c def2/J RI DEFGRID2 scfconv6 printgap
|  2> %output
|  3>     printlevel normal
|  4> end
|  5> %cpcm
|  6>     smd true
|  7>     smdsolvent "water"
|  8> end
|  9> * xyz 0 1
| 10> C 1.8990736635 -3.2768647257 0.2861158565
| 11> C 2.8347602796 -2.8436702772 -0.8315486072
| 12> O 2.2193348432 -1.8001425035 -1.6094192185
| 13> C 2.4366131752 -0.5482521988 -1.2736332798
| 14> O 3.2007515726 -0.1832122004 -0.4051622933
| 15> C 1.5674197871 0.402052227 -2.0767298471
| 16> C 0.3303437252 0.7240114539 -1.2306639521
| 17> H -0.2336133252 1.5469020913 -1.6746991233
| 18> C 0.7646082589 1.1002458649 0.1770614852
| 19> O 0.6298321761 0.3515567613 1.1250819267
| 20> O 1.301314671 2.2869962486 0.201350884
| 21> C 1.8480515727 2.7838864331 1.4400521852
| 22> C 3.3657929462 2.7476629148 1.3803250547
| 23> S -0.7580869962 -0.7351973285 -1.1124023523
| 24> P -2.0312337088 -0.0203710624 0.4263017766
| 25> S -2.1179523411 1.9239123507 0.6426385667
| 26> O -3.4305319012 -0.6791167251 0.0055200813
| 27> C -4.1373338968 -0.2415935757 -1.1606172276
| 28> O -1.7696465152 -0.8019338633 1.7713561542
| 29> C -1.7694409416 -2.2426114115 1.8330210615
| 30> H 1.685122789 -2.4319905287 0.9398975125
| 31> H 0.9665606109 -3.6424212893 -0.1355348851
| 32> H 2.3662605903 -4.064050758 0.8680899727
| 33> H 3.0126375948 -3.6530324034 -1.5394943845
| 34> H 3.7804248805 -2.4696441901 -0.4288415087
| 35> H 1.2638063679 -0.0696266277 -3.0098019918
| 36> H 2.1146551329 1.3267738072 -2.2589300058
| 37> H 1.4693979779 3.8035737992 1.5283058526
| 38> H 1.4638594078 2.1690603834 2.2586788071
| 39> H 3.7699194333 3.0798135388 2.3305706815
| 40> H 3.7027325635 1.7326422082 1.1799415585
| 41> H 3.7242444 3.3978270438 0.5879342997
| 42> H -5.1212683427 -0.6982561431 -1.0932929053
| 43> H -3.6159779677 -0.5775884736 -2.0566107388
| 44> H -4.2204783058 0.8462558595 -1.1608622829
| 45> H -1.3506098734 -2.4854570067 2.806017721
| 46> H -1.1479036199 -2.6502494373 1.0357544383
| 47> H -2.7894309683 -2.6108227699 1.740627527
| 48> *
| 49>
| 50>                          ****END OF INPUT****

CARTESIAN COORDINATES (ANGSTROEM)
---------------------------------
  C      1.899074   -3.276865    0.286116
  C      2.834760   -2.843670   -0.831549
  O      2.219335   -1.800143   -1.609419
  C      2.436613   -0.548252   -1.273633
  O      3.200752   -0.183212   -0.405162
  C      1.567420    0.402052   -2.076730
  C      0.330344    0.724011   -1.230664
  H     -0.233613    1.546902   -1.674699
  C      0.764608    1.100246    0.177061
  O      0.629832    0.351557    1.125082
  O      1.301315    2.286996    0.201351
  C      1.848052    2.783886    1.440052
  C      3.365793    2.747663    1.380325
  S     -0.758087   -0.735197   -1.112402
  P     -2.031234   -0.020371    0.426302
  S     -2.117952    1.923912    0.642639
  O     -3.430532   -0.679117    0.005520
  C     -4.137334   -0.241594   -1.160617
  O     -1.769647   -0.801934    1.771356
  C     -1.769441   -2.242611    1.833021
  H      1.685123   -2.431991    0.939898
  H      0.966561   -3.642421   -0.135535
  H      2.366261   -4.064051    0.868090
  H      3.012638   -3.653032   -1.539494
  H      3.780425   -2.469644   -0.428842
  H      1.263806   -0.069627   -3.009802
  H      2.114655    1.326774   -2.258930
  H      1.469398    3.803574    1.528306
  H      1.463859    2.169060    2.258679
  H      3.769919    3.079814    2.330571
  H      3.702733    1.732642    1.179942
  H      3.724244    3.397827    0.587934
  H     -5.121268   -0.698256   -1.093293
  H     -3.615978   -0.577588   -2.056611
  H     -4.220478    0.846256   -1.160862
  H     -1.350610   -2.485457    2.806018
  H     -1.147904   -2.650249    1.035754
  H     -2.789431   -2.610823    1.740628

 Total Charge           Charge          ....    0
 Multiplicity           Mult            ....    1
 Number of Electrons    NEL             ....  174
 Basis Dimension        Dim             ....  510

ORBITAL ENERGIES
----------------

  NO   OCC          E(Eh)            E(eV)
   0   2.0000     -88.578389     -2410.3405
   1   2.0000     -88.527684     -2408.9607
   2   2.0000     -76.920556     -2093.1147
   3   2.0000     -19.012894      -517.3671
   4   2.0000     -19.010224      -517.2945
   5   2.0000     -18.997006      -516.9348
   6   2.0000     -18.992567      -516.8140
   7   2.0000     -18.950040      -515.6568
   8   2.0000     -18.947800      -515.5958
   9   2.0000     -10.175752      -276.8963
  10   2.0000     -10.172056      -276.7957
  11   2.0000     -10.100834      -274.8577
  12   2.0000     -10.086938      -274.4795
  13   2.0000     -10.086052      -274.4554
  14   2.0000     -10.085228      -274.4330
  15   2.0000     -10.080704      -274.3099
  16   2.0000     -10.061932      -273.7991
  17   2.0000     -10.019286      -272.6386
  18   2.0000     -10.018490      -272.6170
  19   2.0000      -7.872728      -214.2278
  20   2.0000      -7.822954      -212.8734
  21   2.0000      -6.598841      -179.5636
  22   2.0000      -5.819651      -158.3608
  23   2.0000      -5.816600      -158.2777
  24   2.0000      -5.809762      -158.0917
  25   2.0000      -5.770706      -157.0289
  26   2.0000      -5.763213      -156.8250
  27   2.0000      -5.762774      -156.8130
  28   2.0000      -4.744537      -129.1054
  29   2.0000      -4.743851      -129.0868
  30   2.0000      -4.742430      -129.0481
  31   2.0000      -1.093742       -29.7622
  32   2.0000      -1.087962       -29.6049
  33   2.0000      -1.053738       -28.6737
  34   2.0000      -1.010034       -27.4844
  35   2.0000      -1.000486       -27.2246
  36   2.0000      -0.997153       -27.1339
  37   2.0000      -0.816635       -22.2218
  38   2.0000      -0.751328       -20.4447
  39   2.0000      -0.745684       -20.2911
  40   2.0000      -0.730173       -19.8690
  41   2.0000      -0.695918       -18.9369
  42   2.0000      -0.669918       -18.2294
  43   2.0000      -0.660063       -17.9612
  44   2.0000      -0.655097       -17.8261
  45   2.0000      -0.624245       -16.9866
  46   2.0000      -0.593604       -16.1528
  47   2.0000      -0.540084       -14.6964
  48   2.0000      -0.531708       -14.4685
  49   2.0000      -0.524033       -14.2597
  50   2.0000      -0.509583       -13.8665
  51   2.0000      -0.492385       -13.3985
  52   2.0000      -0.488511       -13.2931
  53   2.0000      -0.471792       -12.8381
  54   2.0000      -0.459487       -12.5033
  55   2.0000      -0.456692       -12.4272
  56   2.0000      -0.450973       -12.2716
  57   2.0000      -0.447128       -12.1670
  58   2.0000      -0.439495       -11.9593
  59   2.0000      -0.427576       -11.6349
  60   2.0000      -0.420780       -11.4500
  61   2.0000      -0.414064       -11.2672
  62   2.0000      -0.408539       -11.1169
  63   2.0000      -0.397139       -10.8067
  64   2.0000      -0.393683       -10.7126
  65   2.0000      -0.391581       -10.6555
  66   2.0000      -0.370828       -10.0907
  67   2.0000      -0.367368        -9.9966
  68   2.0000      -0.357188        -9.7196
  69   2.0000      -0.353459        -9.6181
  70   2.0000      -0.350881        -9.5480
  71   2.0000      -0.346107        -9.4180
  72   2.0000      -0.341461        -9.2916
  73   2.0000      -0.328367        -8.9353
  74   2.0000      -0.319519        -8.6946
  75   2.0000      -0.315005        -8.5717
  76   2.0000      -0.308930        -8.4064
  77   2.0000      -0.306592        -8.3428
  78   2.0000      -0.291488        -7.9318
  79   2.0000      -0.284348        -7.7375
  80   2.0000      -0.281947        -7.6722
  81   2.0000      -0.278203        -7.5703
  82   2.0000      -0.265333        -7.2201
  83   2.0000      -0.254090        -6.9141
  84   2.0000      -0.242634        -6.6024
  85   2.0000      -0.227205        -6.1826
  86   2.0000      -0.225229        -6.1288
  87   0.0000      -0.048287        -1.3140
  88   0.0000      -0.035433        -0.9642
  89   0.0000      -0.030384        -0.8268
  90   0.0000       0.001137         0.0309
  91   0.0000       0.012414         0.3378

MULLIKEN ATOMIC CHARGES
-----------------------
   0 C :   -0.502532
   1 C :   -0.139800
   2 O :   -0.150010
   3 C :    0.375872
   4 O :   -0.460029
   5 C :   -0.444627
   6 C :    0.040194
   7 H :    0.261889
   8 C :    0.273819
   9 O :   -0.462239
  10 O :   -0.149702
  11 C :   -0.160144
  12 C :   -0.501911
  13 S :   -0.201521
  14 P :    0.779219
  15 S :   -0.495128
  16 O :   -0.383571
  17 C :   -0.307043
  18 O :   -0.341459
  19 C :   -0.293852
  20 H :    0.171989
  21 H :    0.169892
  22 H :    0.171281
  23 H :    0.177093
  24 H :    0.177673
  25 H :    0.213755
  26 H :    0.229643
  27 H :    0.177382
  28 H :    0.185956
  29 H :    0.170578
  30 H :    0.171472
  31 H :    0.169731
  32 H :    0.179072
  33 H :    0.174520
  34 H :    0.176822
  35 H :    0.184115
  36 H :    0.178031
  37 H :    0.183569
Sum of atomic charges:    0.0000000

LOEWDIN ATOMIC CHARGES
----------------------
   0 C :   -0.393699
   1 C :    0.037677
   2 O :   -0.585004
   3 C :    0.360486
   4 O :   -0.476155
   5 C :   -0.185848
   6 C :   -0.189161
   7 H :    0.212471
   8 C :    0.320279
   9 O :   -0.503574
  10 O :   -0.568864
  11 C :    0.040385
  12 C :   -0.390393
  13 S :    0.221534
  14 P :    0.402020
  15 S :   -0.103765
  16 O :   -0.697125
  17 C :   -0.056575
  18 O :   -0.667904
  19 C :   -0.041141
  20 H :    0.164848
  21 H :    0.162735
  22 H :    0.167333
  23 H :    0.190865
  24 H :    0.192454
  25 H :    0.199852
  26 H :    0.205523
  27 H :    0.190619
  28 H :    0.195921
  29 H :    0.167700
  30 H :    0.169364
  31 H :    0.162609
  32 H :    0.188400
  33 H :    0.175768
  34 H :    0.177255
  35 H :    0.191515
  36 H :    0.180169
  37 H :    0.181427

  Mayer bond orders larger than 0.100000
B(  0-C ,  1-C ) :   0.9257 B(  0-C , 20-H ) :   0.9667 B(  0-C , 21-H ) :   0.9663
B(  0-C , 22-H ) :   0.9582 B(  1-C ,  2-O ) :   0.7901 B(  1-C , 23-H ) :   0.9517
B(  1-C , 24-H ) :   0.9652 B(  2-O ,  3-C ) :   1.0979 B(  3-C ,  4-O ) :   1.7264
B(  3-C ,  5-C ) :   0.8971 B(  5-C ,  6-C ) :   0.8456 B(  5-C , 25-H ) :   0.9755
B(  5-C , 26-H ) :   0.9692 B(  6-C ,  7-H ) :   0.9183 B(  6-C ,  8-C ) :   0.8844
B(  6-C , 13-S ) :   0.9034 B(  8-C ,  9-O ) :   1.6683 B(  8-C , 10-O ) :   1.1230
B( 10-O , 11-C ) :   0.7692 B( 11-C , 12-C ) :   0.9312 B( 11-C , 27-H ) :   0.9475
B( 11-C , 28-H ) :   0.9663 B( 12-C , 29-H ) :   0.9612 B( 12-C , 30-H ) :   0.9653
B( 12-C , 31-H ) :   0.9711 B( 13-S , 14-P ) :   1.0144 B( 14-P , 15-S ) :   1.7573
B( 14-P , 16-O ) :   1.0109 B( 14-P , 18-O ) :   1.1766 B( 16-O , 17-C ) :   0.8257
B( 17-C , 32-H ) :   0.9580 B( 17-C , 33-H ) :   0.9502 B( 17-C , 34-H ) :   0.9549
B( 18-O , 19-C ) :   0.7864 B( 19-C , 35-H ) :   0.9547 B( 19-C , 36-H ) :   0.9474
B( 19-C , 37-H ) :   0.9527

Dispersion correction           -0.018202087
FINAL SINGLE POINT ENERGY     -1981.462764910995

DIPOLE MOMENT
-------------

Method             : SCF
Type of density    : Electron Density
Multiplicity       :   1
Irrep              :   0
Energy             : -1981.4820638010626226 Eh
Relativity type    :
Basis              : AO
                                X                 Y                 Z
Electronic contribution:    -11.819748111       5.485429657      -3.120147304
Nuclear contribution   :     12.100130922      -7.018090451       1.447998407
                        -----------------------------------------
Total Dipole Moment    :      0.280382811      -1.532660793      -1.672148897
                        -----------------------------------------
Magnitude (a.u.)       :      2.285551479
Magnitude (Debye)      :      5.809410178

Rotational constants in cm-1:             0.012660             0.008382             0.006469
Rotational constants in MHz :           379.522647           251.299042           193.928861

                             ****ORCA TERMINATED NORMALLY****
TOTAL RUN TIME: 0 days 0 hours 2 minutes 1 seconds 256 msec
