                         Program Version 6.0.1  -  RELEASE   -
|  1> ! pbe def2-sv(p) def2/J RI DEFGRID1 loosescf d4 GCP(DFT/SV(P)) printgap
|  2> %output
|  3>     printlevel normal
|  4> end
|  5> * xyz 0 1
|  6> C 4.302683112 -1.9996743673 1.0543980459
|  7> C 2.8095686433 -1.9226769251 0.8049874439
|  8> O 2.58416188 -1.0129320956 -0.2896730597
|  9> C 1.4534172084 -1.0785709575 -0.9485006614
| 10> O 0.5483310852 -1.8549792638 -0.6980027211
| 11> C 1.3884785866 -0.0716437474 -2.0768907137
| 12> C 0.2071500831 0.8808162718 -1.8775103373
| 13> H 0.101043588 1.51653908 -2.7617756649
| 14> C 0.3620019731 1.7779496271 -0.6603846259
| 15> O -0.5546872448 1.9817426156 0.1112084259
| 16> O 1.5569235062 2.2911396335 -0.5797867484
| 17> C 1.8960288381 3.1097042857 0.5612518362
| 18> C 2.5492857315 2.2578843011 1.6363805232
| 19> S -1.3974227837 0.0290132605 -1.7450106633
| 20> P -1.5910278599 -0.4451905428 0.335921592
| 21> S -0.2969427581 -0.3423909605 1.8058277355
| 22> O -2.9848357951 0.2761604896 0.690073181
| 23> C -3.1467873085 1.5811107076 1.2386191362
| 24> O -2.1173520427 -1.9410781509 0.2866360047
| 25> C -3.1124269937 -2.4169997803 -0.6326810089
| 26> H 4.687890095 -1.0169424681 1.3074697449
| 27> H 4.4890672095 -2.6785224157 1.8795699785
| 28> H 4.8130165949 -2.3632473497 0.1673523646
| 29> H 2.2683265296 -1.540179009 1.6761997338
| 30> H 2.3834951018 -2.894871146 0.5378616422
| 31> H 1.2383126118 -0.6177037504 -3.0091036028
| 32> H 2.317765344 0.4957191805 -2.1090444033
| 33> H 2.5875162066 3.8535085515 0.1648388447
| 34> H 0.9872864849 3.5867220241 0.9361559703
| 35> H 1.8467453852 1.5108990935 2.0040503296
| 36> H 3.4201564559 1.7499220524 1.2318492965
| 37> H 2.8521752806 2.891596555 2.4628608664
| 38> H -3.0758958576 2.3278673337 0.4492792794
| 39> H -2.3787699524 1.7712478181 1.9891152163
| 40> H -4.1355915399 1.5852491315 1.6916044634
| 41> H -2.6996282752 -2.4424642843 -1.6411167284
| 42> H -3.9929141801 -1.7768302262 -0.6005724998
| 43> H -3.3517970919 -3.421535683 -0.2929071352
| 44> *
| 45>
| 46>                          ****END OF INPUT****

CARTESIAN COORDINATES (ANGSTROEM)
---------------------------------
  C      4.302683   -1.999674    1.054398
  C      2.809569   -1.922677    0.804987
  O      2.584162   -1.012932   -0.289673
  C      1.453417   -1.078571   -0.948501
  O      0.548331   -1.854979   -0.698003
  C      1.388479   -0.071644   -2.076891
  C      0.207150    0.880816   -1.877510
  H      0.101044    1.516539   -2.761776
  C      0.362002    1.777950   -0.660385
  O     -0.554687    1.981743    0.111208
  O      1.556924    2.291140   -0.579787
  C      1.896029    3.109704    0.561252
  C      2.549286    2.257884    1.636381
  S     -1.397423    0.029013   -1.745011
  P     -1.591028   -0.445191    0.335922
  S     -0.296943   -0.342391    1.805828
  O     -2.984836    0.276160    0.690073
  C     -3.146787    1.581111    1.238619
  O     -2.117352   -1.941078    0.286636
  C     -3.112427   -2.417000   -0.632681
  H      4.687890   -1.016942    1.307470
  H      4.489067   -2.678522    1.879570
  H      4.813017   -2.363247    0.167352
  H      2.268327   -1.540179    1.676200
  H      2.383495   -2.894871    0.537862
  H      1.238313   -0.617704   -3.009104
  H      2.317765    0.495719   -2.109044
  H      2.587516    3.853509    0.164839
  H      0.987286    3.586722    0.936156
  H      1.846745    1.510899    2.004050
  H      3.420156    1.749922    1.231849
  H      2.852175    2.891597    2.462861
  H     -3.075896    2.327867    0.449279
  H     -2.378770    1.771248    1.989115
  H     -4.135592    1.585249    1.691604
  H     -2.699628   -2.442464   -1.641117
  H     -3.992914   -1.776830   -0.600572
  H     -3.351797   -3.421536   -0.292907

 Total Charge           Charge          ....    0
 Multiplicity           Mult            ....    1
 Number of Electrons    NEL             ....  174
 Basis Dimension        Dim             ....  316

ORBITAL ENERGIES
----------------

  NO   OCC          E(Eh)            E(eV)
   0   2.0000     -88.026983     -2395.3360
   1   2.0000     -87.965261     -2393.6564
   2   2.0000     -76.412836     -2079.2990
   3   2.0000     -18.821903      -512.1700
   4   2.0000     -18.804832      -511.7055
   5   2.0000     -18.769040      -510.7316
   6   2.0000     -18.768242      -510.7098
   7   2.0000     -18.755026      -510.3502
   8   2.0000     -18.731325      -509.7053
   9   2.0000     -10.024444      -272.7790
  10   2.0000     -10.006260      -272.2842
  11   2.0000      -9.955764      -270.9101
  12   2.0000      -9.953739      -270.8550
  13   2.0000      -9.938749      -270.4471
  14   2.0000      -9.931581      -270.2521
  15   2.0000      -9.923219      -270.0245
  16   2.0000      -9.911642      -269.7095
  17   2.0000      -9.885458      -268.9970
  18   2.0000      -9.884936      -268.9828
  19   2.0000      -7.671961      -208.7647
  20   2.0000      -7.610378      -207.0889
  21   2.0000      -6.407928      -174.3686
  22   2.0000      -5.700306      -155.1132
  23   2.0000      -5.696819      -155.0183
  24   2.0000      -5.688087      -154.7807
  25   2.0000      -5.639848      -153.4681
  26   2.0000      -5.630891      -153.2243
  27   2.0000      -5.629967      -153.1992
  28   2.0000      -4.630746      -126.0090
  29   2.0000      -4.630074      -125.9907
  30   2.0000      -4.628364      -125.9442
  31   2.0000      -1.029595       -28.0167
  32   2.0000      -1.008898       -27.4535
  33   2.0000      -0.962783       -26.1987
  34   2.0000      -0.934174       -25.4202
  35   2.0000      -0.917397       -24.9636
  36   2.0000      -0.909865       -24.7587
  37   2.0000      -0.764501       -20.8031
  38   2.0000      -0.711194       -19.3526
  39   2.0000      -0.707768       -19.2593
  40   2.0000      -0.683142       -18.5893
  41   2.0000      -0.653004       -17.7691
  42   2.0000      -0.622840       -16.9483
  43   2.0000      -0.616362       -16.7721
  44   2.0000      -0.603205       -16.4140
  45   2.0000      -0.589071       -16.0294
  46   2.0000      -0.564030       -15.3480
  47   2.0000      -0.510321       -13.8865
  48   2.0000      -0.505328       -13.7507
  49   2.0000      -0.497781       -13.5453
  50   2.0000      -0.484890       -13.1945
  51   2.0000      -0.460026       -12.5179
  52   2.0000      -0.455178       -12.3860
  53   2.0000      -0.447482       -12.1766
  54   2.0000      -0.440322       -11.9818
  55   2.0000      -0.425805       -11.5867
  56   2.0000      -0.418179       -11.3792
  57   2.0000      -0.411673       -11.2022
  58   2.0000      -0.407716       -11.0945
  59   2.0000      -0.400683       -10.9031
  60   2.0000      -0.398969       -10.8565
  61   2.0000      -0.391779       -10.6608
  62   2.0000      -0.381192       -10.3728
  63   2.0000      -0.378598       -10.3022
  64   2.0000      -0.373441       -10.1618
  65   2.0000      -0.363733        -9.8977
  66   2.0000      -0.359909        -9.7936
  67   2.0000      -0.354141        -9.6367
  68   2.0000      -0.345404        -9.3989
  69   2.0000      -0.341994        -9.3061
  70   2.0000      -0.337106        -9.1731
  71   2.0000      -0.327157        -8.9024
  72   2.0000      -0.312987        -8.5168
  73   2.0000      -0.306077        -8.3288
  74   2.0000      -0.301098        -8.1933
  75   2.0000      -0.294671        -8.0184
  76   2.0000      -0.282330        -7.6826
  77   2.0000      -0.278427        -7.5764
  78   2.0000      -0.275288        -7.4910
  79   2.0000      -0.258869        -7.0442
  80   2.0000      -0.249420        -6.7871
  81   2.0000      -0.246062        -6.6957
  82   2.0000      -0.239793        -6.5251
  83   2.0000      -0.223804        -6.0900
  84   2.0000      -0.193560        -5.2670
  85   2.0000      -0.181632        -4.9424
  86   2.0000      -0.174351        -4.7443
  87   0.0000      -0.044206        -1.2029
  88   0.0000      -0.041840        -1.1385
  89   0.0000      -0.025868        -0.7039
  90   0.0000       0.003343         0.0910
  91   0.0000       0.032442         0.8828

MULLIKEN ATOMIC CHARGES
-----------------------
   0 C :   -0.280702
   1 C :   -0.036200
   2 O :   -0.222179
   3 C :    0.083996
   4 O :   -0.198161
   5 C :   -0.010461
   6 C :   -0.320583
   7 H :    0.154402
   8 C :    0.201477
   9 O :   -0.180639
  10 O :   -0.219484
  11 C :   -0.011977
  12 C :   -0.324057
  13 S :   -0.098585
  14 P :    0.643266
  15 S :   -0.334390
  16 O :   -0.395378
  17 C :   -0.080564
  18 O :   -0.359997
  19 C :   -0.111288
  20 H :    0.114587
  21 H :    0.112795
  22 H :    0.109869
  23 H :    0.127551
  24 H :    0.110632
  25 H :    0.118542
  26 H :    0.112722
  27 H :    0.105327
  28 H :    0.114610
  29 H :    0.150417
  30 H :    0.118201
  31 H :    0.110547
  32 H :    0.106259
  33 H :    0.112082
  34 H :    0.110715
  35 H :    0.124720
  36 H :    0.115959
  37 H :    0.125969
Sum of atomic charges:    0.0000000

LOEWDIN ATOMIC CHARGES
----------------------
   0 C :   -0.351548
   1 C :   -0.111799
   2 O :   -0.047444
   3 C :    0.017289
   4 O :   -0.169554
   5 C :   -0.249559
   6 C :   -0.261256
   7 H :    0.152916
   8 C :    0.012350
   9 O :   -0.152624
  10 O :   -0.036893
  11 C :   -0.104341
  12 C :   -0.362070
  13 S :    0.100425
  14 P :    0.599472
  15 S :   -0.302687
  16 O :   -0.263756
  17 C :   -0.210325
  18 O :   -0.238608
  19 C :   -0.215264
  20 H :    0.123896
  21 H :    0.131448
  22 H :    0.123892
  23 H :    0.116860
  24 H :    0.119767
  25 H :    0.145526
  26 H :    0.137260
  27 H :    0.118877
  28 H :    0.122817
  29 H :    0.128289
  30 H :    0.123934
  31 H :    0.130374
  32 H :    0.107637
  33 H :    0.108004
  34 H :    0.113380
  35 H :    0.109293
  36 H :    0.110178
  37 H :    0.123844

  Mayer bond orders larger than 0.100000
B(  0-C ,  1-C ) :   1.1510 B(  0-C , 20-H ) :   0.9486 B(  0-C , 21-H ) :   0.9444
B(  0-C , 22-H ) :   0.9505 B(  1-C ,  2-O ) :   0.8915 B(  1-C , 23-H ) :   0.9197
B(  1-C , 24-H ) :   0.9227 B(  2-O ,  3-C ) :   1.2553 B(  3-C ,  4-O ) :   1.9842
B(  3-C ,  5-C ) :   1.0018 B(  5-C ,  6-C ) :   1.0223 B(  5-C , 25-H ) :   0.8866
B(  5-C , 26-H ) :   0.8846 B(  6-C ,  7-H ) :   0.8714 B(  6-C ,  8-C ) :   0.8899
B(  6-C , 13-S ) :   1.0654 B(  8-C ,  9-O ) :   1.9747 B(  8-C , 10-O ) :   1.2725
B( 10-O , 11-C ) :   0.8945 B( 11-C , 12-C ) :   1.1808 B( 11-C , 27-H ) :   0.9365
B( 11-C , 28-H ) :   0.9108 B( 12-C , 29-H ) :   0.9244 B( 12-C , 30-H ) :   0.9436
B( 12-C , 31-H ) :   0.9393 B( 13-S , 14-P ) :   0.8992 B( 13-S , 15-S ) :   0.1179
B( 14-P , 15-S ) :   1.5390 B( 14-P , 16-O ) :   1.0739 B( 14-P , 18-O ) :   1.1217
B( 16-O , 17-C ) :   0.9396 B( 17-C , 32-H ) :   0.9512 B( 17-C , 33-H ) :   0.9380
B( 17-C , 34-H ) :   0.9561 B( 18-O , 19-C ) :   0.9331 B( 19-C , 35-H ) :   0.9382
B( 19-C , 36-H ) :   0.9441 B( 19-C , 37-H ) :   0.9601

Dispersion correction           -0.056233705
FINAL SINGLE POINT ENERGY     -1978.997196116743

DIPOLE MOMENT
-------------

Method             : SCF
Type of density    : Electron Density
Multiplicity       :   1
Irrep              :   0
Energy             : -1979.1255229502835391 Eh
Relativity type    :
Basis              : AO
                                X                 Y                 Z
Electronic contribution:    -14.008321670      -1.918617928      -6.185492049
Nuclear contribution   :     14.926766843       2.783119392       5.398530472
                        -----------------------------------------
Total Dipole Moment    :      0.918445173       0.864501464      -0.786961577
                        -----------------------------------------
Magnitude (a.u.)       :      1.486678459
Magnitude (Debye)      :      3.778836334

Rotational constants in cm-1:             0.013092             0.008901             0.007498
Rotational constants in MHz :           392.498444           266.857972           224.775389

                             ****ORCA TERMINATED NORMALLY****
TOTAL RUN TIME: 0 days 0 hours 1 minutes 32 seconds 322 msec
