                         Program Version 6.0.1  -  RELEASE   -
|  1> ! pbe def2-sv(p) def2/J RI DEFGRID1 loosescf d4 GCP(DFT/SV(P)) printgap
|  2> %output
|  3>     printlevel normal
|  4> end
|  5> * xyz 0 1
|  6> C 2.1375125197 -3.8704524027 0.4598189511
|  7> C 2.8075399736 -2.5103886452 0.423751858
|  8> O 2.2952034751 -1.7779462807 -0.7060163565
|  9> C 2.094344158 -0.4870424745 -0.6067492854
| 10> O 2.3084023122 0.1862470755 0.3832988724
| 11> C 1.5813682849 0.1104012134 -1.9042823326
| 12> C 0.3398426068 0.9728108256 -1.6554676783
| 13> H 0.2030784446 1.6731226149 -2.4825738498
| 14> C 0.4609881039 1.7509256915 -0.3592080758
| 15> O -0.255617783 1.5305633209 0.6031599065
| 16> O 1.3473724884 2.6971318498 -0.4324807499
| 17> C 1.6285535314 3.4588527477 0.7616630067
| 18> C 2.5027297416 4.6323761279 0.3692965419
| 19> S -1.1932070533 -0.0093070824 -1.607704106
| 20> P -1.639328577 -0.4489690985 0.4327695946
| 21> S -0.3495123529 -1.2247985821 1.6882578012
| 22> O -2.6183383464 0.6484858557 1.0278749147
| 23> C -3.8574265442 1.0055044533 0.3876408245
| 24> O -2.7636986421 -1.5594314708 0.0755007233
| 25> C -2.4210292834 -2.8772066406 -0.3507825308
| 26> H 1.0800243901 -3.7515104595 0.6805845978
| 27> H 2.2525493704 -4.3671371904 -0.4985564121
| 28> H 2.5928672771 -4.4717609208 1.2390731429
| 29> H 3.8880490699 -2.5993596343 0.2821204697
| 30> H 2.6009402274 -1.9386325196 1.3333788747
| 31> H 1.3563176404 -0.683032741 -2.6153641758
| 32> H 2.374878778 0.7482698557 -2.2994788733
| 33> H 0.6781378097 3.7766409275 1.2013868347
| 34> H 2.129455654 2.7854492776 1.4642784826
| 35> H 2.7356751059 5.2129310953 1.2554903479
| 36> H 3.4252557243 4.273819258 -0.076286442
| 37> H 1.9844010173 5.2627452071 -0.3468735506
| 38> H -3.6947006309 1.198057061 -0.6731716575
| 39> H -4.1876641686 1.9071460274 0.8974630818
| 40> H -4.5798832932 0.2007475492 0.5114156102
| 41> H -1.6428796671 -3.2864921183 0.2965170466
| 42> H -2.0752154313 -2.8575934307 -1.384200129
| 43> H -3.3331434198 -3.461915875 -0.26237082
| 44> *
| 45>
| 46>                          ****END OF INPUT****

CARTESIAN COORDINATES (ANGSTROEM)
---------------------------------
  C      2.137513   -3.870452    0.459819
  C      2.807540   -2.510389    0.423752
  O      2.295203   -1.777946   -0.706016
  C      2.094344   -0.487042   -0.606749
  O      2.308402    0.186247    0.383299
  C      1.581368    0.110401   -1.904282
  C      0.339843    0.972811   -1.655468
  H      0.203078    1.673123   -2.482574
  C      0.460988    1.750926   -0.359208
  O     -0.255618    1.530563    0.603160
  O      1.347372    2.697132   -0.432481
  C      1.628554    3.458853    0.761663
  C      2.502730    4.632376    0.369297
  S     -1.193207   -0.009307   -1.607704
  P     -1.639329   -0.448969    0.432770
  S     -0.349512   -1.224799    1.688258
  O     -2.618338    0.648486    1.027875
  C     -3.857427    1.005504    0.387641
  O     -2.763699   -1.559431    0.075501
  C     -2.421029   -2.877207   -0.350783
  H      1.080024   -3.751510    0.680585
  H      2.252549   -4.367137   -0.498556
  H      2.592867   -4.471761    1.239073
  H      3.888049   -2.599360    0.282120
  H      2.600940   -1.938633    1.333379
  H      1.356318   -0.683033   -2.615364
  H      2.374879    0.748270   -2.299479
  H      0.678138    3.776641    1.201387
  H      2.129456    2.785449    1.464278
  H      2.735675    5.212931    1.255490
  H      3.425256    4.273819   -0.076286
  H      1.984401    5.262745   -0.346874
  H     -3.694701    1.198057   -0.673172
  H     -4.187664    1.907146    0.897463
  H     -4.579883    0.200748    0.511416
  H     -1.642880   -3.286492    0.296517
  H     -2.075215   -2.857593   -1.384200
  H     -3.333143   -3.461916   -0.262371

 Total Charge           Charge          ....    0
 Multiplicity           Mult            ....    1
 Number of Electrons    NEL             ....  174
 Basis Dimension        Dim             ....  316

ORBITAL ENERGIES
----------------

  NO   OCC          E(Eh)            E(eV)
   0   2.0000     -88.033878     -2395.5236
   1   2.0000     -87.961128     -2393.5440
   2   2.0000     -76.415705     -2079.3770
   3   2.0000     -18.813685      -511.9464
   4   2.0000     -18.803627      -511.6727
   5   2.0000     -18.772958      -510.8382
   6   2.0000     -18.771859      -510.8082
   7   2.0000     -18.751479      -510.2537
   8   2.0000     -18.737232      -509.8660
   9   2.0000     -10.023968      -272.7660
  10   2.0000     -10.011807      -272.4351
  11   2.0000      -9.953909      -270.8596
  12   2.0000      -9.949291      -270.7340
  13   2.0000      -9.939954      -270.4799
  14   2.0000      -9.935931      -270.3704
  15   2.0000      -9.929264      -270.1890
  16   2.0000      -9.916749      -269.8485
  17   2.0000      -9.891266      -269.1550
  18   2.0000      -9.878228      -268.8003
  19   2.0000      -7.678711      -208.9483
  20   2.0000      -7.606401      -206.9807
  21   2.0000      -6.410549      -174.4399
  22   2.0000      -5.706800      -155.2899
  23   2.0000      -5.702775      -155.1804
  24   2.0000      -5.695926      -154.9940
  25   2.0000      -5.635710      -153.3555
  26   2.0000      -5.627116      -153.1216
  27   2.0000      -5.625950      -153.0899
  28   2.0000      -4.633769      -126.0913
  29   2.0000      -4.632664      -126.0612
  30   2.0000      -4.630680      -126.0072
  31   2.0000      -1.025500       -27.9053
  32   2.0000      -1.009706       -27.4755
  33   2.0000      -0.968027       -26.3414
  34   2.0000      -0.929946       -25.3051
  35   2.0000      -0.920405       -25.0455
  36   2.0000      -0.915507       -24.9122
  37   2.0000      -0.766070       -20.8458
  38   2.0000      -0.713063       -19.4034
  39   2.0000      -0.706566       -19.2266
  40   2.0000      -0.683681       -18.6039
  41   2.0000      -0.654546       -17.8111
  42   2.0000      -0.622852       -16.9487
  43   2.0000      -0.618924       -16.8418
  44   2.0000      -0.603770       -16.4294
  45   2.0000      -0.586663       -15.9639
  46   2.0000      -0.558535       -15.1985
  47   2.0000      -0.515834       -14.0366
  48   2.0000      -0.503974       -13.7138
  49   2.0000      -0.499921       -13.6035
  50   2.0000      -0.487691       -13.2708
  51   2.0000      -0.462300       -12.5798
  52   2.0000      -0.456963       -12.4346
  53   2.0000      -0.448874       -12.2145
  54   2.0000      -0.443759       -12.0753
  55   2.0000      -0.425046       -11.5661
  56   2.0000      -0.418067       -11.3762
  57   2.0000      -0.412708       -11.2304
  58   2.0000      -0.411452       -11.1962
  59   2.0000      -0.407313       -11.0835
  60   2.0000      -0.399666       -10.8755
  61   2.0000      -0.392702       -10.6860
  62   2.0000      -0.385139       -10.4802
  63   2.0000      -0.378889       -10.3101
  64   2.0000      -0.368764       -10.0346
  65   2.0000      -0.363219        -9.8837
  66   2.0000      -0.358752        -9.7621
  67   2.0000      -0.351950        -9.5770
  68   2.0000      -0.348314        -9.4781
  69   2.0000      -0.339314        -9.2332
  70   2.0000      -0.331831        -9.0296
  71   2.0000      -0.323994        -8.8163
  72   2.0000      -0.315532        -8.5861
  73   2.0000      -0.311433        -8.4745
  74   2.0000      -0.303560        -8.2603
  75   2.0000      -0.291813        -7.9406
  76   2.0000      -0.283572        -7.7164
  77   2.0000      -0.280449        -7.6314
  78   2.0000      -0.272023        -7.4021
  79   2.0000      -0.256847        -6.9892
  80   2.0000      -0.254206        -6.9173
  81   2.0000      -0.243570        -6.6279
  82   2.0000      -0.236587        -6.4379
  83   2.0000      -0.225170        -6.1272
  84   2.0000      -0.223206        -6.0737
  85   2.0000      -0.182072        -4.9544
  86   2.0000      -0.171682        -4.6717
  87   0.0000      -0.038035        -1.0350
  88   0.0000      -0.028771        -0.7829
  89   0.0000      -0.023605        -0.6423
  90   0.0000       0.004265         0.1161
  91   0.0000       0.031994         0.8706

MULLIKEN ATOMIC CHARGES
-----------------------
   0 C :   -0.300857
   1 C :   -0.025776
   2 O :   -0.218542
   3 C :    0.104220
   4 O :   -0.199681
   5 C :   -0.035745
   6 C :   -0.285755
   7 H :    0.143690
   8 C :    0.220339
   9 O :   -0.194966
  10 O :   -0.221520
  11 C :   -0.029375
  12 C :   -0.277210
  13 S :   -0.115221
  14 P :    0.637484
  15 S :   -0.326096
  16 O :   -0.366119
  17 C :   -0.096295
  18 O :   -0.409507
  19 C :   -0.109118
  20 H :    0.136922
  21 H :    0.106320
  22 H :    0.107280
  23 H :    0.099074
  24 H :    0.131721
  25 H :    0.115513
  26 H :    0.123839
  27 H :    0.114270
  28 H :    0.127924
  29 H :    0.115174
  30 H :    0.117829
  31 H :    0.112805
  32 H :    0.106862
  33 H :    0.123053
  34 H :    0.120996
  35 H :    0.124575
  36 H :    0.106567
  37 H :    0.115323
Sum of atomic charges:   -0.0000000

LOEWDIN ATOMIC CHARGES
----------------------
   0 C :   -0.355502
   1 C :   -0.109819
   2 O :   -0.043594
   3 C :    0.028361
   4 O :   -0.155979
   5 C :   -0.246273
   6 C :   -0.260596
   7 H :    0.146501
   8 C :    0.022536
   9 O :   -0.142306
  10 O :   -0.039150
  11 C :   -0.102267
  12 C :   -0.350677
  13 S :    0.086164
  14 P :    0.585709
  15 S :   -0.315045
  16 O :   -0.241585
  17 C :   -0.209268
  18 O :   -0.275078
  19 C :   -0.223275
  20 H :    0.125688
  21 H :    0.122217
  22 H :    0.129398
  23 H :    0.113848
  24 H :    0.124009
  25 H :    0.135370
  26 H :    0.148352
  27 H :    0.120246
  28 H :    0.128619
  29 H :    0.133110
  30 H :    0.128035
  31 H :    0.125327
  32 H :    0.104172
  33 H :    0.121408
  34 H :    0.114879
  35 H :    0.105297
  36 H :    0.103443
  37 H :    0.117726

  Mayer bond orders larger than 0.100000
B(  0-C ,  1-C ) :   1.1693 B(  0-C , 20-H ) :   0.9355 B(  0-C , 21-H ) :   0.9478
B(  0-C , 22-H ) :   0.9421 B(  1-C ,  2-O ) :   0.8959 B(  1-C , 23-H ) :   0.9350
B(  1-C , 24-H ) :   0.9071 B(  2-O ,  3-C ) :   1.2675 B(  2-O ,  4-O ) :   0.1029
B(  3-C ,  4-O ) :   1.9685 B(  3-C ,  5-C ) :   0.9995 B(  4-O ,  8-C ) :   0.1111
B(  5-C ,  6-C ) :   1.0250 B(  5-C , 25-H ) :   0.9048 B(  5-C , 26-H ) :   0.8778
B(  6-C ,  7-H ) :   0.8773 B(  6-C ,  8-C ) :   0.9128 B(  6-C , 13-S ) :   1.0285
B(  8-C ,  9-O ) :   1.9060 B(  8-C , 10-O ) :   1.2688 B(  9-O , 14-P ) :   0.1646
B( 10-O , 11-C ) :   0.8906 B( 11-C , 12-C ) :   1.1546 B( 11-C , 27-H ) :   0.9285
B( 11-C , 28-H ) :   0.9264 B( 12-C , 29-H ) :   0.9432 B( 12-C , 30-H ) :   0.9488
B( 12-C , 31-H ) :   0.9513 B( 13-S , 14-P ) :   0.9331 B( 13-S , 15-S ) :   0.1099
B( 14-P , 15-S ) :   1.6116 B( 14-P , 16-O ) :   1.1040 B( 14-P , 18-O ) :   0.9997
B( 16-O , 17-C ) :   0.9305 B( 17-C , 32-H ) :   0.9385 B( 17-C , 33-H ) :   0.9587
B( 17-C , 34-H ) :   0.9487 B( 18-O , 19-C ) :   0.9471 B( 19-C , 35-H ) :   0.9259
B( 19-C , 36-H ) :   0.9475 B( 19-C , 37-H ) :   0.9575

Dispersion correction           -0.053461608
FINAL SINGLE POINT ENERGY     -1979.006812383639

DIPOLE MOMENT
-------------

Method             : SCF
Type of density    : Electron Density
Multiplicity       :   1
Irrep              :   0
Energy             : -1979.1362488729314464 Eh
Relativity type    :
Basis              : AO
                                X                 Y                 Z
Electronic contribution:     -8.404147842       0.456356052       0.422403784
Nuclear contribution   :      8.820664018       0.107327355      -1.760761179
                        -----------------------------------------
Total Dipole Moment    :      0.416516176       0.563683407      -1.338357396
                        -----------------------------------------
Magnitude (a.u.)       :      1.510769747
Magnitude (Debye)      :      3.840071521

Rotational constants in cm-1:             0.011234             0.009302             0.006414
Rotational constants in MHz :           336.790134           278.876869           192.292805

                             ****ORCA TERMINATED NORMALLY****
TOTAL RUN TIME: 0 days 0 hours 0 minutes 35 seconds 435 msec
