                         Program Version 6.0.0  -   RELEASE  -
|  1> ! pbe def2-sv(p) def2/J RI DEFGRID1 loosescf d4 GCP(DFT/SV(P)) printgap
|  2> %output
|  3>     printlevel normal
|  4> end
|  5> * xyz 0 1
|  6> C 4.1202914513 -2.6833371785 0.0028371251
|  7> C 4.5035921258 -1.2775936811 0.4182559765
|  8> O 3.3641888311 -0.5048759116 0.8369704426
|  9> P 2.2292694049 -0.0430611073 -0.1753373552
| 10> S 2.8728165745 0.5280526906 -1.9414558645
| 11> O 1.4742850118 1.0542280899 0.6892214043
| 12> C 1.7653886321 2.4579500358 0.5672409963
| 13> C 3.1193105589 2.8006824154 1.152251977
| 14> S 0.8198733443 -1.6025070999 -0.1095751431
| 15> C -0.1373344146 -1.1103438658 -1.5686717767
| 16> S -0.7841162634 0.5929734536 -1.5187081098
| 17> P -2.1761541675 0.4304775375 0.0613360137
| 18> S -3.3553941021 1.9749183345 0.3012075292
| 19> O -1.2227721578 0.0844297075 1.2731566321
| 20> C -1.6340492479 0.2609543173 2.6440457488
| 21> C -2.7010469876 -0.736662243 3.0403446155
| 22> O -2.9118430643 -0.9593007607 -0.1972401339
| 23> C -4.0751311591 -1.0656917373 -1.0410561861
| 24> C -4.821888257 -2.3238435827 -0.6453186278
| 25> H 5.0207099259 -3.2613377303 -0.1789628449
| 26> H 3.5340559776 -3.1616111671 0.7834099416
| 27> H 3.528848126 -2.6535233192 -0.9111070721
| 28> H 4.9910063187 -0.7522205197 -0.4092997727
| 29> H 5.1543286135 -1.2781505317 1.2937111406
| 30> H 1.7167869479 2.732645601 -0.4923931126
| 31> H 0.9512525379 2.9466612574 1.1059431391
| 32> H 3.1856750637 2.4449286202 2.1770726758
| 33> H 3.9046428241 2.3288140035 0.5628201586
| 34> H 3.2589517183 3.8769076163 1.1306316654
| 35> H -0.9554590923 -1.8202751327 -1.6538591867
| 36> H 0.5040074776 -1.1347119377 -2.4491247212
| 37> H -0.7115923833 0.1205829714 3.2095042788
| 38> H -1.9961683173 1.2870075524 2.7668845966
| 39> H -3.6171012306 -0.5330240517 2.4876635923
| 40> H -2.3691150985 -1.74740128 2.8179505571
| 41> H -2.9020927832 -0.6449823515 4.1031558701
| 42> H -4.6903522796 -0.1704051688 -0.9018625154
| 43> H -3.7449849838 -1.1078094368 -2.082801998
| 44> H -4.1730379784 -3.1891637 -0.7446154077
| 45> H -5.157543556 -2.2530578628 0.3852613902
| 46> H -5.6833918823 -2.4437599602 -1.293887281
| 47> *
| 48>
| 49>                          ****END OF INPUT****

CARTESIAN COORDINATES (ANGSTROEM)
---------------------------------
  C      4.120291   -2.683337    0.002837
  C      4.503592   -1.277594    0.418256
  O      3.364189   -0.504876    0.836970
  P      2.229269   -0.043061   -0.175337
  S      2.872817    0.528053   -1.941456
  O      1.474285    1.054228    0.689221
  C      1.765389    2.457950    0.567241
  C      3.119311    2.800682    1.152252
  S      0.819873   -1.602507   -0.109575
  C     -0.137334   -1.110344   -1.568672
  S     -0.784116    0.592973   -1.518708
  P     -2.176154    0.430478    0.061336
  S     -3.355394    1.974918    0.301208
  O     -1.222772    0.084430    1.273157
  C     -1.634049    0.260954    2.644046
  C     -2.701047   -0.736662    3.040345
  O     -2.911843   -0.959301   -0.197240
  C     -4.075131   -1.065692   -1.041056
  C     -4.821888   -2.323844   -0.645319
  H      5.020710   -3.261338   -0.178963
  H      3.534056   -3.161611    0.783410
  H      3.528848   -2.653523   -0.911107
  H      4.991006   -0.752221   -0.409300
  H      5.154329   -1.278151    1.293711
  H      1.716787    2.732646   -0.492393
  H      0.951253    2.946661    1.105943
  H      3.185675    2.444929    2.177073
  H      3.904643    2.328814    0.562820
  H      3.258952    3.876908    1.130632
  H     -0.955459   -1.820275   -1.653859
  H      0.504007   -1.134712   -2.449125
  H     -0.711592    0.120583    3.209504
  H     -1.996168    1.287008    2.766885
  H     -3.617101   -0.533024    2.487664
  H     -2.369115   -1.747401    2.817951
  H     -2.902093   -0.644982    4.103156
  H     -4.690352   -0.170405   -0.901863
  H     -3.744985   -1.107809   -2.082802
  H     -4.173038   -3.189164   -0.744615
  H     -5.157544   -2.253058    0.385261
  H     -5.683392   -2.443760   -1.293887

 Total Charge           Charge          ....    0
 Multiplicity           Mult            ....    1
 Number of Electrons    NEL             ....  202
 Basis Dimension        Dim             ....  334

ORBITAL ENERGIES
----------------

  NO   OCC          E(Eh)            E(eV)
   0   2.0000     -88.041104     -2395.7202
   1   2.0000     -88.040844     -2395.7132
   2   2.0000     -87.988482     -2394.2883
   3   2.0000     -87.985734     -2394.2136
   4   2.0000     -76.426203     -2079.6627
   5   2.0000     -76.424126     -2079.6062
   6   2.0000     -18.796171      -511.4698
   7   2.0000     -18.794937      -511.4362
   8   2.0000     -18.786217      -511.1989
   9   2.0000     -18.784299      -511.1468
  10   2.0000      -9.959188      -271.0033
  11   2.0000      -9.955601      -270.9057
  12   2.0000      -9.953618      -270.8517
  13   2.0000      -9.949719      -270.7456
  14   2.0000      -9.944562      -270.6053
  15   2.0000      -9.891957      -269.1738
  16   2.0000      -9.885452      -268.9968
  17   2.0000      -9.883667      -268.9482
  18   2.0000      -9.879932      -268.8466
  19   2.0000      -7.686529      -209.1611
  20   2.0000      -7.685781      -209.1407
  21   2.0000      -7.633405      -207.7155
  22   2.0000      -7.630950      -207.6487
  23   2.0000      -6.423558      -174.7939
  24   2.0000      -6.422132      -174.7551
  25   2.0000      -5.714446      -155.4980
  26   2.0000      -5.714071      -155.4878
  27   2.0000      -5.711206      -155.4098
  28   2.0000      -5.710022      -155.3776
  29   2.0000      -5.703151      -155.1906
  30   2.0000      -5.702615      -155.1760
  31   2.0000      -5.662198      -154.0762
  32   2.0000      -5.659827      -154.0117
  33   2.0000      -5.654077      -153.8552
  34   2.0000      -5.653690      -153.8447
  35   2.0000      -5.651492      -153.7849
  36   2.0000      -5.651229      -153.7778
  37   2.0000      -4.645895      -126.4212
  38   2.0000      -4.645309      -126.4053
  39   2.0000      -4.644484      -126.3828
  40   2.0000      -4.644285      -126.3774
  41   2.0000      -4.644127      -126.3731
  42   2.0000      -4.642526      -126.3296
  43   2.0000      -0.986937       -26.8559
  44   2.0000      -0.984971       -26.8024
  45   2.0000      -0.946094       -25.7445
  46   2.0000      -0.943238       -25.6668
  47   2.0000      -0.764053       -20.7909
  48   2.0000      -0.722248       -19.6534
  49   2.0000      -0.707724       -19.2582
  50   2.0000      -0.689879       -18.7726
  51   2.0000      -0.685234       -18.6462
  52   2.0000      -0.672886       -18.3102
  53   2.0000      -0.653553       -17.7841
  54   2.0000      -0.637726       -17.3534
  55   2.0000      -0.601562       -16.3693
  56   2.0000      -0.595652       -16.2085
  57   2.0000      -0.570394       -15.5212
  58   2.0000      -0.568382       -15.4665
  59   2.0000      -0.562137       -15.2965
  60   2.0000      -0.506421       -13.7804
  61   2.0000      -0.491560       -13.3760
  62   2.0000      -0.476875       -12.9764
  63   2.0000      -0.470993       -12.8164
  64   2.0000      -0.459053       -12.4915
  65   2.0000      -0.443438       -12.0666
  66   2.0000      -0.438790       -11.9401
  67   2.0000      -0.435531       -11.8514
  68   2.0000      -0.426558       -11.6072
  69   2.0000      -0.417653       -11.3649
  70   2.0000      -0.410980       -11.1833
  71   2.0000      -0.397911       -10.8277
  72   2.0000      -0.388876       -10.5819
  73   2.0000      -0.386676       -10.5220
  74   2.0000      -0.381434       -10.3793
  75   2.0000      -0.376200       -10.2369
  76   2.0000      -0.366222        -9.9654
  77   2.0000      -0.360339        -9.8053
  78   2.0000      -0.358572        -9.7572
  79   2.0000      -0.351964        -9.5774
  80   2.0000      -0.347703        -9.4615
  81   2.0000      -0.346573        -9.4307
  82   2.0000      -0.343571        -9.3490
  83   2.0000      -0.339693        -9.2435
  84   2.0000      -0.331698        -9.0260
  85   2.0000      -0.321376        -8.7451
  86   2.0000      -0.313264        -8.5244
  87   2.0000      -0.298063        -8.1107
  88   2.0000      -0.295438        -8.0393
  89   2.0000      -0.289925        -7.8893
  90   2.0000      -0.278715        -7.5842
  91   2.0000      -0.273863        -7.4522
  92   2.0000      -0.266544        -7.2530
  93   2.0000      -0.263284        -7.1643
  94   2.0000      -0.261983        -7.1289
  95   2.0000      -0.230367        -6.2686
  96   2.0000      -0.218079        -5.9342
  97   2.0000      -0.208885        -5.6841
  98   2.0000      -0.206383        -5.6160
  99   2.0000      -0.201662        -5.4875
 100   2.0000      -0.200184        -5.4473
 101   0.0000      -0.041870        -1.1393
 102   0.0000      -0.016617        -0.4522
 103   0.0000      -0.008710        -0.2370
 104   0.0000       0.004182         0.1138
 105   0.0000       0.009307         0.2533

MULLIKEN ATOMIC CHARGES
-----------------------
   0 C :   -0.315638
   1 C :   -0.004461
   2 O :   -0.370801
   3 P :    0.612583
   4 S :   -0.337953
   5 O :   -0.353738
   6 C :   -0.006468
   7 C :   -0.303084
   8 S :   -0.071633
   9 C :   -0.356550
  10 S :   -0.071450
  11 P :    0.619932
  12 S :   -0.331489
  13 O :   -0.353166
  14 C :   -0.002507
  15 C :   -0.310211
  16 O :   -0.389817
  17 C :   -0.013252
  18 C :   -0.283013
  19 H :    0.113442
  20 H :    0.117853
  21 H :    0.126134
  22 H :    0.111425
  23 H :    0.105847
  24 H :    0.114665
  25 H :    0.107071
  26 H :    0.113332
  27 H :    0.119208
  28 H :    0.111459
  29 H :    0.182125
  30 H :    0.192334
  31 H :    0.106275
  32 H :    0.110479
  33 H :    0.121747
  34 H :    0.117514
  35 H :    0.111024
  36 H :    0.111752
  37 H :    0.099814
  38 H :    0.113855
  39 H :    0.121607
  40 H :    0.113756
Sum of atomic charges:    0.0000000

LOEWDIN ATOMIC CHARGES
----------------------
   0 C :   -0.369993
   1 C :   -0.119127
   2 O :   -0.244238
   3 P :    0.573377
   4 S :   -0.327969
   5 O :   -0.234256
   6 C :   -0.119184
   7 C :   -0.364054
   8 S :    0.100955
   9 C :   -0.477637
  10 S :    0.096134
  11 P :    0.562248
  12 S :   -0.326333
  13 O :   -0.232160
  14 C :   -0.115290
  15 C :   -0.365125
  16 O :   -0.252861
  17 C :   -0.121318
  18 C :   -0.350262
  19 H :    0.131226
  20 H :    0.124121
  21 H :    0.120764
  22 H :    0.110742
  23 H :    0.118957
  24 H :    0.110590
  25 H :    0.118914
  26 H :    0.124734
  27 H :    0.121125
  28 H :    0.129899
  29 H :    0.131337
  30 H :    0.133995
  31 H :    0.119502
  32 H :    0.110281
  33 H :    0.120861
  34 H :    0.126498
  35 H :    0.129845
  36 H :    0.109480
  37 H :    0.109105
  38 H :    0.125263
  39 H :    0.128263
  40 H :    0.131590

  Mayer bond orders larger than 0.100000
B(  0-C ,  1-C ) :   1.1664 B(  0-C , 19-H ) :   0.9376 B(  0-C , 20-H ) :   0.9446
B(  0-C , 21-H ) :   0.9352 B(  1-C ,  2-O ) :   0.9083 B(  1-C , 22-H ) :   0.9160
B(  1-C , 23-H ) :   0.9340 B(  2-O ,  3-P ) :   1.1110 B(  3-P ,  4-S ) :   1.5845
B(  3-P ,  5-O ) :   1.1305 B(  3-P ,  8-S ) :   0.9724 B(  4-S ,  8-S ) :   0.1101
B(  5-O ,  6-C ) :   0.9071 B(  6-C ,  7-C ) :   1.1616 B(  6-C , 24-H ) :   0.9159
B(  6-C , 25-H ) :   0.9331 B(  7-C , 26-H ) :   0.9465 B(  7-C , 27-H ) :   0.9379
B(  7-C , 28-H ) :   0.9402 B(  8-S ,  9-C ) :   1.0043 B(  9-C , 10-S ) :   0.9900
B(  9-C , 29-H ) :   0.9004 B(  9-C , 30-H ) :   0.8903 B( 10-S , 11-P ) :   0.9736
B( 11-P , 12-S ) :   1.6429 B( 11-P , 13-O ) :   1.1361 B( 11-P , 16-O ) :   1.0636
B( 13-O , 14-C ) :   0.9060 B( 14-C , 15-C ) :   1.1627 B( 14-C , 31-H ) :   0.9330
B( 14-C , 32-H ) :   0.9172 B( 15-C , 33-H ) :   0.9360 B( 15-C , 34-H ) :   0.9465
B( 15-C , 35-H ) :   0.9383 B( 16-O , 17-C ) :   0.9011 B( 17-C , 18-C ) :   1.1610
B( 17-C , 36-H ) :   0.9078 B( 17-C , 37-H ) :   0.9276 B( 18-C , 38-H ) :   0.9511
B( 18-C , 39-H ) :   0.9508 B( 18-C , 40-H ) :   0.9416

Dispersion correction           -0.065651807
FINAL SINGLE POINT ENERGY     -2929.521940107580

DIPOLE MOMENT
-------------

Method             : SCF
Type of density    : Electron Density
Multiplicity       :   1
Irrep              :   0
Energy             : -2929.6411068492570848 Eh
Relativity type    :
Basis              : AO
                                X                 Y                 Z
Electronic contribution:      0.384038871       8.906230213     -10.493404842
Nuclear contribution   :     -0.259181742     -10.164225050      11.217341775
                        -----------------------------------------
Total Dipole Moment    :      0.124857128      -1.257994836       0.723936933
                        -----------------------------------------
Magnitude (a.u.)       :      1.456785843
Magnitude (Debye)      :      3.702855343

Rotational constants in cm-1:             0.012693             0.004974             0.004660
Rotational constants in MHz :           380.524738           149.108319           139.701412

                             ****ORCA TERMINATED NORMALLY****
TOTAL RUN TIME: 0 days 0 hours 0 minutes 21 seconds 719 msec
