                         Program Version 6.0.0  -   RELEASE  -
|  1> ! pbe def2-sv(p) def2/J RI DEFGRID1 loosescf d4 GCP(DFT/SV(P)) printgap
|  2> %output
|  3>     printlevel normal
|  4> end
|  5> * xyz 0 1
|  6> C 2.9635371623 -2.7062269099 1.3631037937
|  7> C 1.6648893716 -2.2192564567 0.7529018176
|  8> O 1.576845367 -0.7861041796 0.8135339578
|  9> P 2.2995479101 0.1763599499 -0.239397327
| 10> S 3.0140843793 -0.6692581166 -1.8474092018
| 11> O 3.4362840384 0.9157013258 0.5747109548
| 12> C 3.2620157366 1.4920861424 1.8938681638
| 13> C 2.9744608768 2.9771709535 1.8056138466
| 14> S 0.7929563929 1.6427466428 -0.5332353806
| 15> C -0.0144898814 0.8321124346 -1.9327662258
| 16> S -0.6795163609 -0.8069922318 -1.530492037
| 17> P -2.1550233503 -0.1512567211 -0.1740970034
| 18> S -3.0479968921 1.5475643687 -0.5893394793
| 19> O -1.3920895634 -0.2370992037 1.2043542259
| 20> C -1.8200148407 0.4809758126 2.3867254147
| 21> C -0.606708568 1.1096810997 3.0403451065
| 22> O -3.1335101044 -1.3991526356 -0.0617698572
| 23> C -4.1620639265 -1.6602095524 -1.0380297713
| 24> C -5.2390691127 -2.4926523432 -0.371783366
| 25> H 3.0488603603 -2.3730527362 2.3939499289
| 26> H 2.9920503177 -3.7906743423 1.3310493838
| 27> H 3.8041744505 -2.3126513296 0.7924248161
| 28> H 0.7918167533 -2.567789476 1.3074021021
| 29> H 1.5853240517 -2.5357615816 -0.2921280253
| 30> H 2.4603250392 0.9606586605 2.4103125068
| 31> H 4.2145091327 1.3049797183 2.392671793
| 32> H 3.763207383 3.476953564 1.2503400571
| 33> H 2.0279339787 3.1565298071 1.2993781776
| 34> H 2.9252465237 3.3884717741 2.8089470297
| 35> H 0.708910134 0.680375126 -2.7332431339
| 36> H -0.826466716 1.4887787825 -2.2447694235
| 37> H -2.5507332113 1.2422010545 2.0935905166
| 38> H -2.2982029508 -0.2493319496 3.0425487143
| 39> H -0.9104596717 1.5989516532 3.9600054581
| 40> H 0.1290385376 0.3423676184 3.2647560599
| 41> H -0.162773594 1.8441481515 2.3727909998
| 42> H -4.5582770025 -0.7025916899 -1.3925491156
| 43> H -3.7053715743 -2.1926003431 -1.8762572634
| 44> H -4.811176017 -3.4155222494 0.0087692117
| 45> H -5.6806683896 -1.9414693284 0.4536874756
| 46> H -6.0093119024 -2.7258003341 -1.0995332572
| 47> *
| 48>
| 49>                          ****END OF INPUT****

CARTESIAN COORDINATES (ANGSTROEM)
---------------------------------
  C      2.963537   -2.706227    1.363104
  C      1.664889   -2.219256    0.752902
  O      1.576845   -0.786104    0.813534
  P      2.299548    0.176360   -0.239397
  S      3.014084   -0.669258   -1.847409
  O      3.436284    0.915701    0.574711
  C      3.262016    1.492086    1.893868
  C      2.974461    2.977171    1.805614
  S      0.792956    1.642747   -0.533235
  C     -0.014490    0.832112   -1.932766
  S     -0.679516   -0.806992   -1.530492
  P     -2.155023   -0.151257   -0.174097
  S     -3.047997    1.547564   -0.589339
  O     -1.392090   -0.237099    1.204354
  C     -1.820015    0.480976    2.386725
  C     -0.606709    1.109681    3.040345
  O     -3.133510   -1.399153   -0.061770
  C     -4.162064   -1.660210   -1.038030
  C     -5.239069   -2.492652   -0.371783
  H      3.048860   -2.373053    2.393950
  H      2.992050   -3.790674    1.331049
  H      3.804174   -2.312651    0.792425
  H      0.791817   -2.567789    1.307402
  H      1.585324   -2.535762   -0.292128
  H      2.460325    0.960659    2.410313
  H      4.214509    1.304980    2.392672
  H      3.763207    3.476954    1.250340
  H      2.027934    3.156530    1.299378
  H      2.925247    3.388472    2.808947
  H      0.708910    0.680375   -2.733243
  H     -0.826467    1.488779   -2.244769
  H     -2.550733    1.242201    2.093591
  H     -2.298203   -0.249332    3.042549
  H     -0.910460    1.598952    3.960005
  H      0.129039    0.342368    3.264756
  H     -0.162774    1.844148    2.372791
  H     -4.558277   -0.702592   -1.392549
  H     -3.705372   -2.192600   -1.876257
  H     -4.811176   -3.415522    0.008769
  H     -5.680668   -1.941469    0.453687
  H     -6.009312   -2.725800   -1.099533

 Total Charge           Charge          ....    0
 Multiplicity           Mult            ....    1
 Number of Electrons    NEL             ....  202
 Basis Dimension        Dim             ....  334

ORBITAL ENERGIES
----------------

  NO   OCC          E(Eh)            E(eV)
   0   2.0000     -88.043600     -2395.7882
   1   2.0000     -88.040510     -2395.7041
   2   2.0000     -87.988504     -2394.2889
   3   2.0000     -87.985961     -2394.2197
   4   2.0000     -76.426403     -2079.6682
   5   2.0000     -76.425716     -2079.6495
   6   2.0000     -18.795409      -511.4491
   7   2.0000     -18.793290      -511.3914
   8   2.0000     -18.790675      -511.3203
   9   2.0000     -18.787154      -511.2245
  10   2.0000      -9.960795      -271.0470
  11   2.0000      -9.953655      -270.8527
  12   2.0000      -9.953535      -270.8495
  13   2.0000      -9.953092      -270.8374
  14   2.0000      -9.946281      -270.6521
  15   2.0000      -9.891821      -269.1701
  16   2.0000      -9.889257      -269.1004
  17   2.0000      -9.887496      -269.0524
  18   2.0000      -9.882354      -268.9125
  19   2.0000      -7.688612      -209.2178
  20   2.0000      -7.685469      -209.1322
  21   2.0000      -7.633517      -207.7185
  22   2.0000      -7.631236      -207.6565
  23   2.0000      -6.424238      -174.8124
  24   2.0000      -6.423304      -174.7870
  25   2.0000      -5.716489      -155.5536
  26   2.0000      -5.713299      -155.4668
  27   2.0000      -5.713142      -155.4625
  28   2.0000      -5.710130      -155.3805
  29   2.0000      -5.705542      -155.2557
  30   2.0000      -5.702321      -155.1681
  31   2.0000      -5.662226      -154.0770
  32   2.0000      -5.660292      -154.0244
  33   2.0000      -5.654190      -153.8583
  34   2.0000      -5.653832      -153.8486
  35   2.0000      -5.651775      -153.7926
  36   2.0000      -5.651278      -153.7791
  37   2.0000      -4.646641      -126.4415
  38   2.0000      -4.646185      -126.4291
  39   2.0000      -4.646006      -126.4243
  40   2.0000      -4.644761      -126.3904
  41   2.0000      -4.644683      -126.3882
  42   2.0000      -4.643887      -126.3666
  43   2.0000      -0.987200       -26.8631
  44   2.0000      -0.984853       -26.7992
  45   2.0000      -0.945592       -25.7309
  46   2.0000      -0.942816       -25.6553
  47   2.0000      -0.765774       -20.8378
  48   2.0000      -0.724357       -19.7108
  49   2.0000      -0.712738       -19.3946
  50   2.0000      -0.691219       -18.8090
  51   2.0000      -0.689644       -18.7662
  52   2.0000      -0.673522       -18.3275
  53   2.0000      -0.650240       -17.6939
  54   2.0000      -0.638935       -17.3863
  55   2.0000      -0.598552       -16.2874
  56   2.0000      -0.588228       -16.0065
  57   2.0000      -0.579395       -15.7661
  58   2.0000      -0.570007       -15.5107
  59   2.0000      -0.558740       -15.2041
  60   2.0000      -0.510222       -13.8838
  61   2.0000      -0.499357       -13.5882
  62   2.0000      -0.481870       -13.1124
  63   2.0000      -0.478028       -13.0078
  64   2.0000      -0.456147       -12.4124
  65   2.0000      -0.446852       -12.1595
  66   2.0000      -0.441862       -12.0237
  67   2.0000      -0.435467       -11.8497
  68   2.0000      -0.431127       -11.7316
  69   2.0000      -0.415171       -11.2974
  70   2.0000      -0.404870       -11.0171
  71   2.0000      -0.396407       -10.7868
  72   2.0000      -0.390118       -10.6156
  73   2.0000      -0.382847       -10.4178
  74   2.0000      -0.378733       -10.3059
  75   2.0000      -0.375632       -10.2215
  76   2.0000      -0.371688       -10.1141
  77   2.0000      -0.359825        -9.7913
  78   2.0000      -0.357952        -9.7404
  79   2.0000      -0.357494        -9.7279
  80   2.0000      -0.353219        -9.6116
  81   2.0000      -0.348944        -9.4952
  82   2.0000      -0.344145        -9.3647
  83   2.0000      -0.341163        -9.2835
  84   2.0000      -0.334913        -9.1134
  85   2.0000      -0.320263        -8.7148
  86   2.0000      -0.309542        -8.4231
  87   2.0000      -0.304811        -8.2943
  88   2.0000      -0.300454        -8.1758
  89   2.0000      -0.289460        -7.8766
  90   2.0000      -0.281054        -7.6479
  91   2.0000      -0.279512        -7.6059
  92   2.0000      -0.272050        -7.4029
  93   2.0000      -0.263933        -7.1820
  94   2.0000      -0.258749        -7.0409
  95   2.0000      -0.232377        -6.3233
  96   2.0000      -0.216192        -5.8829
  97   2.0000      -0.213922        -5.8211
  98   2.0000      -0.207563        -5.6481
  99   2.0000      -0.200061        -5.4439
 100   2.0000      -0.199790        -5.4366
 101   0.0000      -0.045298        -1.2326
 102   0.0000      -0.022699        -0.6177
 103   0.0000      -0.001858        -0.0505
 104   0.0000       0.003730         0.1015
 105   0.0000       0.006707         0.1825

MULLIKEN ATOMIC CHARGES
-----------------------
   0 C :   -0.299421
   1 C :   -0.006405
   2 O :   -0.380590
   3 P :    0.628806
   4 S :   -0.315409
   5 O :   -0.364976
   6 C :   -0.037243
   7 C :   -0.307959
   8 S :   -0.107113
   9 C :   -0.350696
  10 S :   -0.081897
  11 P :    0.617370
  12 S :   -0.341812
  13 O :   -0.356206
  14 C :   -0.005048
  15 C :   -0.308208
  16 O :   -0.379442
  17 C :   -0.009691
  18 C :   -0.281282
  19 H :    0.105870
  20 H :    0.110624
  21 H :    0.124206
  22 H :    0.101262
  23 H :    0.114862
  24 H :    0.121099
  25 H :    0.111451
  26 H :    0.125445
  27 H :    0.141739
  28 H :    0.112440
  29 H :    0.193876
  30 H :    0.193092
  31 H :    0.108527
  32 H :    0.102772
  33 H :    0.106911
  34 H :    0.128389
  35 H :    0.129074
  36 H :    0.106605
  37 H :    0.102630
  38 H :    0.116208
  39 H :    0.117268
  40 H :    0.112872
Sum of atomic charges:   -0.0000000

LOEWDIN ATOMIC CHARGES
----------------------
   0 C :   -0.363253
   1 C :   -0.123377
   2 O :   -0.246531
   3 P :    0.573009
   4 S :   -0.308175
   5 O :   -0.242153
   6 C :   -0.115972
   7 C :   -0.361247
   8 S :    0.084236
   9 C :   -0.480286
  10 S :    0.094055
  11 P :    0.566942
  12 S :   -0.326219
  13 O :   -0.235217
  14 C :   -0.112968
  15 C :   -0.357996
  16 O :   -0.252335
  17 C :   -0.120304
  18 C :   -0.350687
  19 H :    0.120222
  20 H :    0.129983
  21 H :    0.124651
  22 H :    0.115357
  23 H :    0.106529
  24 H :    0.112005
  25 H :    0.122406
  26 H :    0.132002
  27 H :    0.119086
  28 H :    0.131566
  29 H :    0.132103
  30 H :    0.130812
  31 H :    0.107818
  32 H :    0.114348
  33 H :    0.128285
  34 H :    0.124299
  35 H :    0.122758
  36 H :    0.107702
  37 H :    0.111182
  38 H :    0.126566
  39 H :    0.127616
  40 H :    0.131184

  Mayer bond orders larger than 0.100000
B(  0-C ,  1-C ) :   1.1614 B(  0-C , 19-H ) :   0.9486 B(  0-C , 20-H ) :   0.9413
B(  0-C , 21-H ) :   0.9382 B(  1-C ,  2-O ) :   0.9002 B(  1-C , 22-H ) :   0.9321
B(  1-C , 23-H ) :   0.9088 B(  2-O ,  3-P ) :   1.0753 B(  3-P ,  4-S ) :   1.6274
B(  3-P ,  5-O ) :   1.1333 B(  3-P ,  8-S ) :   0.9471 B(  4-S ,  8-S ) :   0.1021
B(  5-O ,  6-C ) :   0.8999 B(  6-C ,  7-C ) :   1.1687 B(  6-C , 24-H ) :   0.9104
B(  6-C , 25-H ) :   0.9332 B(  7-C , 26-H ) :   0.9447 B(  7-C , 27-H ) :   0.9297
B(  7-C , 28-H ) :   0.9384 B(  8-S ,  9-C ) :   1.0100 B(  9-C , 10-S ) :   1.0009
B(  9-C , 29-H ) :   0.8832 B(  9-C , 30-H ) :   0.8806 B( 10-S , 11-P ) :   0.9642
B( 10-S , 12-S ) :   0.1070 B( 11-P , 12-S ) :   1.6032 B( 11-P , 13-O ) :   1.1428
B( 11-P , 16-O ) :   1.1119 B( 13-O , 14-C ) :   0.8979 B( 14-C , 15-C ) :   1.1672
B( 14-C , 31-H ) :   0.9028 B( 14-C , 32-H ) :   0.9337 B( 15-C , 33-H ) :   0.9370
B( 15-C , 34-H ) :   0.9384 B( 15-C , 35-H ) :   0.9401 B( 16-O , 17-C ) :   0.9053
B( 17-C , 18-C ) :   1.1615 B( 17-C , 36-H ) :   0.9073 B( 17-C , 37-H ) :   0.9304
B( 18-C , 38-H ) :   0.9509 B( 18-C , 39-H ) :   0.9511 B( 18-C , 40-H ) :   0.9419

Dispersion correction           -0.066058875
FINAL SINGLE POINT ENERGY     -2929.523923604484

DIPOLE MOMENT
-------------

Method             : SCF
Type of density    : Electron Density
Multiplicity       :   1
Irrep              :   0
Energy             : -2929.6426809468653119 Eh
Relativity type    :
Basis              : AO
                                X                 Y                 Z
Electronic contribution:      2.512085010       4.607087880     -19.178365369
Nuclear contribution   :     -2.996938849      -5.088089534      20.749326140
                        -----------------------------------------
Total Dipole Moment    :     -0.484853840      -0.481001654       1.570960770
                        -----------------------------------------
Magnitude (a.u.)       :      1.712998418
Magnitude (Debye)      :      4.354095952

Rotational constants in cm-1:             0.011888             0.005295             0.004930
Rotational constants in MHz :           356.400981           158.754748           147.797079

                             ****ORCA TERMINATED NORMALLY****
TOTAL RUN TIME: 0 days 0 hours 0 minutes 21 seconds 807 msec
