                         Program Version 6.0.0  -   RELEASE  -
|  1> ! r2scan-3c def2/J RI DEFGRID2 scfconv6 printgap
|  2> %output
|  3>     printlevel normal
|  4> end
|  5> * xyz 0 1
|  6> C 5.3831824442 -0.0657732822 -1.0673080771
|  7> C 4.4902483933 -0.842872515 -0.1189890565
|  8> O 3.5022752572 0.0133388924 0.4848735062
|  9> P 2.0505730004 0.2220801478 -0.1325763162
| 10> S 1.9711836892 0.8464986139 -1.9923924416
| 11> O 1.422048546 1.1590074338 0.9781704711
| 12> C 1.4281594306 2.5963768493 0.845944603
| 13> C 2.8329158313 3.1566892244 0.8798931089
| 14> S 1.1540978578 -1.6532768656 0.2588425637
| 15> C 0.1072238798 -1.8448893751 -1.225898897
| 16> S -1.608715505 -2.2553651325 -0.826851831
| 17> P -2.1326576084 -0.4839409591 0.183891978
| 18> S -1.4111470017 1.1846285822 -0.5686482978
| 19> O -1.7065604312 -0.8309579105 1.6652644284
| 20> C -1.4638736528 0.1689303162 2.6747420195
| 21> C -2.7128093014 0.9659524375 2.9839972325
| 22> O -3.7130032346 -0.593205065 0.2828821314
| 23> C -4.5825889626 -0.4301512784 -0.8559407591
| 24> C -5.055431073 1.005726519 -0.978175222
| 25> H 4.7993440618 0.3332979479 -1.8938024746
| 26> H 5.8582129472 0.7584306952 -0.5425942822
| 27> H 6.1470014184 -0.7281489494 -1.461505231
| 28> H 5.0576280915 -1.2403743604 0.7246960707
| 29> H 3.9870242217 -1.6643864761 -0.6375461989
| 30> H 0.9189781735 2.8585345729 -0.087649175
| 31> H 0.8313041836 2.9407626695 1.6918501088
| 32> H 3.3860258401 2.8141523035 0.0060221872
| 33> H 2.787323609 4.2410871711 0.867002162
| 34> H 3.3478120561 2.8219445641 1.7766333378
| 35> H 0.4836120917 -2.6833778735 -1.8062450673
| 36> H 0.1511795253 -0.9166825643 -1.8035252644
| 37> H -1.1233166479 -0.4108837239 3.5337812598
| 38> H -0.6561537803 0.820975832 2.3280192824
| 39> H -3.5239951715 0.2969129275 3.2590045714
| 40> H -2.5130627316 1.6516256658 3.8014993948
| 41> H -3.0104123139 1.5365409836 2.1044142639
| 42> H -4.0577693218 -0.7502967166 -1.7605167154
| 43> H -5.4153913696 -1.1081234524 -0.6607243642
| 44> H -4.2109323077 1.6667648865 -1.161147597
| 45> H -5.7502526268 1.0835265148 -1.808099408
| 46> H -5.5522470528 1.3153571738 -0.0629769217
| 47> *
| 48>
| 49>                          ****END OF INPUT****

CARTESIAN COORDINATES (ANGSTROEM)
---------------------------------
  C      5.383182   -0.065773   -1.067308
  C      4.490248   -0.842873   -0.118989
  O      3.502275    0.013339    0.484874
  P      2.050573    0.222080   -0.132576
  S      1.971184    0.846499   -1.992392
  O      1.422049    1.159007    0.978170
  C      1.428159    2.596377    0.845945
  C      2.832916    3.156689    0.879893
  S      1.154098   -1.653277    0.258843
  C      0.107224   -1.844889   -1.225899
  S     -1.608716   -2.255365   -0.826852
  P     -2.132658   -0.483941    0.183892
  S     -1.411147    1.184629   -0.568648
  O     -1.706560   -0.830958    1.665264
  C     -1.463874    0.168930    2.674742
  C     -2.712809    0.965952    2.983997
  O     -3.713003   -0.593205    0.282882
  C     -4.582589   -0.430151   -0.855941
  C     -5.055431    1.005727   -0.978175
  H      4.799344    0.333298   -1.893802
  H      5.858213    0.758431   -0.542594
  H      6.147001   -0.728149   -1.461505
  H      5.057628   -1.240374    0.724696
  H      3.987024   -1.664386   -0.637546
  H      0.918978    2.858535   -0.087649
  H      0.831304    2.940763    1.691850
  H      3.386026    2.814152    0.006022
  H      2.787324    4.241087    0.867002
  H      3.347812    2.821945    1.776633
  H      0.483612   -2.683378   -1.806245
  H      0.151180   -0.916683   -1.803525
  H     -1.123317   -0.410884    3.533781
  H     -0.656154    0.820976    2.328019
  H     -3.523995    0.296913    3.259005
  H     -2.513063    1.651626    3.801499
  H     -3.010412    1.536541    2.104414
  H     -4.057769   -0.750297   -1.760517
  H     -5.415391   -1.108123   -0.660724
  H     -4.210932    1.666765   -1.161148
  H     -5.750253    1.083527   -1.808099
  H     -5.552247    1.315357   -0.062977

 Total Charge           Charge          ....    0
 Multiplicity           Mult            ....    1
 Number of Electrons    NEL             ....  202
 Basis Dimension        Dim             ....  539

ORBITAL ENERGIES
----------------

  NO   OCC          E(Eh)            E(eV)
   0   2.0000     -88.575432     -2410.2600
   1   2.0000     -88.573205     -2410.1994
   2   2.0000     -88.517370     -2408.6801
   3   2.0000     -88.515224     -2408.6217
   4   2.0000     -76.911938     -2092.8802
   5   2.0000     -76.911521     -2092.8689
   6   2.0000     -18.990661      -516.7621
   7   2.0000     -18.987783      -516.6838
   8   2.0000     -18.985473      -516.6210
   9   2.0000     -18.984876      -516.6047
  10   2.0000     -10.103660      -274.9346
  11   2.0000     -10.100343      -274.8443
  12   2.0000     -10.097400      -274.7642
  13   2.0000     -10.093199      -274.6499
  14   2.0000     -10.092788      -274.6387
  15   2.0000     -10.025557      -272.8093
  16   2.0000     -10.025083      -272.7964
  17   2.0000     -10.024710      -272.7862
  18   2.0000     -10.023604      -272.7561
  19   2.0000      -7.869921      -214.1514
  20   2.0000      -7.867381      -214.0823
  21   2.0000      -7.812216      -212.5812
  22   2.0000      -7.810089      -212.5233
  23   2.0000      -6.590208      -179.3287
  24   2.0000      -6.589802      -179.3176
  25   2.0000      -5.816882      -158.2854
  26   2.0000      -5.814196      -158.2123
  27   2.0000      -5.813581      -158.1956
  28   2.0000      -5.811266      -158.1326
  29   2.0000      -5.807103      -158.0193
  30   2.0000      -5.804532      -157.9494
  31   2.0000      -5.759884      -156.7344
  32   2.0000      -5.757777      -156.6771
  33   2.0000      -5.752650      -156.5376
  34   2.0000      -5.752037      -156.5209
  35   2.0000      -5.750354      -156.4751
  36   2.0000      -5.750067      -156.4673
  37   2.0000      -4.735627      -128.8630
  38   2.0000      -4.735234      -128.8523
  39   2.0000      -4.735153      -128.8501
  40   2.0000      -4.734699      -128.8377
  41   2.0000      -4.733964      -128.8177
  42   2.0000      -4.733735      -128.8115
  43   2.0000      -1.047559       -28.5055
  44   2.0000      -1.046420       -28.4745
  45   2.0000      -1.008060       -27.4307
  46   2.0000      -1.005998       -27.3746
  47   2.0000      -0.797913       -21.7123
  48   2.0000      -0.755805       -20.5665
  49   2.0000      -0.745685       -20.2911
  50   2.0000      -0.728862       -19.8333
  51   2.0000      -0.727510       -19.7966
  52   2.0000      -0.709072       -19.2948
  53   2.0000      -0.685471       -18.6526
  54   2.0000      -0.664754       -18.0889
  55   2.0000      -0.629466       -17.1286
  56   2.0000      -0.622657       -16.9434
  57   2.0000      -0.602941       -16.4069
  58   2.0000      -0.598965       -16.2987
  59   2.0000      -0.591724       -16.1016
  60   2.0000      -0.525823       -14.3084
  61   2.0000      -0.516939       -14.0666
  62   2.0000      -0.491290       -13.3687
  63   2.0000      -0.489886       -13.3305
  64   2.0000      -0.463615       -12.6156
  65   2.0000      -0.461096       -12.5471
  66   2.0000      -0.455851       -12.4043
  67   2.0000      -0.454036       -12.3549
  68   2.0000      -0.443654       -12.0724
  69   2.0000      -0.426105       -11.5949
  70   2.0000      -0.421604       -11.4724
  71   2.0000      -0.416539       -11.3346
  72   2.0000      -0.410369       -11.1667
  73   2.0000      -0.404521       -11.0076
  74   2.0000      -0.402420       -10.9504
  75   2.0000      -0.385782       -10.4977
  76   2.0000      -0.382402       -10.4057
  77   2.0000      -0.369061       -10.0427
  78   2.0000      -0.366543        -9.9741
  79   2.0000      -0.361052        -9.8247
  80   2.0000      -0.358689        -9.7604
  81   2.0000      -0.352783        -9.5997
  82   2.0000      -0.350757        -9.5446
  83   2.0000      -0.346259        -9.4222
  84   2.0000      -0.345998        -9.4151
  85   2.0000      -0.328655        -8.9431
  86   2.0000      -0.323914        -8.8141
  87   2.0000      -0.310284        -8.4433
  88   2.0000      -0.307585        -8.3698
  89   2.0000      -0.300322        -8.1722
  90   2.0000      -0.298168        -8.1136
  91   2.0000      -0.286844        -7.8054
  92   2.0000      -0.285313        -7.7638
  93   2.0000      -0.276924        -7.5355
  94   2.0000      -0.273542        -7.4435
  95   2.0000      -0.244802        -6.6614
  96   2.0000      -0.234868        -6.3911
  97   2.0000      -0.225518        -6.1367
  98   2.0000      -0.215051        -5.8518
  99   2.0000      -0.208642        -5.6774
 100   2.0000      -0.200220        -5.4483
 101   0.0000      -0.040282        -1.0961
 102   0.0000      -0.032534        -0.8853
 103   0.0000      -0.006234        -0.1696
 104   0.0000       0.015622         0.4251
 105   0.0000       0.020774         0.5653

MULLIKEN ATOMIC CHARGES
-----------------------
   0 C :   -0.457020
   1 C :   -0.135317
   2 O :   -0.281487
   3 P :    0.663465
   4 S :   -0.466599
   5 O :   -0.290741
   6 C :   -0.146157
   7 C :   -0.457540
   8 S :   -0.136159
   9 C :   -0.215118
  10 S :   -0.127756
  11 P :    0.690622
  12 S :   -0.441936
  13 O :   -0.285887
  14 C :   -0.137956
  15 C :   -0.462678
  16 O :   -0.297042
  17 C :   -0.136325
  18 C :   -0.457960
  19 H :    0.183636
  20 H :    0.150717
  21 H :    0.144055
  22 H :    0.149940
  23 H :    0.152101
  24 H :    0.180569
  25 H :    0.148641
  26 H :    0.172440
  27 H :    0.147102
  28 H :    0.156851
  29 H :    0.188372
  30 H :    0.218069
  31 H :    0.150401
  32 H :    0.177058
  33 H :    0.158124
  34 H :    0.145709
  35 H :    0.172246
  36 H :    0.152634
  37 H :    0.150669
  38 H :    0.183909
  39 H :    0.145063
  40 H :    0.151286
Sum of atomic charges:   -0.0000000

LOEWDIN ATOMIC CHARGES
----------------------
   0 C :   -0.404064
   1 C :    0.019389
   2 O :   -0.666985
   3 P :    0.375683
   4 S :   -0.126950
   5 O :   -0.684949
   6 C :    0.007615
   7 C :   -0.401077
   8 S :    0.170433
   9 C :   -0.414448
  10 S :    0.158890
  11 P :    0.373154
  12 S :   -0.088341
  13 O :   -0.663106
  14 C :    0.024216
  15 C :   -0.402633
  16 O :   -0.661163
  17 C :    0.022574
  18 C :   -0.402525
  19 H :    0.169154
  20 H :    0.157419
  21 H :    0.157370
  22 H :    0.178669
  23 H :    0.175083
  24 H :    0.183646
  25 H :    0.179108
  26 H :    0.166754
  27 H :    0.159417
  28 H :    0.161006
  29 H :    0.178812
  30 H :    0.200928
  31 H :    0.181526
  32 H :    0.189553
  33 H :    0.161140
  34 H :    0.158512
  35 H :    0.166114
  36 H :    0.175806
  37 H :    0.178990
  38 H :    0.169573
  39 H :    0.157957
  40 H :    0.157750

  Mayer bond orders larger than 0.100000
B(  0-C ,  1-C ) :   0.9477 B(  0-C , 19-H ) :   0.9571 B(  0-C , 20-H ) :   0.9742
B(  0-C , 21-H ) :   0.9649 B(  1-C ,  2-O ) :   0.7896 B(  1-C , 22-H ) :   0.9649
B(  1-C , 23-H ) :   0.9645 B(  2-O ,  3-P ) :   1.0554 B(  3-P ,  4-S ) :   1.7353
B(  3-P ,  5-O ) :   1.1775 B(  3-P ,  8-S ) :   1.1211 B(  5-O ,  6-C ) :   0.7995
B(  6-C ,  7-C ) :   0.9163 B(  6-C , 24-H ) :   0.9612 B(  6-C , 25-H ) :   0.9590
B(  7-C , 26-H ) :   0.9597 B(  7-C , 27-H ) :   0.9608 B(  7-C , 28-H ) :   0.9717
B(  8-S ,  9-C ) :   0.8896 B(  9-C , 10-S ) :   0.9224 B(  9-C , 29-H ) :   0.9133
B(  9-C , 30-H ) :   0.9021 B( 10-S , 11-P ) :   1.1034 B( 11-P , 12-S ) :   1.7421
B( 11-P , 13-O ) :   1.1792 B( 11-P , 16-O ) :   1.0567 B( 13-O , 14-C ) :   0.8058
B( 14-C , 15-C ) :   0.9131 B( 14-C , 31-H ) :   0.9613 B( 14-C , 32-H ) :   0.9616
B( 15-C , 33-H ) :   0.9710 B( 15-C , 34-H ) :   0.9614 B( 15-C , 35-H ) :   0.9594
B( 16-O , 17-C ) :   0.7817 B( 17-C , 18-C ) :   0.9547 B( 17-C , 36-H ) :   0.9629
B( 17-C , 37-H ) :   0.9647 B( 18-C , 38-H ) :   0.9564 B( 18-C , 39-H ) :   0.9646
B( 18-C , 40-H ) :   0.9743

Dispersion correction           -0.022056157
FINAL SINGLE POINT ENERGY     -2932.460512736637

DIPOLE MOMENT
-------------

Method             : SCF
Type of density    : Electron Density
Multiplicity       :   1
Irrep              :   0
Energy             : -2932.4851117059529315 Eh
Relativity type    :
Basis              : AO
                                X                 Y                 Z
Electronic contribution:     -1.921170384     -14.978931066      -5.407542127
Nuclear contribution   :      1.884804705      14.955386061       6.105728954
                        -----------------------------------------
Total Dipole Moment    :     -0.036365679      -0.023545004       0.698186827
                        -----------------------------------------
Magnitude (a.u.)       :      0.699529610
Magnitude (Debye)      :      1.778062964

Rotational constants in cm-1:             0.013441             0.005095             0.004682
Rotational constants in MHz :           402.962345           152.757945           140.376755

                             ****ORCA TERMINATED NORMALLY****
TOTAL RUN TIME: 0 days 0 hours 1 minutes 24 seconds 883 msec
