                         Program Version 6.0.0  -   RELEASE  -
|  1> ! r2scan-3c def2/J RI DEFGRID2 scfconv6 printgap
|  2> %output
|  3>     printlevel normal
|  4> end
|  5> %cpcm
|  6>     smd true
|  7>     smdsolvent "water"
|  8> end
|  9> * xyz 0 1
| 10> C 5.3831824442 -0.0657732822 -1.0673080771
| 11> C 4.4902483933 -0.842872515 -0.1189890565
| 12> O 3.5022752572 0.0133388924 0.4848735062
| 13> P 2.0505730004 0.2220801478 -0.1325763162
| 14> S 1.9711836892 0.8464986139 -1.9923924416
| 15> O 1.422048546 1.1590074338 0.9781704711
| 16> C 1.4281594306 2.5963768493 0.845944603
| 17> C 2.8329158313 3.1566892244 0.8798931089
| 18> S 1.1540978578 -1.6532768656 0.2588425637
| 19> C 0.1072238798 -1.8448893751 -1.225898897
| 20> S -1.608715505 -2.2553651325 -0.826851831
| 21> P -2.1326576084 -0.4839409591 0.183891978
| 22> S -1.4111470017 1.1846285822 -0.5686482978
| 23> O -1.7065604312 -0.8309579105 1.6652644284
| 24> C -1.4638736528 0.1689303162 2.6747420195
| 25> C -2.7128093014 0.9659524375 2.9839972325
| 26> O -3.7130032346 -0.593205065 0.2828821314
| 27> C -4.5825889626 -0.4301512784 -0.8559407591
| 28> C -5.055431073 1.005726519 -0.978175222
| 29> H 4.7993440618 0.3332979479 -1.8938024746
| 30> H 5.8582129472 0.7584306952 -0.5425942822
| 31> H 6.1470014184 -0.7281489494 -1.461505231
| 32> H 5.0576280915 -1.2403743604 0.7246960707
| 33> H 3.9870242217 -1.6643864761 -0.6375461989
| 34> H 0.9189781735 2.8585345729 -0.087649175
| 35> H 0.8313041836 2.9407626695 1.6918501088
| 36> H 3.3860258401 2.8141523035 0.0060221872
| 37> H 2.787323609 4.2410871711 0.867002162
| 38> H 3.3478120561 2.8219445641 1.7766333378
| 39> H 0.4836120917 -2.6833778735 -1.8062450673
| 40> H 0.1511795253 -0.9166825643 -1.8035252644
| 41> H -1.1233166479 -0.4108837239 3.5337812598
| 42> H -0.6561537803 0.820975832 2.3280192824
| 43> H -3.5239951715 0.2969129275 3.2590045714
| 44> H -2.5130627316 1.6516256658 3.8014993948
| 45> H -3.0104123139 1.5365409836 2.1044142639
| 46> H -4.0577693218 -0.7502967166 -1.7605167154
| 47> H -5.4153913696 -1.1081234524 -0.6607243642
| 48> H -4.2109323077 1.6667648865 -1.161147597
| 49> H -5.7502526268 1.0835265148 -1.808099408
| 50> H -5.5522470528 1.3153571738 -0.0629769217
| 51> *
| 52>
| 53>                          ****END OF INPUT****

CARTESIAN COORDINATES (ANGSTROEM)
---------------------------------
  C      5.383182   -0.065773   -1.067308
  C      4.490248   -0.842873   -0.118989
  O      3.502275    0.013339    0.484874
  P      2.050573    0.222080   -0.132576
  S      1.971184    0.846499   -1.992392
  O      1.422049    1.159007    0.978170
  C      1.428159    2.596377    0.845945
  C      2.832916    3.156689    0.879893
  S      1.154098   -1.653277    0.258843
  C      0.107224   -1.844889   -1.225899
  S     -1.608716   -2.255365   -0.826852
  P     -2.132658   -0.483941    0.183892
  S     -1.411147    1.184629   -0.568648
  O     -1.706560   -0.830958    1.665264
  C     -1.463874    0.168930    2.674742
  C     -2.712809    0.965952    2.983997
  O     -3.713003   -0.593205    0.282882
  C     -4.582589   -0.430151   -0.855941
  C     -5.055431    1.005727   -0.978175
  H      4.799344    0.333298   -1.893802
  H      5.858213    0.758431   -0.542594
  H      6.147001   -0.728149   -1.461505
  H      5.057628   -1.240374    0.724696
  H      3.987024   -1.664386   -0.637546
  H      0.918978    2.858535   -0.087649
  H      0.831304    2.940763    1.691850
  H      3.386026    2.814152    0.006022
  H      2.787324    4.241087    0.867002
  H      3.347812    2.821945    1.776633
  H      0.483612   -2.683378   -1.806245
  H      0.151180   -0.916683   -1.803525
  H     -1.123317   -0.410884    3.533781
  H     -0.656154    0.820976    2.328019
  H     -3.523995    0.296913    3.259005
  H     -2.513063    1.651626    3.801499
  H     -3.010412    1.536541    2.104414
  H     -4.057769   -0.750297   -1.760517
  H     -5.415391   -1.108123   -0.660724
  H     -4.210932    1.666765   -1.161148
  H     -5.750253    1.083527   -1.808099
  H     -5.552247    1.315357   -0.062977

 Total Charge           Charge          ....    0
 Multiplicity           Mult            ....    1
 Number of Electrons    NEL             ....  202
 Basis Dimension        Dim             ....  539

ORBITAL ENERGIES
----------------

  NO   OCC          E(Eh)            E(eV)
   0   2.0000     -88.580966     -2410.4106
   1   2.0000     -88.578658     -2410.3478
   2   2.0000     -88.526092     -2408.9174
   3   2.0000     -88.522620     -2408.8229
   4   2.0000     -76.918231     -2093.0515
   5   2.0000     -76.917983     -2093.0447
   6   2.0000     -18.994078      -516.8551
   7   2.0000     -18.992221      -516.8046
   8   2.0000     -18.991155      -516.7756
   9   2.0000     -18.989996      -516.7441
  10   2.0000     -10.104445      -274.9559
  11   2.0000     -10.091523      -274.6043
  12   2.0000     -10.089519      -274.5498
  13   2.0000     -10.088105      -274.5113
  14   2.0000     -10.088062      -274.5101
  15   2.0000     -10.018120      -272.6069
  16   2.0000     -10.017872      -272.6002
  17   2.0000     -10.016402      -272.5602
  18   2.0000     -10.015763      -272.5428
  19   2.0000      -7.875435      -214.3015
  20   2.0000      -7.872869      -214.2317
  21   2.0000      -7.821233      -212.8266
  22   2.0000      -7.817692      -212.7302
  23   2.0000      -6.596556      -179.5014
  24   2.0000      -6.596346      -179.4957
  25   2.0000      -5.822358      -158.4344
  26   2.0000      -5.819678      -158.3615
  27   2.0000      -5.819069      -158.3449
  28   2.0000      -5.816774      -158.2825
  29   2.0000      -5.812696      -158.1715
  30   2.0000      -5.810019      -158.0987
  31   2.0000      -5.768842      -156.9782
  32   2.0000      -5.765347      -156.8831
  33   2.0000      -5.761661      -156.7828
  34   2.0000      -5.761062      -156.7665
  35   2.0000      -5.757979      -156.6826
  36   2.0000      -5.757641      -156.6734
  37   2.0000      -4.741874      -129.0329
  38   2.0000      -4.741719      -129.0287
  39   2.0000      -4.741441      -129.0212
  40   2.0000      -4.741382      -129.0196
  41   2.0000      -4.740562      -128.9973
  42   2.0000      -4.740144      -128.9859
  43   2.0000      -1.052120       -28.6296
  44   2.0000      -1.050664       -28.5900
  45   2.0000      -1.012120       -27.5412
  46   2.0000      -1.009477       -27.4693
  47   2.0000      -0.801425       -21.8079
  48   2.0000      -0.755295       -20.5526
  49   2.0000      -0.742249       -20.1976
  50   2.0000      -0.722852       -19.6698
  51   2.0000      -0.721857       -19.6427
  52   2.0000      -0.710119       -19.3233
  53   2.0000      -0.689951       -18.7745
  54   2.0000      -0.671334       -18.2679
  55   2.0000      -0.630246       -17.1499
  56   2.0000      -0.621718       -16.9178
  57   2.0000      -0.599493       -16.3130
  58   2.0000      -0.594826       -16.1860
  59   2.0000      -0.591025       -16.0826
  60   2.0000      -0.524441       -14.2708
  61   2.0000      -0.515213       -14.0197
  62   2.0000      -0.490601       -13.3499
  63   2.0000      -0.489164       -13.3108
  64   2.0000      -0.464457       -12.6385
  65   2.0000      -0.461783       -12.5658
  66   2.0000      -0.453437       -12.3387
  67   2.0000      -0.452207       -12.3052
  68   2.0000      -0.442726       -12.0472
  69   2.0000      -0.425652       -11.5826
  70   2.0000      -0.419566       -11.4170
  71   2.0000      -0.415487       -11.3060
  72   2.0000      -0.409308       -11.1378
  73   2.0000      -0.402876       -10.9628
  74   2.0000      -0.400100       -10.8873
  75   2.0000      -0.385549       -10.4913
  76   2.0000      -0.381357       -10.3773
  77   2.0000      -0.365871        -9.9559
  78   2.0000      -0.362706        -9.8697
  79   2.0000      -0.354770        -9.6538
  80   2.0000      -0.352126        -9.5818
  81   2.0000      -0.349530        -9.5112
  82   2.0000      -0.349041        -9.4979
  83   2.0000      -0.344238        -9.3672
  84   2.0000      -0.342641        -9.3237
  85   2.0000      -0.329049        -8.9539
  86   2.0000      -0.324913        -8.8413
  87   2.0000      -0.305957        -8.3255
  88   2.0000      -0.304489        -8.2856
  89   2.0000      -0.300376        -8.1736
  90   2.0000      -0.298867        -8.1326
  91   2.0000      -0.288444        -7.8490
  92   2.0000      -0.287844        -7.8326
  93   2.0000      -0.279239        -7.5985
  94   2.0000      -0.277273        -7.5450
  95   2.0000      -0.250256        -6.8098
  96   2.0000      -0.241804        -6.5798
  97   2.0000      -0.233827        -6.3628
  98   2.0000      -0.222951        -6.0668
  99   2.0000      -0.216488        -5.8909
 100   2.0000      -0.208543        -5.6747
 101   0.0000      -0.045418        -1.2359
 102   0.0000      -0.039722        -1.0809
 103   0.0000      -0.010748        -0.2925
 104   0.0000       0.009390         0.2555
 105   0.0000       0.016064         0.4371

MULLIKEN ATOMIC CHARGES
-----------------------
   0 C :   -0.493828
   1 C :   -0.131873
   2 O :   -0.311360
   3 P :    0.702830
   4 S :   -0.515716
   5 O :   -0.313929
   6 C :   -0.141418
   7 C :   -0.500508
   8 S :   -0.150480
   9 C :   -0.213884
  10 S :   -0.141671
  11 P :    0.707915
  12 S :   -0.481139
  13 O :   -0.316214
  14 C :   -0.134488
  15 C :   -0.499877
  16 O :   -0.324205
  17 C :   -0.129231
  18 C :   -0.495247
  19 H :    0.172731
  20 H :    0.166281
  21 H :    0.168825
  22 H :    0.175516
  23 H :    0.164303
  24 H :    0.177911
  25 H :    0.179704
  26 H :    0.170271
  27 H :    0.172543
  28 H :    0.171108
  29 H :    0.230750
  30 H :    0.213849
  31 H :    0.175530
  32 H :    0.182157
  33 H :    0.170630
  34 H :    0.172770
  35 H :    0.169488
  36 H :    0.163594
  37 H :    0.176663
  38 H :    0.172814
  39 H :    0.169646
  40 H :    0.167239
Sum of atomic charges:   -0.0000000

LOEWDIN ATOMIC CHARGES
----------------------
   0 C :   -0.407686
   1 C :    0.024413
   2 O :   -0.680658
   3 P :    0.380608
   4 S :   -0.156779
   5 O :   -0.695292
   6 C :    0.011447
   7 C :   -0.404181
   8 S :    0.164506
   9 C :   -0.408265
  10 S :    0.154479
  11 P :    0.374376
  12 S :   -0.109753
  13 O :   -0.682703
  14 C :    0.027197
  15 C :   -0.404054
  16 O :   -0.675427
  17 C :    0.028061
  18 C :   -0.406578
  19 H :    0.162985
  20 H :    0.161652
  21 H :    0.166725
  22 H :    0.189552
  23 H :    0.179834
  24 H :    0.182391
  25 H :    0.190847
  26 H :    0.163313
  27 H :    0.168890
  28 H :    0.164544
  29 H :    0.195262
  30 H :    0.198985
  31 H :    0.191362
  32 H :    0.191037
  33 H :    0.163955
  34 H :    0.168978
  35 H :    0.163188
  36 H :    0.180071
  37 H :    0.190202
  38 H :    0.163150
  39 H :    0.167133
  40 H :    0.162235

  Mayer bond orders larger than 0.100000
B(  0-C ,  1-C ) :   0.9391 B(  0-C , 19-H ) :   0.9615 B(  0-C , 20-H ) :   0.9716
B(  0-C , 21-H ) :   0.9595 B(  1-C ,  2-O ) :   0.7773 B(  1-C , 22-H ) :   0.9547
B(  1-C , 23-H ) :   0.9574 B(  2-O ,  3-P ) :   1.0621 B(  3-P ,  4-S ) :   1.6919
B(  3-P ,  5-O ) :   1.1814 B(  3-P ,  8-S ) :   1.1332 B(  5-O ,  6-C ) :   0.7845
B(  6-C ,  7-C ) :   0.9065 B(  6-C , 24-H ) :   0.9589 B(  6-C , 25-H ) :   0.9483
B(  7-C , 26-H ) :   0.9604 B(  7-C , 27-H ) :   0.9546 B(  7-C , 28-H ) :   0.9702
B(  8-S ,  9-C ) :   0.8838 B(  9-C , 10-S ) :   0.9156 B(  9-C , 29-H ) :   0.8982
B(  9-C , 30-H ) :   0.9060 B( 10-S , 11-P ) :   1.1162 B( 11-P , 12-S ) :   1.7194
B( 11-P , 13-O ) :   1.1766 B( 11-P , 16-O ) :   1.0593 B( 13-O , 14-C ) :   0.7941
B( 14-C , 15-C ) :   0.9075 B( 14-C , 31-H ) :   0.9503 B( 14-C , 32-H ) :   0.9549
B( 15-C , 33-H ) :   0.9705 B( 15-C , 34-H ) :   0.9546 B( 15-C , 35-H ) :   0.9588
B( 16-O , 17-C ) :   0.7698 B( 17-C , 18-C ) :   0.9442 B( 17-C , 36-H ) :   0.9559
B( 17-C , 37-H ) :   0.9547 B( 18-C , 38-H ) :   0.9610 B( 18-C , 39-H ) :   0.9595
B( 18-C , 40-H ) :   0.9714

Dispersion correction           -0.022056157
FINAL SINGLE POINT ENERGY     -2932.467876260203

DIPOLE MOMENT
-------------

Method             : SCF
Type of density    : Electron Density
Multiplicity       :   1
Irrep              :   0
Energy             : -2932.4924752295196413 Eh
Relativity type    :
Basis              : AO
                                X                 Y                 Z
Electronic contribution:     -1.892763312     -15.081935187      -5.223780612
Nuclear contribution   :      1.884804705      14.955386061       6.105728954
                        -----------------------------------------
Total Dipole Moment    :     -0.007958607      -0.126549126       0.881948342
                        -----------------------------------------
Magnitude (a.u.)       :      0.891016778
Magnitude (Debye)      :      2.264784664

Rotational constants in cm-1:             0.013441             0.005095             0.004682
Rotational constants in MHz :           402.962345           152.757945           140.376755

                             ****ORCA TERMINATED NORMALLY****
TOTAL RUN TIME: 0 days 0 hours 1 minutes 50 seconds 980 msec
