                         Program Version 6.0.0  -   RELEASE  -
|  1> ! pbe def2-sv(p) def2/J RI DEFGRID1 loosescf d4 GCP(DFT/SV(P)) printgap
|  2> %output
|  3>     printlevel normal
|  4> end
|  5> * xyz 0 1
|  6> C 3.4105127859 0.155502152 -2.6920539321
|  7> C 1.9752371835 0.4672977968 -2.3268991908
|  8> O 1.4691504047 -0.4141106339 -1.3077149104
|  9> P 2.0352457633 -0.4241811316 0.172093075
| 10> S 2.5886032622 1.2835607889 0.9672663856
| 11> O 3.2054035209 -1.4946764165 0.038736756
| 12> C 4.2397545419 -1.6402824343 1.0264498565
| 13> C 3.7134107968 -2.2017349237 2.3316763231
| 14> S 0.5215452004 -1.5140162974 1.1399593876
| 15> C -0.399967879 -0.1735248887 1.9772409421
| 16> S -2.1430088993 -0.1518840425 1.5232816606
| 17> P -1.9152848717 0.6255287929 -0.4429520327
| 18> S -0.592337427 2.0597830272 -0.6375021067
| 19> O -3.3979008976 0.9731677433 -0.8851370632
| 20> C -4.3563913878 1.701726337 -0.0955679147
| 21> C -3.8473982658 3.0570676436 0.3480466801
| 22> O -1.535903476 -0.5561377356 -1.4123745091
| 23> C -2.0363334155 -1.9177793933 -1.3862164638
| 24> C -3.5460551494 -2.0108103855 -1.3480206978
| 25> H 4.0642359245 0.3797228335 -1.849872234
| 26> H 3.5119127521 -0.8957884928 -2.9489262755
| 27> H 3.7041403915 0.7681327408 -3.5387333138
| 28> H 1.2941495999 0.3092900045 -3.1648597851
| 29> H 1.8741929905 1.4986839812 -1.9716030608
| 30> H 4.9557423004 -2.3156490634 0.55628822
| 31> H 4.7003924776 -0.6606214466 1.1898855675
| 32> H 3.0598288616 -1.4745296035 2.8115651029
| 33> H 3.1522584609 -3.1152651222 2.1519887188
| 34> H 4.5479468878 -2.4132315954 2.9924114041
| 35> H 0.0655477999 0.7831273339 1.7229854733
| 36> H -0.3665166671 -0.3577053978 3.0477239539
| 37> H -5.215279538 1.7982515094 -0.7619219716
| 38> H -4.6220764569 1.0880197299 0.7695054998
| 39> H -4.6390793099 3.5877303767 0.8669710654
| 40> H -2.9986500773 2.9403070629 1.0205204893
| 41> H -3.5236543266 3.6413420737 -0.5102491303
| 42> H -1.6302676739 -2.3430648933 -2.3054209446
| 43> H -1.5904643593 -2.4220703339 -0.523728803
| 44> H -3.9813237563 -1.4249530245 -2.1534016784
| 45> H -3.831975753 -3.0516203123 -1.4661889712
| 46> H -3.9278813752 -1.647491316 -0.3962779044
| 47> *
| 48>
| 49>                          ****END OF INPUT****

CARTESIAN COORDINATES (ANGSTROEM)
---------------------------------
  C      3.410513    0.155502   -2.692054
  C      1.975237    0.467298   -2.326899
  O      1.469150   -0.414111   -1.307715
  P      2.035246   -0.424181    0.172093
  S      2.588603    1.283561    0.967266
  O      3.205404   -1.494676    0.038737
  C      4.239755   -1.640282    1.026450
  C      3.713411   -2.201735    2.331676
  S      0.521545   -1.514016    1.139959
  C     -0.399968   -0.173525    1.977241
  S     -2.143009   -0.151884    1.523282
  P     -1.915285    0.625529   -0.442952
  S     -0.592337    2.059783   -0.637502
  O     -3.397901    0.973168   -0.885137
  C     -4.356391    1.701726   -0.095568
  C     -3.847398    3.057068    0.348047
  O     -1.535903   -0.556138   -1.412375
  C     -2.036333   -1.917779   -1.386216
  C     -3.546055   -2.010810   -1.348021
  H      4.064236    0.379723   -1.849872
  H      3.511913   -0.895788   -2.948926
  H      3.704140    0.768133   -3.538733
  H      1.294150    0.309290   -3.164860
  H      1.874193    1.498684   -1.971603
  H      4.955742   -2.315649    0.556288
  H      4.700392   -0.660621    1.189886
  H      3.059829   -1.474530    2.811565
  H      3.152258   -3.115265    2.151989
  H      4.547947   -2.413232    2.992411
  H      0.065548    0.783127    1.722985
  H     -0.366517   -0.357705    3.047724
  H     -5.215280    1.798252   -0.761922
  H     -4.622076    1.088020    0.769505
  H     -4.639079    3.587730    0.866971
  H     -2.998650    2.940307    1.020520
  H     -3.523654    3.641342   -0.510249
  H     -1.630268   -2.343065   -2.305421
  H     -1.590464   -2.422070   -0.523729
  H     -3.981324   -1.424953   -2.153402
  H     -3.831976   -3.051620   -1.466189
  H     -3.927881   -1.647491   -0.396278

 Total Charge           Charge          ....    0
 Multiplicity           Mult            ....    1
 Number of Electrons    NEL             ....  202
 Basis Dimension        Dim             ....  334

ORBITAL ENERGIES
----------------

  NO   OCC          E(Eh)            E(eV)
   0   2.0000     -88.048408     -2395.9190
   1   2.0000     -88.041711     -2395.7368
   2   2.0000     -87.982768     -2394.1328
   3   2.0000     -87.975362     -2393.9313
   4   2.0000     -76.424008     -2079.6030
   5   2.0000     -76.420615     -2079.5106
   6   2.0000     -18.793293      -511.3915
   7   2.0000     -18.787880      -511.2442
   8   2.0000     -18.785909      -511.1906
   9   2.0000     -18.777589      -510.9642
  10   2.0000      -9.959347      -271.0076
  11   2.0000      -9.956893      -270.9408
  12   2.0000      -9.950953      -270.7792
  13   2.0000      -9.948509      -270.7127
  14   2.0000      -9.936979      -270.3989
  15   2.0000      -9.887054      -269.0404
  16   2.0000      -9.881913      -268.9005
  17   2.0000      -9.881461      -268.8882
  18   2.0000      -9.874885      -268.7093
  19   2.0000      -7.693349      -209.3467
  20   2.0000      -7.686783      -209.1680
  21   2.0000      -7.627640      -207.5586
  22   2.0000      -7.620302      -207.3590
  23   2.0000      -6.421030      -174.7251
  24   2.0000      -6.418162      -174.6471
  25   2.0000      -5.721061      -155.6780
  26   2.0000      -5.717642      -155.5850
  27   2.0000      -5.714640      -155.5033
  28   2.0000      -5.711315      -155.4128
  29   2.0000      -5.710744      -155.3972
  30   2.0000      -5.703666      -155.2046
  31   2.0000      -5.656486      -153.9208
  32   2.0000      -5.649413      -153.7283
  33   2.0000      -5.648488      -153.7032
  34   2.0000      -5.647679      -153.6812
  35   2.0000      -5.640930      -153.4975
  36   2.0000      -5.640232      -153.4785
  37   2.0000      -4.643735      -126.3624
  38   2.0000      -4.643336      -126.3516
  39   2.0000      -4.640916      -126.2858
  40   2.0000      -4.640404      -126.2718
  41   2.0000      -4.639786      -126.2550
  42   2.0000      -4.639065      -126.2354
  43   2.0000      -0.985014       -26.8036
  44   2.0000      -0.979269       -26.6473
  45   2.0000      -0.942372       -25.6432
  46   2.0000      -0.936439       -25.4818
  47   2.0000      -0.763912       -20.7871
  48   2.0000      -0.718826       -19.5603
  49   2.0000      -0.707290       -19.2463
  50   2.0000      -0.690319       -18.7845
  51   2.0000      -0.682677       -18.5766
  52   2.0000      -0.672668       -18.3042
  53   2.0000      -0.648925       -17.6581
  54   2.0000      -0.632612       -17.2143
  55   2.0000      -0.597940       -16.2708
  56   2.0000      -0.587546       -15.9879
  57   2.0000      -0.577228       -15.7072
  58   2.0000      -0.566751       -15.4221
  59   2.0000      -0.563048       -15.3213
  60   2.0000      -0.494153       -13.4466
  61   2.0000      -0.484949       -13.1961
  62   2.0000      -0.470305       -12.7976
  63   2.0000      -0.464779       -12.6473
  64   2.0000      -0.452907       -12.3242
  65   2.0000      -0.445225       -12.1152
  66   2.0000      -0.437209       -11.8971
  67   2.0000      -0.434408       -11.8208
  68   2.0000      -0.429698       -11.6927
  69   2.0000      -0.413422       -11.2498
  70   2.0000      -0.410856       -11.1800
  71   2.0000      -0.400684       -10.9032
  72   2.0000      -0.391012       -10.6400
  73   2.0000      -0.385860       -10.4998
  74   2.0000      -0.383669       -10.4402
  75   2.0000      -0.376978       -10.2581
  76   2.0000      -0.358814        -9.7638
  77   2.0000      -0.351323        -9.5600
  78   2.0000      -0.350056        -9.5255
  79   2.0000      -0.346696        -9.4341
  80   2.0000      -0.344483        -9.3739
  81   2.0000      -0.341443        -9.2911
  82   2.0000      -0.340212        -9.2576
  83   2.0000      -0.334717        -9.1081
  84   2.0000      -0.332058        -9.0358
  85   2.0000      -0.318498        -8.6668
  86   2.0000      -0.307904        -8.3785
  87   2.0000      -0.294905        -8.0248
  88   2.0000      -0.291087        -7.9209
  89   2.0000      -0.285095        -7.7578
  90   2.0000      -0.274225        -7.4620
  91   2.0000      -0.270449        -7.3593
  92   2.0000      -0.264541        -7.1985
  93   2.0000      -0.262865        -7.1529
  94   2.0000      -0.256149        -6.9702
  95   2.0000      -0.239505        -6.5173
  96   2.0000      -0.220027        -5.9872
  97   2.0000      -0.211209        -5.7473
  98   2.0000      -0.200465        -5.4549
  99   2.0000      -0.190734        -5.1901
 100   2.0000      -0.181730        -4.9451
 101   0.0000      -0.042089        -1.1453
 102   0.0000      -0.030841        -0.8392
 103   0.0000      -0.012664        -0.3446
 104   0.0000       0.012769         0.3475
 105   0.0000       0.024256         0.6600

MULLIKEN ATOMIC CHARGES
-----------------------
   0 C :   -0.302123
   1 C :   -0.000378
   2 O :   -0.353807
   3 P :    0.615340
   4 S :   -0.318652
   5 O :   -0.375021
   6 C :   -0.003871
   7 C :   -0.308303
   8 S :   -0.097563
   9 C :   -0.347435
  10 S :   -0.126755
  11 P :    0.592238
  12 S :   -0.298052
  13 O :   -0.372691
  14 C :   -0.014557
  15 C :   -0.305413
  16 O :   -0.348449
  17 C :    0.003321
  18 C :   -0.311147
  19 H :    0.118754
  20 H :    0.111635
  21 H :    0.108862
  22 H :    0.102118
  23 H :    0.121202
  24 H :    0.103163
  25 H :    0.109338
  26 H :    0.119983
  27 H :    0.116134
  28 H :    0.110945
  29 H :    0.213283
  30 H :    0.182826
  31 H :    0.109501
  32 H :    0.110916
  33 H :    0.109706
  34 H :    0.126988
  35 H :    0.127729
  36 H :    0.107538
  37 H :    0.114030
  38 H :    0.122769
  39 H :    0.112755
  40 H :    0.113145
Sum of atomic charges:   -0.0000000

LOEWDIN ATOMIC CHARGES
----------------------
   0 C :   -0.366099
   1 C :   -0.118377
   2 O :   -0.231768
   3 P :    0.572143
   4 S :   -0.311835
   5 O :   -0.245718
   6 C :   -0.120444
   7 C :   -0.369178
   8 S :    0.090510
   9 C :   -0.476394
  10 S :    0.063175
  11 P :    0.564807
  12 S :   -0.290633
  13 O :   -0.241791
  14 C :   -0.114706
  15 C :   -0.368906
  16 O :   -0.228797
  17 C :   -0.113040
  18 C :   -0.367875
  19 H :    0.120449
  20 H :    0.123726
  21 H :    0.128896
  22 H :    0.118711
  23 H :    0.109243
  24 H :    0.117660
  25 H :    0.109273
  26 H :    0.119415
  27 H :    0.123245
  28 H :    0.129722
  29 H :    0.127947
  30 H :    0.136735
  31 H :    0.121497
  32 H :    0.106264
  33 H :    0.129317
  34 H :    0.121944
  35 H :    0.131165
  36 H :    0.122257
  37 H :    0.103183
  38 H :    0.127911
  39 H :    0.130927
  40 H :    0.115438

  Mayer bond orders larger than 0.100000
B(  0-C ,  1-C ) :   1.1569 B(  0-C , 19-H ) :   0.9376 B(  0-C , 20-H ) :   0.9447
B(  0-C , 21-H ) :   0.9394 B(  1-C ,  2-O ) :   0.9041 B(  1-C , 22-H ) :   0.9362
B(  1-C , 23-H ) :   0.9140 B(  2-O ,  3-P ) :   1.1505 B(  3-P ,  4-S ) :   1.5956
B(  3-P ,  5-O ) :   1.0954 B(  3-P ,  8-S ) :   0.9560 B(  4-S ,  8-S ) :   0.1131
B(  5-O ,  6-C ) :   0.9127 B(  6-C ,  7-C ) :   1.1676 B(  6-C , 24-H ) :   0.9339
B(  6-C , 25-H ) :   0.9141 B(  7-C , 26-H ) :   0.9368 B(  7-C , 27-H ) :   0.9441
B(  7-C , 28-H ) :   0.9382 B(  8-S ,  9-C ) :   0.9926 B(  9-C , 10-S ) :   1.0085
B(  9-C , 29-H ) :   0.8450 B(  9-C , 30-H ) :   0.9108 B( 10-S , 11-P ) :   0.9227
B( 10-S , 12-S ) :   0.1057 B( 11-P , 12-S ) :   1.6457 B( 11-P , 13-O ) :   1.0915
B( 11-P , 16-O ) :   1.1495 B( 13-O , 14-C ) :   0.9134 B( 14-C , 15-C ) :   1.1669
B( 14-C , 31-H ) :   0.9336 B( 14-C , 32-H ) :   0.9256 B( 15-C , 33-H ) :   0.9348
B( 15-C , 34-H ) :   0.9325 B( 15-C , 35-H ) :   0.9426 B( 16-O , 17-C ) :   0.9011
B( 17-C , 18-C ) :   1.1663 B( 17-C , 36-H ) :   0.9361 B( 17-C , 37-H ) :   0.9119
B( 18-C , 38-H ) :   0.9423 B( 18-C , 39-H ) :   0.9360 B( 18-C , 40-H ) :   0.9404

Dispersion correction           -0.068803471
FINAL SINGLE POINT ENERGY     -2929.515839097549

DIPOLE MOMENT
-------------

Method             : SCF
Type of density    : Electron Density
Multiplicity       :   1
Irrep              :   0
Energy             : -2929.6333459601250979 Eh
Relativity type    :
Basis              : AO
                                X                 Y                 Z
Electronic contribution:      0.638556076       4.101972366       4.126740390
Nuclear contribution   :     -1.432332722      -5.248556231      -4.082947761
                        -----------------------------------------
Total Dipole Moment    :     -0.793776647      -1.146583864       0.043792630
                        -----------------------------------------
Magnitude (a.u.)       :      1.395225328
Magnitude (Debye)      :      3.546380949

Rotational constants in cm-1:             0.013094             0.005243             0.005053
Rotational constants in MHz :           392.551513           157.176705           151.473844

                             ****ORCA TERMINATED NORMALLY****
TOTAL RUN TIME: 0 days 0 hours 0 minutes 22 seconds 886 msec
