                         Program Version 6.0.0  -   RELEASE  -
|  1> ! pbe def2-sv(p) def2/J RI DEFGRID1 loosescf d4 GCP(DFT/SV(P)) printgap
|  2> %output
|  3>     printlevel normal
|  4> end
|  5> * xyz 0 1
|  6> C 4.1682956687 -2.4623271931 -0.174839876
|  7> C 4.7960189441 -1.0859840322 -0.0900754654
|  8> O 3.8655567175 -0.0872649297 0.3644212328
|  9> P 2.6119537645 0.3681433365 -0.4969418832
| 10> S 2.9361193328 0.5240901343 -2.4216503657
| 11> O 2.2528182927 1.7752451791 0.1183540684
| 12> C 1.6551399397 2.0664153735 1.4022168478
| 13> C 2.3002965182 1.3189841692 2.5488751218
| 14> S 1.0587558203 -0.9809746733 0.0609127366
| 15> C -0.0503075635 -0.5874666925 -1.3039509096
| 16> S -0.9098969565 1.0075886748 -1.0729225244
| 17> P -2.5996012328 0.2629809575 -0.0359320094
| 18> S -3.7888426554 1.6032181006 0.7525795281
| 19> O -2.0247479472 -0.8174739167 0.9799208729
| 20> C -1.6077548928 -0.4823453835 2.3183649196
| 21> C -1.2314384842 -1.7752510298 3.011169872
| 22> O -3.2042465715 -0.6610258152 -1.1730955266
| 23> C -4.5854319596 -1.0810010204 -1.1493933398
| 24> C -4.863993549 -2.0349832248 -0.0073894067
| 25> H 3.4301807092 -2.4867133722 -0.9747874887
| 26> H 4.9406228069 -3.1939953574 -0.3893884161
| 27> H 3.6813460031 -2.7156376816 0.7631680702
| 28> H 5.1833601415 -0.7790200906 -1.0665943573
| 29> H 5.5943667905 -1.0522510571 0.6525127015
| 30> H 1.7861350939 3.1455006779 1.4991884523
| 31> H 0.5852429952 1.8454436333 1.3282880071
| 32> H 3.3667894841 1.5257561976 2.5755770718
| 33> H 1.8477477951 1.6448310299 3.4807472798
| 34> H 2.1533364717 0.2464291427 2.4364788911
| 35> H -0.7837434335 -1.3842731648 -1.3821822843
| 36> H 0.5364026138 -0.4888520877 -2.2187540698
| 37> H -0.7521485818 0.1956804888 2.2638711334
| 38> H -2.4339727987 0.0322548116 2.818531625
| 39> H -0.9046399895 -1.5551088052 4.021765128
| 40> H -2.0861271461 -2.4438828792 3.0475207248
| 41> H -0.4252612723 -2.258307148 2.4655632522
| 42> H -5.2156267382 -0.1895983727 -1.0711516961
| 43> H -4.7295713205 -1.5537470175 -2.1218129754
| 44> H -4.747366744 -1.5152864636 0.9425595271
| 45> H -5.8830518066 -2.4005962101 -0.0861479817
| 46> H -4.1742309848 -2.8741376861 -0.0393445113
| 47> *
| 48>
| 49>                          ****END OF INPUT****

CARTESIAN COORDINATES (ANGSTROEM)
---------------------------------
  C      4.168296   -2.462327   -0.174840
  C      4.796019   -1.085984   -0.090075
  O      3.865557   -0.087265    0.364421
  P      2.611954    0.368143   -0.496942
  S      2.936119    0.524090   -2.421650
  O      2.252818    1.775245    0.118354
  C      1.655140    2.066415    1.402217
  C      2.300297    1.318984    2.548875
  S      1.058756   -0.980975    0.060913
  C     -0.050308   -0.587467   -1.303951
  S     -0.909897    1.007589   -1.072923
  P     -2.599601    0.262981   -0.035932
  S     -3.788843    1.603218    0.752580
  O     -2.024748   -0.817474    0.979921
  C     -1.607755   -0.482345    2.318365
  C     -1.231438   -1.775251    3.011170
  O     -3.204247   -0.661026   -1.173096
  C     -4.585432   -1.081001   -1.149393
  C     -4.863994   -2.034983   -0.007389
  H      3.430181   -2.486713   -0.974787
  H      4.940623   -3.193995   -0.389388
  H      3.681346   -2.715638    0.763168
  H      5.183360   -0.779020   -1.066594
  H      5.594367   -1.052251    0.652513
  H      1.786135    3.145501    1.499188
  H      0.585243    1.845444    1.328288
  H      3.366789    1.525756    2.575577
  H      1.847748    1.644831    3.480747
  H      2.153336    0.246429    2.436479
  H     -0.783743   -1.384273   -1.382182
  H      0.536403   -0.488852   -2.218754
  H     -0.752149    0.195680    2.263871
  H     -2.433973    0.032255    2.818532
  H     -0.904640   -1.555109    4.021765
  H     -2.086127   -2.443883    3.047521
  H     -0.425261   -2.258307    2.465563
  H     -5.215627   -0.189598   -1.071152
  H     -4.729571   -1.553747   -2.121813
  H     -4.747367   -1.515286    0.942560
  H     -5.883052   -2.400596   -0.086148
  H     -4.174231   -2.874138   -0.039345

 Total Charge           Charge          ....    0
 Multiplicity           Mult            ....    1
 Number of Electrons    NEL             ....  202
 Basis Dimension        Dim             ....  334

ORBITAL ENERGIES
----------------

  NO   OCC          E(Eh)            E(eV)
   0   2.0000     -88.050030     -2395.9631
   1   2.0000     -88.043377     -2395.7821
   2   2.0000     -87.990239     -2394.3361
   3   2.0000     -87.986841     -2394.2437
   4   2.0000     -76.430911     -2079.7908
   5   2.0000     -76.428609     -2079.7282
   6   2.0000     -18.798901      -511.5441
   7   2.0000     -18.797710      -511.5117
   8   2.0000     -18.795195      -511.4433
   9   2.0000     -18.793364      -511.3934
  10   2.0000      -9.957672      -270.9620
  11   2.0000      -9.957337      -270.9529
  12   2.0000      -9.957312      -270.9522
  13   2.0000      -9.957310      -270.9522
  14   2.0000      -9.956144      -270.9205
  15   2.0000      -9.892201      -269.1805
  16   2.0000      -9.892112      -269.1781
  17   2.0000      -9.888512      -269.0801
  18   2.0000      -9.888445      -269.0783
  19   2.0000      -7.694441      -209.3764
  20   2.0000      -7.688354      -209.2107
  21   2.0000      -7.635411      -207.7701
  22   2.0000      -7.632118      -207.6805
  23   2.0000      -6.428176      -174.9196
  24   2.0000      -6.426603      -174.8767
  25   2.0000      -5.722128      -155.7070
  26   2.0000      -5.718950      -155.6205
  27   2.0000      -5.716511      -155.5542
  28   2.0000      -5.712740      -155.4515
  29   2.0000      -5.711684      -155.4228
  30   2.0000      -5.705189      -155.2461
  31   2.0000      -5.664371      -154.1354
  32   2.0000      -5.661113      -154.0467
  33   2.0000      -5.655964      -153.9066
  34   2.0000      -5.655626      -153.8974
  35   2.0000      -5.652685      -153.8174
  36   2.0000      -5.652207      -153.8044
  37   2.0000      -4.650975      -126.5595
  38   2.0000      -4.649989      -126.5326
  39   2.0000      -4.648985      -126.5053
  40   2.0000      -4.648564      -126.4939
  41   2.0000      -4.648426      -126.4901
  42   2.0000      -4.646995      -126.4512
  43   2.0000      -0.991638       -26.9838
  44   2.0000      -0.990757       -26.9599
  45   2.0000      -0.950315       -25.8594
  46   2.0000      -0.949226       -25.8298
  47   2.0000      -0.767051       -20.8725
  48   2.0000      -0.727201       -19.7881
  49   2.0000      -0.715165       -19.4606
  50   2.0000      -0.694797       -18.9064
  51   2.0000      -0.693664       -18.8755
  52   2.0000      -0.678401       -18.4602
  53   2.0000      -0.656372       -17.8608
  54   2.0000      -0.639858       -17.4114
  55   2.0000      -0.603685       -16.4271
  56   2.0000      -0.599020       -16.3002
  57   2.0000      -0.581306       -15.8182
  58   2.0000      -0.570431       -15.5222
  59   2.0000      -0.565822       -15.3968
  60   2.0000      -0.509338       -13.8598
  61   2.0000      -0.496520       -13.5110
  62   2.0000      -0.482429       -13.1276
  63   2.0000      -0.474769       -12.9191
  64   2.0000      -0.466607       -12.6970
  65   2.0000      -0.449124       -12.2213
  66   2.0000      -0.446183       -12.1413
  67   2.0000      -0.441610       -12.0168
  68   2.0000      -0.431946       -11.7539
  69   2.0000      -0.420749       -11.4492
  70   2.0000      -0.418215       -11.3802
  71   2.0000      -0.403263       -10.9733
  72   2.0000      -0.401843       -10.9347
  73   2.0000      -0.387985       -10.5576
  74   2.0000      -0.382859       -10.4181
  75   2.0000      -0.375430       -10.2160
  76   2.0000      -0.368450       -10.0260
  77   2.0000      -0.367089        -9.9890
  78   2.0000      -0.361898        -9.8478
  79   2.0000      -0.357415        -9.7258
  80   2.0000      -0.352774        -9.5995
  81   2.0000      -0.351331        -9.5602
  82   2.0000      -0.349069        -9.4987
  83   2.0000      -0.343228        -9.3397
  84   2.0000      -0.338069        -9.1993
  85   2.0000      -0.322973        -8.7885
  86   2.0000      -0.313740        -8.5373
  87   2.0000      -0.304014        -8.2726
  88   2.0000      -0.297613        -8.0985
  89   2.0000      -0.295908        -8.0521
  90   2.0000      -0.291584        -7.9344
  91   2.0000      -0.280647        -7.6368
  92   2.0000      -0.277375        -7.5478
  93   2.0000      -0.267392        -7.2761
  94   2.0000      -0.261885        -7.1262
  95   2.0000      -0.241436        -6.5698
  96   2.0000      -0.220138        -5.9903
  97   2.0000      -0.210844        -5.7374
  98   2.0000      -0.207105        -5.6356
  99   2.0000      -0.206338        -5.6147
 100   2.0000      -0.201779        -5.4907
 101   0.0000      -0.044445        -1.2094
 102   0.0000      -0.026462        -0.7201
 103   0.0000      -0.017980        -0.4892
 104   0.0000       0.001156         0.0315
 105   0.0000       0.009721         0.2645

MULLIKEN ATOMIC CHARGES
-----------------------
   0 C :   -0.316648
   1 C :   -0.002505
   2 O :   -0.375048
   3 P :    0.600308
   4 S :   -0.310429
   5 O :   -0.354346
   6 C :   -0.016092
   7 C :   -0.315576
   8 S :   -0.107162
   9 C :   -0.359286
  10 S :   -0.054422
  11 P :    0.601722
  12 S :   -0.322799
  13 O :   -0.387586
  14 C :   -0.024849
  15 C :   -0.284553
  16 O :   -0.377407
  17 C :   -0.005098
  18 C :   -0.309216
  19 H :    0.128301
  20 H :    0.115458
  21 H :    0.114198
  22 H :    0.116393
  23 H :    0.106133
  24 H :    0.112327
  25 H :    0.130651
  26 H :    0.125316
  27 H :    0.114964
  28 H :    0.119551
  29 H :    0.191910
  30 H :    0.196537
  31 H :    0.113780
  32 H :    0.110934
  33 H :    0.110585
  34 H :    0.116889
  35 H :    0.119069
  36 H :    0.116278
  37 H :    0.108328
  38 H :    0.123290
  39 H :    0.114303
  40 H :    0.115796
Sum of atomic charges:    0.0000000

LOEWDIN ATOMIC CHARGES
----------------------
   0 C :   -0.370838
   1 C :   -0.116774
   2 O :   -0.241749
   3 P :    0.573190
   4 S :   -0.309476
   5 O :   -0.231756
   6 C :   -0.114642
   7 C :   -0.370144
   8 S :    0.085794
   9 C :   -0.482636
  10 S :    0.099072
  11 P :    0.564090
  12 S :   -0.322027
  13 O :   -0.249508
  14 C :   -0.123616
  15 C :   -0.351452
  16 O :   -0.246820
  17 C :   -0.114670
  18 C :   -0.365812
  19 H :    0.121731
  20 H :    0.132312
  21 H :    0.122109
  22 H :    0.114335
  23 H :    0.119288
  24 H :    0.125714
  25 H :    0.103524
  26 H :    0.129960
  27 H :    0.131618
  28 H :    0.114159
  29 H :    0.135480
  30 H :    0.130097
  31 H :    0.105475
  32 H :    0.110518
  33 H :    0.130449
  34 H :    0.127223
  35 H :    0.122293
  36 H :    0.113867
  37 H :    0.120359
  38 H :    0.122196
  39 H :    0.131612
  40 H :    0.125457

  Mayer bond orders larger than 0.100000
B(  0-C ,  1-C ) :   1.1657 B(  0-C , 19-H ) :   0.9345 B(  0-C , 20-H ) :   0.9372
B(  0-C , 21-H ) :   0.9449 B(  1-C ,  2-O ) :   0.9040 B(  1-C , 22-H ) :   0.9167
B(  1-C , 23-H ) :   0.9340 B(  2-O ,  3-P ) :   1.0959 B(  3-P ,  4-S ) :   1.6273
B(  3-P ,  5-O ) :   1.1512 B(  3-P ,  8-S ) :   0.9329 B(  4-S ,  8-S ) :   0.1070
B(  5-O ,  6-C ) :   0.8974 B(  6-C ,  7-C ) :   1.1704 B(  6-C , 24-H ) :   0.9300
B(  6-C , 25-H ) :   0.9055 B(  7-C , 26-H ) :   0.9405 B(  7-C , 27-H ) :   0.9353
B(  7-C , 28-H ) :   0.9346 B(  8-S ,  9-C ) :   1.0028 B(  9-C , 10-S ) :   0.9780
B(  9-C , 29-H ) :   0.8917 B(  9-C , 30-H ) :   0.8614 B( 10-S , 11-P ) :   0.9870
B( 11-P , 12-S ) :   1.6504 B( 11-P , 13-O ) :   1.0733 B( 11-P , 16-O ) :   1.1049
B( 13-O , 14-C ) :   0.8954 B( 14-C , 15-C ) :   1.1625 B( 14-C , 31-H ) :   0.9061
B( 14-C , 32-H ) :   0.9161 B( 15-C , 33-H ) :   0.9416 B( 15-C , 34-H ) :   0.9503
B( 15-C , 35-H ) :   0.9461 B( 16-O , 17-C ) :   0.9042 B( 17-C , 18-C ) :   1.1629
B( 17-C , 36-H ) :   0.9182 B( 17-C , 37-H ) :   0.9354 B( 18-C , 38-H ) :   0.9350
B( 18-C , 39-H ) :   0.9377 B( 18-C , 40-H ) :   0.9462

Dispersion correction           -0.064956560
FINAL SINGLE POINT ENERGY     -2929.519474922874

DIPOLE MOMENT
-------------

Method             : SCF
Type of density    : Electron Density
Multiplicity       :   1
Irrep              :   0
Energy             : -2929.6408270965184784 Eh
Relativity type    :
Basis              : AO
                                X                 Y                 Z
Electronic contribution:     -0.722224852      16.183424149     -16.968013043
Nuclear contribution   :      0.932339457     -17.749966405      18.332259838
                        -----------------------------------------
Total Dipole Moment    :      0.210114605      -1.566542257       1.364246796
                        -----------------------------------------
Magnitude (a.u.)       :      2.087910944
Magnitude (Debye)      :      5.307047860

Rotational constants in cm-1:             0.013456             0.004438             0.004321
Rotational constants in MHz :           403.387417           133.060864           129.542463

                             ****ORCA TERMINATED NORMALLY****
TOTAL RUN TIME: 0 days 0 hours 0 minutes 21 seconds 204 msec
