                         Program Version 6.0.0  -   RELEASE  -
|  1> ! r2scan-3c def2/J RI DEFGRID2 scfconv6 printgap
|  2> %output
|  3>     printlevel normal
|  4> end
|  5> * xyz 0 1
|  6> C 5.3921147111 -0.065136002 -0.7982924811
|  7> C 4.419589894 -0.8077621371 0.0975200329
|  8> O 3.3719689935 0.0694500109 0.5561635709
|  9> P 1.9565280155 0.1518562685 -0.1680597692
| 10> S 1.9988954732 0.4526001406 -2.1092214792
| 11> O 1.2391219283 1.2404419665 0.7279240211
| 12> C 1.2876873672 2.6459578441 0.418943777
| 13> C 2.6872344389 3.2045614509 0.5553192813
| 14> S 1.0719297271 -1.6401862087 0.4771866715
| 15> C -0.1629709537 -1.9316741224 -0.8361459312
| 16> S -1.8566377123 -1.9740973715 -0.2129857287
| 17> P -2.1054672854 0.1080907193 0.1343230889
| 18> S -1.4185499637 1.2867788223 -1.2685552335
| 19> O -1.4707343427 0.4264102935 1.5428265145
| 20> C -1.9497899529 -0.1326020679 2.7970629679
| 21> C -1.0109133506 -1.2096130588 3.3014565159
| 22> O -3.659656549 0.2450398064 0.4406181269
| 23> C -4.6458201496 0.4366924094 -0.5901287554
| 24> C -4.7856201945 -0.7733137164 -1.4905105227
| 25> H 4.8851214341 0.2806232336 -1.6966865986
| 26> H 5.8043121018 0.7923977116 -0.2738430696
| 27> H 6.1977970248 -0.7339466431 -1.0828940265
| 28> H 4.9055495236 -1.1577619033 1.0100266695
| 29> H 3.9755301314 -1.6578092233 -0.4283801708
| 30> H 0.9038928729 2.7915969755 -0.5968108362
| 31> H 0.5933078042 3.0914300781 1.1332128224
| 32> H 3.0871924355 2.9768814535 1.5399510283
| 33> H 3.334056628 2.7611247379 -0.2008829417
| 34> H 2.6597283411 4.2800960164 0.4110029281
| 35> H 0.0274236124 -2.9138512187 -1.2605900416
| 36> H -0.0601333381 -1.148265606 -1.59245826
| 37> H -1.9742068439 0.7201384069 3.4775186728
| 38> H -2.9606383808 -0.5165490579 2.6516603508
| 39> H 0.0058360207 -0.8274387395 3.3472765078
| 40> H -1.3252090202 -1.5108169364 4.2957386518
| 41> H -1.0247179471 -2.0774018003 2.6464719537
| 42> H -5.5631100999 0.6329522607 -0.0330790474
| 43> H -4.3672939814 1.3203800671 -1.1723987975
| 44> H -4.9322891765 -1.6726945342 -0.8978725442
| 45> H -5.6371172111 -0.6307969642 -2.1481535981
| 46> H -3.8898590351 -0.8938922688 -2.0974278504
| 47> *
| 48>
| 49>                          ****END OF INPUT****

CARTESIAN COORDINATES (ANGSTROEM)
---------------------------------
  C      5.392115   -0.065136   -0.798292
  C      4.419590   -0.807762    0.097520
  O      3.371969    0.069450    0.556164
  P      1.956528    0.151856   -0.168060
  S      1.998895    0.452600   -2.109221
  O      1.239122    1.240442    0.727924
  C      1.287687    2.645958    0.418944
  C      2.687234    3.204561    0.555319
  S      1.071930   -1.640186    0.477187
  C     -0.162971   -1.931674   -0.836146
  S     -1.856638   -1.974097   -0.212986
  P     -2.105467    0.108091    0.134323
  S     -1.418550    1.286779   -1.268555
  O     -1.470734    0.426410    1.542827
  C     -1.949790   -0.132602    2.797063
  C     -1.010913   -1.209613    3.301457
  O     -3.659657    0.245040    0.440618
  C     -4.645820    0.436692   -0.590129
  C     -4.785620   -0.773314   -1.490511
  H      4.885121    0.280623   -1.696687
  H      5.804312    0.792398   -0.273843
  H      6.197797   -0.733947   -1.082894
  H      4.905550   -1.157762    1.010027
  H      3.975530   -1.657809   -0.428380
  H      0.903893    2.791597   -0.596811
  H      0.593308    3.091430    1.133213
  H      3.087192    2.976881    1.539951
  H      3.334057    2.761125   -0.200883
  H      2.659728    4.280096    0.411003
  H      0.027424   -2.913851   -1.260590
  H     -0.060133   -1.148266   -1.592458
  H     -1.974207    0.720138    3.477519
  H     -2.960638   -0.516549    2.651660
  H      0.005836   -0.827439    3.347277
  H     -1.325209   -1.510817    4.295739
  H     -1.024718   -2.077402    2.646472
  H     -5.563110    0.632952   -0.033079
  H     -4.367294    1.320380   -1.172399
  H     -4.932289   -1.672695   -0.897873
  H     -5.637117   -0.630797   -2.148154
  H     -3.889859   -0.893892   -2.097428

 Total Charge           Charge          ....    0
 Multiplicity           Mult            ....    1
 Number of Electrons    NEL             ....  202
 Basis Dimension        Dim             ....  539

ORBITAL ENERGIES
----------------

  NO   OCC          E(Eh)            E(eV)
   0   2.0000     -88.575445     -2410.2604
   1   2.0000     -88.571383     -2410.1499
   2   2.0000     -88.514700     -2408.6074
   3   2.0000     -88.512270     -2408.5413
   4   2.0000     -76.911925     -2092.8799
   5   2.0000     -76.907561     -2092.7611
   6   2.0000     -18.992920      -516.8236
   7   2.0000     -18.986421      -516.6468
   8   2.0000     -18.985371      -516.6182
   9   2.0000     -18.978844      -516.4406
  10   2.0000     -10.104983      -274.9706
  11   2.0000     -10.100014      -274.8354
  12   2.0000     -10.099620      -274.8246
  13   2.0000     -10.095380      -274.7092
  14   2.0000     -10.084275      -274.4071
  15   2.0000     -10.028995      -272.9028
  16   2.0000     -10.025495      -272.8076
  17   2.0000     -10.022036      -272.7135
  18   2.0000     -10.019482      -272.6440
  19   2.0000      -7.870025      -214.1543
  20   2.0000      -7.866110      -214.0477
  21   2.0000      -7.809531      -212.5082
  22   2.0000      -7.807033      -212.4402
  23   2.0000      -6.590234      -179.3294
  24   2.0000      -6.585851      -179.2101
  25   2.0000      -5.816865      -158.2849
  26   2.0000      -5.813750      -158.2002
  27   2.0000      -5.812924      -158.1777
  28   2.0000      -5.809865      -158.0945
  29   2.0000      -5.807255      -158.0234
  30   2.0000      -5.803288      -157.9155
  31   2.0000      -5.757318      -156.6646
  32   2.0000      -5.754686      -156.5930
  33   2.0000      -5.749682      -156.4568
  34   2.0000      -5.749516      -156.4523
  35   2.0000      -5.747481      -156.3969
  36   2.0000      -5.746873      -156.3804
  37   2.0000      -4.736161      -128.8775
  38   2.0000      -4.735083      -128.8482
  39   2.0000      -4.733672      -128.8098
  40   2.0000      -4.731260      -128.7441
  41   2.0000      -4.730726      -128.7296
  42   2.0000      -4.729750      -128.7031
  43   2.0000      -1.049266       -28.5520
  44   2.0000      -1.041930       -28.3524
  45   2.0000      -1.007135       -27.4055
  46   2.0000      -1.001578       -27.2543
  47   2.0000      -0.798207       -21.7203
  48   2.0000      -0.755277       -20.5521
  49   2.0000      -0.745291       -20.2804
  50   2.0000      -0.732814       -19.9409
  51   2.0000      -0.723603       -19.6902
  52   2.0000      -0.708792       -19.2872
  53   2.0000      -0.683428       -18.5970
  54   2.0000      -0.662014       -18.0143
  55   2.0000      -0.627859       -17.0849
  56   2.0000      -0.618833       -16.8393
  57   2.0000      -0.607049       -16.5187
  58   2.0000      -0.596327       -16.2269
  59   2.0000      -0.588574       -16.0159
  60   2.0000      -0.525840       -14.3088
  61   2.0000      -0.517367       -14.0783
  62   2.0000      -0.491221       -13.3668
  63   2.0000      -0.485244       -13.2042
  64   2.0000      -0.467342       -12.7170
  65   2.0000      -0.461424       -12.5560
  66   2.0000      -0.456467       -12.4211
  67   2.0000      -0.451117       -12.2755
  68   2.0000      -0.444932       -12.1072
  69   2.0000      -0.432283       -11.7630
  70   2.0000      -0.423223       -11.5165
  71   2.0000      -0.412231       -11.2174
  72   2.0000      -0.405607       -11.0371
  73   2.0000      -0.398775       -10.8512
  74   2.0000      -0.389242       -10.5918
  75   2.0000      -0.384880       -10.4731
  76   2.0000      -0.381373       -10.3777
  77   2.0000      -0.370349       -10.0777
  78   2.0000      -0.368822       -10.0362
  79   2.0000      -0.363212        -9.8835
  80   2.0000      -0.356290        -9.6951
  81   2.0000      -0.355405        -9.6711
  82   2.0000      -0.349915        -9.5217
  83   2.0000      -0.347734        -9.4623
  84   2.0000      -0.342596        -9.3225
  85   2.0000      -0.327348        -8.9076
  86   2.0000      -0.321580        -8.7506
  87   2.0000      -0.314370        -8.5545
  88   2.0000      -0.308001        -8.3811
  89   2.0000      -0.305191        -8.3047
  90   2.0000      -0.291426        -7.9301
  91   2.0000      -0.283676        -7.7192
  92   2.0000      -0.277664        -7.5556
  93   2.0000      -0.275402        -7.4941
  94   2.0000      -0.271303        -7.3825
  95   2.0000      -0.245115        -6.6699
  96   2.0000      -0.232419        -6.3244
  97   2.0000      -0.226355        -6.1594
  98   2.0000      -0.214798        -5.8449
  99   2.0000      -0.204867        -5.5747
 100   2.0000      -0.196585        -5.3494
 101   0.0000      -0.040290        -1.0963
 102   0.0000      -0.029676        -0.8075
 103   0.0000      -0.008200        -0.2231
 104   0.0000       0.014728         0.4008
 105   0.0000       0.016613         0.4521

MULLIKEN ATOMIC CHARGES
-----------------------
   0 C :   -0.462215
   1 C :   -0.129463
   2 O :   -0.289580
   3 P :    0.629921
   4 S :   -0.458594
   5 O :   -0.266253
   6 C :   -0.145891
   7 C :   -0.454474
   8 S :   -0.132208
   9 C :   -0.220150
  10 S :   -0.149641
  11 P :    0.673228
  12 S :   -0.416554
  13 O :   -0.252481
  14 C :   -0.135445
  15 C :   -0.443539
  16 O :   -0.317072
  17 C :   -0.166143
  18 C :   -0.456322
  19 H :    0.184674
  20 H :    0.150621
  21 H :    0.143574
  22 H :    0.148608
  23 H :    0.153425
  24 H :    0.181046
  25 H :    0.154872
  26 H :    0.155365
  27 H :    0.167371
  28 H :    0.145890
  29 H :    0.197307
  30 H :    0.218046
  31 H :    0.151119
  32 H :    0.161174
  33 H :    0.164744
  34 H :    0.141894
  35 H :    0.165517
  36 H :    0.147291
  37 H :    0.175493
  38 H :    0.153044
  39 H :    0.148501
  40 H :    0.183301
Sum of atomic charges:    0.0000000

LOEWDIN ATOMIC CHARGES
----------------------
   0 C :   -0.403310
   1 C :    0.018333
   2 O :   -0.667612
   3 P :    0.366501
   4 S :   -0.127846
   5 O :   -0.663050
   6 C :    0.012555
   7 C :   -0.401285
   8 S :    0.167583
   9 C :   -0.413687
  10 S :    0.130586
  11 P :    0.380959
  12 S :   -0.071045
  13 O :   -0.647897
  14 C :    0.029815
  15 C :   -0.406075
  16 O :   -0.678543
  17 C :    0.021847
  18 C :   -0.409146
  19 H :    0.169284
  20 H :    0.157128
  21 H :    0.157421
  22 H :    0.177345
  23 H :    0.176161
  24 H :    0.184498
  25 H :    0.182644
  26 H :    0.160157
  27 H :    0.164882
  28 H :    0.158551
  29 H :    0.180634
  30 H :    0.203099
  31 H :    0.180640
  32 H :    0.179262
  33 H :    0.164883
  34 H :    0.156088
  35 H :    0.162207
  36 H :    0.179190
  37 H :    0.180984
  38 H :    0.159274
  39 H :    0.159752
  40 H :    0.167232

  Mayer bond orders larger than 0.100000
B(  0-C ,  1-C ) :   0.9493 B(  0-C , 19-H ) :   0.9586 B(  0-C , 20-H ) :   0.9743
B(  0-C , 21-H ) :   0.9646 B(  1-C ,  2-O ) :   0.7854 B(  1-C , 22-H ) :   0.9646
B(  1-C , 23-H ) :   0.9650 B(  2-O ,  3-P ) :   1.0483 B(  3-P ,  4-S ) :   1.7647
B(  3-P ,  5-O ) :   1.1807 B(  3-P ,  8-S ) :   1.1333 B(  5-O ,  6-C ) :   0.8013
B(  6-C ,  7-C ) :   0.9114 B(  6-C , 24-H ) :   0.9623 B(  6-C , 25-H ) :   0.9621
B(  7-C , 26-H ) :   0.9729 B(  7-C , 27-H ) :   0.9611 B(  7-C , 28-H ) :   0.9618
B(  8-S ,  9-C ) :   0.8913 B(  9-C , 10-S ) :   0.9100 B(  9-C , 29-H ) :   0.9129
B(  9-C , 30-H ) :   0.9052 B( 10-S , 11-P ) :   1.0014 B( 11-P , 12-S ) :   1.8335
B( 11-P , 13-O ) :   1.1177 B( 11-P , 16-O ) :   1.0601 B( 13-O , 14-C ) :   0.7453
B( 14-C , 15-C ) :   0.9511 B( 14-C , 31-H ) :   0.9608 B( 14-C , 32-H ) :   0.9757
B( 15-C , 33-H ) :   0.9647 B( 15-C , 34-H ) :   0.9618 B( 15-C , 35-H ) :   0.9617
B( 16-O , 17-C ) :   0.8253 B( 17-C , 18-C ) :   0.9164 B( 17-C , 36-H ) :   0.9613
B( 17-C , 37-H ) :   0.9676 B( 18-C , 38-H ) :   0.9676 B( 18-C , 39-H ) :   0.9571
B( 18-C , 40-H ) :   0.9628

Dispersion correction           -0.022370248
FINAL SINGLE POINT ENERGY     -2932.457889984407

DIPOLE MOMENT
-------------

Method             : SCF
Type of density    : Electron Density
Multiplicity       :   1
Irrep              :   0
Energy             : -2932.4821482705879134 Eh
Relativity type    :
Basis              : AO
                                X                 Y                 Z
Electronic contribution:     -4.938725812      -4.022191706      -5.590161419
Nuclear contribution   :      4.489272927       3.516223971       6.765310251
                        -----------------------------------------
Total Dipole Moment    :     -0.449452885      -0.505967735       1.175148832
                        -----------------------------------------
Magnitude (a.u.)       :      1.356092188
Magnitude (Debye)      :      3.446912411

Rotational constants in cm-1:             0.013368             0.005188             0.005044
Rotational constants in MHz :           400.747796           155.531791           151.222185

                             ****ORCA TERMINATED NORMALLY****
TOTAL RUN TIME: 0 days 0 hours 1 minutes 21 seconds 770 msec
