                         Program Version 6.0.0  -   RELEASE  -
|  1> ! r2scan-3c def2/J RI DEFGRID2 scfconv6 printgap
|  2> %output
|  3>     printlevel normal
|  4> end
|  5> %cpcm
|  6>     smd true
|  7>     smdsolvent "water"
|  8> end
|  9> * xyz 0 1
| 10> C 5.3921147111 -0.065136002 -0.7982924811
| 11> C 4.419589894 -0.8077621371 0.0975200329
| 12> O 3.3719689935 0.0694500109 0.5561635709
| 13> P 1.9565280155 0.1518562685 -0.1680597692
| 14> S 1.9988954732 0.4526001406 -2.1092214792
| 15> O 1.2391219283 1.2404419665 0.7279240211
| 16> C 1.2876873672 2.6459578441 0.418943777
| 17> C 2.6872344389 3.2045614509 0.5553192813
| 18> S 1.0719297271 -1.6401862087 0.4771866715
| 19> C -0.1629709537 -1.9316741224 -0.8361459312
| 20> S -1.8566377123 -1.9740973715 -0.2129857287
| 21> P -2.1054672854 0.1080907193 0.1343230889
| 22> S -1.4185499637 1.2867788223 -1.2685552335
| 23> O -1.4707343427 0.4264102935 1.5428265145
| 24> C -1.9497899529 -0.1326020679 2.7970629679
| 25> C -1.0109133506 -1.2096130588 3.3014565159
| 26> O -3.659656549 0.2450398064 0.4406181269
| 27> C -4.6458201496 0.4366924094 -0.5901287554
| 28> C -4.7856201945 -0.7733137164 -1.4905105227
| 29> H 4.8851214341 0.2806232336 -1.6966865986
| 30> H 5.8043121018 0.7923977116 -0.2738430696
| 31> H 6.1977970248 -0.7339466431 -1.0828940265
| 32> H 4.9055495236 -1.1577619033 1.0100266695
| 33> H 3.9755301314 -1.6578092233 -0.4283801708
| 34> H 0.9038928729 2.7915969755 -0.5968108362
| 35> H 0.5933078042 3.0914300781 1.1332128224
| 36> H 3.0871924355 2.9768814535 1.5399510283
| 37> H 3.334056628 2.7611247379 -0.2008829417
| 38> H 2.6597283411 4.2800960164 0.4110029281
| 39> H 0.0274236124 -2.9138512187 -1.2605900416
| 40> H -0.0601333381 -1.148265606 -1.59245826
| 41> H -1.9742068439 0.7201384069 3.4775186728
| 42> H -2.9606383808 -0.5165490579 2.6516603508
| 43> H 0.0058360207 -0.8274387395 3.3472765078
| 44> H -1.3252090202 -1.5108169364 4.2957386518
| 45> H -1.0247179471 -2.0774018003 2.6464719537
| 46> H -5.5631100999 0.6329522607 -0.0330790474
| 47> H -4.3672939814 1.3203800671 -1.1723987975
| 48> H -4.9322891765 -1.6726945342 -0.8978725442
| 49> H -5.6371172111 -0.6307969642 -2.1481535981
| 50> H -3.8898590351 -0.8938922688 -2.0974278504
| 51> *
| 52>
| 53>                          ****END OF INPUT****

CARTESIAN COORDINATES (ANGSTROEM)
---------------------------------
  C      5.392115   -0.065136   -0.798292
  C      4.419590   -0.807762    0.097520
  O      3.371969    0.069450    0.556164
  P      1.956528    0.151856   -0.168060
  S      1.998895    0.452600   -2.109221
  O      1.239122    1.240442    0.727924
  C      1.287687    2.645958    0.418944
  C      2.687234    3.204561    0.555319
  S      1.071930   -1.640186    0.477187
  C     -0.162971   -1.931674   -0.836146
  S     -1.856638   -1.974097   -0.212986
  P     -2.105467    0.108091    0.134323
  S     -1.418550    1.286779   -1.268555
  O     -1.470734    0.426410    1.542827
  C     -1.949790   -0.132602    2.797063
  C     -1.010913   -1.209613    3.301457
  O     -3.659657    0.245040    0.440618
  C     -4.645820    0.436692   -0.590129
  C     -4.785620   -0.773314   -1.490511
  H      4.885121    0.280623   -1.696687
  H      5.804312    0.792398   -0.273843
  H      6.197797   -0.733947   -1.082894
  H      4.905550   -1.157762    1.010027
  H      3.975530   -1.657809   -0.428380
  H      0.903893    2.791597   -0.596811
  H      0.593308    3.091430    1.133213
  H      3.087192    2.976881    1.539951
  H      3.334057    2.761125   -0.200883
  H      2.659728    4.280096    0.411003
  H      0.027424   -2.913851   -1.260590
  H     -0.060133   -1.148266   -1.592458
  H     -1.974207    0.720138    3.477519
  H     -2.960638   -0.516549    2.651660
  H      0.005836   -0.827439    3.347277
  H     -1.325209   -1.510817    4.295739
  H     -1.024718   -2.077402    2.646472
  H     -5.563110    0.632952   -0.033079
  H     -4.367294    1.320380   -1.172399
  H     -4.932289   -1.672695   -0.897873
  H     -5.637117   -0.630797   -2.148154
  H     -3.889859   -0.893892   -2.097428

 Total Charge           Charge          ....    0
 Multiplicity           Mult            ....    1
 Number of Electrons    NEL             ....  202
 Basis Dimension        Dim             ....  539

ORBITAL ENERGIES
----------------

  NO   OCC          E(Eh)            E(eV)
   0   2.0000     -88.578009     -2410.3302
   1   2.0000     -88.576700     -2410.2945
   2   2.0000     -88.524115     -2408.8636
   3   2.0000     -88.523777     -2408.8544
   4   2.0000     -76.917757     -2093.0386
   5   2.0000     -76.917183     -2093.0230
   6   2.0000     -18.994054      -516.8545
   7   2.0000     -18.991947      -516.7971
   8   2.0000     -18.991343      -516.7807
   9   2.0000     -18.989751      -516.7374
  10   2.0000     -10.104486      -274.9570
  11   2.0000     -10.091060      -274.5917
  12   2.0000     -10.090010      -274.5631
  13   2.0000     -10.089581      -274.5514
  14   2.0000     -10.086353      -274.4636
  15   2.0000     -10.018393      -272.6143
  16   2.0000     -10.017439      -272.5884
  17   2.0000     -10.016366      -272.5592
  18   2.0000     -10.015921      -272.5471
  19   2.0000      -7.872500      -214.2216
  20   2.0000      -7.871355      -214.1905
  21   2.0000      -7.819289      -212.7737
  22   2.0000      -7.818861      -212.7620
  23   2.0000      -6.596113      -179.4894
  24   2.0000      -6.595525      -179.4734
  25   2.0000      -5.819368      -158.3531
  26   2.0000      -5.818176      -158.3206
  27   2.0000      -5.816252      -158.2683
  28   2.0000      -5.815111      -158.2372
  29   2.0000      -5.809690      -158.0897
  30   2.0000      -5.808541      -158.0584
  31   2.0000      -5.766969      -156.9272
  32   2.0000      -5.766448      -156.9130
  33   2.0000      -5.759423      -156.7219
  34   2.0000      -5.759330      -156.7193
  35   2.0000      -5.759310      -156.7188
  36   2.0000      -5.758707      -156.7024
  37   2.0000      -4.741990      -129.0361
  38   2.0000      -4.740933      -129.0073
  39   2.0000      -4.740904      -129.0066
  40   2.0000      -4.740404      -128.9929
  41   2.0000      -4.739662      -128.9727
  42   2.0000      -4.739474      -128.9676
  43   2.0000      -1.051989       -28.6261
  44   2.0000      -1.050132       -28.5755
  45   2.0000      -1.010305       -27.4918
  46   2.0000      -1.008873       -27.4528
  47   2.0000      -0.800469       -21.7819
  48   2.0000      -0.754885       -20.5415
  49   2.0000      -0.743481       -20.2311
  50   2.0000      -0.724675       -19.7194
  51   2.0000      -0.721747       -19.6397
  52   2.0000      -0.710222       -19.3261
  53   2.0000      -0.688951       -18.7473
  54   2.0000      -0.669562       -18.2197
  55   2.0000      -0.629870       -17.1396
  56   2.0000      -0.618535       -16.8312
  57   2.0000      -0.602490       -16.3946
  58   2.0000      -0.594768       -16.1845
  59   2.0000      -0.588957       -16.0263
  60   2.0000      -0.522947       -14.2301
  61   2.0000      -0.518105       -14.0983
  62   2.0000      -0.490494       -13.3470
  63   2.0000      -0.486557       -13.2399
  64   2.0000      -0.469662       -12.7801
  65   2.0000      -0.461919       -12.5694
  66   2.0000      -0.455237       -12.3876
  67   2.0000      -0.451513       -12.2863
  68   2.0000      -0.439863       -11.9693
  69   2.0000      -0.431322       -11.7369
  70   2.0000      -0.422012       -11.4835
  71   2.0000      -0.413809       -11.2603
  72   2.0000      -0.403071       -10.9681
  73   2.0000      -0.401134       -10.9154
  74   2.0000      -0.386700       -10.5226
  75   2.0000      -0.384948       -10.4750
  76   2.0000      -0.382285       -10.4025
  77   2.0000      -0.367707       -10.0058
  78   2.0000      -0.364313        -9.9135
  79   2.0000      -0.359106        -9.7718
  80   2.0000      -0.352877        -9.6023
  81   2.0000      -0.351400        -9.5621
  82   2.0000      -0.349449        -9.5090
  83   2.0000      -0.344653        -9.3785
  84   2.0000      -0.342880        -9.3303
  85   2.0000      -0.326215        -8.8768
  86   2.0000      -0.323759        -8.8099
  87   2.0000      -0.310802        -8.4573
  88   2.0000      -0.304707        -8.2915
  89   2.0000      -0.303329        -8.2540
  90   2.0000      -0.296516        -8.0686
  91   2.0000      -0.287234        -7.8160
  92   2.0000      -0.280724        -7.6389
  93   2.0000      -0.278754        -7.5853
  94   2.0000      -0.275008        -7.4833
  95   2.0000      -0.249245        -6.7823
  96   2.0000      -0.240291        -6.5386
  97   2.0000      -0.235863        -6.4182
  98   2.0000      -0.225362        -6.1324
  99   2.0000      -0.214026        -5.8239
 100   2.0000      -0.207854        -5.6560
 101   0.0000      -0.044623        -1.2143
 102   0.0000      -0.036496        -0.9931
 103   0.0000      -0.011958        -0.3254
 104   0.0000       0.008865         0.2412
 105   0.0000       0.013573         0.3693

MULLIKEN ATOMIC CHARGES
-----------------------
   0 C :   -0.496724
   1 C :   -0.127259
   2 O :   -0.317309
   3 P :    0.661160
   4 S :   -0.512089
   5 O :   -0.297304
   6 C :   -0.144077
   7 C :   -0.497222
   8 S :   -0.129756
   9 C :   -0.221069
  10 S :   -0.144771
  11 P :    0.688345
  12 S :   -0.469010
  13 O :   -0.287709
  14 C :   -0.129660
  15 C :   -0.479403
  16 O :   -0.337380
  17 C :   -0.159847
  18 C :   -0.491809
  19 H :    0.173163
  20 H :    0.166111
  21 H :    0.168903
  22 H :    0.175493
  23 H :    0.164410
  24 H :    0.180215
  25 H :    0.177555
  26 H :    0.170611
  27 H :    0.168652
  28 H :    0.171490
  29 H :    0.238135
  30 H :    0.210991
  31 H :    0.176256
  32 H :    0.179352
  33 H :    0.166237
  34 H :    0.167376
  35 H :    0.167038
  36 H :    0.174882
  37 H :    0.178398
  38 H :    0.169079
  39 H :    0.172798
  40 H :    0.175749
Sum of atomic charges:    0.0000000

LOEWDIN ATOMIC CHARGES
----------------------
   0 C :   -0.406815
   1 C :    0.023715
   2 O :   -0.681208
   3 P :    0.370096
   4 S :   -0.161224
   5 O :   -0.683741
   6 C :    0.013148
   7 C :   -0.403338
   8 S :    0.171920
   9 C :   -0.408289
  10 S :    0.141420
  11 P :    0.383087
  12 S :   -0.108949
  13 O :   -0.670418
  14 C :    0.035795
  15 C :   -0.407418
  16 O :   -0.684404
  17 C :    0.026910
  18 C :   -0.411748
  19 H :    0.162903
  20 H :    0.161697
  21 H :    0.166888
  22 H :    0.188905
  23 H :    0.180043
  24 H :    0.183342
  25 H :    0.190537
  26 H :    0.164230
  27 H :    0.163173
  28 H :    0.168337
  29 H :    0.196932
  30 H :    0.200048
  31 H :    0.191003
  32 H :    0.186917
  33 H :    0.163282
  34 H :    0.166073
  35 H :    0.160713
  36 H :    0.190939
  37 H :    0.181359
  38 H :    0.163659
  39 H :    0.168547
  40 H :    0.161932

  Mayer bond orders larger than 0.100000
B(  0-C ,  1-C ) :   0.9407 B(  0-C , 19-H ) :   0.9631 B(  0-C , 20-H ) :   0.9710
B(  0-C , 21-H ) :   0.9594 B(  1-C ,  2-O ) :   0.7716 B(  1-C , 22-H ) :   0.9540
B(  1-C , 23-H ) :   0.9584 B(  2-O ,  3-P ) :   1.0549 B(  3-P ,  4-S ) :   1.7143
B(  3-P ,  5-O ) :   1.1758 B(  3-P ,  8-S ) :   1.1602 B(  5-O ,  6-C ) :   0.7859
B(  6-C ,  7-C ) :   0.9078 B(  6-C , 24-H ) :   0.9587 B(  6-C , 25-H ) :   0.9503
B(  7-C , 26-H ) :   0.9711 B(  7-C , 27-H ) :   0.9605 B(  7-C , 28-H ) :   0.9550
B(  8-S ,  9-C ) :   0.8849 B(  9-C , 10-S ) :   0.9056 B(  9-C , 29-H ) :   0.8969
B(  9-C , 30-H ) :   0.9098 B( 10-S , 11-P ) :   1.0192 B( 11-P , 12-S ) :   1.8067
B( 11-P , 13-O ) :   1.1184 B( 11-P , 16-O ) :   1.0693 B( 13-O , 14-C ) :   0.7340
B( 14-C , 15-C ) :   0.9415 B( 14-C , 31-H ) :   0.9505 B( 14-C , 32-H ) :   0.9655
B( 15-C , 33-H ) :   0.9649 B( 15-C , 34-H ) :   0.9568 B( 15-C , 35-H ) :   0.9621
B( 16-O , 17-C ) :   0.8142 B( 17-C , 18-C ) :   0.9047 B( 17-C , 36-H ) :   0.9510
B( 17-C , 37-H ) :   0.9660 B( 18-C , 38-H ) :   0.9645 B( 18-C , 39-H ) :   0.9519
B( 18-C , 40-H ) :   0.9652

Dispersion correction           -0.022370248
FINAL SINGLE POINT ENERGY     -2932.466883030221

DIPOLE MOMENT
-------------

Method             : SCF
Type of density    : Electron Density
Multiplicity       :   1
Irrep              :   0
Energy             : -2932.4911413164018086 Eh
Relativity type    :
Basis              : AO
                                X                 Y                 Z
Electronic contribution:     -5.143673083      -4.479338380      -5.157461838
Nuclear contribution   :      4.489272927       3.516223971       6.765310251
                        -----------------------------------------
Total Dipole Moment    :     -0.654400156      -0.963114409       1.607848413
                        -----------------------------------------
Magnitude (a.u.)       :      1.985196577
Magnitude (Debye)      :      5.045968688

Rotational constants in cm-1:             0.013368             0.005188             0.005044
Rotational constants in MHz :           400.747796           155.531791           151.222185

                             ****ORCA TERMINATED NORMALLY****
TOTAL RUN TIME: 0 days 0 hours 1 minutes 51 seconds 98 msec
