                         Program Version 6.0.1  -  RELEASE   -
|  1> ! pbe def2-sv(p) def2/J RI DEFGRID1 loosescf d4 GCP(DFT/SV(P)) printgap
|  2> %output
|  3>     printlevel normal
|  4> end
|  5> * xyz 0 1
|  6> C 4.3288774611 -3.7081507551 -1.0091764111
|  7> C 2.8131739011 -3.7221804791 -0.8898695262
|  8> O 2.3318668562 -2.5094287583 -0.2776936135
|  9> C 2.1374692383 -1.45556486 -1.0436652585
| 10> O 2.2883366963 -1.4356261348 -2.2450932134
| 11> C 1.6871408384 -0.2571382246 -0.2298818144
| 12> C 0.6363567995 0.5282371383 -1.0016096162
| 13> H 1.000234035 0.7040770246 -2.0209642537
| 14> C 0.277136553 1.8668327568 -0.3866621845
| 15> O -0.8524370737 2.3162052187 -0.4211443264
| 16> O 1.3084862897 2.4749771563 0.1279561412
| 17> C 1.084529533 3.748908553 0.7698800047
| 18> C 2.3388106012 4.109494234 1.5391138188
| 19> S -0.9034369323 -0.4204648599 -1.2341968299
| 20> P -1.8969706976 0.0202650082 0.5981360514
| 21> S -0.819039219 0.5064594709 2.1570188503
| 22> O -3.1110273827 0.9970683912 0.3551406172
| 23> C -4.0061377675 0.8723659506 -0.766248856
| 24> O -2.7067225876 -1.3512468294 0.8084394744
| 25> C -2.0324688622 -2.5639683726 1.156060008
| 26> H 4.666330344 -4.6614350339 -1.4022647175
| 27> H 4.6436544763 -2.9167064068 -1.6854724022
| 28> H 4.779384116 -3.5423638192 -0.0344486985
| 29> H 2.4743457317 -4.5152433783 -0.2234767729
| 30> H 2.3477908783 -3.8228664994 -1.8744732192
| 31> H 2.5524665068 0.3888916936 -0.0646077953
| 32> H 1.3137750574 -0.5887595469 0.7398905071
| 33> H 0.8534751462 4.4843176904 -0.0062632663
| 34> H 0.2147951838 3.6482689408 1.4268723815
| 35> H 2.533721785 3.3610957592 2.301411098
| 36> H 3.1880379281 4.1603617454 0.8646860969
| 37> H 2.1990129151 5.074437958 2.0144804796
| 38> H -4.7676551482 1.6303488664 -0.6030108833
| 39> H -4.4440891575 -0.1240461609 -0.7869202762
| 40> H -3.4628262152 1.068371202 -1.6904221294
| 41> H -1.4527732709 -2.9240676306 0.3059346739
| 42> H -2.8164977662 -3.2714098708 1.4130988119
| 43> H -1.3754818452 -2.394961937 2.0108709875
| 44> *
| 45>
| 46>                          ****END OF INPUT****

CARTESIAN COORDINATES (ANGSTROEM)
---------------------------------
  C      4.328877   -3.708151   -1.009176
  C      2.813174   -3.722180   -0.889870
  O      2.331867   -2.509429   -0.277694
  C      2.137469   -1.455565   -1.043665
  O      2.288337   -1.435626   -2.245093
  C      1.687141   -0.257138   -0.229882
  C      0.636357    0.528237   -1.001610
  H      1.000234    0.704077   -2.020964
  C      0.277137    1.866833   -0.386662
  O     -0.852437    2.316205   -0.421144
  O      1.308486    2.474977    0.127956
  C      1.084530    3.748909    0.769880
  C      2.338811    4.109494    1.539114
  S     -0.903437   -0.420465   -1.234197
  P     -1.896971    0.020265    0.598136
  S     -0.819039    0.506459    2.157019
  O     -3.111027    0.997068    0.355141
  C     -4.006138    0.872366   -0.766249
  O     -2.706723   -1.351247    0.808439
  C     -2.032469   -2.563968    1.156060
  H      4.666330   -4.661435   -1.402265
  H      4.643654   -2.916706   -1.685472
  H      4.779384   -3.542364   -0.034449
  H      2.474346   -4.515243   -0.223477
  H      2.347791   -3.822866   -1.874473
  H      2.552467    0.388892   -0.064608
  H      1.313775   -0.588760    0.739891
  H      0.853475    4.484318   -0.006263
  H      0.214795    3.648269    1.426872
  H      2.533722    3.361096    2.301411
  H      3.188038    4.160362    0.864686
  H      2.199013    5.074438    2.014480
  H     -4.767655    1.630349   -0.603011
  H     -4.444089   -0.124046   -0.786920
  H     -3.462826    1.068371   -1.690422
  H     -1.452773   -2.924068    0.305935
  H     -2.816498   -3.271410    1.413099
  H     -1.375482   -2.394962    2.010871

 Total Charge           Charge          ....    0
 Multiplicity           Mult            ....    1
 Number of Electrons    NEL             ....  174
 Basis Dimension        Dim             ....  316

ORBITAL ENERGIES
----------------

  NO   OCC          E(Eh)            E(eV)
   0   2.0000     -88.038350     -2395.6453
   1   2.0000     -87.979964     -2394.0565
   2   2.0000     -76.422565     -2079.5637
   3   2.0000     -18.812810      -511.9226
   4   2.0000     -18.805159      -511.7144
   5   2.0000     -18.785525      -511.1801
   6   2.0000     -18.784914      -511.1635
   7   2.0000     -18.741606      -509.9850
   8   2.0000     -18.738478      -509.8999
   9   2.0000     -10.018406      -272.6147
  10   2.0000     -10.010884      -272.4100
  11   2.0000      -9.950572      -270.7688
  12   2.0000      -9.949669      -270.7443
  13   2.0000      -9.947189      -270.6768
  14   2.0000      -9.942485      -270.5488
  15   2.0000      -9.939427      -270.4655
  16   2.0000      -9.903702      -269.4934
  17   2.0000      -9.889872      -269.1171
  18   2.0000      -9.889652      -269.1111
  19   2.0000      -7.682940      -209.0634
  20   2.0000      -7.625195      -207.4921
  21   2.0000      -6.419107      -174.6728
  22   2.0000      -5.710863      -155.4005
  23   2.0000      -5.707475      -155.3083
  24   2.0000      -5.699914      -155.1025
  25   2.0000      -5.654274      -153.8606
  26   2.0000      -5.645735      -153.6283
  27   2.0000      -5.645163      -153.6127
  28   2.0000      -4.641819      -126.3103
  29   2.0000      -4.641092      -126.2905
  30   2.0000      -4.639488      -126.2469
  31   2.0000      -1.021210       -27.7885
  32   2.0000      -1.012812       -27.5600
  33   2.0000      -0.979855       -26.6632
  34   2.0000      -0.935559       -25.4578
  35   2.0000      -0.920756       -25.0550
  36   2.0000      -0.918709       -24.9993
  37   2.0000      -0.763341       -20.7716
  38   2.0000      -0.712769       -19.3954
  39   2.0000      -0.710343       -19.3294
  40   2.0000      -0.690442       -18.7879
  41   2.0000      -0.656510       -17.8645
  42   2.0000      -0.630399       -17.1540
  43   2.0000      -0.623475       -16.9656
  44   2.0000      -0.616213       -16.7680
  45   2.0000      -0.593832       -16.1590
  46   2.0000      -0.561509       -15.2794
  47   2.0000      -0.515258       -14.0209
  48   2.0000      -0.506424       -13.7805
  49   2.0000      -0.499447       -13.5906
  50   2.0000      -0.481713       -13.1081
  51   2.0000      -0.468722       -12.7546
  52   2.0000      -0.456198       -12.4138
  53   2.0000      -0.448540       -12.2054
  54   2.0000      -0.439049       -11.9471
  55   2.0000      -0.432850       -11.7784
  56   2.0000      -0.425209       -11.5705
  57   2.0000      -0.415968       -11.3191
  58   2.0000      -0.410382       -11.1671
  59   2.0000      -0.409074       -11.1315
  60   2.0000      -0.400798       -10.9063
  61   2.0000      -0.396172       -10.7804
  62   2.0000      -0.389530       -10.5997
  63   2.0000      -0.387007       -10.5310
  64   2.0000      -0.378897       -10.3103
  65   2.0000      -0.364802        -9.9268
  66   2.0000      -0.360624        -9.8131
  67   2.0000      -0.357935        -9.7399
  68   2.0000      -0.344410        -9.3719
  69   2.0000      -0.342438        -9.3182
  70   2.0000      -0.334797        -9.1103
  71   2.0000      -0.328844        -8.9483
  72   2.0000      -0.321482        -8.7480
  73   2.0000      -0.307505        -8.3676
  74   2.0000      -0.305831        -8.3221
  75   2.0000      -0.297392        -8.0925
  76   2.0000      -0.295371        -8.0374
  77   2.0000      -0.289789        -7.8856
  78   2.0000      -0.270720        -7.3667
  79   2.0000      -0.263794        -7.1782
  80   2.0000      -0.260735        -7.0950
  81   2.0000      -0.254596        -6.9279
  82   2.0000      -0.235894        -6.4190
  83   2.0000      -0.227584        -6.1929
  84   2.0000      -0.217207        -5.9105
  85   2.0000      -0.197288        -5.3685
  86   2.0000      -0.196164        -5.3379
  87   0.0000      -0.042988        -1.1698
  88   0.0000      -0.027353        -0.7443
  89   0.0000      -0.017390        -0.4732
  90   0.0000       0.006277         0.1708
  91   0.0000       0.025337         0.6894

MULLIKEN ATOMIC CHARGES
-----------------------
   0 C :   -0.307207
   1 C :   -0.012246
   2 O :   -0.221845
   3 C :    0.124603
   4 O :   -0.210131
   5 C :   -0.082544
   6 C :   -0.301987
   7 H :    0.162996
   8 C :    0.193410
   9 O :   -0.194074
  10 O :   -0.221001
  11 C :   -0.028986
  12 C :   -0.276818
  13 S :   -0.092978
  14 P :    0.612382
  15 S :   -0.322499
  16 O :   -0.349652
  17 C :   -0.102293
  18 O :   -0.389191
  19 C :   -0.100850
  20 H :    0.114305
  21 H :    0.127570
  22 H :    0.115754
  23 H :    0.103432
  24 H :    0.110630
  25 H :    0.126642
  26 H :    0.115845
  27 H :    0.105837
  28 H :    0.124872
  29 H :    0.122578
  30 H :    0.113380
  31 H :    0.113624
  32 H :    0.130611
  33 H :    0.118503
  34 H :    0.126723
  35 H :    0.111603
  36 H :    0.122576
  37 H :    0.116428
Sum of atomic charges:   -0.0000000

LOEWDIN ATOMIC CHARGES
----------------------
   0 C :   -0.356316
   1 C :   -0.111014
   2 O :   -0.054270
   3 C :    0.028383
   4 O :   -0.172342
   5 C :   -0.262348
   6 C :   -0.259510
   7 H :    0.156851
   8 C :   -0.000335
   9 O :   -0.169625
  10 O :   -0.040179
  11 C :   -0.103848
  12 C :   -0.350795
  13 S :    0.106932
  14 P :    0.588070
  15 S :   -0.308471
  16 O :   -0.227872
  17 C :   -0.207450
  18 O :   -0.264372
  19 C :   -0.219445
  20 H :    0.131339
  21 H :    0.130627
  22 H :    0.125590
  23 H :    0.118254
  24 H :    0.120959
  25 H :    0.150021
  26 H :    0.130074
  27 H :    0.117243
  28 H :    0.125060
  29 H :    0.130117
  30 H :    0.125602
  31 H :    0.132417
  32 H :    0.126601
  33 H :    0.112663
  34 H :    0.114925
  35 H :    0.105426
  36 H :    0.121118
  37 H :    0.109925

  Mayer bond orders larger than 0.100000
B(  0-C ,  1-C ) :   1.1737 B(  0-C , 20-H ) :   0.9441 B(  0-C , 21-H ) :   0.9460
B(  0-C , 22-H ) :   0.9486 B(  1-C ,  2-O ) :   0.9165 B(  1-C , 23-H ) :   0.9371
B(  1-C , 24-H ) :   0.9146 B(  2-O ,  3-C ) :   1.2492 B(  3-C ,  4-O ) :   2.0290
B(  3-C ,  5-C ) :   0.9965 B(  5-C ,  6-C ) :   1.0658 B(  5-C , 25-H ) :   0.8612
B(  5-C , 26-H ) :   0.8851 B(  6-C ,  7-H ) :   0.8454 B(  6-C ,  8-C ) :   0.9127
B(  6-C , 13-S ) :   1.0078 B(  8-C ,  9-O ) :   2.0165 B(  8-C , 10-O ) :   1.2708
B( 10-O , 11-C ) :   0.8915 B( 11-C , 12-C ) :   1.1564 B( 11-C , 27-H ) :   0.9347
B( 11-C , 28-H ) :   0.9208 B( 12-C , 29-H ) :   0.9499 B( 12-C , 30-H ) :   0.9489
B( 12-C , 31-H ) :   0.9428 B( 13-S , 14-P ) :   0.9473 B( 13-S , 15-S ) :   0.1125
B( 14-P , 15-S ) :   1.5947 B( 14-P , 16-O ) :   1.1468 B( 14-P , 18-O ) :   1.0634
B( 16-O , 17-C ) :   0.9186 B( 17-C , 32-H ) :   0.9597 B( 17-C , 33-H ) :   0.9460
B( 17-C , 34-H ) :   0.9416 B( 18-O , 19-C ) :   0.9372 B( 19-C , 35-H ) :   0.9442
B( 19-C , 36-H ) :   0.9584 B( 19-C , 37-H ) :   0.9356

Dispersion correction           -0.051131341
FINAL SINGLE POINT ENERGY     -1979.020287160970

DIPOLE MOMENT
-------------

Method             : SCF
Type of density    : Electron Density
Multiplicity       :   1
Irrep              :   0
Energy             : -1979.1501793263478248 Eh
Relativity type    :
Basis              : AO
                                X                 Y                 Z
Electronic contribution:    -14.754161753       3.512496857      -0.282664793
Nuclear contribution   :     15.288255888      -3.992741889       0.056947882
                        -----------------------------------------
Total Dipole Moment    :      0.534094135      -0.480245033      -0.225716911
                        -----------------------------------------
Magnitude (a.u.)       :      0.752887747
Magnitude (Debye)      :      1.913688571

Rotational constants in cm-1:             0.011022             0.007452             0.005453
Rotational constants in MHz :           330.417989           223.413211           163.487498

                             ****ORCA TERMINATED NORMALLY****
TOTAL RUN TIME: 0 days 0 hours 0 minutes 28 seconds 13 msec
