                         Program Version 6.0.1  -  RELEASE   -
|  1> ! pbe def2-sv(p) def2/J RI DEFGRID1 loosescf d4 GCP(DFT/SV(P)) printgap
|  2> %output
|  3>     printlevel normal
|  4> end
|  5> * xyz 0 1
|  6> C 3.9121017267 -3.7342382837 0.5520161405
|  7> C 2.8830325815 -2.6645847868 0.8581613267
|  8> O 2.8749938398 -1.7300354884 -0.2415049455
|  9> C 1.8706431816 -0.9021592167 -0.3507625253
| 10> O 0.9449819669 -0.8556898183 0.4464560033
| 11> C 1.9605524749 -0.0157984636 -1.5640350207
| 12> C 0.7858665539 0.9458208179 -1.6117724936
| 13> H 0.8010144585 1.5373460518 -2.5307179268
| 14> C 0.7394799176 1.8973903367 -0.4268333187
| 15> O 1.5823281603 1.9197174364 0.442670526
| 16> O -0.3017029756 2.6949327683 -0.5026755145
| 17> C -0.488761002 3.6914163571 0.5194910117
| 18> C 0.1985971869 4.9902690647 0.1305498446
| 19> S -0.821996058 0.0709878551 -1.7481044829
| 20> P -1.4467080204 -0.5304977073 0.201892601
| 21> S -1.4087380779 -2.4259805395 0.7336532223
| 22> O -1.0978942714 0.5952162213 1.2712745218
| 23> C -0.4391177732 0.3390389914 2.5118517564
| 24> O -2.9880045732 -0.0727074967 0.0572851908
| 25> C -3.8799588289 -0.7468481965 -0.8289201569
| 26> H 3.9494268089 -4.4383706083 1.3763170485
| 27> H 3.642251447 -4.2633403829 -0.3568838295
| 28> H 4.8897958281 -3.2810706724 0.4201927375
| 29> H 3.1321702313 -2.1119677254 1.7689736133
| 30> H 1.8762805554 -3.0809145947 0.968938261
| 31> H 1.973611593 -0.6419010023 -2.4574395917
| 32> H 2.9013569006 0.535884137 -1.5119395674
| 33> H -1.5703118076 3.8119006168 0.5872445652
| 34> H -0.093890964 3.3036691322 1.4623166644
| 35> H -0.16378464 5.3294163153 -0.8357398156
| 36> H -0.0173245182 5.7449657035 0.8794295577
| 37> H 1.2748765604 4.8434490992 0.076703921
| 38> H -1.0105976964 0.8585594415 3.2782826027
| 39> H 0.5791803114 0.7255823779 2.4536321265
| 40> H -0.4134446272 -0.7325562936 2.7167660731
| 41> H -4.8695550123 -0.3595109134 -0.6003207127
| 42> H -3.841251755 -1.8237751989 -0.6510110297
| 43> H -3.6137704766 -0.534521742 -1.8655800479
| 44> *
| 45>
| 46>                          ****END OF INPUT****

CARTESIAN COORDINATES (ANGSTROEM)
---------------------------------
  C      3.912102   -3.734238    0.552016
  C      2.883033   -2.664585    0.858161
  O      2.874994   -1.730035   -0.241505
  C      1.870643   -0.902159   -0.350763
  O      0.944982   -0.855690    0.446456
  C      1.960552   -0.015798   -1.564035
  C      0.785867    0.945821   -1.611772
  H      0.801014    1.537346   -2.530718
  C      0.739480    1.897390   -0.426833
  O      1.582328    1.919717    0.442671
  O     -0.301703    2.694933   -0.502676
  C     -0.488761    3.691416    0.519491
  C      0.198597    4.990269    0.130550
  S     -0.821996    0.070988   -1.748104
  P     -1.446708   -0.530498    0.201893
  S     -1.408738   -2.425981    0.733653
  O     -1.097894    0.595216    1.271275
  C     -0.439118    0.339039    2.511852
  O     -2.988005   -0.072707    0.057285
  C     -3.879959   -0.746848   -0.828920
  H      3.949427   -4.438371    1.376317
  H      3.642251   -4.263340   -0.356884
  H      4.889796   -3.281071    0.420193
  H      3.132170   -2.111968    1.768974
  H      1.876281   -3.080915    0.968938
  H      1.973612   -0.641901   -2.457440
  H      2.901357    0.535884   -1.511940
  H     -1.570312    3.811901    0.587245
  H     -0.093891    3.303669    1.462317
  H     -0.163785    5.329416   -0.835740
  H     -0.017325    5.744966    0.879430
  H      1.274877    4.843449    0.076704
  H     -1.010598    0.858559    3.278283
  H      0.579180    0.725582    2.453632
  H     -0.413445   -0.732556    2.716766
  H     -4.869555   -0.359511   -0.600321
  H     -3.841252   -1.823775   -0.651011
  H     -3.613770   -0.534522   -1.865580

 Total Charge           Charge          ....    0
 Multiplicity           Mult            ....    1
 Number of Electrons    NEL             ....  174
 Basis Dimension        Dim             ....  316

ORBITAL ENERGIES
----------------

  NO   OCC          E(Eh)            E(eV)
   0   2.0000     -88.030695     -2395.4370
   1   2.0000     -87.962957     -2393.5937
   2   2.0000     -76.415164     -2079.3623
   3   2.0000     -18.813600      -511.9441
   4   2.0000     -18.806287      -511.7451
   5   2.0000     -18.781310      -511.0654
   6   2.0000     -18.762999      -510.5672
   7   2.0000     -18.755362      -510.3594
   8   2.0000     -18.744464      -510.0628
   9   2.0000     -10.022846      -272.7355
  10   2.0000     -10.021114      -272.6884
  11   2.0000      -9.954084      -270.8644
  12   2.0000      -9.950935      -270.7787
  13   2.0000      -9.948484      -270.7120
  14   2.0000      -9.927928      -270.1526
  15   2.0000      -9.925838      -270.0958
  16   2.0000      -9.919643      -269.9272
  17   2.0000      -9.891287      -269.1556
  18   2.0000      -9.889885      -269.1175
  19   2.0000      -7.675608      -208.8639
  20   2.0000      -7.608310      -207.0326
  21   2.0000      -6.410593      -174.4411
  22   2.0000      -5.704222      -155.2198
  23   2.0000      -5.699983      -155.1044
  24   2.0000      -5.691958      -154.8860
  25   2.0000      -5.637503      -153.4043
  26   2.0000      -5.629270      -153.1802
  27   2.0000      -5.627795      -153.1401
  28   2.0000      -4.633292      -126.0783
  29   2.0000      -4.632871      -126.0668
  30   2.0000      -4.630884      -126.0128
  31   2.0000      -1.024603       -27.8809
  32   2.0000      -1.016046       -27.6480
  33   2.0000      -0.968230       -26.3469
  34   2.0000      -0.931312       -25.3423
  35   2.0000      -0.922202       -25.0944
  36   2.0000      -0.920833       -25.0571
  37   2.0000      -0.765526       -20.8310
  38   2.0000      -0.720932       -19.6176
  39   2.0000      -0.703148       -19.1336
  40   2.0000      -0.686860       -18.6904
  41   2.0000      -0.655244       -17.8301
  42   2.0000      -0.621850       -16.9214
  43   2.0000      -0.613128       -16.6841
  44   2.0000      -0.605048       -16.4642
  45   2.0000      -0.597669       -16.2634
  46   2.0000      -0.562485       -15.3060
  47   2.0000      -0.516660       -14.0590
  48   2.0000      -0.507541       -13.8109
  49   2.0000      -0.497550       -13.5390
  50   2.0000      -0.485567       -13.2129
  51   2.0000      -0.466284       -12.6882
  52   2.0000      -0.460076       -12.5193
  53   2.0000      -0.452606       -12.3160
  54   2.0000      -0.438118       -11.9218
  55   2.0000      -0.430932       -11.7263
  56   2.0000      -0.427921       -11.6443
  57   2.0000      -0.414208       -11.2712
  58   2.0000      -0.407745       -11.0953
  59   2.0000      -0.406171       -11.0525
  60   2.0000      -0.394353       -10.7309
  61   2.0000      -0.391717       -10.6591
  62   2.0000      -0.388268       -10.5653
  63   2.0000      -0.382936       -10.4202
  64   2.0000      -0.377105       -10.2615
  65   2.0000      -0.363826        -9.9002
  66   2.0000      -0.361257        -9.8303
  67   2.0000      -0.358458        -9.7541
  68   2.0000      -0.353152        -9.6097
  69   2.0000      -0.344187        -9.3658
  70   2.0000      -0.331373        -9.0171
  71   2.0000      -0.329211        -8.9583
  72   2.0000      -0.322293        -8.7701
  73   2.0000      -0.311132        -8.4663
  74   2.0000      -0.306026        -8.3274
  75   2.0000      -0.295474        -8.0403
  76   2.0000      -0.288089        -7.8393
  77   2.0000      -0.279449        -7.6042
  78   2.0000      -0.268517        -7.3067
  79   2.0000      -0.264307        -7.1922
  80   2.0000      -0.256531        -6.9806
  81   2.0000      -0.243671        -6.6306
  82   2.0000      -0.239688        -6.5222
  83   2.0000      -0.228754        -6.2247
  84   2.0000      -0.211021        -5.7422
  85   2.0000      -0.184011        -5.0072
  86   2.0000      -0.171786        -4.6745
  87   0.0000      -0.047430        -1.2906
  88   0.0000      -0.042923        -1.1680
  89   0.0000      -0.019793        -0.5386
  90   0.0000      -0.006320        -0.1720
  91   0.0000       0.036581         0.9954

MULLIKEN ATOMIC CHARGES
-----------------------
   0 C :   -0.276456
   1 C :   -0.041699
   2 O :   -0.221975
   3 C :    0.155035
   4 O :   -0.217027
   5 C :   -0.046234
   6 C :   -0.305118
   7 H :    0.148738
   8 C :    0.197781
   9 O :   -0.198160
  10 O :   -0.217031
  11 C :   -0.012907
  12 C :   -0.300674
  13 S :   -0.105401
  14 P :    0.628814
  15 S :   -0.336527
  16 O :   -0.380023
  17 C :   -0.101789
  18 O :   -0.378826
  19 C :   -0.107084
  20 H :    0.115510
  21 H :    0.118648
  22 H :    0.114576
  23 H :    0.107741
  24 H :    0.132518
  25 H :    0.125299
  26 H :    0.128193
  27 H :    0.112061
  28 H :    0.112998
  29 H :    0.115076
  30 H :    0.114124
  31 H :    0.120144
  32 H :    0.113764
  33 H :    0.128633
  34 H :    0.120109
  35 H :    0.117983
  36 H :    0.110461
  37 H :    0.108727
Sum of atomic charges:    0.0000000

LOEWDIN ATOMIC CHARGES
----------------------
   0 C :   -0.350104
   1 C :   -0.106567
   2 O :   -0.045116
   3 C :    0.054220
   4 O :   -0.158122
   5 C :   -0.251220
   6 C :   -0.260252
   7 H :    0.151655
   8 C :    0.011298
   9 O :   -0.160194
  10 O :   -0.045326
  11 C :   -0.107342
  12 C :   -0.355428
  13 S :    0.092846
  14 P :    0.591936
  15 S :   -0.338175
  16 O :   -0.235115
  17 C :   -0.218872
  18 O :   -0.267032
  19 C :   -0.224770
  20 H :    0.133050
  21 H :    0.128484
  22 H :    0.126166
  23 H :    0.118591
  24 H :    0.125244
  25 H :    0.148104
  26 H :    0.151785
  27 H :    0.122992
  28 H :    0.120282
  29 H :    0.125229
  30 H :    0.131235
  31 H :    0.127802
  32 H :    0.114704
  33 H :    0.112977
  34 H :    0.109734
  35 H :    0.118753
  36 H :    0.104864
  37 H :    0.101684

  Mayer bond orders larger than 0.100000
B(  0-C ,  1-C ) :   1.1567 B(  0-C , 20-H ) :   0.9434 B(  0-C , 21-H ) :   0.9511
B(  0-C , 22-H ) :   0.9486 B(  1-C ,  2-O ) :   0.8896 B(  1-C , 23-H ) :   0.9337
B(  1-C , 24-H ) :   0.9189 B(  2-O ,  3-C ) :   1.2741 B(  3-C ,  4-O ) :   1.8666
B(  3-C ,  5-C ) :   1.0214 B(  4-O , 14-P ) :   0.1367 B(  5-C ,  6-C ) :   1.0264
B(  5-C , 25-H ) :   0.8840 B(  5-C , 26-H ) :   0.8741 B(  6-C ,  7-H ) :   0.8748
B(  6-C ,  8-C ) :   0.8963 B(  6-C , 13-S ) :   1.0306 B(  8-C ,  9-O ) :   2.0275
B(  8-C , 10-O ) :   1.2570 B( 10-O , 11-C ) :   0.9072 B( 11-C , 12-C ) :   1.1706
B( 11-C , 27-H ) :   0.9368 B( 11-C , 28-H ) :   0.9139 B( 12-C , 29-H ) :   0.9485
B( 12-C , 30-H ) :   0.9449 B( 12-C , 31-H ) :   0.9472 B( 13-S , 14-P ) :   0.9324
B( 14-P , 15-S ) :   1.5893 B( 14-P , 16-O ) :   1.0905 B( 14-P , 18-O ) :   1.0578
B( 16-O , 17-C ) :   0.9200 B( 17-C , 32-H ) :   0.9532 B( 17-C , 33-H ) :   0.9392
B( 17-C , 34-H ) :   0.9275 B( 18-O , 19-C ) :   0.9549 B( 19-C , 35-H ) :   0.9604
B( 19-C , 36-H ) :   0.9298 B( 19-C , 37-H ) :   0.9424

Dispersion correction           -0.054343582
FINAL SINGLE POINT ENERGY     -1979.003458513153

DIPOLE MOMENT
-------------

Method             : SCF
Type of density    : Electron Density
Multiplicity       :   1
Irrep              :   0
Energy             : -1979.1351564387628059 Eh
Relativity type    :
Basis              : AO
                                X                 Y                 Z
Electronic contribution:     -9.172971778      -4.811049634      -5.059595570
Nuclear contribution   :     10.215481887       5.667520863       4.729741248
                        -----------------------------------------
Total Dipole Moment    :      1.042510109       0.856471229      -0.329854322
                        -----------------------------------------
Magnitude (a.u.)       :      1.388947143
Magnitude (Debye)      :      3.530423071

Rotational constants in cm-1:             0.011778             0.008768             0.006419
Rotational constants in MHz :           353.099405           262.848470           192.438320

                             ****ORCA TERMINATED NORMALLY****
TOTAL RUN TIME: 0 days 0 hours 0 minutes 44 seconds 533 msec
