                         Program Version 6.0.0  -   RELEASE  -
|  1> ! pbe def2-sv(p) def2/J RI DEFGRID1 loosescf d4 GCP(DFT/SV(P)) printgap
|  2> %output
|  3>     printlevel normal
|  4> end
|  5> * xyz 0 1
|  6> C 1.732362029 1.6106264923 2.469088862
|  7> C 3.0094677457 0.8008626784 2.5673082383
|  8> O 3.4716759805 0.3562174831 1.2814657025
|  9> P 2.7475395679 -0.7887308103 0.4405907343
| 10> S 2.1305660808 -2.3334729811 1.4655710788
| 11> O 3.8834754013 -1.175546127 -0.5807358801
| 12> C 4.4797704919 -0.2229294183 -1.5009394044
| 13> C 4.120882956 -0.5935540077 -2.9258574376
| 14> S 1.287467757 0.2268292782 -0.7512551552
| 15> C -0.1499096004 -0.8210202346 -0.4221008816
| 16> S -1.2467589001 -0.1740814354 0.8754770319
| 17> P -2.8473813868 0.5691387832 -0.3257378138
| 18> S -2.7402162661 0.1846200756 -2.2505211309
| 19> O -3.0258303144 2.089908238 0.0720327699
| 20> C -2.3488914405 3.161069567 -0.6091791862
| 21> C -0.8889590292 3.2565435929 -0.2132384028
| 22> O -4.1543885647 0.0672854837 0.4147512105
| 23> C -4.7783210222 -1.1915047964 0.1098892542
| 24> C -3.9223008175 -2.3776200731 0.509056533
| 25> H 1.8440700191 2.4012523308 1.7312210393
| 26> H 0.8996358405 0.9694307332 2.1827131749
| 27> H 1.5135832433 2.0497365482 3.4371375216
| 28> H 2.8650251528 -0.0755916767 3.2068856569
| 29> H 3.8375262637 1.402441189 2.9457401346
| 30> H 4.1343826113 0.7825767864 -1.2516223864
| 31> H 5.5546917518 -0.295071114 -1.3289311922
| 32> H 3.0503236711 -0.4934746914 -3.0872406348
| 33> H 4.6454329862 0.068171259 -3.6076391159
| 34> H 4.4123873159 -1.6206481253 -3.1268188746
| 35> H 0.2034156545 -1.7967286618 -0.0872358205
| 36> H -0.7165824745 -0.8901514233 -1.3530930246
| 37> H -2.451014817 3.0111257056 -1.6891837385
| 38> H -2.9035240466 4.0511552401 -0.3077301408
| 39> H -0.3331993232 2.4039916149 -0.6018715255
| 40> H -0.4654511278 4.1655634837 -0.628078268
| 41> H -0.7969846342 3.2767750431 0.8697696265
| 42> H -5.7100879899 -1.1628085899 0.676630766
| 43> H -4.9984092447 -1.2201582458 -0.9623193995
| 44> H -4.496689863 -3.2905685316 0.3876530557
| 45> H -3.0377488064 -2.4339849564 -0.1245196461
| 46> H -3.6070778734 -2.2861198304 1.5456535046
| 47> *
| 48>
| 49>                          ****END OF INPUT****

CARTESIAN COORDINATES (ANGSTROEM)
---------------------------------
  C      1.732362    1.610626    2.469089
  C      3.009468    0.800863    2.567308
  O      3.471676    0.356217    1.281466
  P      2.747540   -0.788731    0.440591
  S      2.130566   -2.333473    1.465571
  O      3.883475   -1.175546   -0.580736
  C      4.479770   -0.222929   -1.500939
  C      4.120883   -0.593554   -2.925857
  S      1.287468    0.226829   -0.751255
  C     -0.149910   -0.821020   -0.422101
  S     -1.246759   -0.174081    0.875477
  P     -2.847381    0.569139   -0.325738
  S     -2.740216    0.184620   -2.250521
  O     -3.025830    2.089908    0.072033
  C     -2.348891    3.161070   -0.609179
  C     -0.888959    3.256544   -0.213238
  O     -4.154389    0.067285    0.414751
  C     -4.778321   -1.191505    0.109889
  C     -3.922301   -2.377620    0.509057
  H      1.844070    2.401252    1.731221
  H      0.899636    0.969431    2.182713
  H      1.513583    2.049737    3.437138
  H      2.865025   -0.075592    3.206886
  H      3.837526    1.402441    2.945740
  H      4.134383    0.782577   -1.251622
  H      5.554692   -0.295071   -1.328931
  H      3.050324   -0.493475   -3.087241
  H      4.645433    0.068171   -3.607639
  H      4.412387   -1.620648   -3.126819
  H      0.203416   -1.796729   -0.087236
  H     -0.716582   -0.890151   -1.353093
  H     -2.451015    3.011126   -1.689184
  H     -2.903524    4.051155   -0.307730
  H     -0.333199    2.403992   -0.601872
  H     -0.465451    4.165563   -0.628078
  H     -0.796985    3.276775    0.869770
  H     -5.710088   -1.162809    0.676631
  H     -4.998409   -1.220158   -0.962319
  H     -4.496690   -3.290569    0.387653
  H     -3.037749   -2.433985   -0.124520
  H     -3.607078   -2.286120    1.545654

 Total Charge           Charge          ....    0
 Multiplicity           Mult            ....    1
 Number of Electrons    NEL             ....  202
 Basis Dimension        Dim             ....  334

ORBITAL ENERGIES
----------------

  NO   OCC          E(Eh)            E(eV)
   0   2.0000     -88.046690     -2395.8722
   1   2.0000     -88.045654     -2395.8441
   2   2.0000     -87.997022     -2394.5207
   3   2.0000     -87.992580     -2394.3998
   4   2.0000     -76.430138     -2079.7698
   5   2.0000     -76.429037     -2079.7398
   6   2.0000     -18.793732      -511.4034
   7   2.0000     -18.792777      -511.3775
   8   2.0000     -18.790665      -511.3200
   9   2.0000     -18.790547      -511.3168
  10   2.0000      -9.960835      -271.0481
  11   2.0000      -9.953998      -270.8621
  12   2.0000      -9.953902      -270.8594
  13   2.0000      -9.953896      -270.8593
  14   2.0000      -9.951636      -270.7978
  15   2.0000      -9.887790      -269.0604
  16   2.0000      -9.884425      -268.9689
  17   2.0000      -9.884325      -268.9662
  18   2.0000      -9.883664      -268.9482
  19   2.0000      -7.690870      -209.2792
  20   2.0000      -7.689896      -209.2527
  21   2.0000      -7.641790      -207.9437
  22   2.0000      -7.637765      -207.8342
  23   2.0000      -6.427620      -174.9044
  24   2.0000      -6.426765      -174.8812
  25   2.0000      -5.718627      -155.6117
  26   2.0000      -5.717670      -155.5857
  27   2.0000      -5.715419      -155.5245
  28   2.0000      -5.714423      -155.4974
  29   2.0000      -5.708036      -155.3236
  30   2.0000      -5.707068      -155.2972
  31   2.0000      -5.670470      -154.3013
  32   2.0000      -5.666720      -154.1993
  33   2.0000      -5.662366      -154.0808
  34   2.0000      -5.662275      -154.0783
  35   2.0000      -5.658265      -153.9692
  36   2.0000      -5.657976      -153.9613
  37   2.0000      -4.649737      -126.5258
  38   2.0000      -4.649571      -126.5212
  39   2.0000      -4.649418      -126.5171
  40   2.0000      -4.648377      -126.4888
  41   2.0000      -4.648257      -126.4855
  42   2.0000      -4.647279      -126.4589
  43   2.0000      -0.990324       -26.9481
  44   2.0000      -0.989739       -26.9322
  45   2.0000      -0.945968       -25.7411
  46   2.0000      -0.945906       -25.7394
  47   2.0000      -0.761912       -20.7327
  48   2.0000      -0.723608       -19.6904
  49   2.0000      -0.714073       -19.4309
  50   2.0000      -0.690338       -18.7850
  51   2.0000      -0.684231       -18.6189
  52   2.0000      -0.681808       -18.5529
  53   2.0000      -0.654723       -17.8159
  54   2.0000      -0.641891       -17.4667
  55   2.0000      -0.607116       -16.5205
  56   2.0000      -0.594055       -16.1650
  57   2.0000      -0.577781       -15.7222
  58   2.0000      -0.570366       -15.5205
  59   2.0000      -0.559041       -15.2123
  60   2.0000      -0.506034       -13.7699
  61   2.0000      -0.496565       -13.5122
  62   2.0000      -0.475260       -12.9325
  63   2.0000      -0.468521       -12.7491
  64   2.0000      -0.461540       -12.5591
  65   2.0000      -0.449761       -12.2386
  66   2.0000      -0.443623       -12.0716
  67   2.0000      -0.439527       -11.9601
  68   2.0000      -0.432575       -11.7710
  69   2.0000      -0.422470       -11.4960
  70   2.0000      -0.410926       -11.1819
  71   2.0000      -0.398400       -10.8410
  72   2.0000      -0.396616       -10.7925
  73   2.0000      -0.390306       -10.6208
  74   2.0000      -0.383286       -10.4297
  75   2.0000      -0.371500       -10.1090
  76   2.0000      -0.370190       -10.0734
  77   2.0000      -0.358412        -9.7529
  78   2.0000      -0.354468        -9.6456
  79   2.0000      -0.353027        -9.6063
  80   2.0000      -0.348335        -9.4787
  81   2.0000      -0.347760        -9.4630
  82   2.0000      -0.342720        -9.3259
  83   2.0000      -0.340782        -9.2731
  84   2.0000      -0.338703        -9.2166
  85   2.0000      -0.317769        -8.6469
  86   2.0000      -0.311926        -8.4879
  87   2.0000      -0.303158        -8.2493
  88   2.0000      -0.301348        -8.2001
  89   2.0000      -0.297642        -8.0992
  90   2.0000      -0.290157        -7.8956
  91   2.0000      -0.274637        -7.4732
  92   2.0000      -0.269512        -7.3338
  93   2.0000      -0.266943        -7.2639
  94   2.0000      -0.259191        -7.0529
  95   2.0000      -0.229332        -6.2404
  96   2.0000      -0.222750        -6.0613
  97   2.0000      -0.217491        -5.9182
  98   2.0000      -0.213684        -5.8146
  99   2.0000      -0.209457        -5.6996
 100   2.0000      -0.206472        -5.6184
 101   0.0000      -0.046629        -1.2688
 102   0.0000      -0.041129        -1.1192
 103   0.0000      -0.020116        -0.5474
 104   0.0000       0.002643         0.0719
 105   0.0000       0.008978         0.2443

MULLIKEN ATOMIC CHARGES
-----------------------
   0 C :   -0.337392
   1 C :    0.004526
   2 O :   -0.378893
   3 P :    0.597467
   4 S :   -0.300575
   5 O :   -0.356637
   6 C :   -0.018475
   7 C :   -0.283506
   8 S :   -0.117288
   9 C :   -0.353075
  10 S :   -0.088963
  11 P :    0.597379
  12 S :   -0.329032
  13 O :   -0.354757
  14 C :    0.001130
  15 C :   -0.331189
  16 O :   -0.358228
  17 C :    0.000303
  18 C :   -0.316375
  19 H :    0.118851
  20 H :    0.143651
  21 H :    0.111801
  22 H :    0.111064
  23 H :    0.103977
  24 H :    0.108105
  25 H :    0.114933
  26 H :    0.121609
  27 H :    0.109713
  28 H :    0.122048
  29 H :    0.194632
  30 H :    0.194199
  31 H :    0.110400
  32 H :    0.107263
  33 H :    0.136096
  34 H :    0.109619
  35 H :    0.123727
  36 H :    0.108731
  37 H :    0.112134
  38 H :    0.113913
  39 H :    0.123210
  40 H :    0.123907
Sum of atomic charges:    0.0000000

LOEWDIN ATOMIC CHARGES
----------------------
   0 C :   -0.372321
   1 C :   -0.115766
   2 O :   -0.250307
   3 P :    0.567572
   4 S :   -0.293724
   5 O :   -0.239636
   6 C :   -0.112122
   7 C :   -0.358440
   8 S :    0.080887
   9 C :   -0.490615
  10 S :    0.094723
  11 P :    0.571418
  12 S :   -0.308561
  13 O :   -0.235009
  14 C :   -0.115659
  15 C :   -0.370200
  16 O :   -0.236162
  17 C :   -0.115591
  18 C :   -0.368881
  19 H :    0.124208
  20 H :    0.112782
  21 H :    0.130846
  22 H :    0.111776
  23 H :    0.118282
  24 H :    0.107281
  25 H :    0.123276
  26 H :    0.122908
  27 H :    0.129705
  28 H :    0.130450
  29 H :    0.125928
  30 H :    0.123149
  31 H :    0.109780
  32 H :    0.119879
  33 H :    0.110665
  34 H :    0.129893
  35 H :    0.127125
  36 H :    0.120850
  37 H :    0.111438
  38 H :    0.131167
  39 H :    0.120112
  40 H :    0.126890

  Mayer bond orders larger than 0.100000
B(  0-C ,  1-C ) :   1.1619 B(  0-C , 19-H ) :   0.9424 B(  0-C , 20-H ) :   0.9262
B(  0-C , 21-H ) :   0.9372 B(  1-C ,  2-O ) :   0.9126 B(  1-C , 22-H ) :   0.9170
B(  1-C , 23-H ) :   0.9340 B(  2-O ,  3-P ) :   1.0907 B(  3-P ,  4-S ) :   1.6416
B(  3-P ,  5-O ) :   1.1457 B(  3-P ,  8-S ) :   0.9338 B(  4-S ,  8-S ) :   0.1125
B(  5-O ,  6-C ) :   0.8862 B(  6-C ,  7-C ) :   1.1634 B(  6-C , 24-H ) :   0.9186
B(  6-C , 25-H ) :   0.9337 B(  7-C , 26-H ) :   0.9402 B(  7-C , 27-H ) :   0.9397
B(  7-C , 28-H ) :   0.9459 B(  8-S ,  9-C ) :   1.0181 B(  9-C , 10-S ) :   1.0134
B(  9-C , 29-H ) :   0.8590 B(  9-C , 30-H ) :   0.8499 B( 10-S , 11-P ) :   0.9497
B( 10-S , 12-S ) :   0.1223 B( 11-P , 12-S ) :   1.5837 B( 11-P , 13-O ) :   1.1322
B( 11-P , 16-O ) :   1.1297 B( 12-S , 30-H ) :   0.1129 B( 13-O , 14-C ) :   0.9161
B( 14-C , 15-C ) :   1.1606 B( 14-C , 31-H ) :   0.9155 B( 14-C , 32-H ) :   0.9339
B( 15-C , 33-H ) :   0.9297 B( 15-C , 34-H ) :   0.9377 B( 15-C , 35-H ) :   0.9423
B( 16-O , 17-C ) :   0.9145 B( 17-C , 18-C ) :   1.1634 B( 17-C , 36-H ) :   0.9343
B( 17-C , 37-H ) :   0.9194 B( 18-C , 38-H ) :   0.9375 B( 18-C , 39-H ) :   0.9402
B( 18-C , 40-H ) :   0.9425

Dispersion correction           -0.063312992
FINAL SINGLE POINT ENERGY     -2929.520517706727

DIPOLE MOMENT
-------------

Method             : SCF
Type of density    : Electron Density
Multiplicity       :   1
Irrep              :   0
Energy             : -2929.6414376560865094 Eh
Relativity type    :
Basis              : AO
                                X                 Y                 Z
Electronic contribution:     -3.006804178      -7.646237973       1.172884235
Nuclear contribution   :      3.339055538       8.736111712      -1.166270366
                        -----------------------------------------
Total Dipole Moment    :      0.332251360       1.089873739       0.006613870
                        -----------------------------------------
Magnitude (a.u.)       :      1.139411900
Magnitude (Debye)      :      2.896154888

Rotational constants in cm-1:             0.011810             0.004294             0.004190
Rotational constants in MHz :           354.049530           128.742970           125.603692

                             ****ORCA TERMINATED NORMALLY****
TOTAL RUN TIME: 0 days 0 hours 0 minutes 20 seconds 738 msec
