                         Program Version 6.0.0  -   RELEASE  -
|  1> ! pbe def2-sv(p) def2/J RI DEFGRID1 loosescf d4 GCP(DFT/SV(P)) printgap
|  2> %output
|  3>     printlevel normal
|  4> end
|  5> * xyz 0 1
|  6> C 4.5272774702 -1.5372612876 -0.7640616446
|  7> C 4.5755981603 -0.0893521975 -0.3202913569
|  8> O 3.4323604353 0.2797228551 0.4683149863
|  9> P 1.9622748164 0.355216991 -0.1367333981
| 10> S 1.8788761274 1.0385021452 -1.9765264376
| 11> O 1.2221742875 1.1810849127 0.9972020999
| 12> C 1.1766808015 2.6223332903 0.9963949639
| 13> C 2.5524753322 3.2465372014 1.0860791392
| 14> S 1.1960697212 -1.5750579343 0.2298442605
| 15> C 0.0928388179 -1.7699657522 -1.2102655141
| 16> S -1.6139871352 -2.1605096469 -0.7487898036
| 17> P -2.1421164891 -0.3289374059 0.122675961
| 18> S -1.5597208352 1.3294290774 -0.762335373
| 19> O -1.6017626915 -0.5625069193 1.5917428236
| 20> C -1.720005036 0.4508559248 2.6153072838
| 21> C -0.6622264654 0.1801638448 3.6648744669
| 22> O -3.7143123645 -0.4092012069 0.3486770791
| 23> C -4.6617006794 0.0349434551 -0.6384996873
| 24> C -4.6513076425 -0.8452084051 -1.8712156935
| 25> H 4.3607132468 -2.1896040679 0.0893186739
| 26> H 3.7178337138 -1.6787350581 -1.4789417957
| 27> H 5.4668884022 -1.7970540452 -1.2409748564
| 28> H 4.6231946871 0.5745779217 -1.1895256327
| 29> H 5.4215977966 0.1015878551 0.341263353
| 30> H 0.655585651 2.9476241937 0.0894526756
| 31> H 0.5687218607 2.8628552504 1.8702311273
| 32> H 2.4487709927 4.321646733 1.1951040359
| 33> H 3.0928719672 2.8436112813 1.9388210006
| 34> H 3.1161068369 3.0372440607 0.1776059405
| 35> H 0.4386489052 -2.6206155979 -1.7919069417
| 36> H 0.1230992655 -0.8507311914 -1.8021428591
| 37> H -1.5865850106 1.4333500245 2.1487193471
| 38> H -2.7282537651 0.3858918123 3.0312297127
| 39> H 0.3278451599 0.2481870853 3.2209954294
| 40> H -0.7530205332 0.9111967665 4.4618331714
| 41> H -0.7941949825 -0.8183354171 4.0711792726
| 42> H -5.6195147527 -0.0074691772 -0.1184510628
| 43> H -4.4247934962 1.0708434245 -0.902083158
| 44> H -5.4607232124 -0.5496783653 -2.5309876087
| 45> H -3.7057756086 -0.7325693626 -2.4004429397
| 46> H -4.7728550091 -1.8885389814 -1.5914863413
| 47> *
| 48>
| 49>                          ****END OF INPUT****

CARTESIAN COORDINATES (ANGSTROEM)
---------------------------------
  C      4.527277   -1.537261   -0.764062
  C      4.575598   -0.089352   -0.320291
  O      3.432360    0.279723    0.468315
  P      1.962275    0.355217   -0.136733
  S      1.878876    1.038502   -1.976526
  O      1.222174    1.181085    0.997202
  C      1.176681    2.622333    0.996395
  C      2.552475    3.246537    1.086079
  S      1.196070   -1.575058    0.229844
  C      0.092839   -1.769966   -1.210266
  S     -1.613987   -2.160510   -0.748790
  P     -2.142116   -0.328937    0.122676
  S     -1.559721    1.329429   -0.762335
  O     -1.601763   -0.562507    1.591743
  C     -1.720005    0.450856    2.615307
  C     -0.662226    0.180164    3.664874
  O     -3.714312   -0.409201    0.348677
  C     -4.661701    0.034943   -0.638500
  C     -4.651308   -0.845208   -1.871216
  H      4.360713   -2.189604    0.089319
  H      3.717834   -1.678735   -1.478942
  H      5.466888   -1.797054   -1.240975
  H      4.623195    0.574578   -1.189526
  H      5.421598    0.101588    0.341263
  H      0.655586    2.947624    0.089453
  H      0.568722    2.862855    1.870231
  H      2.448771    4.321647    1.195104
  H      3.092872    2.843611    1.938821
  H      3.116107    3.037244    0.177606
  H      0.438649   -2.620616   -1.791907
  H      0.123099   -0.850731   -1.802143
  H     -1.586585    1.433350    2.148719
  H     -2.728254    0.385892    3.031230
  H      0.327845    0.248187    3.220995
  H     -0.753021    0.911197    4.461833
  H     -0.794195   -0.818335    4.071179
  H     -5.619515   -0.007469   -0.118451
  H     -4.424793    1.070843   -0.902083
  H     -5.460723   -0.549678   -2.530988
  H     -3.705776   -0.732569   -2.400443
  H     -4.772855   -1.888539   -1.591486

 Total Charge           Charge          ....    0
 Multiplicity           Mult            ....    1
 Number of Electrons    NEL             ....  202
 Basis Dimension        Dim             ....  334

ORBITAL ENERGIES
----------------

  NO   OCC          E(Eh)            E(eV)
   0   2.0000     -88.043931     -2395.7972
   1   2.0000     -88.040058     -2395.6918
   2   2.0000     -87.985826     -2394.2160
   3   2.0000     -87.982309     -2394.1204
   4   2.0000     -76.424267     -2079.6100
   5   2.0000     -76.422786     -2079.5697
   6   2.0000     -18.792137      -511.3600
   7   2.0000     -18.790331      -511.3109
   8   2.0000     -18.787119      -511.2235
   9   2.0000     -18.784043      -511.1398
  10   2.0000      -9.954905      -270.8867
  11   2.0000      -9.950812      -270.7754
  12   2.0000      -9.950237      -270.7597
  13   2.0000      -9.947152      -270.6758
  14   2.0000      -9.946517      -270.6585
  15   2.0000      -9.883296      -268.9382
  16   2.0000      -9.882119      -268.9061
  17   2.0000      -9.880459      -268.8610
  18   2.0000      -9.878896      -268.8184
  19   2.0000      -7.689647      -209.2459
  20   2.0000      -7.685231      -209.1258
  21   2.0000      -7.630705      -207.6420
  22   2.0000      -7.627021      -207.5418
  23   2.0000      -6.421719      -174.7439
  24   2.0000      -6.420584      -174.7130
  25   2.0000      -5.717645      -155.5850
  26   2.0000      -5.714017      -155.4863
  27   2.0000      -5.713134      -155.4623
  28   2.0000      -5.709864      -155.3733
  29   2.0000      -5.706512      -155.2821
  30   2.0000      -5.701985      -155.1589
  31   2.0000      -5.659590      -154.0053
  32   2.0000      -5.655747      -153.9007
  33   2.0000      -5.651539      -153.7862
  34   2.0000      -5.650698      -153.7633
  35   2.0000      -5.647752      -153.6831
  36   2.0000      -5.647281      -153.6703
  37   2.0000      -4.644013      -126.3700
  38   2.0000      -4.643346      -126.3519
  39   2.0000      -4.643172      -126.3471
  40   2.0000      -4.642568      -126.3307
  41   2.0000      -4.642272      -126.3226
  42   2.0000      -4.641045      -126.2893
  43   2.0000      -0.984392       -26.7867
  44   2.0000      -0.983626       -26.7658
  45   2.0000      -0.942203       -25.6386
  46   2.0000      -0.941007       -25.6061
  47   2.0000      -0.762717       -20.7546
  48   2.0000      -0.719833       -19.5876
  49   2.0000      -0.705933       -19.2094
  50   2.0000      -0.685450       -18.6520
  51   2.0000      -0.684151       -18.6167
  52   2.0000      -0.673797       -18.3350
  53   2.0000      -0.649593       -17.6763
  54   2.0000      -0.633021       -17.2254
  55   2.0000      -0.602862       -16.4047
  56   2.0000      -0.590076       -16.0568
  57   2.0000      -0.570584       -15.5264
  58   2.0000      -0.569418       -15.4946
  59   2.0000      -0.554586       -15.0911
  60   2.0000      -0.500761       -13.6264
  61   2.0000      -0.489131       -13.3099
  62   2.0000      -0.471260       -12.8236
  63   2.0000      -0.468430       -12.7466
  64   2.0000      -0.449998       -12.2451
  65   2.0000      -0.443498       -12.0682
  66   2.0000      -0.439042       -11.9469
  67   2.0000      -0.436768       -11.8851
  68   2.0000      -0.424277       -11.5452
  69   2.0000      -0.418152       -11.3785
  70   2.0000      -0.411575       -11.1995
  71   2.0000      -0.393460       -10.7066
  72   2.0000      -0.388656       -10.5759
  73   2.0000      -0.385166       -10.4809
  74   2.0000      -0.380050       -10.3417
  75   2.0000      -0.379529       -10.3275
  76   2.0000      -0.367314        -9.9951
  77   2.0000      -0.352030        -9.5792
  78   2.0000      -0.351505        -9.5649
  79   2.0000      -0.349242        -9.5034
  80   2.0000      -0.345911        -9.4127
  81   2.0000      -0.340689        -9.2706
  82   2.0000      -0.338110        -9.2005
  83   2.0000      -0.333868        -9.0850
  84   2.0000      -0.330032        -8.9806
  85   2.0000      -0.311728        -8.4825
  86   2.0000      -0.309645        -8.4259
  87   2.0000      -0.295248        -8.0341
  88   2.0000      -0.292590        -7.9618
  89   2.0000      -0.286184        -7.7875
  90   2.0000      -0.282962        -7.6998
  91   2.0000      -0.271452        -7.3866
  92   2.0000      -0.267948        -7.2912
  93   2.0000      -0.261282        -7.1099
  94   2.0000      -0.260126        -7.0784
  95   2.0000      -0.234599        -6.3838
  96   2.0000      -0.218585        -5.9480
  97   2.0000      -0.215901        -5.8750
  98   2.0000      -0.204004        -5.5512
  99   2.0000      -0.195717        -5.3257
 100   2.0000      -0.187885        -5.1126
 101   0.0000      -0.040181        -1.0934
 102   0.0000      -0.031808        -0.8655
 103   0.0000      -0.011349        -0.3088
 104   0.0000       0.014756         0.4015
 105   0.0000       0.023843         0.6488

MULLIKEN ATOMIC CHARGES
-----------------------
   0 C :   -0.308832
   1 C :   -0.003200
   2 O :   -0.375851
   3 P :    0.615118
   4 S :   -0.315355
   5 O :   -0.362271
   6 C :   -0.010953
   7 C :   -0.301522
   8 S :   -0.076273
   9 C :   -0.366538
  10 S :   -0.077860
  11 P :    0.609725
  12 S :   -0.324637
  13 O :   -0.360238
  14 C :   -0.007538
  15 C :   -0.291640
  16 O :   -0.379475
  17 C :   -0.001460
  18 C :   -0.319883
  19 H :    0.118452
  20 H :    0.119280
  21 H :    0.111204
  22 H :    0.108928
  23 H :    0.103598
  24 H :    0.124888
  25 H :    0.103980
  26 H :    0.110178
  27 H :    0.114311
  28 H :    0.122884
  29 H :    0.182665
  30 H :    0.210151
  31 H :    0.102426
  32 H :    0.100738
  33 H :    0.133667
  34 H :    0.102260
  35 H :    0.114380
  36 H :    0.103767
  37 H :    0.110078
  38 H :    0.113841
  39 H :    0.129049
  40 H :    0.117959
Sum of atomic charges:   -0.0000000

LOEWDIN ATOMIC CHARGES
----------------------
   0 C :   -0.369186
   1 C :   -0.119962
   2 O :   -0.245870
   3 P :    0.574594
   4 S :   -0.307214
   5 O :   -0.234937
   6 C :   -0.118130
   7 C :   -0.366996
   8 S :    0.093522
   9 C :   -0.479333
  10 S :    0.096025
  11 P :    0.564410
  12 S :   -0.307994
  13 O :   -0.240424
  14 C :   -0.113856
  15 C :   -0.355739
  16 O :   -0.247959
  17 C :   -0.119918
  18 C :   -0.369876
  19 H :    0.124122
  20 H :    0.119076
  21 H :    0.129825
  22 H :    0.109169
  23 H :    0.117880
  24 H :    0.111482
  25 H :    0.114539
  26 H :    0.130025
  27 H :    0.124918
  28 H :    0.121677
  29 H :    0.136503
  30 H :    0.126426
  31 H :    0.104967
  32 H :    0.111588
  33 H :    0.127737
  34 H :    0.126167
  35 H :    0.126980
  36 H :    0.118014
  37 H :    0.110070
  38 H :    0.131526
  39 H :    0.122011
  40 H :    0.124141

  Mayer bond orders larger than 0.100000
B(  0-C ,  1-C ) :   1.1676 B(  0-C , 19-H ) :   0.9434 B(  0-C , 20-H ) :   0.9372
B(  0-C , 21-H ) :   0.9378 B(  1-C ,  2-O ) :   0.9130 B(  1-C , 22-H ) :   0.9148
B(  1-C , 23-H ) :   0.9339 B(  2-O ,  3-P ) :   1.0955 B(  3-P ,  4-S ) :   1.5895
B(  3-P ,  5-O ) :   1.1216 B(  3-P ,  8-S ) :   0.9714 B(  4-S ,  8-S ) :   0.1184
B(  5-O ,  6-C ) :   0.9013 B(  6-C ,  7-C ) :   1.1628 B(  6-C , 24-H ) :   0.9152
B(  6-C , 25-H ) :   0.9306 B(  7-C , 26-H ) :   0.9375 B(  7-C , 27-H ) :   0.9442
B(  7-C , 28-H ) :   0.9340 B(  8-S ,  9-C ) :   0.9984 B(  9-C , 10-S ) :   1.0024
B(  9-C , 29-H ) :   0.9112 B(  9-C , 30-H ) :   0.8491 B( 10-S , 11-P ) :   0.9655
B( 10-S , 12-S ) :   0.1119 B( 11-P , 12-S ) :   1.6184 B( 11-P , 13-O ) :   1.1378
B( 11-P , 16-O ) :   1.0970 B( 13-O , 14-C ) :   0.8972 B( 14-C , 15-C ) :   1.1652
B( 14-C , 31-H ) :   0.9055 B( 14-C , 32-H ) :   0.9317 B( 15-C , 33-H ) :   0.9383
B( 15-C , 34-H ) :   0.9411 B( 15-C , 35-H ) :   0.9484 B( 16-O , 17-C ) :   0.9097
B( 17-C , 18-C ) :   1.1648 B( 17-C , 36-H ) :   0.9336 B( 17-C , 37-H ) :   0.9136
B( 18-C , 38-H ) :   0.9380 B( 18-C , 39-H ) :   0.9350 B( 18-C , 40-H ) :   0.9450

Dispersion correction           -0.068166184
FINAL SINGLE POINT ENERGY     -2929.522673284117

DIPOLE MOMENT
-------------

Method             : SCF
Type of density    : Electron Density
Multiplicity       :   1
Irrep              :   0
Energy             : -2929.6406322278030530 Eh
Relativity type    :
Basis              : AO
                                X                 Y                 Z
Electronic contribution:     -4.414307765      -7.192583580      -6.597944849
Nuclear contribution   :      4.390686686       7.158416095       7.276915525
                        -----------------------------------------
Total Dipole Moment    :     -0.023621079      -0.034167485       0.678970676
                        -----------------------------------------
Magnitude (a.u.)       :      0.680240069
Magnitude (Debye)      :      1.729032847

Rotational constants in cm-1:             0.012445             0.005508             0.005056
Rotational constants in MHz :           373.092435           165.136117           151.569590

                             ****ORCA TERMINATED NORMALLY****
TOTAL RUN TIME: 0 days 0 hours 0 minutes 21 seconds 753 msec
