                         Program Version 6.0.1  -  RELEASE   -
|  1> ! pbe def2-sv(p) def2/J RI DEFGRID1 loosescf d4 GCP(DFT/SV(P)) printgap
|  2> %output
|  3>     printlevel normal
|  4> end
|  5> * xyz 0 1
|  6> C 3.2390402168 -1.6079262444 1.7433951836
|  7> C 3.0697182047 -2.1933317133 0.3519584996
|  8> O 2.7564135759 -1.1580759954 -0.6000200215
|  9> C 1.5422798936 -1.0717703086 -1.0962695761
| 10> O 0.6159751277 -1.800180732 -0.7972922554
| 11> C 1.4423203535 0.0306319539 -2.1306679969
| 12> C 0.2400345628 0.945497974 -1.8881345445
| 13> H 0.1379927774 1.6327589715 -2.7330085512
| 14> C 0.3727428507 1.770011931 -0.6225154535
| 15> O -0.5332269915 1.8698342934 0.1849741514
| 16> O 1.5325015998 2.3526629124 -0.529080776
| 17> C 1.8279985516 3.133286179 0.6515721267
| 18> C 2.4207297966 2.2484142558 1.7345467013
| 19> S -1.3567143133 0.057805369 -1.8220895683
| 20> P -1.6760118111 -0.3391737924 0.2457763688
| 21> S -0.3931684634 -0.5567439224 1.7262027604
| 22> O -2.9366978405 0.5690299108 0.5974542608
| 23> C -2.970134764 1.5917971931 1.5907484156
| 24> O -2.5716060894 -1.6597911564 0.0688972008
| 25> C -2.0468577243 -2.961256987 -0.1802257418
| 26> H 2.2996011296 -1.179555917 2.0880588651
| 27> H 3.5332690512 -2.3968811788 2.4273036861
| 28> H 4.0026629878 -0.8361127066 1.7365079972
| 29> H 2.2678241357 -2.9364344658 0.3366771591
| 30> H 4.0017378036 -2.6338370747 -0.0068552467
| 31> H 1.3172316596 -0.448046964 -3.1034345097
| 32> H 2.3611250476 0.6163739688 -2.1184036092
| 33> H 2.5440978198 3.8785556692 0.3058369068
| 34> H 0.9081308074 3.6113840106 0.9968242676
| 35> H 2.6715997587 2.8549396553 2.5980122834
| 36> H 1.7024326093 1.4877276037 2.0373557266
| 37> H 3.3168632306 1.7566704269 1.3672169644
| 38> H -2.8292312597 2.5596757761 1.1124155186
| 39> H -2.1837497769 1.4300514155 2.3307422187
| 40> H -3.9502208433 1.5281371355 2.058395175
| 41> H -2.8799467288 -3.6437134917 -0.0305205217
| 42> H -1.2387038501 -3.1807955574 0.5190140304
| 43> H -1.6673900158 -3.0284651572 -1.199490332
| 44> *
| 45>
| 46>                          ****END OF INPUT****

CARTESIAN COORDINATES (ANGSTROEM)
---------------------------------
  C      3.239040   -1.607926    1.743395
  C      3.069718   -2.193332    0.351958
  O      2.756414   -1.158076   -0.600020
  C      1.542280   -1.071770   -1.096270
  O      0.615975   -1.800181   -0.797292
  C      1.442320    0.030632   -2.130668
  C      0.240035    0.945498   -1.888135
  H      0.137993    1.632759   -2.733009
  C      0.372743    1.770012   -0.622515
  O     -0.533227    1.869834    0.184974
  O      1.532502    2.352663   -0.529081
  C      1.827999    3.133286    0.651572
  C      2.420730    2.248414    1.734547
  S     -1.356714    0.057805   -1.822090
  P     -1.676012   -0.339174    0.245776
  S     -0.393168   -0.556744    1.726203
  O     -2.936698    0.569030    0.597454
  C     -2.970135    1.591797    1.590748
  O     -2.571606   -1.659791    0.068897
  C     -2.046858   -2.961257   -0.180226
  H      2.299601   -1.179556    2.088059
  H      3.533269   -2.396881    2.427304
  H      4.002663   -0.836113    1.736508
  H      2.267824   -2.936434    0.336677
  H      4.001738   -2.633837   -0.006855
  H      1.317232   -0.448047   -3.103435
  H      2.361125    0.616374   -2.118404
  H      2.544098    3.878556    0.305837
  H      0.908131    3.611384    0.996824
  H      2.671600    2.854940    2.598012
  H      1.702433    1.487728    2.037356
  H      3.316863    1.756670    1.367217
  H     -2.829231    2.559676    1.112416
  H     -2.183750    1.430051    2.330742
  H     -3.950221    1.528137    2.058395
  H     -2.879947   -3.643713   -0.030521
  H     -1.238704   -3.180796    0.519014
  H     -1.667390   -3.028465   -1.199490

 Total Charge           Charge          ....    0
 Multiplicity           Mult            ....    1
 Number of Electrons    NEL             ....  174
 Basis Dimension        Dim             ....  316

ORBITAL ENERGIES
----------------

  NO   OCC          E(Eh)            E(eV)
   0   2.0000     -88.025320     -2395.2907
   1   2.0000     -87.965722     -2393.6690
   2   2.0000     -76.412752     -2079.2967
   3   2.0000     -18.826010      -512.2818
   4   2.0000     -18.806480      -511.7503
   5   2.0000     -18.764440      -510.6064
   6   2.0000     -18.764102      -510.5972
   7   2.0000     -18.763059      -510.5688
   8   2.0000     -18.739954      -509.9401
   9   2.0000     -10.031298      -272.9655
  10   2.0000     -10.012882      -272.4644
  11   2.0000      -9.960530      -271.0398
  12   2.0000      -9.955111      -270.8923
  13   2.0000      -9.945800      -270.6390
  14   2.0000      -9.921808      -269.9861
  15   2.0000      -9.917840      -269.8782
  16   2.0000      -9.916756      -269.8486
  17   2.0000      -9.888729      -269.0860
  18   2.0000      -9.881578      -268.8914
  19   2.0000      -7.670476      -208.7243
  20   2.0000      -7.610646      -207.0962
  21   2.0000      -6.407484      -174.3565
  22   2.0000      -5.698932      -155.0758
  23   2.0000      -5.695262      -154.9760
  24   2.0000      -5.686514      -154.7379
  25   2.0000      -5.639744      -153.4652
  26   2.0000      -5.631216      -153.2332
  27   2.0000      -5.630584      -153.2160
  28   2.0000      -4.630132      -125.9923
  29   2.0000      -4.629729      -125.9813
  30   2.0000      -4.628009      -125.9345
  31   2.0000      -1.036350       -28.2005
  32   2.0000      -1.012575       -27.5536
  33   2.0000      -0.959857       -26.1190
  34   2.0000      -0.941080       -25.6081
  35   2.0000      -0.917947       -24.9786
  36   2.0000      -0.913365       -24.8539
  37   2.0000      -0.766567       -20.8593
  38   2.0000      -0.714923       -19.4540
  39   2.0000      -0.709085       -19.2952
  40   2.0000      -0.681958       -18.5570
  41   2.0000      -0.651117       -17.7178
  42   2.0000      -0.624268       -16.9872
  43   2.0000      -0.614226       -16.7139
  44   2.0000      -0.599443       -16.3117
  45   2.0000      -0.594881       -16.1875
  46   2.0000      -0.568616       -15.4728
  47   2.0000      -0.513112       -13.9625
  48   2.0000      -0.503375       -13.6975
  49   2.0000      -0.498127       -13.5547
  50   2.0000      -0.486953       -13.2507
  51   2.0000      -0.460450       -12.5295
  52   2.0000      -0.456258       -12.4154
  53   2.0000      -0.453132       -12.3303
  54   2.0000      -0.434229       -11.8160
  55   2.0000      -0.431096       -11.7307
  56   2.0000      -0.422549       -11.4981
  57   2.0000      -0.415531       -11.3072
  58   2.0000      -0.404304       -11.0017
  59   2.0000      -0.397732       -10.8228
  60   2.0000      -0.394623       -10.7382
  61   2.0000      -0.391535       -10.6542
  62   2.0000      -0.388416       -10.5693
  63   2.0000      -0.375601       -10.2206
  64   2.0000      -0.372927       -10.1479
  65   2.0000      -0.369646       -10.0586
  66   2.0000      -0.363153        -9.8819
  67   2.0000      -0.355841        -9.6829
  68   2.0000      -0.347764        -9.4631
  69   2.0000      -0.343760        -9.3542
  70   2.0000      -0.336411        -9.1542
  71   2.0000      -0.331505        -9.0207
  72   2.0000      -0.323602        -8.8057
  73   2.0000      -0.310527        -8.4499
  74   2.0000      -0.294489        -8.0134
  75   2.0000      -0.293482        -7.9861
  76   2.0000      -0.287889        -7.8339
  77   2.0000      -0.278850        -7.5879
  78   2.0000      -0.267229        -7.2717
  79   2.0000      -0.260944        -7.1007
  80   2.0000      -0.254643        -6.9292
  81   2.0000      -0.243744        -6.6326
  82   2.0000      -0.236720        -6.4415
  83   2.0000      -0.231087        -6.2882
  84   2.0000      -0.194107        -5.2819
  85   2.0000      -0.180895        -4.9224
  86   2.0000      -0.177622        -4.8333
  87   0.0000      -0.049862        -1.3568
  88   0.0000      -0.039552        -1.0763
  89   0.0000      -0.029362        -0.7990
  90   0.0000       0.008283         0.2254
  91   0.0000       0.033491         0.9113

MULLIKEN ATOMIC CHARGES
-----------------------
   0 C :   -0.316341
   1 C :   -0.021276
   2 O :   -0.225624
   3 C :    0.096353
   4 O :   -0.188079
   5 C :   -0.046002
   6 C :   -0.310218
   7 H :    0.154181
   8 C :    0.216726
   9 O :   -0.190385
  10 O :   -0.217705
  11 C :   -0.010935
  12 C :   -0.331579
  13 S :   -0.079772
  14 P :    0.650283
  15 S :   -0.355651
  16 O :   -0.373981
  17 C :   -0.083671
  18 O :   -0.379938
  19 C :   -0.087695
  20 H :    0.149415
  21 H :    0.108654
  22 H :    0.112347
  23 H :    0.116611
  24 H :    0.101147
  25 H :    0.125663
  26 H :    0.116211
  27 H :    0.107496
  28 H :    0.114727
  29 H :    0.113085
  30 H :    0.154083
  31 H :    0.119288
  32 H :    0.105841
  33 H :    0.110110
  34 H :    0.113300
  35 H :    0.111459
  36 H :    0.112120
  37 H :    0.109751
Sum of atomic charges:    0.0000000

LOEWDIN ATOMIC CHARGES
----------------------
   0 C :   -0.358501
   1 C :   -0.109784
   2 O :   -0.051394
   3 C :    0.026836
   4 O :   -0.163517
   5 C :   -0.250439
   6 C :   -0.263752
   7 H :    0.153507
   8 C :    0.022963
   9 O :   -0.148816
  10 O :   -0.034228
  11 C :   -0.103928
  12 C :   -0.362171
  13 S :    0.108393
  14 P :    0.599702
  15 S :   -0.322277
  16 O :   -0.247607
  17 C :   -0.211604
  18 O :   -0.255896
  19 C :   -0.214045
  20 H :    0.126213
  21 H :    0.130131
  22 H :    0.120561
  23 H :    0.122383
  24 H :    0.116222
  25 H :    0.148990
  26 H :    0.138010
  27 H :    0.120182
  28 H :    0.122982
  29 H :    0.132127
  30 H :    0.130294
  31 H :    0.124555
  32 H :    0.107785
  33 H :    0.103901
  34 H :    0.114552
  35 H :    0.114001
  36 H :    0.106877
  37 H :    0.106792

  Mayer bond orders larger than 0.100000
B(  0-C ,  1-C ) :   1.1816 B(  0-C , 20-H ) :   0.9263 B(  0-C , 21-H ) :   0.9402
B(  0-C , 22-H ) :   0.9442 B(  1-C ,  2-O ) :   0.9043 B(  1-C , 23-H ) :   0.9052
B(  1-C , 24-H ) :   0.9356 B(  2-O ,  3-C ) :   1.2473 B(  3-C ,  4-O ) :   1.9877
B(  3-C ,  5-C ) :   0.9989 B(  5-C ,  6-C ) :   1.0212 B(  5-C , 25-H ) :   0.8867
B(  5-C , 26-H ) :   0.8879 B(  6-C ,  7-H ) :   0.8711 B(  6-C ,  8-C ) :   0.9037
B(  6-C , 13-S ) :   1.0497 B(  8-C ,  9-O ) :   1.9290 B(  8-C , 10-O ) :   1.2795
B(  9-O , 14-P ) :   0.1174 B( 10-O , 11-C ) :   0.8924 B( 11-C , 12-C ) :   1.1783
B( 11-C , 27-H ) :   0.9362 B( 11-C , 28-H ) :   0.9138 B( 12-C , 29-H ) :   0.9388
B( 12-C , 30-H ) :   0.9217 B( 12-C , 31-H ) :   0.9424 B( 13-S , 14-P ) :   0.9159
B( 13-S , 15-S ) :   0.1226 B( 14-P , 15-S ) :   1.5070 B( 14-P , 16-O ) :   1.1192
B( 14-P , 18-O ) :   1.0945 B( 16-O , 17-C ) :   0.9400 B( 17-C , 32-H ) :   0.9540
B( 17-C , 33-H ) :   0.9287 B( 17-C , 34-H ) :   0.9561 B( 18-O , 19-C ) :   0.9444
B( 19-C , 35-H ) :   0.9572 B( 19-C , 36-H ) :   0.9392 B( 19-C , 37-H ) :   0.9475

Dispersion correction           -0.056448192
FINAL SINGLE POINT ENERGY     -1979.000882245928

DIPOLE MOMENT
-------------

Method             : SCF
Type of density    : Electron Density
Multiplicity       :   1
Irrep              :   0
Energy             : -1979.1296514975206264 Eh
Relativity type    :
Basis              : AO
                                X                 Y                 Z
Electronic contribution:    -15.151342817      -0.520031660     -10.247147164
Nuclear contribution   :     16.837921893       1.326191999       9.826932017
                        -----------------------------------------
Total Dipole Moment    :      1.686579076       0.806160339      -0.420215146
                        -----------------------------------------
Magnitude (a.u.)       :      1.915991712
Magnitude (Debye)      :      4.870063901

Rotational constants in cm-1:             0.012267             0.009494             0.007939
Rotational constants in MHz :           367.760505           284.609690           237.999625

                             ****ORCA TERMINATED NORMALLY****
TOTAL RUN TIME: 0 days 0 hours 1 minutes 32 seconds 366 msec
