                         Program Version 6.0.0  -   RELEASE  -
|  1> ! pbe def2-sv(p) def2/J RI DEFGRID1 loosescf d4 GCP(DFT/SV(P)) printgap
|  2> %output
|  3>     printlevel normal
|  4> end
|  5> * xyz 0 1
|  6> C 4.5467285218 -1.6525610672 1.0381041263
|  7> C 4.0556062595 -1.8731458545 -0.3758104377
|  8> O 3.6742523639 -0.6420350743 -1.0397617457
|  9> P 2.6016532333 0.4047936517 -0.5471641428
| 10> S 2.1219653694 1.6209939185 -2.0043352431
| 11> O 3.3021144632 1.0865491509 0.7045927302
| 12> C 2.9024814045 2.3662191607 1.2216535724
| 13> C 1.5656786061 2.3013178198 1.9318159076
| 14> S 1.0294926861 -0.7730328692 0.2691284274
| 15> C 0.0962621812 -0.9640978089 -1.2889261186
| 16> S -1.5381357739 -1.6428606469 -0.9875145771
| 17> P -2.4773958878 0.0767092515 -0.1200844343
| 18> S -1.5224627271 1.7649348363 -0.3990646915
| 19> O -2.7582421652 -0.3128087747 1.3952606311
| 20> C -1.7354492141 -0.2840739321 2.4098179867
| 21> C -2.4224495447 -0.3711972063 3.7573639718
| 22> O -3.9279290573 0.1223995986 -0.7234977373
| 23> C -5.0286496885 -0.7399288743 -0.3362988242
| 24> C -4.7470536972 -2.200242488 -0.6155614946
| 25> H 4.9188145779 -2.5928221235 1.4332813535
| 26> H 5.3450216346 -0.9154066329 1.0493092005
| 27> H 3.7323321289 -1.2998146055 1.6672910013
| 28> H 3.1956342242 -2.5480640332 -0.3839479228
| 29> H 4.842086982 -2.2665201697 -1.0214485917
| 30> H 3.7091720125 2.6318325956 1.9065790888
| 31> H 2.8643379236 3.0823696286 0.3945064175
| 32> H 1.3820285516 3.2437602351 2.4375621531
| 33> H 0.7658707707 2.1373109825 1.2099878987
| 34> H 1.5638019994 1.4932756055 2.6591879003
| 35> H 0.610568717 -1.6663329548 -1.9413211054
| 36> H 0.0125849244 0.0206536733 -1.7564543888
| 37> H -1.0607762054 -1.1295885236 2.2461593395
| 38> H -1.1684134014 0.6462622917 2.306255209
| 39> H -2.9970852771 -1.2901559022 3.823912381
| 40> H -1.6706585675 -0.3605208623 4.5392920634
| 41> H -3.090676304 0.4747191564 3.8913391778
| 42> H -5.2327173425 -0.574240757 0.7226541619
| 43> H -5.8571209615 -0.3657933038 -0.9395855525
| 44> H -4.4837997052 -2.3443345132 -1.6602430258
| 45> H -3.9231404901 -2.5527128759 0.0022974483
| 46> H -5.634721748 -2.7818025343 -0.3867024785
| 47> *
| 48>
| 49>                          ****END OF INPUT****

CARTESIAN COORDINATES (ANGSTROEM)
---------------------------------
  C      4.546729   -1.652561    1.038104
  C      4.055606   -1.873146   -0.375810
  O      3.674252   -0.642035   -1.039762
  P      2.601653    0.404794   -0.547164
  S      2.121965    1.620994   -2.004335
  O      3.302114    1.086549    0.704593
  C      2.902481    2.366219    1.221654
  C      1.565679    2.301318    1.931816
  S      1.029493   -0.773033    0.269128
  C      0.096262   -0.964098   -1.288926
  S     -1.538136   -1.642861   -0.987515
  P     -2.477396    0.076709   -0.120084
  S     -1.522463    1.764935   -0.399065
  O     -2.758242   -0.312809    1.395261
  C     -1.735449   -0.284074    2.409818
  C     -2.422450   -0.371197    3.757364
  O     -3.927929    0.122400   -0.723498
  C     -5.028650   -0.739929   -0.336299
  C     -4.747054   -2.200242   -0.615561
  H      4.918815   -2.592822    1.433281
  H      5.345022   -0.915407    1.049309
  H      3.732332   -1.299815    1.667291
  H      3.195634   -2.548064   -0.383948
  H      4.842087   -2.266520   -1.021449
  H      3.709172    2.631833    1.906579
  H      2.864338    3.082370    0.394506
  H      1.382029    3.243760    2.437562
  H      0.765871    2.137311    1.209988
  H      1.563802    1.493276    2.659188
  H      0.610569   -1.666333   -1.941321
  H      0.012585    0.020654   -1.756454
  H     -1.060776   -1.129589    2.246159
  H     -1.168413    0.646262    2.306255
  H     -2.997085   -1.290156    3.823912
  H     -1.670659   -0.360521    4.539292
  H     -3.090676    0.474719    3.891339
  H     -5.232717   -0.574241    0.722654
  H     -5.857121   -0.365793   -0.939586
  H     -4.483800   -2.344335   -1.660243
  H     -3.923140   -2.552713    0.002297
  H     -5.634722   -2.781803   -0.386702

 Total Charge           Charge          ....    0
 Multiplicity           Mult            ....    1
 Number of Electrons    NEL             ....  202
 Basis Dimension        Dim             ....  334

ORBITAL ENERGIES
----------------

  NO   OCC          E(Eh)            E(eV)
   0   2.0000     -88.046707     -2395.8727
   1   2.0000     -88.041154     -2395.7216
   2   2.0000     -87.983014     -2394.1395
   3   2.0000     -87.977553     -2393.9909
   4   2.0000     -76.426712     -2079.6766
   5   2.0000     -76.422315     -2079.5569
   6   2.0000     -18.794982      -511.4375
   7   2.0000     -18.794828      -511.4333
   8   2.0000     -18.790902      -511.3264
   9   2.0000     -18.787332      -511.2293
  10   2.0000      -9.961501      -271.0662
  11   2.0000      -9.955850      -270.9125
  12   2.0000      -9.954505      -270.8759
  13   2.0000      -9.950894      -270.7776
  14   2.0000      -9.948793      -270.7204
  15   2.0000      -9.895124      -269.2600
  16   2.0000      -9.891636      -269.1651
  17   2.0000      -9.888004      -269.0663
  18   2.0000      -9.877804      -268.7887
  19   2.0000      -7.691424      -209.2943
  20   2.0000      -7.685491      -209.1328
  21   2.0000      -7.627680      -207.5597
  22   2.0000      -7.622807      -207.4271
  23   2.0000      -6.424276      -174.8135
  24   2.0000      -6.419618      -174.6867
  25   2.0000      -5.719383      -155.6323
  26   2.0000      -5.715745      -155.5333
  27   2.0000      -5.713198      -155.4640
  28   2.0000      -5.710223      -155.3831
  29   2.0000      -5.708624      -155.3395
  30   2.0000      -5.702546      -155.1742
  31   2.0000      -5.656818      -153.9298
  32   2.0000      -5.651836      -153.7943
  33   2.0000      -5.648082      -153.6921
  34   2.0000      -5.647852      -153.6859
  35   2.0000      -5.643312      -153.5623
  36   2.0000      -5.642931      -153.5520
  37   2.0000      -4.647196      -126.4566
  38   2.0000      -4.645862      -126.4203
  39   2.0000      -4.644550      -126.3846
  40   2.0000      -4.642448      -126.3274
  41   2.0000      -4.641450      -126.3003
  42   2.0000      -4.639809      -126.2556
  43   2.0000      -0.991386       -26.9770
  44   2.0000      -0.983858       -26.7721
  45   2.0000      -0.947023       -25.7698
  46   2.0000      -0.943061       -25.6620
  47   2.0000      -0.762090       -20.7375
  48   2.0000      -0.722946       -19.6724
  49   2.0000      -0.712860       -19.3979
  50   2.0000      -0.697670       -18.9846
  51   2.0000      -0.688306       -18.7298
  52   2.0000      -0.677395       -18.4328
  53   2.0000      -0.648959       -17.6591
  54   2.0000      -0.632178       -17.2024
  55   2.0000      -0.597241       -16.2518
  56   2.0000      -0.592720       -16.1287
  57   2.0000      -0.577395       -15.7117
  58   2.0000      -0.574333       -15.6284
  59   2.0000      -0.559400       -15.2220
  60   2.0000      -0.507888       -13.8203
  61   2.0000      -0.492311       -13.3965
  62   2.0000      -0.478607       -13.0235
  63   2.0000      -0.471040       -12.8177
  64   2.0000      -0.449846       -12.2409
  65   2.0000      -0.448335       -12.1998
  66   2.0000      -0.448138       -12.1945
  67   2.0000      -0.439440       -11.9578
  68   2.0000      -0.433796       -11.8042
  69   2.0000      -0.424470       -11.5504
  70   2.0000      -0.414115       -11.2686
  71   2.0000      -0.398255       -10.8371
  72   2.0000      -0.396371       -10.7858
  73   2.0000      -0.390264       -10.6196
  74   2.0000      -0.379211       -10.3189
  75   2.0000      -0.369590       -10.0571
  76   2.0000      -0.364619        -9.9218
  77   2.0000      -0.361587        -9.8393
  78   2.0000      -0.357310        -9.7229
  79   2.0000      -0.354114        -9.6359
  80   2.0000      -0.351406        -9.5622
  81   2.0000      -0.347479        -9.4554
  82   2.0000      -0.344816        -9.3829
  83   2.0000      -0.342215        -9.3121
  84   2.0000      -0.331530        -9.0214
  85   2.0000      -0.315969        -8.5980
  86   2.0000      -0.311308        -8.4711
  87   2.0000      -0.304650        -8.2899
  88   2.0000      -0.297889        -8.1060
  89   2.0000      -0.291511        -7.9324
  90   2.0000      -0.287256        -7.8166
  91   2.0000      -0.277272        -7.5449
  92   2.0000      -0.270610        -7.3637
  93   2.0000      -0.262042        -7.1305
  94   2.0000      -0.259153        -7.0519
  95   2.0000      -0.233560        -6.3555
  96   2.0000      -0.220080        -5.9887
  97   2.0000      -0.205842        -5.6013
  98   2.0000      -0.197311        -5.3691
  99   2.0000      -0.196130        -5.3370
 100   2.0000      -0.190057        -5.1717
 101   0.0000      -0.045018        -1.2250
 102   0.0000      -0.032792        -0.8923
 103   0.0000      -0.009829        -0.2675
 104   0.0000       0.007162         0.1949
 105   0.0000       0.011587         0.3153

MULLIKEN ATOMIC CHARGES
-----------------------
   0 C :   -0.303821
   1 C :   -0.002762
   2 O :   -0.362287
   3 P :    0.606687
   4 S :   -0.303136
   5 O :   -0.374763
   6 C :    0.007886
   7 C :   -0.361066
   8 S :   -0.139141
   9 C :   -0.332933
  10 S :   -0.125196
  11 P :    0.605058
  12 S :   -0.285653
  13 O :   -0.388432
  14 C :   -0.033123
  15 C :   -0.273197
  16 O :   -0.359144
  17 C :    0.006296
  18 C :   -0.338008
  19 H :    0.111800
  20 H :    0.123396
  21 H :    0.116487
  22 H :    0.105035
  23 H :    0.110565
  24 H :    0.101078
  25 H :    0.114241
  26 H :    0.111415
  27 H :    0.173796
  28 H :    0.106450
  29 H :    0.178291
  30 H :    0.217994
  31 H :    0.108051
  32 H :    0.124080
  33 H :    0.112706
  34 H :    0.111705
  35 H :    0.119224
  36 H :    0.112108
  37 H :    0.114413
  38 H :    0.132547
  39 H :    0.131294
  40 H :    0.120057
Sum of atomic charges:   -0.0000000

LOEWDIN ATOMIC CHARGES
----------------------
   0 C :   -0.365275
   1 C :   -0.115213
   2 O :   -0.241334
   3 P :    0.568939
   4 S :   -0.297451
   5 O :   -0.241083
   6 C :   -0.116504
   7 C :   -0.377960
   8 S :    0.059169
   9 C :   -0.482545
  10 S :    0.073053
  11 P :    0.565355
  12 S :   -0.279633
  13 O :   -0.251502
  14 C :   -0.122774
  15 C :   -0.350185
  16 O :   -0.234797
  17 C :   -0.107440
  18 C :   -0.372986
  19 H :    0.130334
  20 H :    0.129692
  21 H :    0.117873
  22 H :    0.106449
  23 H :    0.122349
  24 H :    0.116699
  25 H :    0.113748
  26 H :    0.130833
  27 H :    0.122009
  28 H :    0.118046
  29 H :    0.132676
  30 H :    0.125288
  31 H :    0.102974
  32 H :    0.113311
  33 H :    0.124886
  34 H :    0.131087
  35 H :    0.128333
  36 H :    0.115675
  37 H :    0.124648
  38 H :    0.130101
  39 H :    0.118092
  40 H :    0.135061

  Mayer bond orders larger than 0.100000
B(  0-C ,  1-C ) :   1.1723 B(  0-C , 19-H ) :   0.9360 B(  0-C , 20-H ) :   0.9443
B(  0-C , 21-H ) :   0.9383 B(  1-C ,  2-O ) :   0.9064 B(  1-C , 22-H ) :   0.9174
B(  1-C , 23-H ) :   0.9338 B(  2-O ,  3-P ) :   1.1333 B(  3-P ,  4-S ) :   1.6487
B(  3-P ,  5-O ) :   1.0950 B(  3-P ,  8-S ) :   0.9377 B(  4-S ,  8-S ) :   0.1126
B(  5-O ,  6-C ) :   0.9054 B(  6-C ,  7-C ) :   1.1626 B(  6-C , 24-H ) :   0.9335
B(  6-C , 25-H ) :   0.9139 B(  7-C , 26-H ) :   0.9370 B(  7-C , 27-H ) :   0.9121
B(  7-C , 28-H ) :   0.9442 B(  8-S ,  9-C ) :   0.9719 B(  9-C , 10-S ) :   1.0199
B(  9-C , 29-H ) :   0.9057 B(  9-C , 30-H ) :   0.8460 B( 10-S , 11-P ) :   0.9209
B( 10-S , 12-S ) :   0.1152 B( 11-P , 12-S ) :   1.6733 B( 11-P , 13-O ) :   1.0660
B( 11-P , 16-O ) :   1.1487 B( 13-O , 14-C ) :   0.9014 B( 14-C , 15-C ) :   1.1572
B( 14-C , 31-H ) :   0.9200 B( 14-C , 32-H ) :   0.9117 B( 15-C , 33-H ) :   0.9508
B( 15-C , 34-H ) :   0.9420 B( 15-C , 35-H ) :   0.9502 B( 16-O , 17-C ) :   0.8968
B( 17-C , 18-C ) :   1.1700 B( 17-C , 36-H ) :   0.9271 B( 17-C , 37-H ) :   0.9334
B( 18-C , 38-H ) :   0.9416 B( 18-C , 39-H ) :   0.9306 B( 18-C , 40-H ) :   0.9350

Dispersion correction           -0.064630257
FINAL SINGLE POINT ENERGY     -2929.513420175811

DIPOLE MOMENT
-------------

Method             : SCF
Type of density    : Electron Density
Multiplicity       :   1
Irrep              :   0
Energy             : -2929.6339841042640728 Eh
Relativity type    :
Basis              : AO
                                X                 Y                 Z
Electronic contribution:      1.741051663       7.245738836     -19.781935043
Nuclear contribution   :     -2.151621388      -8.858615103      21.518873406
                        -----------------------------------------
Total Dipole Moment    :     -0.410569724      -1.612876267       1.736938363
                        -----------------------------------------
Magnitude (a.u.)       :      2.405596024
Magnitude (Debye)      :      6.114539162

Rotational constants in cm-1:             0.012675             0.004572             0.004459
Rotational constants in MHz :           379.999063           137.064422           133.683255

                             ****ORCA TERMINATED NORMALLY****
TOTAL RUN TIME: 0 days 0 hours 0 minutes 20 seconds 975 msec
