                         Program Version 6.0.0  -   RELEASE  -
|  1> ! pbe def2-sv(p) def2/J RI DEFGRID1 loosescf d4 GCP(DFT/SV(P)) printgap
|  2> %output
|  3>     printlevel normal
|  4> end
|  5> * xyz 0 1
|  6> C 0.606377198 1.6992921007 -0.0243720376
|  7> C 1.3978377711 0.4034627867 -0.2206414297
|  8> H 1.6538635629 0.2851155594 -1.2797536774
|  9> C 0.5434473327 -0.8066512038 0.2013522746
| 10> H 0.3469779907 -0.7764705783 1.2848622399
| 11> C -0.8093020496 -0.7631620914 -0.5157987866
| 12> H -0.6225138493 -0.8868659347 -1.5923891869
| 13> C -1.470693191 0.6180510885 -0.2961311214
| 14> H -2.3545156424 0.7031682291 -0.9447508312
| 15> O -0.6257331461 1.6597642705 -0.7278161129
| 16> O -1.8071524806 0.7419176393 1.0461136455
| 17> O -1.6090649204 -1.799131692 -0.0160164245
| 18> O 1.1918185933 -2.0081534495 -0.1398940258
| 19> O 2.6252610866 0.4151855313 0.4646350079
| 20> H 1.1483336427 2.5534385829 -0.4295695687
| 21> H 0.4158886749 1.850269124 1.0462316085
| 22> H -2.3999821645 1.4977820908 1.1780128695
| 23> H -2.4026121979 -1.9004401268 -0.5606271689
| 24> H 2.1183893594 -1.9398849723 0.1405420644
| 25> H 2.4760196957 0.6195590922 1.4000525066
| 26> *
| 27>
| 28>                          ****END OF INPUT****

CARTESIAN COORDINATES (ANGSTROEM)
---------------------------------
  C      0.606377    1.699292   -0.024372
  C      1.397838    0.403463   -0.220641
  H      1.653864    0.285116   -1.279754
  C      0.543447   -0.806651    0.201352
  H      0.346978   -0.776471    1.284862
  C     -0.809302   -0.763162   -0.515799
  H     -0.622514   -0.886866   -1.592389
  C     -1.470693    0.618051   -0.296131
  H     -2.354516    0.703168   -0.944751
  O     -0.625733    1.659764   -0.727816
  O     -1.807152    0.741918    1.046114
  O     -1.609065   -1.799132   -0.016016
  O      1.191819   -2.008153   -0.139894
  O      2.625261    0.415186    0.464635
  H      1.148334    2.553439   -0.429570
  H      0.415889    1.850269    1.046232
  H     -2.399982    1.497782    1.178013
  H     -2.402612   -1.900440   -0.560627
  H      2.118389   -1.939885    0.140542
  H      2.476020    0.619559    1.400053

 Total Charge           Charge          ....    0
 Multiplicity           Mult            ....    1
 Number of Electrons    NEL             ....   80
 Basis Dimension        Dim             ....  160

ORBITAL ENERGIES
----------------

  NO   OCC          E(Eh)            E(eV)
   0   2.0000     -18.768851      -510.7264
   1   2.0000     -18.766924      -510.6740
   2   2.0000     -18.763157      -510.5715
   3   2.0000     -18.744858      -510.0735
   4   2.0000     -18.737045      -509.8609
   5   2.0000      -9.986002      -271.7329
   6   2.0000      -9.940920      -270.5062
   7   2.0000      -9.939790      -270.4754
   8   2.0000      -9.935143      -270.3490
   9   2.0000      -9.934152      -270.3220
  10   2.0000      -0.982775       -26.7427
  11   2.0000      -0.944490       -25.7009
  12   2.0000      -0.927797       -25.2466
  13   2.0000      -0.913367       -24.8540
  14   2.0000      -0.906208       -24.6592
  15   2.0000      -0.696919       -18.9641
  16   2.0000      -0.678984       -18.4761
  17   2.0000      -0.585884       -15.9427
  18   2.0000      -0.575649       -15.6642
  19   2.0000      -0.530254       -14.4289
  20   2.0000      -0.500491       -13.6191
  21   2.0000      -0.484358       -13.1800
  22   2.0000      -0.469074       -12.7642
  23   2.0000      -0.448849       -12.2138
  24   2.0000      -0.436447       -11.8763
  25   2.0000      -0.413576       -11.2540
  26   2.0000      -0.386988       -10.5305
  27   2.0000      -0.376366       -10.2414
  28   2.0000      -0.364846        -9.9280
  29   2.0000      -0.350679        -9.5425
  30   2.0000      -0.328074        -8.9273
  31   2.0000      -0.309992        -8.4353
  32   2.0000      -0.295041        -8.0285
  33   2.0000      -0.284236        -7.7345
  34   2.0000      -0.263478        -7.1696
  35   2.0000      -0.254385        -6.9222
  36   2.0000      -0.240652        -6.5485
  37   2.0000      -0.230850        -6.2817
  38   2.0000      -0.215514        -5.8644
  39   2.0000      -0.197804        -5.3825
  40   0.0000       0.013342         0.3631
  41   0.0000       0.016786         0.4568
  42   0.0000       0.032310         0.8792
  43   0.0000       0.060053         1.6341
  44   0.0000       0.067068         1.8250

MULLIKEN ATOMIC CHARGES
-----------------------
   0 C :    0.087667
   1 C :   -0.023772
   2 H :    0.074742
   3 C :    0.050155
   4 H :    0.057508
   5 C :    0.093006
   6 H :    0.064506
   7 C :    0.113882
   8 H :    0.054183
   9 O :   -0.313878
  10 O :   -0.382740
  11 O :   -0.396467
  12 O :   -0.408382
  13 O :   -0.419432
  14 H :    0.100377
  15 H :    0.048271
  16 H :    0.307239
  17 H :    0.296648
  18 H :    0.297286
  19 H :    0.299198
Sum of atomic charges:   -0.0000000

LOEWDIN ATOMIC CHARGES
----------------------
   0 C :   -0.131347
   1 C :   -0.090934
   2 H :    0.118622
   3 C :   -0.072375
   4 H :    0.104120
   5 C :   -0.076838
   6 H :    0.107799
   7 C :   -0.014736
   8 H :    0.092076
   9 O :   -0.160655
  10 O :   -0.298375
  11 O :   -0.305443
  12 O :   -0.318943
  13 O :   -0.311234
  14 H :    0.119472
  15 H :    0.095846
  16 H :    0.291488
  17 H :    0.286369
  18 H :    0.280221
  19 H :    0.284867

  Mayer bond orders larger than 0.100000
B(  0-C ,  1-C ) :   1.0465 B(  0-C ,  9-O ) :   1.0024 B(  0-C , 14-H ) :   0.9237
B(  0-C , 15-H ) :   0.8834 B(  1-C ,  2-H ) :   0.8684 B(  1-C ,  3-C ) :   1.0143
B(  1-C , 13-O ) :   1.0207 B(  3-C ,  4-H ) :   0.8778 B(  3-C ,  5-C ) :   0.9931
B(  3-C , 12-O ) :   1.1054 B(  5-C ,  6-H ) :   0.8831 B(  5-C ,  7-C ) :   0.9607
B(  5-C , 11-O ) :   1.1005 B(  7-C ,  8-H ) :   0.9038 B(  7-C ,  9-O ) :   1.0495
B(  7-C , 10-O ) :   1.1238 B( 10-O , 16-H ) :   0.8414 B( 11-O , 17-H ) :   0.8499
B( 12-O , 18-H ) :   0.8358 B( 13-O , 19-H ) :   0.8469

Dispersion correction           -0.019102861
FINAL SINGLE POINT ENERGY      -571.412375495819

DIPOLE MOMENT
-------------

Method             : SCF
Type of density    : Electron Density
Multiplicity       :   1
Irrep              :   0
Energy             :  -571.5196979170585792 Eh
Relativity type    :
Basis              : AO
                                X                 Y                 Z
Electronic contribution:     -0.891580410      -1.007455384      -0.034568250
Nuclear contribution   :      0.353031701       1.866988127       0.236899268
                        -----------------------------------------
Total Dipole Moment    :     -0.538548709       0.859532743       0.202331019
                        -----------------------------------------
Magnitude (a.u.)       :      1.034296422
Magnitude (Debye)      :      2.628972578

Rotational constants in cm-1:             0.056799             0.044634             0.029007
Rotational constants in MHz :          1702.803378          1338.093699           869.617113

                             ****ORCA TERMINATED NORMALLY****
TOTAL RUN TIME: 0 days 0 hours 0 minutes 12 seconds 158 msec
