                         Program Version 6.0.0  -   RELEASE  -
|  1> ! pbe def2-sv(p) def2/J RI DEFGRID1 loosescf d4 GCP(DFT/SV(P)) printgap
|  2> %output
|  3>     printlevel normal
|  4> end
|  5> * xyz 0 1
|  6> C 1.4904897177 0.2689643313 -3.6044022512
|  7> C 2.3654851695 0.1846891296 -2.3717016608
|  8> O 1.623066344 -0.494165991 -1.3295635508
|  9> P 2.1219890077 -0.4043211708 0.1726448744
| 10> S 2.5584569962 1.3735058695 0.8853118882
| 11> O 3.383046167 -1.3771059389 0.0995563174
| 12> C 4.3985296969 -1.4036419957 1.1167563535
| 13> C 3.8698278493 -1.9198542309 2.4393316815
| 14> S 0.6284192304 -1.5281218367 1.1436189881
| 15> C -0.1146240818 -0.22789701 2.1924972365
| 16> S -1.9173235231 -0.1583603958 2.0560227668
| 17> P -2.0688552093 0.3064851517 0.0053027438
| 18> S -0.7480482767 1.5842667246 -0.6968569942
| 19> O -3.5966881097 0.7126329657 -0.1430455063
| 20> C -4.1357506954 1.9432336602 0.3799340074
| 21> C -4.1264136279 3.0327961585 -0.6751728278
| 22> O -2.0783559672 -1.1352482031 -0.6387768554
| 23> C -1.6929277495 -1.3978290444 -2.003009013
| 24> C -2.6332694333 -0.7319216325 -2.9844998797
| 25> H 0.5947146218 0.8435062751 -3.3817836305
| 26> H 2.0432521727 0.7662241879 -4.394755766
| 27> H 1.2072661314 -0.7270441703 -3.9325925177
| 28> H 2.6328815676 1.183088589 -2.008135422
| 29> H 3.2775512852 -0.3870603174 -2.56035224
| 30> H 5.1650906295 -2.0601997656 0.7032190969
| 31> H 4.7954425451 -0.3899989109 1.2321045755
| 32> H 3.1573987309 -1.2078371344 2.8544800198
| 33> H 3.372451807 -2.8765204559 2.3010770817
| 34> H 4.6948593369 -2.0373235549 3.1344502637
| 35> H 0.3234405869 0.7348255807 1.9131258592
| 36> H 0.0899727047 -0.463138962 3.2338935866
| 37> H -5.1539141666 1.6883793828 0.679674293
| 38> H -3.5623065932 2.2438815943 1.2615018657
| 39> H -3.1047228993 3.2654072366 -0.9678745931
| 40> H -4.6780550865 2.7081033786 -1.5529609116
| 41> H -4.5894559105 3.9266651789 -0.2699502448
| 42> H -0.6650165765 -1.0512477609 -2.1442848136
| 43> H -1.7275282423 -2.4858070011 -2.0748746042
| 44> H -2.5714900286 0.3504906246 -2.8730839623
| 45> H -2.3523221085 -1.0012383335 -3.9978435631
| 46> H -3.6564047573 -1.0448915542 -2.7936987083
| 47> *
| 48>
| 49>                          ****END OF INPUT****

CARTESIAN COORDINATES (ANGSTROEM)
---------------------------------
  C      1.490490    0.268964   -3.604402
  C      2.365485    0.184689   -2.371702
  O      1.623066   -0.494166   -1.329564
  P      2.121989   -0.404321    0.172645
  S      2.558457    1.373506    0.885312
  O      3.383046   -1.377106    0.099556
  C      4.398530   -1.403642    1.116756
  C      3.869828   -1.919854    2.439332
  S      0.628419   -1.528122    1.143619
  C     -0.114624   -0.227897    2.192497
  S     -1.917324   -0.158360    2.056023
  P     -2.068855    0.306485    0.005303
  S     -0.748048    1.584267   -0.696857
  O     -3.596688    0.712633   -0.143046
  C     -4.135751    1.943234    0.379934
  C     -4.126414    3.032796   -0.675173
  O     -2.078356   -1.135248   -0.638777
  C     -1.692928   -1.397829   -2.003009
  C     -2.633269   -0.731922   -2.984500
  H      0.594715    0.843506   -3.381784
  H      2.043252    0.766224   -4.394756
  H      1.207266   -0.727044   -3.932593
  H      2.632882    1.183089   -2.008135
  H      3.277551   -0.387060   -2.560352
  H      5.165091   -2.060200    0.703219
  H      4.795443   -0.389999    1.232105
  H      3.157399   -1.207837    2.854480
  H      3.372452   -2.876520    2.301077
  H      4.694859   -2.037324    3.134450
  H      0.323441    0.734826    1.913126
  H      0.089973   -0.463139    3.233894
  H     -5.153914    1.688379    0.679674
  H     -3.562307    2.243882    1.261502
  H     -3.104723    3.265407   -0.967875
  H     -4.678055    2.708103   -1.552961
  H     -4.589456    3.926665   -0.269950
  H     -0.665017   -1.051248   -2.144285
  H     -1.727528   -2.485807   -2.074875
  H     -2.571490    0.350491   -2.873084
  H     -2.352322   -1.001238   -3.997844
  H     -3.656405   -1.044892   -2.793699

 Total Charge           Charge          ....    0
 Multiplicity           Mult            ....    1
 Number of Electrons    NEL             ....  202
 Basis Dimension        Dim             ....  334

ORBITAL ENERGIES
----------------

  NO   OCC          E(Eh)            E(eV)
   0   2.0000     -88.043070     -2395.7737
   1   2.0000     -88.041964     -2395.7437
   2   2.0000     -87.984847     -2394.1894
   3   2.0000     -87.983280     -2394.1468
   4   2.0000     -76.424240     -2079.6093
   5   2.0000     -76.423306     -2079.5839
   6   2.0000     -18.791357      -511.3388
   7   2.0000     -18.788577      -511.2632
   8   2.0000     -18.787092      -511.2228
   9   2.0000     -18.784644      -511.1562
  10   2.0000      -9.954170      -270.8667
  11   2.0000      -9.954006      -270.8623
  12   2.0000      -9.949338      -270.7352
  13   2.0000      -9.948137      -270.7026
  14   2.0000      -9.945240      -270.6237
  15   2.0000      -9.883497      -268.9436
  16   2.0000      -9.882680      -268.9214
  17   2.0000      -9.880182      -268.8534
  18   2.0000      -9.879783      -268.8426
  19   2.0000      -7.687933      -209.1993
  20   2.0000      -7.687624      -209.1909
  21   2.0000      -7.629835      -207.6184
  22   2.0000      -7.627891      -207.5655
  23   2.0000      -6.421544      -174.7391
  24   2.0000      -6.420977      -174.7237
  25   2.0000      -5.715832      -155.5357
  26   2.0000      -5.715547      -155.5279
  27   2.0000      -5.712554      -155.4465
  28   2.0000      -5.711999      -155.4314
  29   2.0000      -5.704756      -155.2343
  30   2.0000      -5.704600      -155.2300
  31   2.0000      -5.658637      -153.9793
  32   2.0000      -5.656719      -153.9271
  33   2.0000      -5.650703      -153.7635
  34   2.0000      -5.649846      -153.7401
  35   2.0000      -5.648560      -153.7051
  36   2.0000      -5.648106      -153.6928
  37   2.0000      -4.643917      -126.3674
  38   2.0000      -4.643409      -126.3536
  39   2.0000      -4.643327      -126.3514
  40   2.0000      -4.642592      -126.3314
  41   2.0000      -4.642152      -126.3194
  42   2.0000      -4.641742      -126.3082
  43   2.0000      -0.984287       -26.7838
  44   2.0000      -0.983635       -26.7661
  45   2.0000      -0.942407       -25.6442
  46   2.0000      -0.939976       -25.5781
  47   2.0000      -0.761979       -20.7345
  48   2.0000      -0.719879       -19.5889
  49   2.0000      -0.706443       -19.2233
  50   2.0000      -0.684847       -18.6356
  51   2.0000      -0.683836       -18.6081
  52   2.0000      -0.673538       -18.3279
  53   2.0000      -0.650327       -17.6963
  54   2.0000      -0.633789       -17.2463
  55   2.0000      -0.597948       -16.2710
  56   2.0000      -0.590607       -16.0712
  57   2.0000      -0.570682       -15.5290
  58   2.0000      -0.567127       -15.4323
  59   2.0000      -0.556800       -15.1513
  60   2.0000      -0.503621       -13.7042
  61   2.0000      -0.494871       -13.4661
  62   2.0000      -0.470880       -12.8133
  63   2.0000      -0.468847       -12.7580
  64   2.0000      -0.444236       -12.0883
  65   2.0000      -0.442458       -12.0399
  66   2.0000      -0.438154       -11.9228
  67   2.0000      -0.436633       -11.8814
  68   2.0000      -0.425922       -11.5899
  69   2.0000      -0.421942       -11.4816
  70   2.0000      -0.402888       -10.9631
  71   2.0000      -0.396323       -10.7845
  72   2.0000      -0.390520       -10.6266
  73   2.0000      -0.388678       -10.5765
  74   2.0000      -0.384632       -10.4664
  75   2.0000      -0.371965       -10.1217
  76   2.0000      -0.364649        -9.9226
  77   2.0000      -0.353043        -9.6068
  78   2.0000      -0.350696        -9.5429
  79   2.0000      -0.349547        -9.5117
  80   2.0000      -0.344883        -9.3848
  81   2.0000      -0.338700        -9.2165
  82   2.0000      -0.336074        -9.1450
  83   2.0000      -0.333655        -9.0792
  84   2.0000      -0.331609        -9.0235
  85   2.0000      -0.315908        -8.5963
  86   2.0000      -0.310680        -8.4540
  87   2.0000      -0.295895        -8.0517
  88   2.0000      -0.294331        -8.0092
  89   2.0000      -0.289614        -7.8808
  90   2.0000      -0.282042        -7.6747
  91   2.0000      -0.271144        -7.3782
  92   2.0000      -0.268885        -7.3167
  93   2.0000      -0.263654        -7.1744
  94   2.0000      -0.259543        -7.0625
  95   2.0000      -0.232292        -6.3210
  96   2.0000      -0.220899        -6.0110
  97   2.0000      -0.213575        -5.8117
  98   2.0000      -0.203055        -5.5254
  99   2.0000      -0.195389        -5.3168
 100   2.0000      -0.187674        -5.1069
 101   0.0000      -0.040726        -1.1082
 102   0.0000      -0.033790        -0.9195
 103   0.0000      -0.009092        -0.2474
 104   0.0000       0.017095         0.4652
 105   0.0000       0.019701         0.5361

MULLIKEN ATOMIC CHARGES
-----------------------
   0 C :   -0.296034
   1 C :   -0.009617
   2 O :   -0.360479
   3 P :    0.621455
   4 S :   -0.317963
   5 O :   -0.381719
   6 C :   -0.000811
   7 C :   -0.311458
   8 S :   -0.083254
   9 C :   -0.362786
  10 S :   -0.086945
  11 P :    0.601756
  12 S :   -0.317857
  13 O :   -0.370540
  14 C :   -0.012252
  15 C :   -0.293865
  16 O :   -0.358326
  17 C :   -0.034118
  18 C :   -0.312359
  19 H :    0.137236
  20 H :    0.112039
  21 H :    0.114814
  22 H :    0.107890
  23 H :    0.100902
  24 H :    0.102468
  25 H :    0.109120
  26 H :    0.117985
  27 H :    0.118570
  28 H :    0.111642
  29 H :    0.212508
  30 H :    0.181223
  31 H :    0.107767
  32 H :    0.104226
  33 H :    0.129708
  34 H :    0.113143
  35 H :    0.107419
  36 H :    0.147144
  37 H :    0.102523
  38 H :    0.124912
  39 H :    0.108761
  40 H :    0.115172
Sum of atomic charges:   -0.0000000

LOEWDIN ATOMIC CHARGES
----------------------
   0 C :   -0.356097
   1 C :   -0.116134
   2 O :   -0.239948
   3 P :    0.573193
   4 S :   -0.305680
   5 O :   -0.250767
   6 C :   -0.120302
   7 C :   -0.368906
   8 S :    0.092462
   9 C :   -0.478909
  10 S :    0.082629
  11 P :    0.562993
  12 S :   -0.306017
  13 O :   -0.245440
  14 C :   -0.115751
  15 C :   -0.363765
  16 O :   -0.234633
  17 C :   -0.119009
  18 C :   -0.367408
  19 H :    0.128024
  20 H :    0.130643
  21 H :    0.122974
  22 H :    0.110724
  23 H :    0.110683
  24 H :    0.117346
  25 H :    0.109226
  26 H :    0.118414
  27 H :    0.124364
  28 H :    0.129941
  29 H :    0.125480
  30 H :    0.134629
  31 H :    0.118955
  32 H :    0.107845
  33 H :    0.124621
  34 H :    0.125059
  35 H :    0.128714
  36 H :    0.115891
  37 H :    0.119351
  38 H :    0.120617
  39 H :    0.128492
  40 H :    0.125497

  Mayer bond orders larger than 0.100000
B(  0-C ,  1-C ) :   1.1665 B(  0-C , 19-H ) :   0.9371 B(  0-C , 20-H ) :   0.9394
B(  0-C , 21-H ) :   0.9437 B(  1-C ,  2-O ) :   0.9056 B(  1-C , 22-H ) :   0.9115
B(  1-C , 23-H ) :   0.9304 B(  2-O ,  3-P ) :   1.1225 B(  3-P ,  4-S ) :   1.6022
B(  3-P ,  5-O ) :   1.0900 B(  3-P ,  8-S ) :   0.9715 B(  4-S ,  8-S ) :   0.1209
B(  5-O ,  6-C ) :   0.9161 B(  6-C ,  7-C ) :   1.1652 B(  6-C , 24-H ) :   0.9338
B(  6-C , 25-H ) :   0.9145 B(  7-C , 26-H ) :   0.9372 B(  7-C , 27-H ) :   0.9438
B(  7-C , 28-H ) :   0.9382 B(  8-S ,  9-C ) :   0.9925 B(  9-C , 10-S ) :   1.0062
B(  9-C , 29-H ) :   0.8483 B(  9-C , 30-H ) :   0.9105 B( 10-S , 11-P ) :   0.9562
B( 10-S , 12-S ) :   0.1103 B( 11-P , 12-S ) :   1.6150 B( 11-P , 13-O ) :   1.1080
B( 11-P , 16-O ) :   1.1384 B( 13-O , 14-C ) :   0.9057 B( 14-C , 15-C ) :   1.1675
B( 14-C , 31-H ) :   0.9361 B( 14-C , 32-H ) :   0.9160 B( 15-C , 33-H ) :   0.9311
B( 15-C , 34-H ) :   0.9469 B( 15-C , 35-H ) :   0.9394 B( 16-O , 17-C ) :   0.8953
B( 17-C , 18-C ) :   1.1633 B( 17-C , 36-H ) :   0.9021 B( 17-C , 37-H ) :   0.9337
B( 18-C , 38-H ) :   0.9309 B( 18-C , 39-H ) :   0.9388 B( 18-C , 40-H ) :   0.9447

Dispersion correction           -0.067361803
FINAL SINGLE POINT ENERGY     -2929.522985870228

DIPOLE MOMENT
-------------

Method             : SCF
Type of density    : Electron Density
Multiplicity       :   1
Irrep              :   0
Energy             : -2929.6407792057702864 Eh
Relativity type    :
Basis              : AO
                                X                 Y                 Z
Electronic contribution:      0.702495679      -2.387104047      14.558765895
Nuclear contribution   :     -0.735666683       1.872595329     -14.958622591
                        -----------------------------------------
Total Dipole Moment    :     -0.033171004      -0.514508718      -0.399856695
                        -----------------------------------------
Magnitude (a.u.)       :      0.652460660
Magnitude (Debye)      :      1.658423202

Rotational constants in cm-1:             0.012306             0.005518             0.004850
Rotational constants in MHz :           368.922258           165.417502           145.399487

                             ****ORCA TERMINATED NORMALLY****
TOTAL RUN TIME: 0 days 0 hours 0 minutes 21 seconds 495 msec
