                         Program Version 6.0.0  -   RELEASE  -
|  1> ! pbe def2-sv(p) def2/J RI DEFGRID1 loosescf d4 GCP(DFT/SV(P)) printgap
|  2> %output
|  3>     printlevel normal
|  4> end
|  5> * xyz 0 1
|  6> C 2.5896262894 -0.5925356608 -2.7245302769
|  7> C 2.7374327753 0.6587212243 -1.8828402492
|  8> O 3.0871524603 0.324108186 -0.5258739607
|  9> P 2.0707521686 0.2254082189 0.685176996
| 10> S 1.0132950862 1.8146062313 1.1065210116
| 11> O 3.0247079193 -0.0956300755 1.8988955714
| 12> C 3.9574257293 -1.2046964371 1.9242588737
| 13> C 5.3390798663 -0.7613812954 1.4893686839
| 14> S 0.99053901 -1.5852842585 0.3618660455
| 15> C -0.3842116889 -1.2601135908 1.5104221355
| 16> S -2.0073701212 -1.5998690447 0.7836488279
| 17> P -2.2170653815 0.0770526961 -0.4720426882
| 18> S -0.8325759801 0.5336335381 -1.7904767268
| 19> O -2.4755769681 1.2049217977 0.6090519572
| 20> C -2.4794163454 2.6117446854 0.2880959878
| 21> C -2.3151095409 3.3854151651 1.5788308208
| 22> O -3.6742919309 -0.1085545774 -1.0801124277
| 23> C -4.1668656071 -1.2776542975 -1.76436967
| 24> C -3.1831921101 -1.8428587748 -2.7669349355
| 25> H 2.4239282798 -0.3021212907 -3.7566840909
| 26> H 3.487470651 -1.1999629311 -2.6567470993
| 27> H 1.7358544814 -1.1759247843 -2.3880929144
| 28> H 1.8148635324 1.2459679698 -1.8894430646
| 29> H 3.5647213107 1.2788646863 -2.2330672207
| 30> H 3.9560963546 -1.5331225579 2.9651457298
| 31> H 3.574645733 -2.002939399 1.2819308812
| 32> H 6.0260158967 -1.596137467 1.5878799949
| 33> H 5.3223046449 -0.4297329266 0.4549155566
| 34> H 5.6798016839 0.0599828846 2.1138599686
| 35> H -0.3364903444 -0.2134604021 1.8220587298
| 36> H -0.2980332754 -1.9347158456 2.3581478968
| 37> H -1.6551507411 2.8156871018 -0.4038939473
| 38> H -3.4286635873 2.8398456748 -0.2025535451
| 39> H -3.09023056 3.0996440744 2.2837220052
| 40> H -1.3404591577 3.175151457 2.0130746573
| 41> H -2.3876876396 4.446993761 1.36754034
| 42> H -4.4172143909 -2.0234030044 -1.0049913977
| 43> H -5.0773286393 -0.925320342 -2.2527258968
| 44> H -3.6418803467 -2.6768063062 -3.2883978143
| 45> H -2.8931692644 -1.0818913427 -3.4879391686
| 46> H -2.2871197398 -2.1942203567 -2.255707387
| 47> *
| 48>
| 49>                          ****END OF INPUT****

CARTESIAN COORDINATES (ANGSTROEM)
---------------------------------
  C      2.589626   -0.592536   -2.724530
  C      2.737433    0.658721   -1.882840
  O      3.087152    0.324108   -0.525874
  P      2.070752    0.225408    0.685177
  S      1.013295    1.814606    1.106521
  O      3.024708   -0.095630    1.898896
  C      3.957426   -1.204696    1.924259
  C      5.339080   -0.761381    1.489369
  S      0.990539   -1.585284    0.361866
  C     -0.384212   -1.260114    1.510422
  S     -2.007370   -1.599869    0.783649
  P     -2.217065    0.077053   -0.472043
  S     -0.832576    0.533634   -1.790477
  O     -2.475577    1.204922    0.609052
  C     -2.479416    2.611745    0.288096
  C     -2.315110    3.385415    1.578831
  O     -3.674292   -0.108555   -1.080112
  C     -4.166866   -1.277654   -1.764370
  C     -3.183192   -1.842859   -2.766935
  H      2.423928   -0.302121   -3.756684
  H      3.487471   -1.199963   -2.656747
  H      1.735854   -1.175925   -2.388093
  H      1.814864    1.245968   -1.889443
  H      3.564721    1.278865   -2.233067
  H      3.956096   -1.533123    2.965146
  H      3.574646   -2.002939    1.281931
  H      6.026016   -1.596137    1.587880
  H      5.322305   -0.429733    0.454916
  H      5.679802    0.059983    2.113860
  H     -0.336490   -0.213460    1.822059
  H     -0.298033   -1.934716    2.358148
  H     -1.655151    2.815687   -0.403894
  H     -3.428664    2.839846   -0.202554
  H     -3.090231    3.099644    2.283722
  H     -1.340459    3.175151    2.013075
  H     -2.387688    4.446994    1.367540
  H     -4.417214   -2.023403   -1.004991
  H     -5.077329   -0.925320   -2.252726
  H     -3.641880   -2.676806   -3.288398
  H     -2.893169   -1.081891   -3.487939
  H     -2.287120   -2.194220   -2.255707

 Total Charge           Charge          ....    0
 Multiplicity           Mult            ....    1
 Number of Electrons    NEL             ....  202
 Basis Dimension        Dim             ....  334

ORBITAL ENERGIES
----------------

  NO   OCC          E(Eh)            E(eV)
   0   2.0000     -88.045672     -2395.8445
   1   2.0000     -88.039604     -2395.6794
   2   2.0000     -87.979783     -2394.0516
   3   2.0000     -87.977570     -2393.9914
   4   2.0000     -76.423294     -2079.5835
   5   2.0000     -76.422527     -2079.5627
   6   2.0000     -18.794756      -511.4313
   7   2.0000     -18.787099      -511.2229
   8   2.0000     -18.786194      -511.1983
   9   2.0000     -18.780400      -511.0407
  10   2.0000      -9.956911      -270.9413
  11   2.0000      -9.956429      -270.9282
  12   2.0000      -9.953479      -270.8479
  13   2.0000      -9.949428      -270.7377
  14   2.0000      -9.939828      -270.4765
  15   2.0000      -9.884515      -268.9713
  16   2.0000      -9.881845      -268.8987
  17   2.0000      -9.880125      -268.8519
  18   2.0000      -9.874044      -268.6864
  19   2.0000      -7.691213      -209.2886
  20   2.0000      -7.684381      -209.1026
  21   2.0000      -7.624941      -207.4852
  22   2.0000      -7.622470      -207.4179
  23   2.0000      -6.420854      -174.7203
  24   2.0000      -6.419800      -174.6916
  25   2.0000      -5.719030      -155.6227
  26   2.0000      -5.715650      -155.5307
  27   2.0000      -5.712213      -155.4372
  28   2.0000      -5.709003      -155.3499
  29   2.0000      -5.708228      -155.3288
  30   2.0000      -5.701320      -155.1408
  31   2.0000      -5.653952      -153.8519
  32   2.0000      -5.651297      -153.7796
  33   2.0000      -5.645725      -153.6280
  34   2.0000      -5.644758      -153.6017
  35   2.0000      -5.643195      -153.5591
  36   2.0000      -5.642585      -153.5425
  37   2.0000      -4.643712      -126.3618
  38   2.0000      -4.642640      -126.3326
  39   2.0000      -4.642414      -126.3265
  40   2.0000      -4.641850      -126.3111
  41   2.0000      -4.641021      -126.2886
  42   2.0000      -4.640014      -126.2612
  43   2.0000      -0.986435       -26.8423
  44   2.0000      -0.979570       -26.6555
  45   2.0000      -0.942881       -25.6571
  46   2.0000      -0.937622       -25.5140
  47   2.0000      -0.762268       -20.7424
  48   2.0000      -0.719983       -19.5917
  49   2.0000      -0.707980       -19.2651
  50   2.0000      -0.688429       -18.7331
  51   2.0000      -0.684180       -18.6175
  52   2.0000      -0.671707       -18.2781
  53   2.0000      -0.647916       -17.6307
  54   2.0000      -0.632966       -17.2239
  55   2.0000      -0.592836       -16.1319
  56   2.0000      -0.585673       -15.9370
  57   2.0000      -0.573713       -15.6115
  58   2.0000      -0.567830       -15.4515
  59   2.0000      -0.556104       -15.1324
  60   2.0000      -0.502119       -13.6634
  61   2.0000      -0.496576       -13.5125
  62   2.0000      -0.477920       -13.0049
  63   2.0000      -0.465592       -12.6694
  64   2.0000      -0.452148       -12.3036
  65   2.0000      -0.448168       -12.1953
  66   2.0000      -0.439710       -11.9651
  67   2.0000      -0.431904       -11.7527
  68   2.0000      -0.424624       -11.5546
  69   2.0000      -0.416257       -11.3269
  70   2.0000      -0.412309       -11.2195
  71   2.0000      -0.396186       -10.7808
  72   2.0000      -0.390336       -10.6216
  73   2.0000      -0.384960       -10.4753
  74   2.0000      -0.377289       -10.2665
  75   2.0000      -0.368723       -10.0335
  76   2.0000      -0.359008        -9.7691
  77   2.0000      -0.354726        -9.6526
  78   2.0000      -0.350152        -9.5281
  79   2.0000      -0.346369        -9.4252
  80   2.0000      -0.345151        -9.3920
  81   2.0000      -0.341391        -9.2897
  82   2.0000      -0.338819        -9.2197
  83   2.0000      -0.331857        -9.0303
  84   2.0000      -0.326025        -8.8716
  85   2.0000      -0.316619        -8.6157
  86   2.0000      -0.311126        -8.4662
  87   2.0000      -0.296183        -8.0595
  88   2.0000      -0.291183        -7.9235
  89   2.0000      -0.289128        -7.8676
  90   2.0000      -0.285500        -7.7689
  91   2.0000      -0.272377        -7.4117
  92   2.0000      -0.262384        -7.1398
  93   2.0000      -0.261328        -7.1111
  94   2.0000      -0.257057        -6.9949
  95   2.0000      -0.242507        -6.5989
  96   2.0000      -0.221961        -6.0399
  97   2.0000      -0.204221        -5.5571
  98   2.0000      -0.200031        -5.4431
  99   2.0000      -0.188991        -5.1427
 100   2.0000      -0.179071        -4.8728
 101   0.0000      -0.041118        -1.1189
 102   0.0000      -0.031645        -0.8611
 103   0.0000      -0.015480        -0.4212
 104   0.0000       0.001072         0.0292
 105   0.0000       0.019651         0.5347

MULLIKEN ATOMIC CHARGES
-----------------------
   0 C :   -0.308519
   1 C :   -0.013020
   2 O :   -0.381006
   3 P :    0.611775
   4 S :   -0.309371
   5 O :   -0.357280
   6 C :   -0.011708
   7 C :   -0.289432
   8 S :   -0.100609
   9 C :   -0.342347
  10 S :   -0.101064
  11 P :    0.623269
  12 S :   -0.334252
  13 O :   -0.368562
  14 C :   -0.003772
  15 C :   -0.291291
  16 O :   -0.380201
  17 C :   -0.005649
  18 C :   -0.318042
  19 H :    0.112126
  20 H :    0.107494
  21 H :    0.140575
  22 H :    0.130197
  23 H :    0.105082
  24 H :    0.106571
  25 H :    0.098260
  26 H :    0.107620
  27 H :    0.121869
  28 H :    0.119528
  29 H :    0.198198
  30 H :    0.182784
  31 H :    0.114737
  32 H :    0.097637
  33 H :    0.110675
  34 H :    0.134086
  35 H :    0.105908
  36 H :    0.111669
  37 H :    0.109393
  38 H :    0.110228
  39 H :    0.129563
  40 H :    0.126882
Sum of atomic charges:    0.0000000

LOEWDIN ATOMIC CHARGES
----------------------
   0 C :   -0.364881
   1 C :   -0.115211
   2 O :   -0.239138
   3 P :    0.571197
   4 S :   -0.297320
   5 O :   -0.240697
   6 C :   -0.117161
   7 C :   -0.359955
   8 S :    0.069210
   9 C :   -0.477038
  10 S :    0.082407
  11 P :    0.571027
  12 S :   -0.312012
  13 O :   -0.242879
  14 C :   -0.117466
  15 C :   -0.353948
  16 O :   -0.250354
  17 C :   -0.111126
  18 C :   -0.373570
  19 H :    0.132331
  20 H :    0.121520
  21 H :    0.122542
  22 H :    0.111086
  23 H :    0.118510
  24 H :    0.119683
  25 H :    0.100853
  26 H :    0.128337
  27 H :    0.125537
  28 H :    0.128717
  29 H :    0.125053
  30 H :    0.136701
  31 H :    0.109147
  32 H :    0.109888
  33 H :    0.124398
  34 H :    0.124736
  35 H :    0.128639
  36 H :    0.110336
  37 H :    0.121661
  38 H :    0.129342
  39 H :    0.129443
  40 H :    0.120455

  Mayer bond orders larger than 0.100000
B(  0-C ,  1-C ) :   1.1730 B(  0-C , 19-H ) :   0.9398 B(  0-C , 20-H ) :   0.9477
B(  0-C , 21-H ) :   0.9305 B(  1-C ,  2-O ) :   0.8886 B(  1-C , 22-H ) :   0.9031
B(  1-C , 23-H ) :   0.9339 B(  2-O ,  3-P ) :   1.1046 B(  3-P ,  4-S ) :   1.6392
B(  3-P ,  5-O ) :   1.1292 B(  3-P ,  8-S ) :   0.9463 B(  4-S ,  8-S ) :   0.1141
B(  4-S , 29-H ) :   0.1047 B(  5-O ,  6-C ) :   0.9006 B(  6-C ,  7-C ) :   1.1633
B(  6-C , 24-H ) :   0.9368 B(  6-C , 25-H ) :   0.9099 B(  7-C , 26-H ) :   0.9398
B(  7-C , 27-H ) :   0.9416 B(  7-C , 28-H ) :   0.9471 B(  8-S ,  9-C ) :   0.9894
B(  9-C , 10-S ) :   1.0055 B(  9-C , 29-H ) :   0.8504 B(  9-C , 30-H ) :   0.9115
B( 10-S , 11-P ) :   0.9555 B( 10-S , 12-S ) :   0.1198 B( 11-P , 12-S ) :   1.6332
B( 11-P , 13-O ) :   1.1298 B( 11-P , 16-O ) :   1.1074 B( 13-O , 14-C ) :   0.8947
B( 14-C , 15-C ) :   1.1644 B( 14-C , 31-H ) :   0.9070 B( 14-C , 32-H ) :   0.9317
B( 15-C , 33-H ) :   0.9493 B( 15-C , 34-H ) :   0.9426 B( 15-C , 35-H ) :   0.9412
B( 16-O , 17-C ) :   0.9159 B( 17-C , 18-C ) :   1.1655 B( 17-C , 36-H ) :   0.9313
B( 17-C , 37-H ) :   0.9345 B( 18-C , 38-H ) :   0.9331 B( 18-C , 39-H ) :   0.9391
B( 18-C , 40-H ) :   0.9320

Dispersion correction           -0.066090389
FINAL SINGLE POINT ENERGY     -2929.512427869842

DIPOLE MOMENT
-------------

Method             : SCF
Type of density    : Electron Density
Multiplicity       :   1
Irrep              :   0
Energy             : -2929.6306890933110481 Eh
Relativity type    :
Basis              : AO
                                X                 Y                 Z
Electronic contribution:     -6.366243793      -0.416018107       7.022591343
Nuclear contribution   :      6.470402246      -0.533768066      -7.294246066
                        -----------------------------------------
Total Dipole Moment    :      0.104158453      -0.949786173      -0.271654723
                        -----------------------------------------
Magnitude (a.u.)       :      0.993347395
Magnitude (Debye)      :      2.524888421

Rotational constants in cm-1:             0.012046             0.005233             0.004826
Rotational constants in MHz :           361.132975           156.888853           144.683534

                             ****ORCA TERMINATED NORMALLY****
TOTAL RUN TIME: 0 days 0 hours 0 minutes 21 seconds 168 msec
