                         Program Version 6.0.0  -   RELEASE  -
|  1> ! pbe def2-sv(p) def2/J RI DEFGRID1 loosescf d4 GCP(DFT/SV(P)) printgap
|  2> %output
|  3>     printlevel normal
|  4> end
|  5> * xyz 0 1
|  6> C 4.6703812591 -1.4107145052 -0.6062224705
|  7> C 4.6284335476 0.0200618891 -0.1092499001
|  8> O 3.4082467809 0.3197755613 0.5892242266
|  9> P 1.9966454095 0.4010633945 -0.1402854915
| 10> S 2.0583781699 1.1847405455 -1.9407303272
| 11> O 1.1298022544 1.1403360677 0.959810794
| 12> C 1.0385381258 2.5742785216 1.0423842492
| 13> C 2.3544399954 3.2095032232 1.4371160617
| 14> S 1.2658228135 -1.5605611922 0.0482245455
| 15> C 0.1217275687 -1.6427233204 -1.3709431966
| 16> S -1.5778572579 -1.9935543956 -0.8718948556
| 17> P -2.0264366466 -0.1065788721 -0.0024178699
| 18> S -1.4714493001 1.4458718825 -1.0567244199
| 19> O -1.4460236112 -0.1024291522 1.4582658678
| 20> C -1.7957189869 -1.1171077427 2.440962482
| 21> C -0.6074403548 -1.31865521 3.3573268644
| 22> O -3.5872544336 -0.2251643487 0.2655503541
| 23> C -4.5403716182 -0.2118896985 -0.8180611947
| 24> C -5.9149850595 0.0103180583 -0.221329924
| 25> H 3.9344890002 -1.5511111479 -1.3967121067
| 26> H 5.6576741728 -1.6222128546 -1.0041140785
| 27> H 4.4509508449 -2.0997491414 0.205351111
| 28> H 4.7269835325 0.718694668 -0.9464400117
| 29> H 5.4062069479 0.2126634673 0.63092539
| 30> H 0.6924049424 2.9553755331 0.0753010103
| 31> H 0.2615347615 2.7401310602 1.7906644068
| 32> H 3.0838914695 3.0786184201 0.6388378854
| 33> H 2.2015609121 4.2712031896 1.6040445138
| 34> H 2.7358318049 2.7481024585 2.3442625237
| 35> H 0.4269180055 -2.4724813441 -2.0029650304
| 36> H 0.1633745862 -0.6944497046 -1.9140824091
| 37> H -2.6676082738 -0.7470852364 2.9826973308
| 38> H -2.0578194017 -2.0403629046 1.9161480559
| 39> H 0.2439557374 -1.6952012758 2.7956639617
| 40> H -0.32910266 -0.3759017676 3.8197399249
| 41> H -0.872907407 -2.0348104028 4.1282685815
| 42> H -4.2664079642 0.5892779049 -1.5121409477
| 43> H -4.4783936639 -1.1720435917 -1.3369151498
| 44> H -6.1472021014 -0.785007699 0.480666091
| 45> H -5.9458823051 0.9626232835 0.3005431846
| 46> H -6.6515080173 0.0143317846 -1.0179351702
| 47> *
| 48>
| 49>                          ****END OF INPUT****

CARTESIAN COORDINATES (ANGSTROEM)
---------------------------------
  C      4.670381   -1.410715   -0.606222
  C      4.628434    0.020062   -0.109250
  O      3.408247    0.319776    0.589224
  P      1.996645    0.401063   -0.140285
  S      2.058378    1.184741   -1.940730
  O      1.129802    1.140336    0.959811
  C      1.038538    2.574279    1.042384
  C      2.354440    3.209503    1.437116
  S      1.265823   -1.560561    0.048225
  C      0.121728   -1.642723   -1.370943
  S     -1.577857   -1.993554   -0.871895
  P     -2.026437   -0.106579   -0.002418
  S     -1.471449    1.445872   -1.056724
  O     -1.446024   -0.102429    1.458266
  C     -1.795719   -1.117108    2.440962
  C     -0.607440   -1.318655    3.357327
  O     -3.587254   -0.225164    0.265550
  C     -4.540372   -0.211890   -0.818061
  C     -5.914985    0.010318   -0.221330
  H      3.934489   -1.551111   -1.396712
  H      5.657674   -1.622213   -1.004114
  H      4.450951   -2.099749    0.205351
  H      4.726984    0.718695   -0.946440
  H      5.406207    0.212663    0.630925
  H      0.692405    2.955376    0.075301
  H      0.261535    2.740131    1.790664
  H      3.083891    3.078618    0.638838
  H      2.201561    4.271203    1.604045
  H      2.735832    2.748102    2.344263
  H      0.426918   -2.472481   -2.002965
  H      0.163375   -0.694450   -1.914082
  H     -2.667608   -0.747085    2.982697
  H     -2.057819   -2.040363    1.916148
  H      0.243956   -1.695201    2.795664
  H     -0.329103   -0.375902    3.819740
  H     -0.872907   -2.034810    4.128269
  H     -4.266408    0.589278   -1.512141
  H     -4.478394   -1.172044   -1.336915
  H     -6.147202   -0.785008    0.480666
  H     -5.945882    0.962623    0.300543
  H     -6.651508    0.014332   -1.017935

 Total Charge           Charge          ....    0
 Multiplicity           Mult            ....    1
 Number of Electrons    NEL             ....  202
 Basis Dimension        Dim             ....  334

ORBITAL ENERGIES
----------------

  NO   OCC          E(Eh)            E(eV)
   0   2.0000     -88.043174     -2395.7766
   1   2.0000     -88.041018     -2395.7179
   2   2.0000     -87.982075     -2394.1140
   3   2.0000     -87.980013     -2394.0579
   4   2.0000     -76.422608     -2079.5649
   5   2.0000     -76.420728     -2079.5137
   6   2.0000     -18.794066      -511.4125
   7   2.0000     -18.789757      -511.2953
   8   2.0000     -18.788442      -511.2595
   9   2.0000     -18.778741      -510.9955
  10   2.0000      -9.954750      -270.8825
  11   2.0000      -9.954169      -270.8667
  12   2.0000      -9.953146      -270.8389
  13   2.0000      -9.948628      -270.7159
  14   2.0000      -9.937541      -270.4142
  15   2.0000      -9.889822      -269.1157
  16   2.0000      -9.882235      -268.9093
  17   2.0000      -9.881203      -268.8812
  18   2.0000      -9.875500      -268.7260
  19   2.0000      -7.688448      -209.2133
  20   2.0000      -7.686131      -209.1502
  21   2.0000      -7.626954      -207.5400
  22   2.0000      -7.624987      -207.4864
  23   2.0000      -6.420356      -174.7068
  24   2.0000      -6.418274      -174.6501
  25   2.0000      -5.716190      -155.5454
  26   2.0000      -5.713975      -155.4852
  27   2.0000      -5.712759      -155.4521
  28   2.0000      -5.710670      -155.3952
  29   2.0000      -5.705741      -155.2611
  30   2.0000      -5.703010      -155.1868
  31   2.0000      -5.655840      -153.9032
  32   2.0000      -5.653968      -153.8523
  33   2.0000      -5.647779      -153.6839
  34   2.0000      -5.646977      -153.6621
  35   2.0000      -5.645485      -153.6215
  36   2.0000      -5.645168      -153.6128
  37   2.0000      -4.643199      -126.3479
  38   2.0000      -4.642221      -126.3212
  39   2.0000      -4.640545      -126.2757
  40   2.0000      -4.640411      -126.2720
  41   2.0000      -4.639880      -126.2575
  42   2.0000      -4.639165      -126.2381
  43   2.0000      -0.988127       -26.8883
  44   2.0000      -0.979974       -26.6664
  45   2.0000      -0.943989       -25.6872
  46   2.0000      -0.937326       -25.5059
  47   2.0000      -0.761957       -20.7339
  48   2.0000      -0.720227       -19.5984
  49   2.0000      -0.706962       -19.2374
  50   2.0000      -0.690983       -18.8026
  51   2.0000      -0.682243       -18.5648
  52   2.0000      -0.671294       -18.2668
  53   2.0000      -0.646678       -17.5970
  54   2.0000      -0.631576       -17.1860
  55   2.0000      -0.597694       -16.2641
  56   2.0000      -0.582177       -15.8418
  57   2.0000      -0.568322       -15.4648
  58   2.0000      -0.566002       -15.4017
  59   2.0000      -0.562140       -15.2966
  60   2.0000      -0.510431       -13.8895
  61   2.0000      -0.486067       -13.2266
  62   2.0000      -0.481713       -13.1081
  63   2.0000      -0.465390       -12.6639
  64   2.0000      -0.450532       -12.2596
  65   2.0000      -0.445490       -12.1224
  66   2.0000      -0.438131       -11.9222
  67   2.0000      -0.434339       -11.8190
  68   2.0000      -0.429653       -11.6915
  69   2.0000      -0.413881       -11.2623
  70   2.0000      -0.407296       -11.0831
  71   2.0000      -0.392037       -10.6679
  72   2.0000      -0.385518       -10.4905
  73   2.0000      -0.383858       -10.4453
  74   2.0000      -0.377284       -10.2664
  75   2.0000      -0.375200       -10.2097
  76   2.0000      -0.364766        -9.9258
  77   2.0000      -0.353924        -9.6308
  78   2.0000      -0.350874        -9.5478
  79   2.0000      -0.348821        -9.4919
  80   2.0000      -0.342744        -9.3265
  81   2.0000      -0.341834        -9.3018
  82   2.0000      -0.338861        -9.2209
  83   2.0000      -0.335375        -9.1260
  84   2.0000      -0.331178        -9.0118
  85   2.0000      -0.314152        -8.5485
  86   2.0000      -0.306340        -8.3359
  87   2.0000      -0.301814        -8.2128
  88   2.0000      -0.298528        -8.1234
  89   2.0000      -0.290631        -7.9085
  90   2.0000      -0.275384        -7.4936
  91   2.0000      -0.269162        -7.3243
  92   2.0000      -0.263709        -7.1759
  93   2.0000      -0.262559        -7.1446
  94   2.0000      -0.255834        -6.9616
  95   2.0000      -0.237497        -6.4626
  96   2.0000      -0.219134        -5.9629
  97   2.0000      -0.213501        -5.8096
  98   2.0000      -0.202631        -5.5139
  99   2.0000      -0.192080        -5.2268
 100   2.0000      -0.185113        -5.0372
 101   0.0000      -0.038897        -1.0585
 102   0.0000      -0.029669        -0.8073
 103   0.0000      -0.007374        -0.2006
 104   0.0000       0.015296         0.4162
 105   0.0000       0.021281         0.5791

MULLIKEN ATOMIC CHARGES
-----------------------
   0 C :   -0.308795
   1 C :   -0.003483
   2 O :   -0.375433
   3 P :    0.613702
   4 S :   -0.319433
   5 O :   -0.352192
   6 C :   -0.002642
   7 C :   -0.301189
   8 S :   -0.093474
   9 C :   -0.359223
  10 S :   -0.111780
  11 P :    0.591671
  12 S :   -0.297179
  13 O :   -0.345016
  14 C :   -0.010466
  15 C :   -0.280842
  16 O :   -0.386866
  17 C :   -0.012394
  18 C :   -0.280373
  19 H :    0.120940
  20 H :    0.110907
  21 H :    0.116049
  22 H :    0.109150
  23 H :    0.103169
  24 H :    0.121969
  25 H :    0.100756
  26 H :    0.118994
  27 H :    0.108898
  28 H :    0.111641
  29 H :    0.182464
  30 H :    0.212525
  31 H :    0.107021
  32 H :    0.100032
  33 H :    0.127565
  34 H :    0.117528
  35 H :    0.104799
  36 H :    0.107385
  37 H :    0.104479
  38 H :    0.114108
  39 H :    0.121665
  40 H :    0.113362
Sum of atomic charges:   -0.0000000

LOEWDIN ATOMIC CHARGES
----------------------
   0 C :   -0.369247
   1 C :   -0.120205
   2 O :   -0.245647
   3 P :    0.570953
   4 S :   -0.312785
   5 O :   -0.230541
   6 C :   -0.119702
   7 C :   -0.365499
   8 S :    0.090951
   9 C :   -0.478743
  10 S :    0.061647
  11 P :    0.560049
  12 S :   -0.289688
  13 O :   -0.228008
  14 C :   -0.113194
  15 C :   -0.353676
  16 O :   -0.253767
  17 C :   -0.119757
  18 C :   -0.350373
  19 H :    0.119763
  20 H :    0.129749
  21 H :    0.123139
  22 H :    0.109358
  23 H :    0.117600
  24 H :    0.109284
  25 H :    0.117440
  26 H :    0.120919
  27 H :    0.128874
  28 H :    0.123760
  29 H :    0.136863
  30 H :    0.127730
  31 H :    0.115700
  32 H :    0.102864
  33 H :    0.122237
  34 H :    0.128399
  35 H :    0.127461
  36 H :    0.110752
  37 H :    0.108470
  38 H :    0.125759
  39 H :    0.129556
  40 H :    0.131555

  Mayer bond orders larger than 0.100000
B(  0-C ,  1-C ) :   1.1678 B(  0-C , 19-H ) :   0.9368 B(  0-C , 20-H ) :   0.9381
B(  0-C , 21-H ) :   0.9441 B(  1-C ,  2-O ) :   0.9123 B(  1-C , 22-H ) :   0.9141
B(  1-C , 23-H ) :   0.9340 B(  2-O ,  3-P ) :   1.0957 B(  3-P ,  4-S ) :   1.5964
B(  3-P ,  5-O ) :   1.1484 B(  3-P ,  8-S ) :   0.9601 B(  4-S ,  8-S ) :   0.1142
B(  5-O ,  6-C ) :   0.9043 B(  6-C ,  7-C ) :   1.1573 B(  6-C , 24-H ) :   0.9132
B(  6-C , 25-H ) :   0.9355 B(  7-C , 26-H ) :   0.9385 B(  7-C , 27-H ) :   0.9395
B(  7-C , 28-H ) :   0.9450 B(  8-S ,  9-C ) :   0.9921 B(  9-C , 10-S ) :   1.0035
B(  9-C , 29-H ) :   0.9116 B(  9-C , 30-H ) :   0.8469 B( 10-S , 11-P ) :   0.9437
B( 10-S , 12-S ) :   0.1055 B( 11-P , 12-S ) :   1.6626 B( 11-P , 13-O ) :   1.1502
B( 11-P , 16-O ) :   1.0792 B( 13-O , 14-C ) :   0.8855 B( 14-C , 15-C ) :   1.1656
B( 14-C , 31-H ) :   0.9334 B( 14-C , 32-H ) :   0.9102 B( 15-C , 33-H ) :   0.9404
B( 15-C , 34-H ) :   0.9486 B( 15-C , 35-H ) :   0.9398 B( 16-O , 17-C ) :   0.9051
B( 17-C , 18-C ) :   1.1600 B( 17-C , 36-H ) :   0.9112 B( 17-C , 37-H ) :   0.9286
B( 18-C , 38-H ) :   0.9510 B( 18-C , 39-H ) :   0.9509 B( 18-C , 40-H ) :   0.9418

Dispersion correction           -0.067046259
FINAL SINGLE POINT ENERGY     -2929.522129295088

DIPOLE MOMENT
-------------

Method             : SCF
Type of density    : Electron Density
Multiplicity       :   1
Irrep              :   0
Energy             : -2929.6404474005985321 Eh
Relativity type    :
Basis              : AO
                                X                 Y                 Z
Electronic contribution:     -0.886836194      -1.547993790     -11.141622891
Nuclear contribution   :      0.545094799       0.719121304      12.090487214
                        -----------------------------------------
Total Dipole Moment    :     -0.341741394      -0.828872486       0.948864323
                        -----------------------------------------
Magnitude (a.u.)       :      1.305434902
Magnitude (Debye)      :      3.318151823

Rotational constants in cm-1:             0.013008             0.005136             0.004985
Rotational constants in MHz :           389.982842           153.958527           149.433971

                             ****ORCA TERMINATED NORMALLY****
TOTAL RUN TIME: 0 days 0 hours 0 minutes 20 seconds 743 msec
