                         Program Version 6.0.0  -   RELEASE  -
|  1> ! pbe def2-sv(p) def2/J RI DEFGRID1 loosescf d4 GCP(DFT/SV(P)) printgap
|  2> %output
|  3>     printlevel normal
|  4> end
|  5> * xyz 0 1
|  6> C 4.4912406805 1.8630783771 0.160446279
|  7> C 4.2196748524 0.7186080566 -0.7941609611
|  8> O 3.3361011521 -0.2756792404 -0.249512178
|  9> P 1.9292864907 0.0091100969 0.4530751826
| 10> S 1.9865761611 0.688831597 2.2894375903
| 11> O 1.2893162154 -1.4289479402 0.27669702
| 12> C 1.1275208315 -2.340710557 1.3729385246
| 13> C 2.4263009063 -3.0625990783 1.662975573
| 14> S 0.8955952616 1.1867357675 -0.9793633778
| 15> C 0.4498569659 -0.0936856387 -2.1683856521
| 16> S -0.9188817778 -1.2225837107 -1.6699369084
| 17> P -2.0927251127 -0.0912583778 -0.3590099687
| 18> S -3.8536789605 -0.8712472022 -0.000989238
| 19> O -2.153119994 1.4143284641 -0.8847122906
| 20> C -3.190186964 1.8727980981 -1.7689119494
| 21> C -2.8929728282 1.5076432794 -3.2094628795
| 22> O -1.1204071786 0.0552085958 0.8971150407
| 23> C -1.6021006015 0.7178821925 2.0923282221
| 24> C -2.0308533198 -0.2939658593 3.134444087
| 25> H 3.5744821056 2.4228338622 0.3454728503
| 26> H 4.8621014957 1.4879107896 1.1115255647
| 27> H 5.2297185425 2.5282791324 -0.2754929303
| 28> H 5.1306578837 0.1593572339 -1.0151530163
| 29> H 3.7806558881 1.0953353087 -1.7228115337
| 30> H 0.789995998 -1.7813969303 2.2518253408
| 31> H 0.3400276198 -3.0228643653 1.0464848654
| 32> H 2.2689683431 -3.7847157816 2.4578157072
| 33> H 2.7787152423 -3.5733603765 0.7711394771
| 34> H 3.1795571038 -2.3414469055 1.9781415251
| 35> H 1.298552933 -0.7485429406 -2.3537034621
| 36> H 0.1483046077 0.4288752639 -3.0726721589
| 37> H -4.141608745 1.4377747009 -1.444094209
| 38> H -3.2064129993 2.9536110364 -1.6226788627
| 39> H -1.9338073016 1.9208152731 -3.5100086746
| 40> H -2.8731892212 0.4245887048 -3.3240996491
| 41> H -3.6715804634 1.9134372757 -3.8472667284
| 42> H -0.7569730691 1.314799122 2.4431369133
| 43> H -2.4291700391 1.3791424175 1.8212938284
| 44> H -2.8408609612 -0.911158787 2.7512727615
| 45> H -1.1947502023 -0.9338838922 3.4040169183
| 46> H -2.3722690116 0.2349410381 4.0185181064
| 47> *
| 48>
| 49>                          ****END OF INPUT****

CARTESIAN COORDINATES (ANGSTROEM)
---------------------------------
  C      4.491241    1.863078    0.160446
  C      4.219675    0.718608   -0.794161
  O      3.336101   -0.275679   -0.249512
  P      1.929286    0.009110    0.453075
  S      1.986576    0.688832    2.289438
  O      1.289316   -1.428948    0.276697
  C      1.127521   -2.340711    1.372939
  C      2.426301   -3.062599    1.662976
  S      0.895595    1.186736   -0.979363
  C      0.449857   -0.093686   -2.168386
  S     -0.918882   -1.222584   -1.669937
  P     -2.092725   -0.091258   -0.359010
  S     -3.853679   -0.871247   -0.000989
  O     -2.153120    1.414328   -0.884712
  C     -3.190187    1.872798   -1.768912
  C     -2.892973    1.507643   -3.209463
  O     -1.120407    0.055209    0.897115
  C     -1.602101    0.717882    2.092328
  C     -2.030853   -0.293966    3.134444
  H      3.574482    2.422834    0.345473
  H      4.862101    1.487911    1.111526
  H      5.229719    2.528279   -0.275493
  H      5.130658    0.159357   -1.015153
  H      3.780656    1.095335   -1.722812
  H      0.789996   -1.781397    2.251825
  H      0.340028   -3.022864    1.046485
  H      2.268968   -3.784716    2.457816
  H      2.778715   -3.573360    0.771139
  H      3.179557   -2.341447    1.978142
  H      1.298553   -0.748543   -2.353703
  H      0.148305    0.428875   -3.072672
  H     -4.141609    1.437775   -1.444094
  H     -3.206413    2.953611   -1.622679
  H     -1.933807    1.920815   -3.510009
  H     -2.873189    0.424589   -3.324100
  H     -3.671580    1.913437   -3.847267
  H     -0.756973    1.314799    2.443137
  H     -2.429170    1.379142    1.821294
  H     -2.840861   -0.911159    2.751273
  H     -1.194750   -0.933884    3.404017
  H     -2.372269    0.234941    4.018518

 Total Charge           Charge          ....    0
 Multiplicity           Mult            ....    1
 Number of Electrons    NEL             ....  202
 Basis Dimension        Dim             ....  334

ORBITAL ENERGIES
----------------

  NO   OCC          E(Eh)            E(eV)
   0   2.0000     -88.049747     -2395.9554
   1   2.0000     -88.043355     -2395.7815
   2   2.0000     -87.991697     -2394.3758
   3   2.0000     -87.982473     -2394.1248
   4   2.0000     -76.431076     -2079.7953
   5   2.0000     -76.424309     -2079.6112
   6   2.0000     -18.792740      -511.3765
   7   2.0000     -18.791609      -511.3457
   8   2.0000     -18.790057      -511.3034
   9   2.0000     -18.783702      -511.1305
  10   2.0000      -9.967323      -271.2246
  11   2.0000      -9.958269      -270.9783
  12   2.0000      -9.951029      -270.7813
  13   2.0000      -9.947629      -270.6888
  14   2.0000      -9.940000      -270.4812
  15   2.0000      -9.888669      -269.0844
  16   2.0000      -9.885933      -269.0099
  17   2.0000      -9.880870      -268.8722
  18   2.0000      -9.872253      -268.6377
  19   2.0000      -7.694510      -209.3783
  20   2.0000      -7.688412      -209.2123
  21   2.0000      -7.636612      -207.8028
  22   2.0000      -7.627658      -207.5591
  23   2.0000      -6.427978      -174.9142
  24   2.0000      -6.421808      -174.7463
  25   2.0000      -5.722824      -155.7260
  26   2.0000      -5.718876      -155.6185
  27   2.0000      -5.716986      -155.5671
  28   2.0000      -5.712555      -155.4465
  29   2.0000      -5.711103      -155.4070
  30   2.0000      -5.705027      -155.2417
  31   2.0000      -5.665624      -154.1695
  32   2.0000      -5.657374      -153.9450
  33   2.0000      -5.656560      -153.9228
  34   2.0000      -5.656537      -153.9222
  35   2.0000      -5.648305      -153.6982
  36   2.0000      -5.647792      -153.6842
  37   2.0000      -4.650403      -126.5439
  38   2.0000      -4.650150      -126.5370
  39   2.0000      -4.648358      -126.4882
  40   2.0000      -4.644317      -126.3783
  41   2.0000      -4.643768      -126.3634
  42   2.0000      -4.642192      -126.3205
  43   2.0000      -0.987901       -26.8821
  44   2.0000      -0.981792       -26.7159
  45   2.0000      -0.945173       -25.7195
  46   2.0000      -0.939113       -25.5546
  47   2.0000      -0.766373       -20.8541
  48   2.0000      -0.720960       -19.6183
  49   2.0000      -0.707311       -19.2469
  50   2.0000      -0.687383       -18.7046
  51   2.0000      -0.684320       -18.6213
  52   2.0000      -0.674138       -18.3442
  53   2.0000      -0.658467       -17.9178
  54   2.0000      -0.638309       -17.3693
  55   2.0000      -0.597984       -16.2720
  56   2.0000      -0.592778       -16.1303
  57   2.0000      -0.576867       -15.6973
  58   2.0000      -0.570816       -15.5327
  59   2.0000      -0.560544       -15.2532
  60   2.0000      -0.501488       -13.6462
  61   2.0000      -0.495025       -13.4703
  62   2.0000      -0.471185       -12.8216
  63   2.0000      -0.467322       -12.7165
  64   2.0000      -0.463769       -12.6198
  65   2.0000      -0.442351       -12.0370
  66   2.0000      -0.440070       -11.9749
  67   2.0000      -0.433841       -11.8054
  68   2.0000      -0.424570       -11.5531
  69   2.0000      -0.422750       -11.5036
  70   2.0000      -0.414054       -11.2670
  71   2.0000      -0.401282       -10.9194
  72   2.0000      -0.397429       -10.8146
  73   2.0000      -0.388519       -10.5721
  74   2.0000      -0.375637       -10.2216
  75   2.0000      -0.371531       -10.1099
  76   2.0000      -0.367765       -10.0074
  77   2.0000      -0.357719        -9.7340
  78   2.0000      -0.351511        -9.5651
  79   2.0000      -0.348899        -9.4940
  80   2.0000      -0.348247        -9.4763
  81   2.0000      -0.345578        -9.4037
  82   2.0000      -0.343475        -9.3464
  83   2.0000      -0.336005        -9.1432
  84   2.0000      -0.330783        -9.0011
  85   2.0000      -0.317697        -8.6450
  86   2.0000      -0.309609        -8.4249
  87   2.0000      -0.298577        -8.1247
  88   2.0000      -0.294402        -8.0111
  89   2.0000      -0.292286        -7.9535
  90   2.0000      -0.282868        -7.6972
  91   2.0000      -0.274917        -7.4809
  92   2.0000      -0.270601        -7.3634
  93   2.0000      -0.263931        -7.1819
  94   2.0000      -0.258581        -7.0363
  95   2.0000      -0.228363        -6.2141
  96   2.0000      -0.217577        -5.9206
  97   2.0000      -0.212345        -5.7782
  98   2.0000      -0.206195        -5.6109
  99   2.0000      -0.200396        -5.4531
 100   2.0000      -0.196584        -5.3493
 101   0.0000      -0.045652        -1.2423
 102   0.0000      -0.033876        -0.9218
 103   0.0000      -0.021619        -0.5883
 104   0.0000      -0.001517        -0.0413
 105   0.0000       0.014728         0.4008

MULLIKEN ATOMIC CHARGES
-----------------------
   0 C :   -0.313176
   1 C :    0.000006
   2 O :   -0.374467
   3 P :    0.630417
   4 S :   -0.319633
   5 O :   -0.366681
   6 C :   -0.031079
   7 C :   -0.292964
   8 S :   -0.089306
   9 C :   -0.324978
  10 S :   -0.082076
  11 P :    0.620760
  12 S :   -0.325300
  13 O :   -0.378107
  14 C :   -0.008514
  15 C :   -0.321247
  16 O :   -0.376707
  17 C :   -0.006731
  18 C :   -0.298914
  19 H :    0.121366
  20 H :    0.128399
  21 H :    0.111633
  22 H :    0.107806
  23 H :    0.098873
  24 H :    0.132728
  25 H :    0.107341
  26 H :    0.110764
  27 H :    0.112902
  28 H :    0.118546
  29 H :    0.184240
  30 H :    0.188797
  31 H :    0.112912
  32 H :    0.105153
  33 H :    0.113370
  34 H :    0.128685
  35 H :    0.114985
  36 H :    0.115838
  37 H :    0.095734
  38 H :    0.123429
  39 H :    0.120574
  40 H :    0.104626
Sum of atomic charges:    0.0000000

LOEWDIN ATOMIC CHARGES
----------------------
   0 C :   -0.369752
   1 C :   -0.118481
   2 O :   -0.251406
   3 P :    0.581852
   4 S :   -0.298201
   5 O :   -0.231631
   6 C :   -0.120824
   7 C :   -0.360630
   8 S :    0.104950
   9 C :   -0.468427
  10 S :    0.093384
  11 P :    0.558851
  12 S :   -0.323186
  13 O :   -0.247009
  14 C :   -0.123562
  15 C :   -0.366243
  16 O :   -0.247908
  17 C :   -0.121847
  18 C :   -0.360916
  19 H :    0.118931
  20 H :    0.129559
  21 H :    0.129928
  22 H :    0.120640
  23 H :    0.103785
  24 H :    0.108186
  25 H :    0.118366
  26 H :    0.129829
  27 H :    0.124869
  28 H :    0.122731
  29 H :    0.135809
  30 H :    0.134414
  31 H :    0.108776
  32 H :    0.118252
  33 H :    0.119973
  34 H :    0.123067
  35 H :    0.132395
  36 H :    0.111486
  37 H :    0.106258
  38 H :    0.123051
  39 H :    0.122170
  40 H :    0.128509

  Mayer bond orders larger than 0.100000
B(  0-C ,  1-C ) :   1.1671 B(  0-C , 19-H ) :   0.9353 B(  0-C , 20-H ) :   0.9423
B(  0-C , 21-H ) :   0.9349 B(  1-C ,  2-O ) :   0.9218 B(  1-C , 22-H ) :   0.9335
B(  1-C , 23-H ) :   0.9215 B(  2-O ,  3-P ) :   1.0866 B(  3-P ,  4-S ) :   1.6224
B(  3-P ,  5-O ) :   1.1194 B(  3-P ,  8-S ) :   0.9436 B(  5-O ,  6-C ) :   0.8954
B(  6-C ,  7-C ) :   1.1603 B(  6-C , 24-H ) :   0.9003 B(  6-C , 25-H ) :   0.9308
B(  7-C , 26-H ) :   0.9410 B(  7-C , 27-H ) :   0.9470 B(  7-C , 28-H ) :   0.9391
B(  8-S ,  9-C ) :   1.0201 B(  9-C , 10-S ) :   0.9493 B(  9-C , 29-H ) :   0.9043
B(  9-C , 30-H ) :   0.9023 B( 10-S , 11-P ) :   1.0105 B( 11-P , 12-S ) :   1.6354
B( 11-P , 13-O ) :   1.0642 B( 11-P , 16-O ) :   1.1000 B( 13-O , 14-C ) :   0.9149
B( 14-C , 15-C ) :   1.1631 B( 14-C , 31-H ) :   0.9052 B( 14-C , 32-H ) :   0.9330
B( 15-C , 33-H ) :   0.9424 B( 15-C , 34-H ) :   0.9369 B( 15-C , 35-H ) :   0.9388
B( 16-O , 17-C ) :   0.8796 B( 17-C , 18-C ) :   1.1746 B( 17-C , 36-H ) :   0.9095
B( 17-C , 37-H ) :   0.9112 B( 18-C , 38-H ) :   0.9330 B( 18-C , 39-H ) :   0.9400
B( 18-C , 40-H ) :   0.9395

Dispersion correction           -0.069140329
FINAL SINGLE POINT ENERGY     -2929.513546961678

DIPOLE MOMENT
-------------

Method             : SCF
Type of density    : Electron Density
Multiplicity       :   1
Irrep              :   0
Energy             : -2929.6314798966441231 Eh
Relativity type    :
Basis              : AO
                                X                 Y                 Z
Electronic contribution:     -6.643425144      -1.962033118      -3.013946585
Nuclear contribution   :      7.689670768       2.519546463       2.002841933
                        -----------------------------------------
Total Dipole Moment    :      1.046245624       0.557513345      -1.011104653
                        -----------------------------------------
Magnitude (a.u.)       :      1.558134671
Magnitude (Debye)      :      3.960463591

Rotational constants in cm-1:             0.011923             0.005956             0.005177
Rotational constants in MHz :           357.431264           178.547428           155.192311

                             ****ORCA TERMINATED NORMALLY****
TOTAL RUN TIME: 0 days 0 hours 0 minutes 22 seconds 49 msec
