                         Program Version 6.0.1  -  RELEASE   -
|  1> ! r2scan-3c def2/J RI DEFGRID2 scfconv6 printgap
|  2> %output
|  3>     printlevel normal
|  4> end
|  5> * xyz 0 1
|  6> C 5.2364907203 -3.259258642 -1.7056517879
|  7> C 4.1491239934 -2.7637887142 -0.77191523
|  8> O 3.1210538217 -2.1400879457 -1.5691036361
|  9> C 2.3428361251 -1.2460622332 -1.0066176892
| 10> O 2.4112221269 -0.9073796856 0.1583482693
| 11> C 1.3515875318 -0.658099526 -1.9884287578
| 12> C 0.3070789417 0.1538994945 -1.2335313078
| 13> H -0.2947289189 0.7485378157 -1.928801515
| 14> C 0.999819178 1.1237380921 -0.2911619896
| 15> O 1.9050727431 1.8346864698 -0.6695567469
| 16> O 0.4796805639 1.1575336566 0.9174152746
| 17> C 1.0918169082 2.0637476679 1.8588528408
| 18> C 0.6655379286 1.6860292146 3.2622179295
| 19> S -0.8261100503 -0.9607578515 -0.3446381639
| 20> P -2.2143618601 0.4950523832 0.3427960013
| 21> S -2.1908078565 2.238993147 -0.5480609741
| 22> O -3.6065486253 -0.2863459622 0.1947016008
| 23> C -4.1571820119 -0.5782035435 -1.0942259008
| 24> O -2.1227917894 0.5839651362 1.915489284
| 25> C -2.1779294021 -0.5966359274 2.7420473948
| 26> H 4.8169423495 -3.9561939585 -2.4245162013
| 27> H 5.6796702645 -2.4255906051 -2.242496519
| 28> H 6.0050805818 -3.7596229738 -1.1261292928
| 29> H 4.5256588581 -2.0289167558 -0.053821245
| 30> H 3.6875959701 -3.5885985631 -0.2214296833
| 31> H 0.8924918376 -1.4545687486 -2.5727577778
| 32> H 1.9037185633 0.0022306331 -2.6610832165
| 33> H 2.1755095723 1.9886190343 1.7254061163
| 34> H 0.7737162825 3.0776088925 1.595095257
| 35> H 0.9425677118 0.656151911 3.4684787595
| 36> H 1.1647573602 2.341223401 3.9683749885
| 37> H -0.4093981026 1.7984568717 3.3654573596
| 38> H -4.1765566679 0.3247596753 -1.7064962595
| 39> H -5.1678852268 -0.9315678502 -0.9071271432
| 40> H -3.5631467532 -1.3497012312 -1.5838795616
| 41> H -1.3390514019 -1.2510553785 2.5056683792
| 42> H -3.1183361497 -1.1197600317 2.5814308609
| 43> H -2.1067695149 -0.2350522986 3.7644184151
| 44> *
| 45>
| 46>                          ****END OF INPUT****

CARTESIAN COORDINATES (ANGSTROEM)
---------------------------------
  C      5.236491   -3.259259   -1.705652
  C      4.149124   -2.763789   -0.771915
  O      3.121054   -2.140088   -1.569104
  C      2.342836   -1.246062   -1.006618
  O      2.411222   -0.907380    0.158348
  C      1.351588   -0.658100   -1.988429
  C      0.307079    0.153899   -1.233531
  H     -0.294729    0.748538   -1.928802
  C      0.999819    1.123738   -0.291162
  O      1.905073    1.834686   -0.669557
  O      0.479681    1.157534    0.917415
  C      1.091817    2.063748    1.858853
  C      0.665538    1.686029    3.262218
  S     -0.826110   -0.960758   -0.344638
  P     -2.214362    0.495052    0.342796
  S     -2.190808    2.238993   -0.548061
  O     -3.606549   -0.286346    0.194702
  C     -4.157182   -0.578204   -1.094226
  O     -2.122792    0.583965    1.915489
  C     -2.177929   -0.596636    2.742047
  H      4.816942   -3.956194   -2.424516
  H      5.679670   -2.425591   -2.242497
  H      6.005081   -3.759623   -1.126129
  H      4.525659   -2.028917   -0.053821
  H      3.687596   -3.588599   -0.221430
  H      0.892492   -1.454569   -2.572758
  H      1.903719    0.002231   -2.661083
  H      2.175510    1.988619    1.725406
  H      0.773716    3.077609    1.595095
  H      0.942568    0.656152    3.468479
  H      1.164757    2.341223    3.968375
  H     -0.409398    1.798457    3.365457
  H     -4.176557    0.324760   -1.706496
  H     -5.167885   -0.931568   -0.907127
  H     -3.563147   -1.349701   -1.583880
  H     -1.339051   -1.251055    2.505668
  H     -3.118336   -1.119760    2.581431
  H     -2.106770   -0.235052    3.764418

 Total Charge           Charge          ....    0
 Multiplicity           Mult            ....    1
 Number of Electrons    NEL             ....  174
 Basis Dimension        Dim             ....  510

ORBITAL ENERGIES
----------------

  NO   OCC          E(Eh)            E(eV)
   0   2.0000     -88.571539     -2410.1541
   1   2.0000     -88.516034     -2408.6437
   2   2.0000     -76.911957     -2092.8807
   3   2.0000     -19.010485      -517.3016
   4   2.0000     -18.993314      -516.8343
   5   2.0000     -18.989098      -516.7196
   6   2.0000     -18.988769      -516.7107
   7   2.0000     -18.941700      -515.4299
   8   2.0000     -18.921262      -514.8737
   9   2.0000     -10.166691      -276.6497
  10   2.0000     -10.152087      -276.2523
  11   2.0000     -10.101027      -274.8629
  12   2.0000     -10.096721      -274.7457
  13   2.0000     -10.091303      -274.5983
  14   2.0000     -10.090050      -274.5642
  15   2.0000     -10.081251      -274.3248
  16   2.0000     -10.065766      -273.9034
  17   2.0000     -10.038545      -273.1627
  18   2.0000     -10.022030      -272.7133
  19   2.0000      -7.865948      -214.0433
  20   2.0000      -7.810704      -212.5401
  21   2.0000      -6.590195      -179.3283
  22   2.0000      -5.812713      -158.1720
  23   2.0000      -5.809927      -158.0962
  24   2.0000      -5.803033      -157.9086
  25   2.0000      -5.758597      -156.6994
  26   2.0000      -5.750961      -156.4916
  27   2.0000      -5.750505      -156.4792
  28   2.0000      -4.735902      -128.8704
  29   2.0000      -4.735252      -128.8528
  30   2.0000      -4.733675      -128.8098
  31   2.0000      -1.087853       -29.6020
  32   2.0000      -1.068381       -29.0721
  33   2.0000      -1.049719       -28.5643
  34   2.0000      -1.007143       -27.4057
  35   2.0000      -0.990992       -26.9663
  36   2.0000      -0.971287       -26.4301
  37   2.0000      -0.809240       -22.0205
  38   2.0000      -0.762623       -20.7520
  39   2.0000      -0.736369       -20.0376
  40   2.0000      -0.733522       -19.9601
  41   2.0000      -0.698844       -19.0165
  42   2.0000      -0.675193       -18.3729
  43   2.0000      -0.656464       -17.8633
  44   2.0000      -0.644800       -17.5459
  45   2.0000      -0.623934       -16.9781
  46   2.0000      -0.588558       -16.0155
  47   2.0000      -0.544349       -14.8125
  48   2.0000      -0.539867       -14.6905
  49   2.0000      -0.525324       -14.2948
  50   2.0000      -0.498126       -13.5547
  51   2.0000      -0.492341       -13.3973
  52   2.0000      -0.486696       -13.2437
  53   2.0000      -0.471171       -12.8212
  54   2.0000      -0.457230       -12.4419
  55   2.0000      -0.451318       -12.2810
  56   2.0000      -0.446610       -12.1529
  57   2.0000      -0.435706       -11.8562
  58   2.0000      -0.431826       -11.7506
  59   2.0000      -0.430997       -11.7280
  60   2.0000      -0.427162       -11.6237
  61   2.0000      -0.417745       -11.3674
  62   2.0000      -0.414108       -11.2685
  63   2.0000      -0.395356       -10.7582
  64   2.0000      -0.384173       -10.4539
  65   2.0000      -0.379307       -10.3215
  66   2.0000      -0.370685       -10.0869
  67   2.0000      -0.369559       -10.0562
  68   2.0000      -0.362559        -9.8657
  69   2.0000      -0.353915        -9.6305
  70   2.0000      -0.349082        -9.4990
  71   2.0000      -0.341056        -9.2806
  72   2.0000      -0.335144        -9.1197
  73   2.0000      -0.326506        -8.8847
  74   2.0000      -0.322712        -8.7814
  75   2.0000      -0.319189        -8.6856
  76   2.0000      -0.314137        -8.5481
  77   2.0000      -0.306550        -8.3417
  78   2.0000      -0.285440        -7.7672
  79   2.0000      -0.284566        -7.7434
  80   2.0000      -0.275236        -7.4895
  81   2.0000      -0.263150        -7.1607
  82   2.0000      -0.253603        -6.9009
  83   2.0000      -0.247129        -6.7247
  84   2.0000      -0.220127        -5.9900
  85   2.0000      -0.215000        -5.8504
  86   2.0000      -0.210791        -5.7359
  87   0.0000      -0.041606        -1.1321
  88   0.0000      -0.022829        -0.6212
  89   0.0000      -0.007379        -0.2008
  90   0.0000       0.007718         0.2100
  91   0.0000       0.017231         0.4689

MULLIKEN ATOMIC CHARGES
-----------------------
   0 C :   -0.440365
   1 C :   -0.154437
   2 O :   -0.146841
   3 C :    0.374764
   4 O :   -0.386464
   5 C :   -0.450674
   6 C :    0.022142
   7 H :    0.245630
   8 C :    0.237633
   9 O :   -0.388930
  10 O :   -0.113114
  11 C :   -0.117360
  12 C :   -0.488934
  13 S :   -0.231951
  14 P :    0.786263
  15 S :   -0.444194
  16 O :   -0.346628
  17 C :   -0.299232
  18 O :   -0.313464
  19 C :   -0.302645
  20 H :    0.153123
  21 H :    0.155783
  22 H :    0.149405
  23 H :    0.174850
  24 H :    0.149248
  25 H :    0.189032
  26 H :    0.202138
  27 H :    0.169006
  28 H :    0.158626
  29 H :    0.157683
  30 H :    0.145254
  31 H :    0.165006
  32 H :    0.174820
  33 H :    0.151184
  34 H :    0.157882
  35 H :    0.177983
  36 H :    0.169343
  37 H :    0.158436
Sum of atomic charges:   -0.0000000

LOEWDIN ATOMIC CHARGES
----------------------
   0 C :   -0.384351
   1 C :    0.037116
   2 O :   -0.575946
   3 C :    0.367935
   4 O :   -0.423790
   5 C :   -0.207116
   6 C :   -0.200071
   7 H :    0.207758
   8 C :    0.342852
   9 O :   -0.419498
  10 O :   -0.616914
  11 C :    0.043004
  12 C :   -0.387771
  13 S :    0.204635
  14 P :    0.399342
  15 S :   -0.080139
  16 O :   -0.688989
  17 C :   -0.062151
  18 O :   -0.654564
  19 C :   -0.056279
  20 H :    0.159833
  21 H :    0.160616
  22 H :    0.160665
  23 H :    0.189203
  24 H :    0.176669
  25 H :    0.189454
  26 H :    0.205623
  27 H :    0.191073
  28 H :    0.182606
  29 H :    0.160736
  30 H :    0.158263
  31 H :    0.167344
  32 H :    0.176318
  33 H :    0.176647
  34 H :    0.168483
  35 H :    0.175681
  36 H :    0.175502
  37 H :    0.180222

  Mayer bond orders larger than 0.100000
B(  0-C ,  1-C ) :   0.9523 B(  0-C , 20-H ) :   0.9687 B(  0-C , 21-H ) :   0.9732
B(  0-C , 22-H ) :   0.9674 B(  1-C ,  2-O ) :   0.7685 B(  1-C , 23-H ) :   0.9614
B(  1-C , 24-H ) :   0.9445 B(  2-O ,  3-C ) :   1.1678 B(  3-C ,  4-O ) :   1.7819
B(  3-C ,  5-C ) :   0.9741 B(  4-O ,  8-C ) :   0.1193 B(  5-C ,  6-C ) :   0.9078
B(  5-C ,  9-O ) :   0.1076 B(  5-C , 25-H ) :   0.9766 B(  5-C , 26-H ) :   0.9136
B(  6-C ,  7-H ) :   0.9246 B(  6-C ,  8-C ) :   0.8184 B(  6-C , 13-S ) :   0.8695
B(  8-C ,  9-O ) :   1.8543 B(  8-C , 10-O ) :   1.1715 B( 10-O , 11-C ) :   0.7899
B( 11-C , 12-C ) :   0.9293 B( 11-C , 27-H ) :   0.9633 B( 11-C , 28-H ) :   0.9437
B( 12-C , 29-H ) :   0.9772 B( 12-C , 30-H ) :   0.9665 B( 12-C , 31-H ) :   0.9629
B( 13-S , 14-P ) :   0.9842 B( 14-P , 15-S ) :   1.7960 B( 14-P , 16-O ) :   1.0325
B( 14-P , 18-O ) :   1.1581 B( 16-O , 17-C ) :   0.8320 B( 17-C , 32-H ) :   0.9592
B( 17-C , 33-H ) :   0.9676 B( 17-C , 34-H ) :   0.9565 B( 18-O , 19-C ) :   0.7867
B( 19-C , 35-H ) :   0.9578 B( 19-C , 36-H ) :   0.9588 B( 19-C , 37-H ) :   0.9637

Dispersion correction           -0.017458992
FINAL SINGLE POINT ENERGY     -1981.453754919227

DIPOLE MOMENT
-------------

Method             : SCF
Type of density    : Electron Density
Multiplicity       :   1
Irrep              :   0
Energy             : -1981.4737357033450280 Eh
Relativity type    :
Basis              : AO
                                X                 Y                 Z
Electronic contribution:    -13.451690743       8.888823194      -4.699934118
Nuclear contribution   :     13.723948114     -10.948590544       4.936484434
                        -----------------------------------------
Total Dipole Moment    :      0.272257371      -2.059767349       0.236550315
                        -----------------------------------------
Magnitude (a.u.)       :      2.091105368
Magnitude (Debye)      :      5.315167443

Rotational constants in cm-1:             0.015351             0.006027             0.005445
Rotational constants in MHz :           460.200771           180.697329           163.250267

                             ****ORCA TERMINATED NORMALLY****
TOTAL RUN TIME: 0 days 0 hours 1 minutes 25 seconds 771 msec
