                         Program Version 6.0.1  -  RELEASE   -
|  1> ! r2scan-3c def2/J RI DEFGRID2 scfconv6 printgap
|  2> %output
|  3>     printlevel normal
|  4> end
|  5> %cpcm
|  6>     smd true
|  7>     smdsolvent "water"
|  8> end
|  9> * xyz 0 1
| 10> C 5.2364907203 -3.259258642 -1.7056517879
| 11> C 4.1491239934 -2.7637887142 -0.77191523
| 12> O 3.1210538217 -2.1400879457 -1.5691036361
| 13> C 2.3428361251 -1.2460622332 -1.0066176892
| 14> O 2.4112221269 -0.9073796856 0.1583482693
| 15> C 1.3515875318 -0.658099526 -1.9884287578
| 16> C 0.3070789417 0.1538994945 -1.2335313078
| 17> H -0.2947289189 0.7485378157 -1.928801515
| 18> C 0.999819178 1.1237380921 -0.2911619896
| 19> O 1.9050727431 1.8346864698 -0.6695567469
| 20> O 0.4796805639 1.1575336566 0.9174152746
| 21> C 1.0918169082 2.0637476679 1.8588528408
| 22> C 0.6655379286 1.6860292146 3.2622179295
| 23> S -0.8261100503 -0.9607578515 -0.3446381639
| 24> P -2.2143618601 0.4950523832 0.3427960013
| 25> S -2.1908078565 2.238993147 -0.5480609741
| 26> O -3.6065486253 -0.2863459622 0.1947016008
| 27> C -4.1571820119 -0.5782035435 -1.0942259008
| 28> O -2.1227917894 0.5839651362 1.915489284
| 29> C -2.1779294021 -0.5966359274 2.7420473948
| 30> H 4.8169423495 -3.9561939585 -2.4245162013
| 31> H 5.6796702645 -2.4255906051 -2.242496519
| 32> H 6.0050805818 -3.7596229738 -1.1261292928
| 33> H 4.5256588581 -2.0289167558 -0.053821245
| 34> H 3.6875959701 -3.5885985631 -0.2214296833
| 35> H 0.8924918376 -1.4545687486 -2.5727577778
| 36> H 1.9037185633 0.0022306331 -2.6610832165
| 37> H 2.1755095723 1.9886190343 1.7254061163
| 38> H 0.7737162825 3.0776088925 1.595095257
| 39> H 0.9425677118 0.656151911 3.4684787595
| 40> H 1.1647573602 2.341223401 3.9683749885
| 41> H -0.4093981026 1.7984568717 3.3654573596
| 42> H -4.1765566679 0.3247596753 -1.7064962595
| 43> H -5.1678852268 -0.9315678502 -0.9071271432
| 44> H -3.5631467532 -1.3497012312 -1.5838795616
| 45> H -1.3390514019 -1.2510553785 2.5056683792
| 46> H -3.1183361497 -1.1197600317 2.5814308609
| 47> H -2.1067695149 -0.2350522986 3.7644184151
| 48> *
| 49>
| 50>                          ****END OF INPUT****

CARTESIAN COORDINATES (ANGSTROEM)
---------------------------------
  C      5.236491   -3.259259   -1.705652
  C      4.149124   -2.763789   -0.771915
  O      3.121054   -2.140088   -1.569104
  C      2.342836   -1.246062   -1.006618
  O      2.411222   -0.907380    0.158348
  C      1.351588   -0.658100   -1.988429
  C      0.307079    0.153899   -1.233531
  H     -0.294729    0.748538   -1.928802
  C      0.999819    1.123738   -0.291162
  O      1.905073    1.834686   -0.669557
  O      0.479681    1.157534    0.917415
  C      1.091817    2.063748    1.858853
  C      0.665538    1.686029    3.262218
  S     -0.826110   -0.960758   -0.344638
  P     -2.214362    0.495052    0.342796
  S     -2.190808    2.238993   -0.548061
  O     -3.606549   -0.286346    0.194702
  C     -4.157182   -0.578204   -1.094226
  O     -2.122792    0.583965    1.915489
  C     -2.177929   -0.596636    2.742047
  H      4.816942   -3.956194   -2.424516
  H      5.679670   -2.425591   -2.242497
  H      6.005081   -3.759623   -1.126129
  H      4.525659   -2.028917   -0.053821
  H      3.687596   -3.588599   -0.221430
  H      0.892492   -1.454569   -2.572758
  H      1.903719    0.002231   -2.661083
  H      2.175510    1.988619    1.725406
  H      0.773716    3.077609    1.595095
  H      0.942568    0.656152    3.468479
  H      1.164757    2.341223    3.968375
  H     -0.409398    1.798457    3.365457
  H     -4.176557    0.324760   -1.706496
  H     -5.167885   -0.931568   -0.907127
  H     -3.563147   -1.349701   -1.583880
  H     -1.339051   -1.251055    2.505668
  H     -3.118336   -1.119760    2.581431
  H     -2.106770   -0.235052    3.764418

 Total Charge           Charge          ....    0
 Multiplicity           Mult            ....    1
 Number of Electrons    NEL             ....  174
 Basis Dimension        Dim             ....  510

ORBITAL ENERGIES
----------------

  NO   OCC          E(Eh)            E(eV)
   0   2.0000     -88.577850     -2410.3258
   1   2.0000     -88.529550     -2409.0115
   2   2.0000     -76.920546     -2093.1145
   3   2.0000     -19.010474      -517.3013
   4   2.0000     -19.005875      -517.1761
   5   2.0000     -18.998021      -516.9624
   6   2.0000     -18.993049      -516.8272
   7   2.0000     -18.952274      -515.7176
   8   2.0000     -18.946648      -515.5645
   9   2.0000     -10.173166      -276.8259
  10   2.0000     -10.172831      -276.8168
  11   2.0000     -10.096077      -274.7282
  12   2.0000     -10.087244      -274.4879
  13   2.0000     -10.085942      -274.4524
  14   2.0000     -10.085005      -274.4269
  15   2.0000     -10.080949      -274.3166
  16   2.0000     -10.061065      -273.7755
  17   2.0000     -10.019883      -272.6549
  18   2.0000     -10.018502      -272.6173
  19   2.0000      -7.872201      -214.2135
  20   2.0000      -7.824596      -212.9181
  21   2.0000      -6.598890      -179.5649
  22   2.0000      -5.819018      -158.3435
  23   2.0000      -5.816213      -158.2672
  24   2.0000      -5.809210      -158.0766
  25   2.0000      -5.772352      -157.0737
  26   2.0000      -5.764871      -156.8701
  27   2.0000      -5.764441      -156.8584
  28   2.0000      -4.744543      -129.1056
  29   2.0000      -4.743899      -129.0881
  30   2.0000      -4.742507      -129.0502
  31   2.0000      -1.091037       -29.6886
  32   2.0000      -1.085802       -29.5462
  33   2.0000      -1.054107       -28.6837
  34   2.0000      -1.010600       -27.4998
  35   2.0000      -1.000104       -27.2142
  36   2.0000      -0.994220       -27.0541
  37   2.0000      -0.813395       -22.1336
  38   2.0000      -0.755782       -20.5659
  39   2.0000      -0.738824       -20.1044
  40   2.0000      -0.733795       -19.9676
  41   2.0000      -0.696700       -18.9582
  42   2.0000      -0.670008       -18.2318
  43   2.0000      -0.660064       -17.9612
  44   2.0000      -0.648990       -17.6599
  45   2.0000      -0.619763       -16.8646
  46   2.0000      -0.587376       -15.9833
  47   2.0000      -0.541960       -14.7475
  48   2.0000      -0.538611       -14.6563
  49   2.0000      -0.532607       -14.4930
  50   2.0000      -0.502608       -13.6766
  51   2.0000      -0.491837       -13.3836
  52   2.0000      -0.487404       -13.2629
  53   2.0000      -0.471479       -12.8296
  54   2.0000      -0.466255       -12.6874
  55   2.0000      -0.456354       -12.4180
  56   2.0000      -0.450263       -12.2523
  57   2.0000      -0.449155       -12.2221
  58   2.0000      -0.434110       -11.8127
  59   2.0000      -0.429142       -11.6776
  60   2.0000      -0.426547       -11.6069
  61   2.0000      -0.412801       -11.2329
  62   2.0000      -0.411047       -11.1851
  63   2.0000      -0.397606       -10.8194
  64   2.0000      -0.385799       -10.4981
  65   2.0000      -0.373920       -10.1749
  66   2.0000      -0.369630       -10.0582
  67   2.0000      -0.363296        -9.8858
  68   2.0000      -0.359799        -9.7906
  69   2.0000      -0.353951        -9.6315
  70   2.0000      -0.351932        -9.5766
  71   2.0000      -0.339668        -9.2428
  72   2.0000      -0.334266        -9.0958
  73   2.0000      -0.329127        -8.9560
  74   2.0000      -0.324137        -8.8202
  75   2.0000      -0.317663        -8.6441
  76   2.0000      -0.315427        -8.5832
  77   2.0000      -0.313028        -8.5179
  78   2.0000      -0.288496        -7.8504
  79   2.0000      -0.286301        -7.7907
  80   2.0000      -0.279690        -7.6107
  81   2.0000      -0.278039        -7.5658
  82   2.0000      -0.269015        -7.3203
  83   2.0000      -0.259848        -7.0708
  84   2.0000      -0.235865        -6.4182
  85   2.0000      -0.229372        -6.2415
  86   2.0000      -0.224513        -6.1093
  87   0.0000      -0.048966        -1.3324
  88   0.0000      -0.028127        -0.7654
  89   0.0000      -0.025233        -0.6866
  90   0.0000       0.003247         0.0884
  91   0.0000       0.010046         0.2734

MULLIKEN ATOMIC CHARGES
-----------------------
   0 C :   -0.487215
   1 C :   -0.150349
   2 O :   -0.153665
   3 C :    0.408820
   4 O :   -0.456647
   5 C :   -0.486398
   6 C :    0.041193
   7 H :    0.271275
   8 C :    0.229561
   9 O :   -0.458262
  10 O :   -0.128657
  11 C :   -0.131675
  12 C :   -0.515815
  13 S :   -0.223162
  14 P :    0.806722
  15 S :   -0.501736
  16 O :   -0.374913
  17 C :   -0.306008
  18 O :   -0.350635
  19 C :   -0.305874
  20 H :    0.165535
  21 H :    0.166587
  22 H :    0.170701
  23 H :    0.177411
  24 H :    0.176327
  25 H :    0.225756
  26 H :    0.236560
  27 H :    0.175564
  28 H :    0.178129
  29 H :    0.171274
  30 H :    0.170556
  31 H :    0.170853
  32 H :    0.176345
  33 H :    0.179240
  34 H :    0.174886
  35 H :    0.184666
  36 H :    0.186073
  37 H :    0.186977
Sum of atomic charges:   -0.0000000

LOEWDIN ATOMIC CHARGES
----------------------
   0 C :   -0.387907
   1 C :    0.041797
   2 O :   -0.573481
   3 C :    0.375806
   4 O :   -0.472673
   5 C :   -0.198014
   6 C :   -0.196110
   7 H :    0.216792
   8 C :    0.342983
   9 O :   -0.473504
  10 O :   -0.625013
  11 C :    0.042497
  12 C :   -0.386532
  13 S :    0.217729
  14 P :    0.400869
  15 S :   -0.123451
  16 O :   -0.698483
  17 C :   -0.056192
  18 O :   -0.674128
  19 C :   -0.047188
  20 H :    0.163201
  21 H :    0.162735
  22 H :    0.169105
  23 H :    0.190718
  24 H :    0.186599
  25 H :    0.205228
  26 H :    0.215968
  27 H :    0.193202
  28 H :    0.187241
  29 H :    0.165276
  30 H :    0.168276
  31 H :    0.169068
  32 H :    0.177191
  33 H :    0.188586
  34 H :    0.176021
  35 H :    0.180162
  36 H :    0.183298
  37 H :    0.192326

  Mayer bond orders larger than 0.100000
B(  0-C ,  1-C ) :   0.9453 B(  0-C , 20-H ) :   0.9661 B(  0-C , 21-H ) :   0.9724
B(  0-C , 22-H ) :   0.9613 B(  1-C ,  2-O ) :   0.7575 B(  1-C , 23-H ) :   0.9568
B(  1-C , 24-H ) :   0.9354 B(  2-O ,  3-C ) :   1.1874 B(  3-C ,  4-O ) :   1.7264
B(  3-C ,  5-C ) :   0.9494 B(  4-O ,  8-C ) :   0.1204 B(  5-C ,  6-C ) :   0.8831
B(  5-C , 25-H ) :   0.9640 B(  5-C , 26-H ) :   0.9227 B(  6-C ,  7-H ) :   0.9117
B(  6-C ,  8-C ) :   0.8181 B(  6-C , 13-S ) :   0.8650 B(  8-C ,  9-O ) :   1.7966
B(  8-C , 10-O ) :   1.1808 B( 10-O , 11-C ) :   0.7712 B( 11-C , 12-C ) :   0.9324
B( 11-C , 27-H ) :   0.9529 B( 11-C , 28-H ) :   0.9373 B( 12-C , 29-H ) :   0.9734
B( 12-C , 30-H ) :   0.9600 B( 12-C , 31-H ) :   0.9593 B( 13-S , 14-P ) :   0.9994
B( 14-P , 15-S ) :   1.7681 B( 14-P , 16-O ) :   1.0408 B( 14-P , 18-O ) :   1.1610
B( 16-O , 17-C ) :   0.8244 B( 17-C , 32-H ) :   0.9553 B( 17-C , 33-H ) :   0.9573
B( 17-C , 34-H ) :   0.9498 B( 18-O , 19-C ) :   0.7779 B( 19-C , 35-H ) :   0.9493
B( 19-C , 36-H ) :   0.9504 B( 19-C , 37-H ) :   0.9531

Dispersion correction           -0.017458992
FINAL SINGLE POINT ENERGY     -1981.470000779256

DIPOLE MOMENT
-------------

Method             : SCF
Type of density    : Electron Density
Multiplicity       :   1
Irrep              :   0
Energy             : -1981.4899815633743856 Eh
Relativity type    :
Basis              : AO
                                X                 Y                 Z
Electronic contribution:    -13.578193783       8.021612976      -4.793182052
Nuclear contribution   :     13.723948114     -10.948590544       4.936484434
                        -----------------------------------------
Total Dipole Moment    :      0.145754331      -2.926977567       0.143302382
                        -----------------------------------------
Magnitude (a.u.)       :      2.934105925
Magnitude (Debye)      :      7.457904571

Rotational constants in cm-1:             0.015351             0.006027             0.005445
Rotational constants in MHz :           460.200771           180.697329           163.250267

                             ****ORCA TERMINATED NORMALLY****
TOTAL RUN TIME: 0 days 0 hours 1 minutes 49 seconds 357 msec
