                         Program Version 6.0.0  -   RELEASE  -
|  1> ! pbe def2-sv(p) def2/J RI DEFGRID1 loosescf d4 GCP(DFT/SV(P)) printgap
|  2> %output
|  3>     printlevel normal
|  4> end
|  5> * xyz 0 1
|  6> C -1.749307668 -0.6616628191 -3.00289e-05
|  7> C -0.4654762324 0.1103995557 -0.000706289
|  8> O -0.3754296812 1.3210273356 0.0003576513
|  9> O 0.5937468223 -0.6933286347 0.0006503104
| 10> C 1.8887011734 -0.0883230518 -0.0003422004
| 11> H -1.5400809817 -1.7256694872 0.001305152
| 12> H -2.3273553634 -0.3876272937 -0.8788678792
| 13> H -2.3281308113 -0.3853534649 0.8775521442
| 14> H 2.0634636857 0.4122708632 -0.9533286681
| 15> H 2.5930363932 -0.9009741314 0.146327058
| 16> H 1.9592794523 0.6450497954 0.8038642004
| 17> *
| 18>
| 19>                          ****END OF INPUT****

CARTESIAN COORDINATES (ANGSTROEM)
---------------------------------
  C     -1.749308   -0.661663   -0.000030
  C     -0.465476    0.110400   -0.000706
  O     -0.375430    1.321027    0.000358
  O      0.593747   -0.693329    0.000650
  C      1.888701   -0.088323   -0.000342
  H     -1.540081   -1.725669    0.001305
  H     -2.327355   -0.387627   -0.878868
  H     -2.328131   -0.385353    0.877552
  H      2.063464    0.412271   -0.953329
  H      2.593036   -0.900974    0.146327
  H      1.959279    0.645050    0.803864

 Total Charge           Charge          ....    0
 Multiplicity           Mult            ....    1
 Number of Electrons    NEL             ....   40
 Basis Dimension        Dim             ....   82

ORBITAL ENERGIES
----------------

  NO   OCC          E(Eh)            E(eV)
   0   2.0000     -18.800003      -511.5741
   1   2.0000     -18.731449      -509.7086
   2   2.0000     -10.004862      -272.2461
   3   2.0000      -9.940307      -270.4895
   4   2.0000      -9.891935      -269.1732
   5   2.0000      -1.004644       -27.3378
   6   2.0000      -0.907113       -24.6838
   7   2.0000      -0.696172       -18.9438
   8   2.0000      -0.633373       -17.2350
   9   2.0000      -0.509176       -13.8554
  10   2.0000      -0.441650       -12.0179
  11   2.0000      -0.438307       -11.9269
  12   2.0000      -0.415040       -11.2938
  13   2.0000      -0.387209       -10.5365
  14   2.0000      -0.364674        -9.9233
  15   2.0000      -0.358042        -9.7428
  16   2.0000      -0.323480        -8.8023
  17   2.0000      -0.302247        -8.2246
  18   2.0000      -0.257260        -7.0004
  19   2.0000      -0.217277        -5.9124
  20   0.0000      -0.018975        -0.5163
  21   0.0000       0.049638         1.3507
  22   0.0000       0.064011         1.7418
  23   0.0000       0.092636         2.5208
  24   0.0000       0.098716         2.6862

MULLIKEN ATOMIC CHARGES
-----------------------
   0 C :   -0.254432
   1 C :    0.074901
   2 O :   -0.217355
   3 O :   -0.239648
   4 C :   -0.111852
   5 H :    0.117502
   6 H :    0.134894
   7 H :    0.134764
   8 H :    0.118808
   9 H :    0.121052
  10 H :    0.121366
Sum of atomic charges:   -0.0000000

LOEWDIN ATOMIC CHARGES
----------------------
   0 C :   -0.360122
   1 C :    0.026989
   2 O :   -0.175627
   3 O :   -0.077178
   4 C :   -0.204393
   5 H :    0.134204
   6 H :    0.147956
   7 H :    0.148032
   8 H :    0.119415
   9 H :    0.120405
  10 H :    0.120319

  Mayer bond orders larger than 0.100000
B(  0-C ,  1-C ) :   1.0833 B(  0-C ,  5-H ) :   0.9385 B(  0-C ,  6-H ) :   0.9308
B(  0-C ,  7-H ) :   0.9302 B(  1-C ,  2-O ) :   2.0530 B(  1-C ,  3-O ) :   1.2199
B(  3-O ,  4-C ) :   0.9400 B(  4-C ,  8-H ) :   0.9551 B(  4-C ,  9-H ) :   0.9593
B(  4-C , 10-H ) :   0.9484

Dispersion correction           -0.006307881
FINAL SINGLE POINT ENERGY      -267.813362406521

DIPOLE MOMENT
-------------

Method             : SCF
Type of density    : Electron Density
Multiplicity       :   1
Irrep              :   0
Energy             :  -267.8573192335315412 Eh
Relativity type    :
Basis              : AO
                                X                 Y                 Z
Electronic contribution:     -0.154125235       1.528642940       0.001799368
Nuclear contribution   :      0.397473526      -2.188167967      -0.002938398
                        -----------------------------------------
Total Dipole Moment    :      0.243348291      -0.659525027      -0.001139030
                        -----------------------------------------
Magnitude (a.u.)       :      0.702988584
Magnitude (Debye)      :      1.786854977

Rotational constants in cm-1:             0.344381             0.138735             0.102683
Rotational constants in MHz :         10324.288324          4159.171581          3078.347102

                             ****ORCA TERMINATED NORMALLY****
TOTAL RUN TIME: 0 days 0 hours 0 minutes 4 seconds 689 msec
