                         Program Version 6.0.0  -   RELEASE  -
|  1> ! pbe def2-sv(p) def2/J RI DEFGRID1 loosescf d4 GCP(DFT/SV(P)) printgap
|  2> %output
|  3>     printlevel normal
|  4> end
|  5> * xyz 0 1
|  6> C 4.6247463595 2.592151122 -0.6269280193
|  7> C 3.2406121769 2.0141844444 -0.4118873932
|  8> O 3.3934230319 0.6743904513 0.1014540421
|  9> P 2.2266351114 -0.0490285553 0.8956294491
| 10> S 1.4402856446 0.957903128 2.373016098
| 11> O 2.8873170026 -1.3890125903 1.3934939887
| 12> C 3.6602082417 -2.272694304 0.5412748075
| 13> C 5.1386378331 -1.960654804 0.6450038082
| 14> S 0.9012314276 -0.6471084721 -0.6784404369
| 15> C -0.3161317736 -1.4542832505 0.3980491231
| 16> S -1.6226505865 -0.3439739621 0.9767026429
| 17> P -2.5350678219 -0.0616144734 -0.9345837386
| 18> S -2.4372749537 -1.5712163051 -2.1695138402
| 19> O -1.8812699333 1.2396497835 -1.5401675867
| 20> C -1.9193821253 2.5342030791 -0.8828079031
| 21> C -0.5143780132 2.9691059772 -0.5196404128
| 22> O -3.9982338415 0.4525877393 -0.5766368988
| 23> C -5.1079514466 -0.4403635336 -0.369423561
| 24> C -4.9308387611 -1.3094079225 0.858643088
| 25> H 5.164763251 2.6271280581 0.31507139
| 26> H 5.1805031965 1.9799502534 -1.3312907985
| 27> H 4.5313931909 3.5980845827 -1.0225259451
| 28> H 2.6821848806 1.9534125609 -1.3495576556
| 29> H 2.6693376084 2.6032810781 0.3126764691
| 30> H 3.4381853067 -3.2733825156 0.916472241
| 31> H 3.3037536972 -2.1740771485 -0.4876586155
| 32> H 5.3408094065 -0.9619622533 0.2682126424
| 33> H 5.4582807158 -2.0159033352 1.6819955559
| 34> H 5.6953595059 -2.6852327886 0.0588856061
| 35> H 0.179588694 -1.8430888228 1.2854709225
| 36> H -0.7666483079 -2.2521624126 -0.1925897315
| 37> H -2.3670954761 3.2100000366 -1.6131124209
| 38> H -2.5577975799 2.4721826911 0.0008864111
| 39> H 0.1254234655 2.923147933 -1.3968193834
| 40> H -0.5422862626 3.9876518926 -0.146280062
| 41> H -0.101024816 2.3268004314 0.2562274292
| 42> H -5.962429829 0.2304139405 -0.2689726058
| 43> H -5.2219683107 -1.058939291 -1.2648178919
| 44> H -5.8470902089 -1.8618944692 1.0402975248
| 45> H -4.1185031822 -2.0170629054 0.7001694945
| 46> H -4.6992084576 -0.6977948808 1.7272531708
| 47> *
| 48>
| 49>                          ****END OF INPUT****

CARTESIAN COORDINATES (ANGSTROEM)
---------------------------------
  C      4.624746    2.592151   -0.626928
  C      3.240612    2.014184   -0.411887
  O      3.393423    0.674390    0.101454
  P      2.226635   -0.049029    0.895629
  S      1.440286    0.957903    2.373016
  O      2.887317   -1.389013    1.393494
  C      3.660208   -2.272694    0.541275
  C      5.138638   -1.960655    0.645004
  S      0.901231   -0.647108   -0.678440
  C     -0.316132   -1.454283    0.398049
  S     -1.622651   -0.343974    0.976703
  P     -2.535068   -0.061614   -0.934584
  S     -2.437275   -1.571216   -2.169514
  O     -1.881270    1.239650   -1.540168
  C     -1.919382    2.534203   -0.882808
  C     -0.514378    2.969106   -0.519640
  O     -3.998234    0.452588   -0.576637
  C     -5.107951   -0.440364   -0.369424
  C     -4.930839   -1.309408    0.858643
  H      5.164763    2.627128    0.315071
  H      5.180503    1.979950   -1.331291
  H      4.531393    3.598085   -1.022526
  H      2.682185    1.953413   -1.349558
  H      2.669338    2.603281    0.312676
  H      3.438185   -3.273383    0.916472
  H      3.303754   -2.174077   -0.487659
  H      5.340809   -0.961962    0.268213
  H      5.458281   -2.015903    1.681996
  H      5.695360   -2.685233    0.058886
  H      0.179589   -1.843089    1.285471
  H     -0.766648   -2.252162   -0.192590
  H     -2.367095    3.210000   -1.613112
  H     -2.557798    2.472183    0.000886
  H      0.125423    2.923148   -1.396819
  H     -0.542286    3.987652   -0.146280
  H     -0.101025    2.326800    0.256227
  H     -5.962430    0.230414   -0.268973
  H     -5.221968   -1.058939   -1.264818
  H     -5.847090   -1.861894    1.040298
  H     -4.118503   -2.017063    0.700169
  H     -4.699208   -0.697795    1.727253

 Total Charge           Charge          ....    0
 Multiplicity           Mult            ....    1
 Number of Electrons    NEL             ....  202
 Basis Dimension        Dim             ....  334

ORBITAL ENERGIES
----------------

  NO   OCC          E(Eh)            E(eV)
   0   2.0000     -88.040741     -2395.7104
   1   2.0000     -88.038183     -2395.6408
   2   2.0000     -87.986240     -2394.2273
   3   2.0000     -87.985426     -2394.2052
   4   2.0000     -76.428221     -2079.7176
   5   2.0000     -76.423383     -2079.5860
   6   2.0000     -18.800142      -511.5779
   7   2.0000     -18.797815      -511.5145
   8   2.0000     -18.791702      -511.3482
   9   2.0000     -18.785479      -511.1789
  10   2.0000      -9.959758      -271.0188
  11   2.0000      -9.959268      -271.0055
  12   2.0000      -9.954180      -270.8670
  13   2.0000      -9.952653      -270.8255
  14   2.0000      -9.951296      -270.7885
  15   2.0000      -9.893899      -269.2267
  16   2.0000      -9.889025      -269.0940
  17   2.0000      -9.882894      -268.9272
  18   2.0000      -9.877082      -268.7691
  19   2.0000      -7.685332      -209.1285
  20   2.0000      -7.682876      -209.0617
  21   2.0000      -7.631332      -207.6591
  22   2.0000      -7.630770      -207.6438
  23   2.0000      -6.425746      -174.8534
  24   2.0000      -6.420925      -174.7222
  25   2.0000      -5.712951      -155.4573
  26   2.0000      -5.710573      -155.3926
  27   2.0000      -5.710013      -155.3774
  28   2.0000      -5.707596      -155.3116
  29   2.0000      -5.702482      -155.1724
  30   2.0000      -5.699882      -155.1017
  31   2.0000      -5.660341      -154.0257
  32   2.0000      -5.659685      -154.0079
  33   2.0000      -5.651959      -153.7976
  34   2.0000      -5.651395      -153.7823
  35   2.0000      -5.651270      -153.7789
  36   2.0000      -5.650992      -153.7713
  37   2.0000      -4.648848      -126.5016
  38   2.0000      -4.647512      -126.4652
  39   2.0000      -4.645677      -126.4153
  40   2.0000      -4.643792      -126.3640
  41   2.0000      -4.642531      -126.3297
  42   2.0000      -4.641284      -126.2958
  43   2.0000      -0.994358       -27.0578
  44   2.0000      -0.984857       -26.7993
  45   2.0000      -0.952218       -25.9112
  46   2.0000      -0.940738       -25.5988
  47   2.0000      -0.761399       -20.7187
  48   2.0000      -0.723567       -19.6892
  49   2.0000      -0.710471       -19.3329
  50   2.0000      -0.697810       -18.9884
  51   2.0000      -0.686385       -18.6775
  52   2.0000      -0.673125       -18.3167
  53   2.0000      -0.649646       -17.6778
  54   2.0000      -0.637704       -17.3528
  55   2.0000      -0.594232       -16.1699
  56   2.0000      -0.591439       -16.0939
  57   2.0000      -0.575081       -15.6487
  58   2.0000      -0.570745       -15.5308
  59   2.0000      -0.559997       -15.2383
  60   2.0000      -0.514250       -13.9934
  61   2.0000      -0.499485       -13.5917
  62   2.0000      -0.487572       -13.2675
  63   2.0000      -0.470137       -12.7931
  64   2.0000      -0.458415       -12.4741
  65   2.0000      -0.449835       -12.2406
  66   2.0000      -0.440212       -11.9788
  67   2.0000      -0.439501       -11.9594
  68   2.0000      -0.432664       -11.7734
  69   2.0000      -0.420995       -11.4559
  70   2.0000      -0.407742       -11.0952
  71   2.0000      -0.395172       -10.7532
  72   2.0000      -0.389516       -10.5993
  73   2.0000      -0.386387       -10.5141
  74   2.0000      -0.372730       -10.1425
  75   2.0000      -0.369998       -10.0682
  76   2.0000      -0.365735        -9.9522
  77   2.0000      -0.360957        -9.8221
  78   2.0000      -0.357229        -9.7207
  79   2.0000      -0.355094        -9.6626
  80   2.0000      -0.351584        -9.5671
  81   2.0000      -0.349319        -9.5055
  82   2.0000      -0.343331        -9.3425
  83   2.0000      -0.336341        -9.1523
  84   2.0000      -0.334562        -9.1039
  85   2.0000      -0.322089        -8.7645
  86   2.0000      -0.310937        -8.4610
  87   2.0000      -0.305463        -8.3121
  88   2.0000      -0.297767        -8.1027
  89   2.0000      -0.297589        -8.0978
  90   2.0000      -0.292456        -7.9581
  91   2.0000      -0.277885        -7.5616
  92   2.0000      -0.269100        -7.3226
  93   2.0000      -0.262619        -7.1462
  94   2.0000      -0.258038        -7.0216
  95   2.0000      -0.234711        -6.3868
  96   2.0000      -0.214708        -5.8425
  97   2.0000      -0.211393        -5.7523
  98   2.0000      -0.205368        -5.5883
  99   2.0000      -0.200900        -5.4668
 100   2.0000      -0.193599        -5.2681
 101   0.0000      -0.040374        -1.0986
 102   0.0000      -0.028089        -0.7643
 103   0.0000      -0.004428        -0.1205
 104   0.0000       0.005841         0.1589
 105   0.0000       0.013976         0.3803

MULLIKEN ATOMIC CHARGES
-----------------------
   0 C :   -0.280933
   1 C :   -0.030529
   2 O :   -0.383381
   3 P :    0.585602
   4 S :   -0.303493
   5 O :   -0.359108
   6 C :   -0.011517
   7 C :   -0.294606
   8 S :   -0.080875
   9 C :   -0.359028
  10 S :   -0.072236
  11 P :    0.596148
  12 S :   -0.319752
  13 O :   -0.354289
  14 C :   -0.004619
  15 C :   -0.316076
  16 O :   -0.382452
  17 C :    0.000506
  18 C :   -0.316161
  19 H :    0.123403
  20 H :    0.118072
  21 H :    0.114771
  22 H :    0.115935
  23 H :    0.117225
  24 H :    0.109641
  25 H :    0.104362
  26 H :    0.124722
  27 H :    0.120691
  28 H :    0.111501
  29 H :    0.185993
  30 H :    0.194492
  31 H :    0.106838
  32 H :    0.106203
  33 H :    0.112537
  34 H :    0.103442
  35 H :    0.141473
  36 H :    0.104904
  37 H :    0.112488
  38 H :    0.112851
  39 H :    0.126068
  40 H :    0.119187
Sum of atomic charges:   -0.0000000

LOEWDIN ATOMIC CHARGES
----------------------
   0 C :   -0.350286
   1 C :   -0.118269
   2 O :   -0.247227
   3 P :    0.564560
   4 S :   -0.306683
   5 O :   -0.237401
   6 C :   -0.115277
   7 C :   -0.359932
   8 S :    0.072020
   9 C :   -0.483241
  10 S :    0.086984
  11 P :    0.568296
  12 S :   -0.312144
  13 O :   -0.238082
  14 C :   -0.109477
  15 C :   -0.367746
  16 O :   -0.250193
  17 C :   -0.115466
  18 C :   -0.370924
  19 H :    0.130220
  20 H :    0.126557
  21 H :    0.132527
  22 H :    0.113218
  23 H :    0.112540
  24 H :    0.121049
  25 H :    0.105567
  26 H :    0.126136
  27 H :    0.129141
  28 H :    0.130530
  29 H :    0.132563
  30 H :    0.128386
  31 H :    0.119148
  32 H :    0.109112
  33 H :    0.121902
  34 H :    0.127200
  35 H :    0.117241
  36 H :    0.118706
  37 H :    0.112841
  38 H :    0.130912
  39 H :    0.120842
  40 H :    0.124151

  Mayer bond orders larger than 0.100000
B(  0-C ,  1-C ) :   1.1597 B(  0-C , 19-H ) :   0.9500 B(  0-C , 20-H ) :   0.9500
B(  0-C , 21-H ) :   0.9412 B(  1-C ,  2-O ) :   0.9035 B(  1-C , 22-H ) :   0.9273
B(  1-C , 23-H ) :   0.9083 B(  2-O ,  3-P ) :   1.0797 B(  3-P ,  4-S ) :   1.6548
B(  3-P ,  5-O ) :   1.1260 B(  3-P ,  8-S ) :   0.9605 B(  4-S ,  8-S ) :   0.1108
B(  5-O ,  6-C ) :   0.8899 B(  6-C ,  7-C ) :   1.1664 B(  6-C , 24-H ) :   0.9358
B(  6-C , 25-H ) :   0.9100 B(  7-C , 26-H ) :   0.9412 B(  7-C , 27-H ) :   0.9468
B(  7-C , 28-H ) :   0.9395 B(  8-S ,  9-C ) :   0.9902 B(  9-C , 10-S ) :   1.0136
B(  9-C , 29-H ) :   0.8916 B(  9-C , 30-H ) :   0.8737 B( 10-S , 11-P ) :   0.9461
B( 10-S , 12-S ) :   0.1105 B( 11-P , 12-S ) :   1.6208 B( 11-P , 13-O ) :   1.1458
B( 11-P , 16-O ) :   1.0880 B( 13-O , 14-C ) :   0.8889 B( 14-C , 15-C ) :   1.1658
B( 14-C , 31-H ) :   0.9342 B( 14-C , 32-H ) :   0.9180 B( 15-C , 33-H ) :   0.9414
B( 15-C , 34-H ) :   0.9374 B( 15-C , 35-H ) :   0.9194 B( 16-O , 17-C ) :   0.9078
B( 17-C , 18-C ) :   1.1660 B( 17-C , 36-H ) :   0.9347 B( 17-C , 37-H ) :   0.9192
B( 18-C , 38-H ) :   0.9369 B( 18-C , 39-H ) :   0.9351 B( 18-C , 40-H ) :   0.9435

Dispersion correction           -0.064037781
FINAL SINGLE POINT ENERGY     -2929.521619923884

DIPOLE MOMENT
-------------

Method             : SCF
Type of density    : Electron Density
Multiplicity       :   1
Irrep              :   0
Energy             : -2929.6419141770520582 Eh
Relativity type    :
Basis              : AO
                                X                 Y                 Z
Electronic contribution:    -10.648226294      -6.468474020       0.329310983
Nuclear contribution   :     11.200489693       6.793174765      -0.467402163
                        -----------------------------------------
Total Dipole Moment    :      0.552263400       0.324700744      -0.138091180
                        -----------------------------------------
Magnitude (a.u.)       :      0.655358383
Magnitude (Debye)      :      1.665788626

Rotational constants in cm-1:             0.013411             0.004459             0.004106
Rotational constants in MHz :           402.037187           133.664104           123.090617

                             ****ORCA TERMINATED NORMALLY****
TOTAL RUN TIME: 0 days 0 hours 0 minutes 20 seconds 769 msec
