                         Program Version 6.0.0  -   RELEASE  -
|  1> ! pbe def2-sv(p) def2/J RI DEFGRID1 loosescf d4 GCP(DFT/SV(P)) printgap
|  2> %output
|  3>     printlevel normal
|  4> end
|  5> * xyz 0 1
|  6> C -1.8372246111 -0.6343268042 -0.1313664179
|  7> C -1.3617301483 0.533724815 0.2535114604
|  8> C 0.0702738525 0.9430663001 0.325918455
|  9> Cl 1.2166485318 -0.3439364867 -0.1799374264
| 10> H -2.8936292456 -0.8333447757 -0.148625192
| 11> H -1.1910201894 -1.4371064392 -0.4438680022
| 12> H -2.0291888612 1.3268642384 0.563538568
| 13> H 0.2594295763 1.7941506896 -0.3297778154
| 14> H 0.3421756181 1.2080319457 1.3486100814
| 15> *
| 16>
| 17>                          ****END OF INPUT****

CARTESIAN COORDINATES (ANGSTROEM)
---------------------------------
  C     -1.837225   -0.634327   -0.131366
  C     -1.361730    0.533725    0.253511
  C      0.070274    0.943066    0.325918
  Cl     1.216649   -0.343936   -0.179937
  H     -2.893629   -0.833345   -0.148625
  H     -1.191020   -1.437106   -0.443868
  H     -2.029189    1.326864    0.563539
  H      0.259430    1.794151   -0.329778
  H      0.342176    1.208032    1.348610

 Total Charge           Charge          ....    0
 Multiplicity           Mult            ....    1
 Number of Electrons    NEL             ....   40
 Basis Dimension        Dim             ....   70

ORBITAL ENERGIES
----------------

  NO   OCC          E(Eh)            E(eV)
   0   2.0000    -100.622108     -2738.0668
   1   2.0000      -9.949274      -270.7335
   2   2.0000      -9.904139      -269.5053
   3   2.0000      -9.886792      -269.0333
   4   2.0000      -9.157660      -249.1926
   5   2.0000      -6.989364      -190.1903
   6   2.0000      -6.977374      -189.8640
   7   2.0000      -6.977086      -189.8562
   8   2.0000      -0.781595       -21.2683
   9   2.0000      -0.695191       -18.9171
  10   2.0000      -0.612257       -16.6604
  11   2.0000      -0.497220       -13.5300
  12   2.0000      -0.437727       -11.9112
  13   2.0000      -0.416783       -11.3412
  14   2.0000      -0.394567       -10.7367
  15   2.0000      -0.353592        -9.6217
  16   2.0000      -0.318446        -8.6654
  17   2.0000      -0.253412        -6.8957
  18   2.0000      -0.252493        -6.8707
  19   2.0000      -0.237446        -6.4612
  20   0.0000      -0.023616        -0.6426
  21   0.0000       0.008652         0.2354
  22   0.0000       0.043500         1.1837
  23   0.0000       0.083998         2.2857
  24   0.0000       0.094574         2.5735

MULLIKEN ATOMIC CHARGES
-----------------------
   0 C :   -0.176095
   1 C :   -0.157083
   2 C :   -0.113691
   3 Cl:   -0.147278
   4 H :    0.103789
   5 H :    0.107842
   6 H :    0.088345
   7 H :    0.147086
   8 H :    0.147085
Sum of atomic charges:   -0.0000000

LOEWDIN ATOMIC CHARGES
----------------------
   0 C :   -0.250462
   1 C :   -0.167485
   2 C :   -0.267995
   3 Cl:    0.036891
   4 H :    0.126438
   5 H :    0.121395
   6 H :    0.128946
   7 H :    0.136134
   8 H :    0.136138

  Mayer bond orders larger than 0.100000
B(  0-C ,  1-C ) :   2.0988 B(  0-C ,  4-H ) :   0.9219 B(  0-C ,  5-H ) :   0.9015
B(  1-C ,  2-C ) :   1.0677 B(  1-C ,  6-H ) :   0.9209 B(  2-C ,  3-Cl) :   1.0489
B(  2-C ,  7-H ) :   0.9137 B(  2-C ,  8-H ) :   0.9137

Dispersion correction           -0.006152019
FINAL SINGLE POINT ENERGY      -576.873820949556

DIPOLE MOMENT
-------------

Method             : SCF
Type of density    : Electron Density
Multiplicity       :   1
Irrep              :   0
Energy             :  -576.9012121376538289 Eh
Relativity type    :
Basis              : AO
                                X                 Y                 Z
Electronic contribution:      6.411708576      -1.875250900      -0.970064735
Nuclear contribution   :     -6.804394692       2.392945878       1.170185957
                        -----------------------------------------
Total Dipole Moment    :     -0.392686116       0.517694977       0.200121222
                        -----------------------------------------
Magnitude (a.u.)       :      0.679896300
Magnitude (Debye)      :      1.728159056

Rotational constants in cm-1:             0.453506             0.127446             0.101398
Rotational constants in MHz :         13595.777743          3820.747758          3039.849341

                             ****ORCA TERMINATED NORMALLY****
TOTAL RUN TIME: 0 days 0 hours 0 minutes 4 seconds 463 msec
