                         Program Version 6.0.0  -   RELEASE  -
|  1> ! pbe def2-sv(p) def2/J RI DEFGRID1 loosescf d4 GCP(DFT/SV(P)) printgap
|  2> %output
|  3>     printlevel normal
|  4> end
|  5> * xyz 0 1
|  6> C 5.4671512507 -1.8278729326 -1.8119393413
|  7> C 4.3643302006 -0.7896891078 -1.7584691436
|  8> O 3.3380207656 -1.2737681548 -0.8690972367
|  9> P 2.3544838748 -0.2949381212 -0.0953311048
| 10> S 3.2360385074 1.245146406 0.7454942276
| 11> O 1.6094043438 -1.3074681545 0.862941833
| 12> C 2.0693672076 -1.5737072072 2.2128026143
| 13> C 1.2346662733 -0.8023749607 3.2144157776
| 14> S 0.8502153489 0.1351924506 -1.5131280369
| 15> C 0.1300272679 1.5377219853 -0.6103391903
| 16> S -0.890631647 1.018498079 0.7829851879
| 17> P -2.5147093115 0.2647315748 -0.3827763162
| 18> S -2.8398810563 1.174498998 -2.0845274685
| 19> O -3.7519906128 0.2575197553 0.6145332697
| 20> C -4.6265000549 1.388835245 0.7673697425
| 21> C -3.93096881 2.5731998322 1.4071636754
| 22> O -2.2339245035 -1.2695965074 -0.6093772343
| 23> C -1.6771290429 -2.2157167906 0.3345307482
| 24> C -2.4032840745 -2.2242084066 1.6621378758
| 25> H 5.9076247478 -1.957678558 -0.8273895076
| 26> H 5.0635325053 -2.7792630354 -2.1460140734
| 27> H 6.2329534804 -1.4975746163 -2.5060346269
| 28> H 3.9127440392 -0.6347672957 -2.741677551
| 29> H 4.7349849923 0.1683839196 -1.3779813905
| 30> H 1.9571813623 -2.6516522235 2.3360995366
| 31> H 3.1248215366 -1.3008406218 2.2919054594
| 32> H 0.1834909001 -1.0494775503 3.1004910215
| 33> H 1.5592271176 -1.0559643684 4.2183375912
| 34> H 1.3579471427 0.2675680986 3.0597711022
| 35> H -0.4849280267 2.0832759929 -1.3268445299
| 36> H 0.9317913914 2.1600342069 -0.2115594206
| 37> H -5.0169034041 1.6597053036 -0.2186079858
| 38> H -5.4339377032 1.008997765 1.3948622375
| 39> H -3.1820473017 2.9773947436 0.7279115936
| 40> H -4.6631623297 3.3455660353 1.6195938144
| 41> H -3.4429139259 2.2741945754 2.3312057779
| 42> H -1.7757038583 -3.1696834827 -0.1860466199
| 43> H -0.6172660223 -1.9812815233 0.4661845154
| 44> H -3.4643696457 -2.4030007662 1.5092014084
| 45> H -1.9919838291 -3.0127186309 2.2853270476
| 46> H -2.2796165582 -1.2672380768 2.1660346577
| 47> *
| 48>
| 49>                          ****END OF INPUT****

CARTESIAN COORDINATES (ANGSTROEM)
---------------------------------
  C      5.467151   -1.827873   -1.811939
  C      4.364330   -0.789689   -1.758469
  O      3.338021   -1.273768   -0.869097
  P      2.354484   -0.294938   -0.095331
  S      3.236039    1.245146    0.745494
  O      1.609404   -1.307468    0.862942
  C      2.069367   -1.573707    2.212803
  C      1.234666   -0.802375    3.214416
  S      0.850215    0.135192   -1.513128
  C      0.130027    1.537722   -0.610339
  S     -0.890632    1.018498    0.782985
  P     -2.514709    0.264732   -0.382776
  S     -2.839881    1.174499   -2.084527
  O     -3.751991    0.257520    0.614533
  C     -4.626500    1.388835    0.767370
  C     -3.930969    2.573200    1.407164
  O     -2.233925   -1.269597   -0.609377
  C     -1.677129   -2.215717    0.334531
  C     -2.403284   -2.224208    1.662138
  H      5.907625   -1.957679   -0.827390
  H      5.063533   -2.779263   -2.146014
  H      6.232953   -1.497575   -2.506035
  H      3.912744   -0.634767   -2.741678
  H      4.734985    0.168384   -1.377981
  H      1.957181   -2.651652    2.336100
  H      3.124822   -1.300841    2.291905
  H      0.183491   -1.049478    3.100491
  H      1.559227   -1.055964    4.218338
  H      1.357947    0.267568    3.059771
  H     -0.484928    2.083276   -1.326845
  H      0.931791    2.160034   -0.211559
  H     -5.016903    1.659705   -0.218608
  H     -5.433938    1.008998    1.394862
  H     -3.182047    2.977395    0.727912
  H     -4.663162    3.345566    1.619594
  H     -3.442914    2.274195    2.331206
  H     -1.775704   -3.169683   -0.186047
  H     -0.617266   -1.981282    0.466185
  H     -3.464370   -2.403001    1.509201
  H     -1.991984   -3.012719    2.285327
  H     -2.279617   -1.267238    2.166035

 Total Charge           Charge          ....    0
 Multiplicity           Mult            ....    1
 Number of Electrons    NEL             ....  202
 Basis Dimension        Dim             ....  334

ORBITAL ENERGIES
----------------

  NO   OCC          E(Eh)            E(eV)
   0   2.0000     -88.043758     -2395.7924
   1   2.0000     -88.043375     -2395.7820
   2   2.0000     -87.992966     -2394.4103
   3   2.0000     -87.983679     -2394.1576
   4   2.0000     -76.430116     -2079.7692
   5   2.0000     -76.426138     -2079.6609
   6   2.0000     -18.797735      -511.5124
   7   2.0000     -18.796248      -511.4719
   8   2.0000     -18.794184      -511.4157
   9   2.0000     -18.788029      -511.2482
  10   2.0000      -9.959646      -271.0157
  11   2.0000      -9.955006      -270.8895
  12   2.0000      -9.952915      -270.8326
  13   2.0000      -9.952009      -270.8079
  14   2.0000      -9.950080      -270.7554
  15   2.0000      -9.890376      -269.1308
  16   2.0000      -9.887733      -269.0589
  17   2.0000      -9.886366      -269.0217
  18   2.0000      -9.883967      -268.9564
  19   2.0000      -7.688991      -209.2281
  20   2.0000      -7.687954      -209.1999
  21   2.0000      -7.637894      -207.8377
  22   2.0000      -7.628986      -207.5953
  23   2.0000      -6.428069      -174.9166
  24   2.0000      -6.423382      -174.7891
  25   2.0000      -5.716753      -155.5608
  26   2.0000      -5.715661      -155.5310
  27   2.0000      -5.713674      -155.4770
  28   2.0000      -5.712549      -155.4464
  29   2.0000      -5.705896      -155.2653
  30   2.0000      -5.705068      -155.2428
  31   2.0000      -5.666689      -154.1984
  32   2.0000      -5.658592      -153.9781
  33   2.0000      -5.658113      -153.9651
  34   2.0000      -5.657967      -153.9611
  35   2.0000      -5.649516      -153.7311
  36   2.0000      -5.649116      -153.7203
  37   2.0000      -4.650534      -126.5475
  38   2.0000      -4.649801      -126.5275
  39   2.0000      -4.648561      -126.4938
  40   2.0000      -4.646136      -126.4278
  41   2.0000      -4.645188      -126.4020
  42   2.0000      -4.643700      -126.3615
  43   2.0000      -0.991891       -26.9907
  44   2.0000      -0.985693       -26.8221
  45   2.0000      -0.950250       -25.8576
  46   2.0000      -0.943923       -25.6855
  47   2.0000      -0.765701       -20.8358
  48   2.0000      -0.724529       -19.7154
  49   2.0000      -0.711561       -19.3626
  50   2.0000      -0.691804       -18.8249
  51   2.0000      -0.689993       -18.7757
  52   2.0000      -0.677654       -18.4399
  53   2.0000      -0.651826       -17.7371
  54   2.0000      -0.638759       -17.3815
  55   2.0000      -0.601420       -16.3655
  56   2.0000      -0.594547       -16.1784
  57   2.0000      -0.575739       -15.6666
  58   2.0000      -0.573121       -15.5954
  59   2.0000      -0.560341       -15.2477
  60   2.0000      -0.512012       -13.9325
  61   2.0000      -0.491281       -13.3684
  62   2.0000      -0.482201       -13.1214
  63   2.0000      -0.470099       -12.7920
  64   2.0000      -0.461528       -12.5588
  65   2.0000      -0.445915       -12.1340
  66   2.0000      -0.442741       -12.0476
  67   2.0000      -0.438848       -11.9417
  68   2.0000      -0.434555       -11.8248
  69   2.0000      -0.421601       -11.4723
  70   2.0000      -0.408418       -11.1136
  71   2.0000      -0.397085       -10.8052
  72   2.0000      -0.390654       -10.6302
  73   2.0000      -0.387200       -10.5362
  74   2.0000      -0.381643       -10.3850
  75   2.0000      -0.378178       -10.2907
  76   2.0000      -0.368687       -10.0325
  77   2.0000      -0.363735        -9.8977
  78   2.0000      -0.356834        -9.7099
  79   2.0000      -0.354497        -9.6464
  80   2.0000      -0.352574        -9.5940
  81   2.0000      -0.346683        -9.4337
  82   2.0000      -0.344352        -9.3703
  83   2.0000      -0.341577        -9.2948
  84   2.0000      -0.336485        -9.1562
  85   2.0000      -0.319942        -8.7061
  86   2.0000      -0.310488        -8.4488
  87   2.0000      -0.302687        -8.2365
  88   2.0000      -0.294369        -8.0102
  89   2.0000      -0.292908        -7.9704
  90   2.0000      -0.290865        -7.9148
  91   2.0000      -0.282921        -7.6987
  92   2.0000      -0.269585        -7.3358
  93   2.0000      -0.263831        -7.1792
  94   2.0000      -0.261251        -7.1090
  95   2.0000      -0.236848        -6.4450
  96   2.0000      -0.219479        -5.9723
  97   2.0000      -0.214886        -5.8474
  98   2.0000      -0.206094        -5.6081
  99   2.0000      -0.202321        -5.5054
 100   2.0000      -0.200590        -5.4583
 101   0.0000      -0.045596        -1.2407
 102   0.0000      -0.027196        -0.7400
 103   0.0000      -0.004595        -0.1250
 104   0.0000       0.000639         0.0174
 105   0.0000       0.011368         0.3093

MULLIKEN ATOMIC CHARGES
-----------------------
   0 C :   -0.281956
   1 C :   -0.011690
   2 O :   -0.375736
   3 P :    0.611322
   4 S :   -0.337595
   5 O :   -0.361562
   6 C :   -0.002901
   7 C :   -0.298692
   8 S :   -0.064692
   9 C :   -0.375742
  10 S :   -0.101909
  11 P :    0.604446
  12 S :   -0.317388
  13 O :   -0.376016
  14 C :   -0.001908
  15 C :   -0.314320
  16 O :   -0.354391
  17 C :   -0.034924
  18 C :   -0.317895
  19 H :    0.116904
  20 H :    0.118230
  21 H :    0.113725
  22 H :    0.105900
  23 H :    0.107905
  24 H :    0.107390
  25 H :    0.108513
  26 H :    0.122175
  27 H :    0.109198
  28 H :    0.125881
  29 H :    0.196289
  30 H :    0.194098
  31 H :    0.114703
  32 H :    0.104488
  33 H :    0.126788
  34 H :    0.113516
  35 H :    0.115239
  36 H :    0.106965
  37 H :    0.144266
  38 H :    0.122380
  39 H :    0.111419
  40 H :    0.127577
Sum of atomic charges:   -0.0000000

LOEWDIN ATOMIC CHARGES
----------------------
   0 C :   -0.350602
   1 C :   -0.119739
   2 O :   -0.249160
   3 P :    0.569457
   4 S :   -0.322328
   5 O :   -0.237215
   6 C :   -0.111804
   7 C :   -0.361471
   8 S :    0.093699
   9 C :   -0.489282
  10 S :    0.080975
  11 P :    0.574332
  12 S :   -0.311870
  13 O :   -0.242680
  14 C :   -0.117600
  15 C :   -0.370152
  16 O :   -0.232296
  17 C :   -0.120671
  18 C :   -0.367484
  19 H :    0.127358
  20 H :    0.127494
  21 H :    0.131703
  22 H :    0.113120
  23 H :    0.107993
  24 H :    0.118310
  25 H :    0.111261
  26 H :    0.123057
  27 H :    0.129480
  28 H :    0.124973
  29 H :    0.128635
  30 H :    0.127950
  31 H :    0.113133
  32 H :    0.118444
  33 H :    0.121228
  34 H :    0.131275
  35 H :    0.122726
  36 H :    0.122276
  37 H :    0.111623
  38 H :    0.128430
  39 H :    0.129186
  40 H :    0.116239

  Mayer bond orders larger than 0.100000
B(  0-C ,  1-C ) :   1.1620 B(  0-C , 19-H ) :   0.9512 B(  0-C , 20-H ) :   0.9507
B(  0-C , 21-H ) :   0.9417 B(  1-C ,  2-O ) :   0.9024 B(  1-C , 22-H ) :   0.9307
B(  1-C , 23-H ) :   0.9071 B(  2-O ,  3-P ) :   1.1190 B(  3-P ,  4-S ) :   1.5900
B(  3-P ,  5-O ) :   1.1246 B(  3-P ,  8-S ) :   0.9775 B(  4-S ,  8-S ) :   0.1091
B(  5-O ,  6-C ) :   0.8760 B(  6-C ,  7-C ) :   1.1727 B(  6-C , 24-H ) :   0.9336
B(  6-C , 25-H ) :   0.9119 B(  7-C , 26-H ) :   0.9412 B(  7-C , 27-H ) :   0.9380
B(  7-C , 28-H ) :   0.9358 B(  8-S ,  9-C ) :   1.0024 B(  9-C , 10-S ) :   1.0086
B(  9-C , 29-H ) :   0.8683 B(  9-C , 30-H ) :   0.8683 B( 10-S , 11-P ) :   0.9335
B( 10-S , 12-S ) :   0.1081 B( 11-P , 12-S ) :   1.6197 B( 11-P , 13-O ) :   1.0907
B( 11-P , 16-O ) :   1.1559 B( 13-O , 14-C ) :   0.9059 B( 14-C , 15-C ) :   1.1655
B( 14-C , 31-H ) :   0.9161 B( 14-C , 32-H ) :   0.9340 B( 15-C , 33-H ) :   0.9349
B( 15-C , 34-H ) :   0.9374 B( 15-C , 35-H ) :   0.9450 B( 16-O , 17-C ) :   0.8941
B( 17-C , 18-C ) :   1.1735 B( 17-C , 36-H ) :   0.9328 B( 17-C , 37-H ) :   0.8989
B( 18-C , 38-H ) :   0.9407 B( 18-C , 39-H ) :   0.9353 B( 18-C , 40-H ) :   0.9284

Dispersion correction           -0.065369188
FINAL SINGLE POINT ENERGY     -2929.523990045308

DIPOLE MOMENT
-------------

Method             : SCF
Type of density    : Electron Density
Multiplicity       :   1
Irrep              :   0
Energy             : -2929.6440101228549793 Eh
Relativity type    :
Basis              : AO
                                X                 Y                 Z
Electronic contribution:     -2.251038601       7.470799820     -14.320932612
Nuclear contribution   :      2.569364994      -8.400607625      15.464770687
                        -----------------------------------------
Total Dipole Moment    :      0.318326393      -0.929807805       1.143838075
                        -----------------------------------------
Magnitude (a.u.)       :      1.508058284
Magnitude (Debye)      :      3.833179530

Rotational constants in cm-1:             0.013459             0.004632             0.004366
Rotational constants in MHz :           403.489250           138.855634           130.898139

                             ****ORCA TERMINATED NORMALLY****
TOTAL RUN TIME: 0 days 0 hours 0 minutes 21 seconds 269 msec
