                         Program Version 6.0.0  -   RELEASE  -
|  1> ! wb97x-v def2-tzvp def2/J RIJCOSX DEFGRID2 scfconv7 GCP(DFT/TZ) printgap
|  2> %output
|  3>     printlevel normal
|  4> end
|  5> * xyz 0 1
|  6> C -0.663044248872894 1.024969229751597 3.189224321349679e-05
|  7> C 0.663038911551044 1.0249702457567071 -3.829995469447469e-05
|  8> Cl 1.6452809779587154 -0.4079517604549962 -0.00013478615008208724
|  9> Cl -1.645285345703416 -0.40795343252805877 0.0001375166003735282
| 10> H -1.2190240923543068 1.9564416965194922 9.768373640136749e-05
| 11> H 1.2190182005969459 1.9564433105427408 -9.866307778055896e-05
| 12> *
| 13>
| 14>                          ****END OF INPUT****

CARTESIAN COORDINATES (ANGSTROEM)
---------------------------------
  C     -0.663044    1.024969    0.000032
  C      0.663039    1.024970   -0.000038
  Cl     1.645281   -0.407952   -0.000135
  Cl    -1.645285   -0.407953    0.000138
  H     -1.219024    1.956442    0.000098
  H      1.219018    1.956443   -0.000099

 Total Charge           Charge          ....    0
 Multiplicity           Mult            ....    1
 Number of Electrons    NEL             ....   48
 Basis Dimension        Dim             ....  148

ORBITAL ENERGIES
----------------

  NO   OCC          E(Eh)            E(eV)
   0   2.0000    -107.157484     -2915.9034
   1   2.0000    -107.157449     -2915.9024
   2   2.0000     -12.129622      -330.0638
   3   2.0000     -12.126921      -329.9903
   4   2.0000     -11.310432      -307.7725
   5   2.0000     -11.310421      -307.7722
   6   2.0000      -9.102350      -247.6875
   7   2.0000      -9.101527      -247.6652
   8   2.0000      -9.099465      -247.6090
   9   2.0000      -9.099427      -247.6080
  10   2.0000      -9.098968      -247.5955
  11   2.0000      -9.098729      -247.5890
  12   2.0000      -1.449461       -39.4418
  13   2.0000      -1.418675       -38.6041
  14   2.0000      -1.292734       -35.1771
  15   2.0000      -1.072308       -29.1790
  16   2.0000      -0.970903       -26.4196
  17   2.0000      -0.959833       -26.1184
  18   2.0000      -0.876158       -23.8415
  19   2.0000      -0.840489       -22.8709
  20   2.0000      -0.812567       -22.1111
  21   2.0000      -0.797638       -21.7048
  22   2.0000      -0.796765       -21.6811
  23   2.0000      -0.691667       -18.8212
  24   0.0000      -0.292922        -7.9708
  25   0.0000      -0.257569        -7.0088
  26   0.0000      -0.223998        -6.0953
  27   0.0000      -0.032909        -0.8955
  28   0.0000       0.059058         1.6071

MULLIKEN ATOMIC CHARGES
-----------------------
   0 C :   -0.098950
   1 C :   -0.098959
   2 Cl:   -0.056950
   3 Cl:   -0.056951
   4 H :    0.155904
   5 H :    0.155905
Sum of atomic charges:    0.0000000

LOEWDIN ATOMIC CHARGES
----------------------
   0 C :   -0.498339
   1 C :   -0.498339
   2 Cl:    0.365205
   3 Cl:    0.365205
   4 H :    0.133134
   5 H :    0.133134

  Mayer bond orders larger than 0.100000
B(  0-C ,  1-C ) :   1.8933 B(  0-C ,  3-Cl) :   1.1481 B(  0-C ,  4-H ) :   0.9457
B(  1-C ,  2-Cl) :   1.1482 B(  1-C ,  5-H ) :   0.9457

FINAL SINGLE POINT ENERGY      -997.679346009003

DIPOLE MOMENT
-------------

Method             : SCF
Type of density    : Electron Density
Multiplicity       :   1
Irrep              :   0
Energy             :  -997.6822219947030135 Eh
Relativity type    :
Basis              : AO
                                X                 Y                 Z
Electronic contribution:      0.000000743      -3.974316585       0.000005584
Nuclear contribution   :     -0.000001540       4.763087436      -0.000004426
                        -----------------------------------------
Total Dipole Moment    :     -0.000000797       0.788770851       0.000001157
                        -----------------------------------------
Magnitude (a.u.)       :      0.788770851
Magnitude (Debye)      :      2.004896171

Rotational constants in cm-1:             0.376687             0.082034             0.067364
Rotational constants in MHz :         11292.786602          2459.316318          2019.511818

                             ****ORCA TERMINATED NORMALLY****
TOTAL RUN TIME: 0 days 0 hours 0 minutes 34 seconds 31 msec
