                         Program Version 6.0.0  -   RELEASE  -
|  1> ! wb97x-v def2-tzvp def2/J RIJCOSX DEFGRID2 scfconv7 GCP(DFT/TZ) printgap
|  2> %output
|  3>     printlevel normal
|  4> end
|  5> %cpcm
|  6>     smd true
|  7>     smdsolvent "water"
|  8> end
|  9> * xyz 0 1
| 10> C -0.663044248872894 1.024969229751597 3.189224321349679e-05
| 11> C 0.663038911551044 1.0249702457567071 -3.829995469447469e-05
| 12> Cl 1.6452809779587154 -0.4079517604549962 -0.00013478615008208724
| 13> Cl -1.645285345703416 -0.40795343252805877 0.0001375166003735282
| 14> H -1.2190240923543068 1.9564416965194922 9.768373640136749e-05
| 15> H 1.2190182005969459 1.9564433105427408 -9.866307778055896e-05
| 16> *
| 17>
| 18>                          ****END OF INPUT****

CARTESIAN COORDINATES (ANGSTROEM)
---------------------------------
  C     -0.663044    1.024969    0.000032
  C      0.663039    1.024970   -0.000038
  Cl     1.645281   -0.407952   -0.000135
  Cl    -1.645285   -0.407953    0.000138
  H     -1.219024    1.956442    0.000098
  H      1.219018    1.956443   -0.000099

 Total Charge           Charge          ....    0
 Multiplicity           Mult            ....    1
 Number of Electrons    NEL             ....   48
 Basis Dimension        Dim             ....  148

ORBITAL ENERGIES
----------------

  NO   OCC          E(Eh)            E(eV)
   0   2.0000    -107.155803     -2915.8576
   1   2.0000    -107.155767     -2915.8567
   2   2.0000     -12.118949      -329.7734
   3   2.0000     -12.116264      -329.7003
   4   2.0000     -11.308907      -307.7310
   5   2.0000     -11.308890      -307.7305
   6   2.0000      -9.100789      -247.6451
   7   2.0000      -9.099968      -247.6227
   8   2.0000      -9.098005      -247.5693
   9   2.0000      -9.097947      -247.5677
  10   2.0000      -9.097527      -247.5563
  11   2.0000      -9.097259      -247.5490
  12   2.0000      -1.446029       -39.3485
  13   2.0000      -1.416939       -38.5569
  14   2.0000      -1.284551       -34.9544
  15   2.0000      -1.063359       -28.9355
  16   2.0000      -0.958559       -26.0837
  17   2.0000      -0.955301       -25.9951
  18   2.0000      -0.867423       -23.6038
  19   2.0000      -0.838061       -22.8048
  20   2.0000      -0.812184       -22.1006
  21   2.0000      -0.796137       -21.6640
  22   2.0000      -0.794651       -21.6236
  23   2.0000      -0.684674       -18.6309
  24   0.0000      -0.287260        -7.8167
  25   0.0000      -0.248066        -6.7502
  26   0.0000      -0.216988        -5.9045
  27   0.0000      -0.010020        -0.2727
  28   0.0000       0.070861         1.9282

MULLIKEN ATOMIC CHARGES
-----------------------
   0 C :   -0.123629
   1 C :   -0.123639
   2 Cl:   -0.088597
   3 Cl:   -0.088598
   4 H :    0.212232
   5 H :    0.212232
Sum of atomic charges:    0.0000000

LOEWDIN ATOMIC CHARGES
----------------------
   0 C :   -0.492593
   1 C :   -0.492594
   2 Cl:    0.343195
   3 Cl:    0.343195
   4 H :    0.149399
   5 H :    0.149399

  Mayer bond orders larger than 0.100000
B(  0-C ,  1-C ) :   1.9088 B(  0-C ,  3-Cl) :   1.1157 B(  0-C ,  4-H ) :   0.9253
B(  1-C ,  2-Cl) :   1.1157 B(  1-C ,  5-H ) :   0.9253

FINAL SINGLE POINT ENERGY      -997.681030327203

DIPOLE MOMENT
-------------

Method             : SCF
Type of density    : Electron Density
Multiplicity       :   1
Irrep              :   0
Energy             :  -997.6839063129026499 Eh
Relativity type    :
Basis              : AO
                                X                 Y                 Z
Electronic contribution:      0.000000027      -3.640890099       0.000005796
Nuclear contribution   :     -0.000001540       4.763087436      -0.000004426
                        -----------------------------------------
Total Dipole Moment    :     -0.000001513       1.122197337       0.000001370
                        -----------------------------------------
Magnitude (a.u.)       :      1.122197337
Magnitude (Debye)      :      2.852398948

Rotational constants in cm-1:             0.376687             0.082034             0.067364
Rotational constants in MHz :         11292.786602          2459.316318          2019.511818

                             ****ORCA TERMINATED NORMALLY****
TOTAL RUN TIME: 0 days 0 hours 0 minutes 34 seconds 475 msec
