                         Program Version 6.0.0  -   RELEASE  -
|  1> ! pbe def2-sv(p) def2/J RI DEFGRID1 loosescf d4 GCP(DFT/SV(P)) printgap
|  2> %output
|  3>     printlevel normal
|  4> end
|  5> * xyz 0 1
|  6> C 1.8937471342 -1.8418607405 -2.8921964431
|  7> C 2.2691749507 -0.4342281371 -2.4698323487
|  8> O 3.0624209103 -0.4794618431 -1.2646838534
|  9> P 2.4949949372 0.0084976325 0.1369120364
| 10> S 1.995922755 1.8983291064 0.2617782247
| 11> O 3.6922667729 -0.3225396614 1.1021691017
| 12> C 4.3060180173 -1.6368381289 1.2066220649
| 13> C 3.8759131765 -2.3195926977 2.4895654839
| 14> S 0.9432504967 -1.3835411614 0.5425817992
| 15> C -0.0436761809 -0.4201985936 1.7325211749
| 16> S -1.8108312422 -0.6648883245 1.472624273
| 17> P -2.0569036907 0.7930757932 -0.0654805527
| 18> S -1.5431361583 2.6007349755 0.4979423713
| 19> O -3.5715042797 0.6167541294 -0.494828154
| 20> C -4.6393345315 1.0663799858 0.3649292429
| 21> C -5.8959782645 1.1762503165 -0.4743678897
| 22> O -1.2654508888 0.3005081693 -1.3361226792
| 23> C -1.7584141383 -0.6706921597 -2.3017101928
| 24> C -2.0173828853 -2.0316920843 -1.6920882664
| 25> H 1.3524493527 -1.8012469738 -3.8319173492
| 26> H 2.7933294266 -2.4355977484 -3.0266194502
| 27> H 1.2715985798 -2.3130249215 -2.1352481115
| 28> H 1.3877984747 0.1915240089 -2.2947528517
| 29> H 2.9040110822 0.0493259071 -3.2150604629
| 30> H 4.0383821002 -2.2273854959 0.3290701236
| 31> H 5.3782943054 -1.4365143088 1.2031213715
| 32> H 4.4446277742 -3.2364188836 2.6081183491
| 33> H 4.0667281833 -1.6688231028 3.3386290649
| 34> H 2.8168053611 -2.5628922718 2.4595635442
| 35> H 0.2014292694 0.6398934631 1.6081521916
| 36> H 0.1773383939 -0.76337375 2.7396291408
| 37> H -4.7558865059 0.3352482098 1.1690202736
| 38> H -4.3554578091 2.0316959496 0.7968946605
| 39> H -6.7176468213 1.4956473134 0.1580356105
| 40> H -5.7527827391 1.9037651984 -1.2684182148
| 41> H -6.1348720516 0.2129757529 -0.915162834
| 42> H -2.6650126697 -0.2632069976 -2.7511297677
| 43> H -0.9587513667 -0.706095071 -3.0428822165
| 44> H -2.2674275559 -2.7266723065 -2.4875115894
| 45> H -1.1369420541 -2.3921794078 -1.1655218786
| 46> H -2.8469177651 -1.9826496634 -0.9906728839
| 47> *
| 48>
| 49>                          ****END OF INPUT****

CARTESIAN COORDINATES (ANGSTROEM)
---------------------------------
  C      1.893747   -1.841861   -2.892196
  C      2.269175   -0.434228   -2.469832
  O      3.062421   -0.479462   -1.264684
  P      2.494995    0.008498    0.136912
  S      1.995923    1.898329    0.261778
  O      3.692267   -0.322540    1.102169
  C      4.306018   -1.636838    1.206622
  C      3.875913   -2.319593    2.489565
  S      0.943250   -1.383541    0.542582
  C     -0.043676   -0.420199    1.732521
  S     -1.810831   -0.664888    1.472624
  P     -2.056904    0.793076   -0.065481
  S     -1.543136    2.600735    0.497942
  O     -3.571504    0.616754   -0.494828
  C     -4.639335    1.066380    0.364929
  C     -5.895978    1.176250   -0.474368
  O     -1.265451    0.300508   -1.336123
  C     -1.758414   -0.670692   -2.301710
  C     -2.017383   -2.031692   -1.692088
  H      1.352449   -1.801247   -3.831917
  H      2.793329   -2.435598   -3.026619
  H      1.271599   -2.313025   -2.135248
  H      1.387798    0.191524   -2.294753
  H      2.904011    0.049326   -3.215060
  H      4.038382   -2.227385    0.329070
  H      5.378294   -1.436514    1.203121
  H      4.444628   -3.236419    2.608118
  H      4.066728   -1.668823    3.338629
  H      2.816805   -2.562892    2.459564
  H      0.201429    0.639893    1.608152
  H      0.177338   -0.763374    2.739629
  H     -4.755887    0.335248    1.169020
  H     -4.355458    2.031696    0.796895
  H     -6.717647    1.495647    0.158036
  H     -5.752783    1.903765   -1.268418
  H     -6.134872    0.212976   -0.915163
  H     -2.665013   -0.263207   -2.751130
  H     -0.958751   -0.706095   -3.042882
  H     -2.267428   -2.726672   -2.487512
  H     -1.136942   -2.392179   -1.165522
  H     -2.846918   -1.982650   -0.990673

 Total Charge           Charge          ....    0
 Multiplicity           Mult            ....    1
 Number of Electrons    NEL             ....  202
 Basis Dimension        Dim             ....  334

ORBITAL ENERGIES
----------------

  NO   OCC          E(Eh)            E(eV)
   0   2.0000     -88.042019     -2395.7451
   1   2.0000     -88.041457     -2395.7298
   2   2.0000     -87.974753     -2393.9147
   3   2.0000     -87.974419     -2393.9056
   4   2.0000     -76.423786     -2079.5969
   5   2.0000     -76.420461     -2079.5065
   6   2.0000     -18.798716      -511.5391
   7   2.0000     -18.793011      -511.3838
   8   2.0000     -18.792767      -511.3772
   9   2.0000     -18.787816      -511.2425
  10   2.0000      -9.959862      -271.0216
  11   2.0000      -9.957455      -270.9561
  12   2.0000      -9.956137      -270.9203
  13   2.0000      -9.955644      -270.9068
  14   2.0000      -9.952754      -270.8282
  15   2.0000      -9.893018      -269.2027
  16   2.0000      -9.892396      -269.1858
  17   2.0000      -9.888127      -269.0696
  18   2.0000      -9.887025      -269.0396
  19   2.0000      -7.686685      -209.1653
  20   2.0000      -7.686628      -209.1638
  21   2.0000      -7.619919      -207.3485
  22   2.0000      -7.619586      -207.3395
  23   2.0000      -6.421361      -174.7341
  24   2.0000      -6.418197      -174.6480
  25   2.0000      -5.714437      -155.4977
  26   2.0000      -5.714381      -155.4962
  27   2.0000      -5.711290      -155.4121
  28   2.0000      -5.711055      -155.4057
  29   2.0000      -5.703884      -155.2106
  30   2.0000      -5.703679      -155.2050
  31   2.0000      -5.649036      -153.7181
  32   2.0000      -5.648769      -153.7108
  33   2.0000      -5.640431      -153.4839
  34   2.0000      -5.640286      -153.4800
  35   2.0000      -5.639971      -153.4714
  36   2.0000      -5.639422      -153.4565
  37   2.0000      -4.644570      -126.3852
  38   2.0000      -4.643041      -126.3436
  39   2.0000      -4.641234      -126.2944
  40   2.0000      -4.641081      -126.2902
  41   2.0000      -4.640026      -126.2615
  42   2.0000      -4.638238      -126.2129
  43   2.0000      -0.991897       -26.9909
  44   2.0000      -0.986467       -26.8431
  45   2.0000      -0.947623       -25.7861
  46   2.0000      -0.942832       -25.6558
  47   2.0000      -0.761024       -20.7085
  48   2.0000      -0.721770       -19.6404
  49   2.0000      -0.714368       -19.4389
  50   2.0000      -0.696702       -18.9582
  51   2.0000      -0.692444       -18.8424
  52   2.0000      -0.678118       -18.4525
  53   2.0000      -0.645116       -17.5545
  54   2.0000      -0.627428       -17.0732
  55   2.0000      -0.593101       -16.1391
  56   2.0000      -0.588551       -16.0153
  57   2.0000      -0.576912       -15.6986
  58   2.0000      -0.574378       -15.6296
  59   2.0000      -0.562405       -15.3038
  60   2.0000      -0.509782       -13.8719
  61   2.0000      -0.504580       -13.7303
  62   2.0000      -0.478914       -13.0319
  63   2.0000      -0.477115       -12.9830
  64   2.0000      -0.454454       -12.3663
  65   2.0000      -0.450286       -12.2529
  66   2.0000      -0.448612       -12.2073
  67   2.0000      -0.439639       -11.9632
  68   2.0000      -0.434346       -11.8191
  69   2.0000      -0.419768       -11.4225
  70   2.0000      -0.407479       -11.0881
  71   2.0000      -0.401984       -10.9385
  72   2.0000      -0.400722       -10.9042
  73   2.0000      -0.381902       -10.3921
  74   2.0000      -0.379807       -10.3351
  75   2.0000      -0.370479       -10.0813
  76   2.0000      -0.366920        -9.9844
  77   2.0000      -0.359850        -9.7920
  78   2.0000      -0.355986        -9.6869
  79   2.0000      -0.353774        -9.6267
  80   2.0000      -0.352431        -9.5901
  81   2.0000      -0.349196        -9.5021
  82   2.0000      -0.343562        -9.3488
  83   2.0000      -0.341141        -9.2829
  84   2.0000      -0.334355        -9.0983
  85   2.0000      -0.323813        -8.8114
  86   2.0000      -0.312333        -8.4990
  87   2.0000      -0.305353        -8.3091
  88   2.0000      -0.299479        -8.1492
  89   2.0000      -0.297753        -8.1023
  90   2.0000      -0.292340        -7.9550
  91   2.0000      -0.276950        -7.5362
  92   2.0000      -0.273867        -7.4523
  93   2.0000      -0.260113        -7.0780
  94   2.0000      -0.258401        -7.0314
  95   2.0000      -0.232844        -6.3360
  96   2.0000      -0.219571        -5.9748
  97   2.0000      -0.208695        -5.6789
  98   2.0000      -0.195278        -5.3138
  99   2.0000      -0.184079        -5.0091
 100   2.0000      -0.179341        -4.8801
 101   0.0000      -0.039605        -1.0777
 102   0.0000      -0.031373        -0.8537
 103   0.0000      -0.015448        -0.4204
 104   0.0000       0.013125         0.3571
 105   0.0000       0.015894         0.4325

MULLIKEN ATOMIC CHARGES
-----------------------
   0 C :   -0.313086
   1 C :   -0.023996
   2 O :   -0.380948
   3 P :    0.578677
   4 S :   -0.269348
   5 O :   -0.355267
   6 C :   -0.008165
   7 C :   -0.292396
   8 S :   -0.142034
   9 C :   -0.341711
  10 S :   -0.114306
  11 P :    0.601763
  12 S :   -0.285014
  13 O :   -0.388625
  14 C :   -0.013493
  15 C :   -0.281656
  16 O :   -0.359859
  17 C :    0.000798
  18 C :   -0.334664
  19 H :    0.115480
  20 H :    0.116817
  21 H :    0.131600
  22 H :    0.129484
  23 H :    0.112543
  24 H :    0.101181
  25 H :    0.112517
  26 H :    0.108547
  27 H :    0.121014
  28 H :    0.118937
  29 H :    0.206895
  30 H :    0.181938
  31 H :    0.106078
  32 H :    0.110122
  33 H :    0.115116
  34 H :    0.123246
  35 H :    0.113863
  36 H :    0.112162
  37 H :    0.108199
  38 H :    0.110408
  39 H :    0.145664
  40 H :    0.121519
Sum of atomic charges:    0.0000000

LOEWDIN ATOMIC CHARGES
----------------------
   0 C :   -0.363292
   1 C :   -0.116998
   2 O :   -0.248193
   3 P :    0.552289
   4 S :   -0.282043
   5 O :   -0.239050
   6 C :   -0.111807
   7 C :   -0.361702
   8 S :    0.058656
   9 C :   -0.477684
  10 S :    0.063257
  11 P :    0.570260
  12 S :   -0.299209
  13 O :   -0.248597
  14 C :   -0.120025
  15 C :   -0.350500
  16 O :   -0.236677
  17 C :   -0.106513
  18 C :   -0.373923
  19 H :    0.128135
  20 H :    0.126924
  21 H :    0.119822
  22 H :    0.114935
  23 H :    0.122470
  24 H :    0.107187
  25 H :    0.122878
  26 H :    0.129276
  27 H :    0.129392
  28 H :    0.118598
  29 H :    0.125016
  30 H :    0.134609
  31 H :    0.110478
  32 H :    0.111547
  33 H :    0.132689
  34 H :    0.130251
  35 H :    0.125284
  36 H :    0.116268
  37 H :    0.116595
  38 H :    0.130198
  39 H :    0.120210
  40 H :    0.118989

  Mayer bond orders larger than 0.100000
B(  0-C ,  1-C ) :   1.1611 B(  0-C , 19-H ) :   0.9357 B(  0-C , 20-H ) :   0.9435
B(  0-C , 21-H ) :   0.9356 B(  1-C ,  2-O ) :   0.9002 B(  1-C , 22-H ) :   0.9025
B(  1-C , 23-H ) :   0.9328 B(  2-O ,  3-P ) :   1.0872 B(  3-P ,  4-S ) :   1.6902
B(  3-P ,  5-O ) :   1.1348 B(  3-P ,  8-S ) :   0.9273 B(  4-S ,  8-S ) :   0.1147
B(  5-O ,  6-C ) :   0.8919 B(  6-C ,  7-C ) :   1.1639 B(  6-C , 24-H ) :   0.9179
B(  6-C , 25-H ) :   0.9351 B(  7-C , 26-H ) :   0.9399 B(  7-C , 27-H ) :   0.9464
B(  7-C , 28-H ) :   0.9368 B(  8-S ,  9-C ) :   0.9814 B(  9-C , 10-S ) :   1.0229
B(  9-C , 29-H ) :   0.8368 B(  9-C , 30-H ) :   0.9114 B( 10-S , 11-P ) :   0.9304
B( 10-S , 12-S ) :   0.1092 B( 11-P , 12-S ) :   1.6894 B( 11-P , 13-O ) :   1.0700
B( 11-P , 16-O ) :   1.1309 B( 13-O , 14-C ) :   0.8991 B( 14-C , 15-C ) :   1.1609
B( 14-C , 31-H ) :   0.9305 B( 14-C , 32-H ) :   0.9057 B( 15-C , 33-H ) :   0.9413
B( 15-C , 34-H ) :   0.9506 B( 15-C , 35-H ) :   0.9514 B( 16-O , 17-C ) :   0.8929
B( 17-C , 18-C ) :   1.1714 B( 17-C , 36-H ) :   0.9288 B( 17-C , 37-H ) :   0.9257
B( 18-C , 38-H ) :   0.9345 B( 18-C , 39-H ) :   0.9282 B( 18-C , 40-H ) :   0.9369

Dispersion correction           -0.065141545
FINAL SINGLE POINT ENERGY     -2929.510386301902

DIPOLE MOMENT
-------------

Method             : SCF
Type of density    : Electron Density
Multiplicity       :   1
Irrep              :   0
Energy             : -2929.6306158880183830 Eh
Relativity type    :
Basis              : AO
                                X                 Y                 Z
Electronic contribution:      6.051232060      16.980502188       9.447626153
Nuclear contribution   :     -6.692041832     -19.226151850     -10.225869469
                        -----------------------------------------
Total Dipole Moment    :     -0.640809771      -2.245649662      -0.778243316
                        -----------------------------------------
Magnitude (a.u.)       :      2.461552808
Magnitude (Debye)      :      6.256770004

Rotational constants in cm-1:             0.013225             0.004785             0.004570
Rotational constants in MHz :           396.475973           143.454737           137.015191

                             ****ORCA TERMINATED NORMALLY****
TOTAL RUN TIME: 0 days 0 hours 0 minutes 21 seconds 213 msec
