                         Program Version 6.0.0  -   RELEASE  -
|  1> ! pbe def2-sv(p) def2/J RI DEFGRID1 loosescf d4 GCP(DFT/SV(P)) printgap
|  2> %output
|  3>     printlevel normal
|  4> end
|  5> * xyz 0 1
|  6> C 5.8173373934 0.4145959916 0.1378276607
|  7> C 4.4420758111 0.0958927012 0.6879526167
|  8> O 3.5199773926 0.0584930297 -0.420739472
|  9> P 2.0954033627 -0.6285671529 -0.2716773565
| 10> S 2.1340479401 -2.4397915807 0.4726741927
| 11> O 1.5373335135 -0.5863319459 -1.7425928084
| 12> C 1.905748744 0.382085452 -2.7588122366
| 13> C 1.6415732121 1.8122397428 -2.3410816474
| 14> S 0.9787340204 0.7745857008 0.8898555093
| 15> C 0.0296411006 -0.3858567094 1.8988894834
| 16> S -1.2050484235 -1.3437264849 0.9697260176
| 17> P -2.3786044945 0.2359869246 0.1834774856
| 18> S -1.8780516112 1.0895938715 -1.5099484406
| 19> O -2.4770503085 1.175871644 1.4478910341
| 20> C -2.5773212111 2.6182580469 1.379323602
| 21> C -1.4916301182 3.2352195187 2.2377509364
| 22> O -3.8441646327 -0.3895593787 0.1425550891
| 23> C -4.3455615238 -1.0937414012 -1.0030612258
| 24> C -3.6301359464 -2.4138263429 -1.209348486
| 25> H 5.8006852273 1.3699778928 -0.3784204446
| 26> H 6.5254515827 0.4617801058 0.9584984339
| 27> H 6.1290582267 -0.3580855365 -0.5593367094
| 28> H 4.1024975812 0.8649462413 1.3869909814
| 29> H 4.4247872473 -0.8783904126 1.1875218449
| 30> H 2.9605955823 0.2299727359 -2.9947913836
| 31> H 1.2841868267 0.095514764 -3.6084023459
| 32> H 2.2320950981 2.0689837487 -1.4638536307
| 33> H 1.9144463344 2.4720940569 -3.1585156655
| 34> H 0.5878419236 1.9523681221 -2.1123238557
| 35> H -0.4652201954 0.1985215887 2.6699617056
| 36> H 0.7004002475 -1.1316555923 2.3259245181
| 37> H -2.4808811286 2.9308870924 0.3341975245
| 38> H -3.5733034978 2.8728004221 1.7459560331
| 39> H -1.590203871 4.3153222399 2.2074977863
| 40> H -1.5873496356 2.8960329181 3.2652860561
| 41> H -0.5096596976 2.9556765885 1.8606487694
| 42> H -5.4043253447 -1.2378513276 -0.7842974015
| 43> H -4.2304453208 -0.4516238553 -1.8830830918
| 44> H -4.0842940706 -2.9488705742 -2.0371721443
| 45> H -2.578644605 -2.234697327 -1.438964799
| 46> H -3.6873652738 -3.0211998387 -0.3093795666
| 47> *
| 48>
| 49>                          ****END OF INPUT****

CARTESIAN COORDINATES (ANGSTROEM)
---------------------------------
  C      5.817337    0.414596    0.137828
  C      4.442076    0.095893    0.687953
  O      3.519977    0.058493   -0.420739
  P      2.095403   -0.628567   -0.271677
  S      2.134048   -2.439792    0.472674
  O      1.537334   -0.586332   -1.742593
  C      1.905749    0.382085   -2.758812
  C      1.641573    1.812240   -2.341082
  S      0.978734    0.774586    0.889856
  C      0.029641   -0.385857    1.898889
  S     -1.205048   -1.343726    0.969726
  P     -2.378604    0.235987    0.183477
  S     -1.878052    1.089594   -1.509948
  O     -2.477050    1.175872    1.447891
  C     -2.577321    2.618258    1.379324
  C     -1.491630    3.235220    2.237751
  O     -3.844165   -0.389559    0.142555
  C     -4.345562   -1.093741   -1.003061
  C     -3.630136   -2.413826   -1.209348
  H      5.800685    1.369978   -0.378420
  H      6.525452    0.461780    0.958498
  H      6.129058   -0.358086   -0.559337
  H      4.102498    0.864946    1.386991
  H      4.424787   -0.878390    1.187522
  H      2.960596    0.229973   -2.994791
  H      1.284187    0.095515   -3.608402
  H      2.232095    2.068984   -1.463854
  H      1.914446    2.472094   -3.158516
  H      0.587842    1.952368   -2.112324
  H     -0.465220    0.198522    2.669962
  H      0.700400   -1.131656    2.325925
  H     -2.480881    2.930887    0.334198
  H     -3.573303    2.872800    1.745956
  H     -1.590204    4.315322    2.207498
  H     -1.587350    2.896033    3.265286
  H     -0.509660    2.955677    1.860649
  H     -5.404325   -1.237851   -0.784297
  H     -4.230445   -0.451624   -1.883083
  H     -4.084294   -2.948871   -2.037172
  H     -2.578645   -2.234697   -1.438965
  H     -3.687365   -3.021200   -0.309380

 Total Charge           Charge          ....    0
 Multiplicity           Mult            ....    1
 Number of Electrons    NEL             ....  202
 Basis Dimension        Dim             ....  334

ORBITAL ENERGIES
----------------

  NO   OCC          E(Eh)            E(eV)
   0   2.0000     -88.041609     -2395.7340
   1   2.0000     -88.036171     -2395.5860
   2   2.0000     -87.983905     -2394.1638
   3   2.0000     -87.982717     -2394.1314
   4   2.0000     -76.425137     -2079.6337
   5   2.0000     -76.423894     -2079.5999
   6   2.0000     -18.796100      -511.4679
   7   2.0000     -18.793651      -511.4012
   8   2.0000     -18.787157      -511.2245
   9   2.0000     -18.785629      -511.1830
  10   2.0000      -9.954564      -270.8775
  11   2.0000      -9.953702      -270.8540
  12   2.0000      -9.953399      -270.8458
  13   2.0000      -9.951218      -270.7864
  14   2.0000      -9.947662      -270.6897
  15   2.0000      -9.890690      -269.1393
  16   2.0000      -9.888977      -269.0927
  17   2.0000      -9.881111      -268.8787
  18   2.0000      -9.878190      -268.7992
  19   2.0000      -7.685947      -209.1452
  20   2.0000      -7.681224      -209.0167
  21   2.0000      -7.628812      -207.5905
  22   2.0000      -7.627938      -207.5667
  23   2.0000      -6.422586      -174.7675
  24   2.0000      -6.421529      -174.7387
  25   2.0000      -5.713779      -155.4798
  26   2.0000      -5.710486      -155.3902
  27   2.0000      -5.709407      -155.3609
  28   2.0000      -5.705716      -155.2604
  29   2.0000      -5.703069      -155.1884
  30   2.0000      -5.697921      -155.0483
  31   2.0000      -5.657413      -153.9460
  32   2.0000      -5.657019      -153.9353
  33   2.0000      -5.649658      -153.7350
  34   2.0000      -5.649035      -153.7181
  35   2.0000      -5.648274      -153.6973
  36   2.0000      -5.648183      -153.6949
  37   2.0000      -4.645606      -126.4134
  38   2.0000      -4.644263      -126.3768
  39   2.0000      -4.644148      -126.3737
  40   2.0000      -4.643350      -126.3520
  41   2.0000      -4.642839      -126.3381
  42   2.0000      -4.641757      -126.3086
  43   2.0000      -0.988014       -26.8852
  44   2.0000      -0.984778       -26.7972
  45   2.0000      -0.944328       -25.6965
  46   2.0000      -0.942756       -25.6537
  47   2.0000      -0.760310       -20.6891
  48   2.0000      -0.720689       -19.6109
  49   2.0000      -0.709950       -19.3187
  50   2.0000      -0.691313       -18.8116
  51   2.0000      -0.684753       -18.6331
  52   2.0000      -0.671244       -18.2655
  53   2.0000      -0.649443       -17.6722
  54   2.0000      -0.635043       -17.2804
  55   2.0000      -0.597625       -16.2622
  56   2.0000      -0.589999       -16.0547
  57   2.0000      -0.571945       -15.5634
  58   2.0000      -0.571385       -15.5482
  59   2.0000      -0.559315       -15.2197
  60   2.0000      -0.506250       -13.7758
  61   2.0000      -0.500619       -13.6225
  62   2.0000      -0.470546       -12.8042
  63   2.0000      -0.469953       -12.7881
  64   2.0000      -0.460017       -12.5177
  65   2.0000      -0.444158       -12.0862
  66   2.0000      -0.439914       -11.9707
  67   2.0000      -0.435162       -11.8414
  68   2.0000      -0.427957       -11.6453
  69   2.0000      -0.414694       -11.2844
  70   2.0000      -0.409069       -11.1313
  71   2.0000      -0.397314       -10.8115
  72   2.0000      -0.390454       -10.6248
  73   2.0000      -0.388880       -10.5820
  74   2.0000      -0.375840       -10.2271
  75   2.0000      -0.372068       -10.1245
  76   2.0000      -0.369411       -10.0522
  77   2.0000      -0.359193        -9.7741
  78   2.0000      -0.354896        -9.6572
  79   2.0000      -0.351659        -9.5691
  80   2.0000      -0.345979        -9.4146
  81   2.0000      -0.343841        -9.3564
  82   2.0000      -0.341888        -9.3032
  83   2.0000      -0.336568        -9.1585
  84   2.0000      -0.331264        -9.0142
  85   2.0000      -0.323766        -8.8101
  86   2.0000      -0.305093        -8.3020
  87   2.0000      -0.302721        -8.2375
  88   2.0000      -0.295141        -8.0312
  89   2.0000      -0.289833        -7.8868
  90   2.0000      -0.283834        -7.7235
  91   2.0000      -0.273797        -7.4504
  92   2.0000      -0.273113        -7.4318
  93   2.0000      -0.258542        -7.0353
  94   2.0000      -0.256360        -6.9759
  95   2.0000      -0.238434        -6.4881
  96   2.0000      -0.216618        -5.8945
  97   2.0000      -0.204142        -5.5550
  98   2.0000      -0.202151        -5.5008
  99   2.0000      -0.196225        -5.3396
 100   2.0000      -0.191259        -5.2044
 101   0.0000      -0.046642        -1.2692
 102   0.0000      -0.024733        -0.6730
 103   0.0000      -0.014859        -0.4043
 104   0.0000       0.000799         0.0217
 105   0.0000       0.016437         0.4473

MULLIKEN ATOMIC CHARGES
-----------------------
   0 C :   -0.281515
   1 C :   -0.006797
   2 O :   -0.388388
   3 P :    0.630755
   4 S :   -0.315093
   5 O :   -0.356983
   6 C :    0.019878
   7 C :   -0.349575
   8 S :   -0.126609
   9 C :   -0.341233
  10 S :   -0.072740
  11 P :    0.613979
  12 S :   -0.331394
  13 O :   -0.375158
  14 C :   -0.005476
  15 C :   -0.309334
  16 O :   -0.367058
  17 C :   -0.002221
  18 C :   -0.330610
  19 H :    0.115059
  20 H :    0.113097
  21 H :    0.121417
  22 H :    0.099529
  23 H :    0.105670
  24 H :    0.105088
  25 H :    0.111692
  26 H :    0.115143
  27 H :    0.108828
  28 H :    0.154581
  29 H :    0.187244
  30 H :    0.188003
  31 H :    0.111535
  32 H :    0.107200
  33 H :    0.113259
  34 H :    0.117042
  35 H :    0.132121
  36 H :    0.104420
  37 H :    0.109393
  38 H :    0.114938
  39 H :    0.136926
  40 H :    0.123382
Sum of atomic charges:   -0.0000000

LOEWDIN ATOMIC CHARGES
----------------------
   0 C :   -0.350436
   1 C :   -0.121807
   2 O :   -0.248468
   3 P :    0.576302
   4 S :   -0.307737
   5 O :   -0.230981
   6 C :   -0.102819
   7 C :   -0.378591
   8 S :    0.069946
   9 C :   -0.480106
  10 S :    0.094154
  11 P :    0.568274
  12 S :   -0.311665
  13 O :   -0.242747
  14 C :   -0.115586
  15 C :   -0.359493
  16 O :   -0.246062
  17 C :   -0.121987
  18 C :   -0.370998
  19 H :    0.125726
  20 H :    0.131613
  21 H :    0.129281
  22 H :    0.107684
  23 H :    0.108679
  24 H :    0.112752
  25 H :    0.124995
  26 H :    0.113840
  27 H :    0.130739
  28 H :    0.122468
  29 H :    0.132666
  30 H :    0.129289
  31 H :    0.107812
  32 H :    0.117556
  33 H :    0.132185
  34 H :    0.124667
  35 H :    0.119633
  36 H :    0.118480
  37 H :    0.108204
  38 H :    0.132200
  39 H :    0.123932
  40 H :    0.126406

  Mayer bond orders larger than 0.100000
B(  0-C ,  1-C ) :   1.1602 B(  0-C , 19-H ) :   0.9517 B(  0-C , 20-H ) :   0.9417
B(  0-C , 21-H ) :   0.9506 B(  1-C ,  2-O ) :   0.9003 B(  1-C , 22-H ) :   0.9265
B(  1-C , 23-H ) :   0.9079 B(  2-O ,  3-P ) :   1.0694 B(  3-P ,  4-S ) :   1.6430
B(  3-P ,  5-O ) :   1.1613 B(  3-P ,  8-S ) :   0.9273 B(  4-S ,  8-S ) :   0.1122
B(  5-O ,  6-C ) :   0.8893 B(  6-C ,  7-C ) :   1.1705 B(  6-C , 24-H ) :   0.9318
B(  6-C , 25-H ) :   0.9319 B(  7-C , 26-H ) :   0.9361 B(  7-C , 27-H ) :   0.9347
B(  7-C , 28-H ) :   0.9197 B(  8-S ,  9-C ) :   1.0136 B(  9-C , 10-S ) :   1.0024
B(  9-C , 29-H ) :   0.8961 B(  9-C , 30-H ) :   0.8798 B( 10-S , 11-P ) :   0.9699
B( 10-S , 12-S ) :   0.1025 B( 11-P , 12-S ) :   1.6071 B( 11-P , 13-O ) :   1.1189
B( 11-P , 16-O ) :   1.1095 B( 13-O , 14-C ) :   0.8957 B( 14-C , 15-C ) :   1.1658
B( 14-C , 31-H ) :   0.8999 B( 14-C , 32-H ) :   0.9332 B( 15-C , 33-H ) :   0.9392
B( 15-C , 34-H ) :   0.9474 B( 15-C , 35-H ) :   0.9360 B( 16-O , 17-C ) :   0.9152
B( 17-C , 18-C ) :   1.1606 B( 17-C , 36-H ) :   0.9326 B( 17-C , 37-H ) :   0.9136
B( 18-C , 38-H ) :   0.9386 B( 18-C , 39-H ) :   0.9321 B( 18-C , 40-H ) :   0.9439

Dispersion correction           -0.065283972
FINAL SINGLE POINT ENERGY     -2929.518403347368

DIPOLE MOMENT
-------------

Method             : SCF
Type of density    : Electron Density
Multiplicity       :   1
Irrep              :   0
Energy             : -2929.6376019675963107 Eh
Relativity type    :
Basis              : AO
                                X                 Y                 Z
Electronic contribution:     -6.069807405     -11.755507320       2.827503980
Nuclear contribution   :      6.303766733      13.002774887      -2.567281612
                        -----------------------------------------
Total Dipole Moment    :      0.233959328       1.247267568       0.260222368
                        -----------------------------------------
Magnitude (a.u.)       :      1.295426197
Magnitude (Debye)      :      3.292711718

Rotational constants in cm-1:             0.011994             0.005069             0.004783
Rotational constants in MHz :           359.578075           151.979214           143.387550

                             ****ORCA TERMINATED NORMALLY****
TOTAL RUN TIME: 0 days 0 hours 0 minutes 21 seconds 186 msec
