                         Program Version 6.0.0  -   RELEASE  -
|  1> ! pbe def2-sv(p) def2/J RI DEFGRID1 loosescf d4 GCP(DFT/SV(P)) printgap
|  2> %output
|  3>     printlevel normal
|  4> end
|  5> * xyz 0 1
|  6> C 4.8171271234 1.1511134312 -1.6068254087
|  7> C 4.3797341608 -0.2821369266 -1.3721768618
|  8> O 3.7234665322 -0.418008472 -0.0961945636
|  9> P 2.1457209236 -0.331966851 0.0740891547
| 10> S 1.2763136916 1.3101491438 -0.5833659
| 11> O 1.9795268536 -0.6111485144 1.620417034
| 12> C 1.9494728789 0.4488957446 2.5967242026
| 13> C 3.3193174473 1.0635312643 2.7913020491
| 14> S 1.5061843814 -2.1635296831 -0.740681137
| 15> C -0.2365401239 -1.7705281826 -1.0390466462
| 16> S -1.1166321947 -1.2629969108 0.4695495774
| 17> P -2.1767458272 0.4392421817 -0.2902156709
| 18> S -1.9778561211 0.8448726856 -2.190433025
| 19> O -1.772508992 1.6355965259 0.649884553
| 20> C -1.7672307572 1.5936998158 2.0967969681
| 21> C -3.1185150779 1.9588733828 2.67571056
| 22> O -3.6820968854 0.1664664458 0.1612888153
| 23> C -4.6214928243 -0.5492996592 -0.6578125448
| 24> C -4.2267750494 -1.9975195858 -0.8642301755
| 25> H 5.3491152183 1.2134265021 -2.5506285944
| 26> H 3.9501654507 1.807509318 -1.6458062001
| 27> H 5.4704939827 1.4795729622 -0.8033677852
| 28> H 5.2369956842 -0.955124264 -1.3118763399
| 29> H 3.7063313017 -0.6213002092 -2.1647454226
| 30> H 1.2320348789 1.2059730524 2.2629590059
| 31> H 1.5859804427 -0.0380320133 3.5024488443
| 32> H 4.0452576451 0.2915525156 3.031170713
| 33> H 3.6293739727 1.5649307691 1.87545213
| 34> H 3.278923226 1.7890179249 3.5977745286
| 35> H -0.6789369111 -2.6905571812 -1.4138060646
| 36> H -0.3209892885 -0.963913837 -1.773564623
| 37> H -1.4548095591 0.5954624292 2.418823126
| 38> H -1.0082623394 2.3286373883 2.3742588659
| 39> H -3.0312423783 2.020087215 3.7560864419
| 40> H -3.4407754755 2.9206759154 2.2860639807
| 41> H -3.8592474207 1.208040621 2.4166269646
| 42> H -5.5616427066 -0.4619326254 -0.1114303182
| 43> H -4.7003293788 -0.0334623349 -1.6196280952
| 44> H -3.3343783937 -2.0503117009 -1.4865102445
| 45> H -4.0249962992 -2.476657243 0.0905059362
| 46> H -5.0345397836 -2.5195898016 -1.3669221177
| 47> *
| 48>
| 49>                          ****END OF INPUT****

CARTESIAN COORDINATES (ANGSTROEM)
---------------------------------
  C      4.817127    1.151113   -1.606825
  C      4.379734   -0.282137   -1.372177
  O      3.723467   -0.418008   -0.096195
  P      2.145721   -0.331967    0.074089
  S      1.276314    1.310149   -0.583366
  O      1.979527   -0.611149    1.620417
  C      1.949473    0.448896    2.596724
  C      3.319317    1.063531    2.791302
  S      1.506184   -2.163530   -0.740681
  C     -0.236540   -1.770528   -1.039047
  S     -1.116632   -1.262997    0.469550
  P     -2.176746    0.439242   -0.290216
  S     -1.977856    0.844873   -2.190433
  O     -1.772509    1.635597    0.649885
  C     -1.767231    1.593700    2.096797
  C     -3.118515    1.958873    2.675711
  O     -3.682097    0.166466    0.161289
  C     -4.621493   -0.549300   -0.657813
  C     -4.226775   -1.997520   -0.864230
  H      5.349115    1.213427   -2.550629
  H      3.950165    1.807509   -1.645806
  H      5.470494    1.479573   -0.803368
  H      5.236996   -0.955124   -1.311876
  H      3.706331   -0.621300   -2.164745
  H      1.232035    1.205973    2.262959
  H      1.585980   -0.038032    3.502449
  H      4.045258    0.291553    3.031171
  H      3.629374    1.564931    1.875452
  H      3.278923    1.789018    3.597775
  H     -0.678937   -2.690557   -1.413806
  H     -0.320989   -0.963914   -1.773565
  H     -1.454810    0.595462    2.418823
  H     -1.008262    2.328637    2.374259
  H     -3.031242    2.020087    3.756086
  H     -3.440775    2.920676    2.286064
  H     -3.859247    1.208041    2.416627
  H     -5.561643   -0.461933   -0.111430
  H     -4.700329   -0.033462   -1.619628
  H     -3.334378   -2.050312   -1.486510
  H     -4.024996   -2.476657    0.090506
  H     -5.034540   -2.519590   -1.366922

 Total Charge           Charge          ....    0
 Multiplicity           Mult            ....    1
 Number of Electrons    NEL             ....  202
 Basis Dimension        Dim             ....  334

ORBITAL ENERGIES
----------------

  NO   OCC          E(Eh)            E(eV)
   0   2.0000     -88.042398     -2395.7555
   1   2.0000     -88.039637     -2395.6803
   2   2.0000     -87.983412     -2394.1503
   3   2.0000     -87.981968     -2394.1111
   4   2.0000     -76.423873     -2079.5993
   5   2.0000     -76.423210     -2079.5813
   6   2.0000     -18.790172      -511.3066
   7   2.0000     -18.789209      -511.2804
   8   2.0000     -18.788048      -511.2488
   9   2.0000     -18.786331      -511.2021
  10   2.0000      -9.957625      -270.9608
  11   2.0000      -9.953633      -270.8521
  12   2.0000      -9.952620      -270.8246
  13   2.0000      -9.951480      -270.7935
  14   2.0000      -9.950800      -270.7750
  15   2.0000      -9.885910      -269.0093
  16   2.0000      -9.884075      -268.9594
  17   2.0000      -9.883760      -268.9508
  18   2.0000      -9.879629      -268.8384
  19   2.0000      -7.688025      -209.2018
  20   2.0000      -7.683911      -209.0898
  21   2.0000      -7.628670      -207.5867
  22   2.0000      -7.626413      -207.5252
  23   2.0000      -6.421100      -174.7270
  24   2.0000      -6.420652      -174.7148
  25   2.0000      -5.715961      -155.5392
  26   2.0000      -5.712368      -155.4414
  27   2.0000      -5.711794      -155.4258
  28   2.0000      -5.708565      -155.3380
  29   2.0000      -5.705024      -155.2416
  30   2.0000      -5.700842      -155.1278
  31   2.0000      -5.657668      -153.9530
  32   2.0000      -5.655266      -153.8876
  33   2.0000      -5.649326      -153.7260
  34   2.0000      -5.648644      -153.7074
  35   2.0000      -5.647128      -153.6662
  36   2.0000      -5.646640      -153.6529
  37   2.0000      -4.643849      -126.3655
  38   2.0000      -4.643081      -126.3447
  39   2.0000      -4.642710      -126.3346
  40   2.0000      -4.642513      -126.3292
  41   2.0000      -4.641603      -126.3044
  42   2.0000      -4.641153      -126.2922
  43   2.0000      -0.984824       -26.7984
  44   2.0000      -0.984555       -26.7911
  45   2.0000      -0.943617       -25.6771
  46   2.0000      -0.941823       -25.6283
  47   2.0000      -0.760448       -20.6928
  48   2.0000      -0.719289       -19.5728
  49   2.0000      -0.708863       -19.2891
  50   2.0000      -0.689032       -18.7495
  51   2.0000      -0.685768       -18.6607
  52   2.0000      -0.674015       -18.3409
  53   2.0000      -0.649044       -17.6614
  54   2.0000      -0.634397       -17.2628
  55   2.0000      -0.597643       -16.2627
  56   2.0000      -0.590933       -16.0801
  57   2.0000      -0.575445       -15.6587
  58   2.0000      -0.569133       -15.4869
  59   2.0000      -0.560948       -15.2642
  60   2.0000      -0.501107       -13.6358
  61   2.0000      -0.494901       -13.4669
  62   2.0000      -0.475346       -12.9348
  63   2.0000      -0.471429       -12.8282
  64   2.0000      -0.447085       -12.1658
  65   2.0000      -0.445001       -12.1091
  66   2.0000      -0.442014       -12.0278
  67   2.0000      -0.436663       -11.8822
  68   2.0000      -0.429644       -11.6912
  69   2.0000      -0.422185       -11.4882
  70   2.0000      -0.401645       -10.9293
  71   2.0000      -0.396749       -10.7961
  72   2.0000      -0.390497       -10.6260
  73   2.0000      -0.389260       -10.5923
  74   2.0000      -0.384923       -10.4743
  75   2.0000      -0.368671       -10.0321
  76   2.0000      -0.366525        -9.9737
  77   2.0000      -0.355337        -9.6692
  78   2.0000      -0.353157        -9.6099
  79   2.0000      -0.350565        -9.5394
  80   2.0000      -0.346832        -9.4378
  81   2.0000      -0.345737        -9.4080
  82   2.0000      -0.338902        -9.2220
  83   2.0000      -0.338315        -9.2060
  84   2.0000      -0.331256        -9.0139
  85   2.0000      -0.315294        -8.5796
  86   2.0000      -0.312677        -8.5084
  87   2.0000      -0.296490        -8.0679
  88   2.0000      -0.294392        -8.0108
  89   2.0000      -0.289297        -7.8722
  90   2.0000      -0.283366        -7.7108
  91   2.0000      -0.275461        -7.4957
  92   2.0000      -0.266931        -7.2636
  93   2.0000      -0.262240        -7.1359
  94   2.0000      -0.257522        -7.0075
  95   2.0000      -0.233181        -6.3452
  96   2.0000      -0.219446        -5.9714
  97   2.0000      -0.211667        -5.7597
  98   2.0000      -0.199624        -5.4320
  99   2.0000      -0.195280        -5.3138
 100   2.0000      -0.185872        -5.0578
 101   0.0000      -0.042230        -1.1491
 102   0.0000      -0.032847        -0.8938
 103   0.0000      -0.009195        -0.2502
 104   0.0000       0.012123         0.3299
 105   0.0000       0.017690         0.4814

MULLIKEN ATOMIC CHARGES
-----------------------
   0 C :   -0.295849
   1 C :   -0.010526
   2 O :   -0.371387
   3 P :    0.601688
   4 S :   -0.312636
   5 O :   -0.359637
   6 C :   -0.031527
   7 C :   -0.300351
   8 S :   -0.090015
   9 C :   -0.349623
  10 S :   -0.124961
  11 P :    0.620794
  12 S :   -0.293772
  13 O :   -0.350036
  14 C :   -0.046351
  15 C :   -0.277052
  16 O :   -0.382687
  17 C :    0.004186
  18 C :   -0.318612
  19 H :    0.107820
  20 H :    0.131528
  21 H :    0.113416
  22 H :    0.107062
  23 H :    0.103908
  24 H :    0.126144
  25 H :    0.103507
  26 H :    0.117868
  27 H :    0.125216
  28 H :    0.108433
  29 H :    0.181334
  30 H :    0.207141
  31 H :    0.114515
  32 H :    0.124015
  33 H :    0.106863
  34 H :    0.119936
  35 H :    0.124015
  36 H :    0.102381
  37 H :    0.111582
  38 H :    0.120017
  39 H :    0.119432
  40 H :    0.112220
Sum of atomic charges:    0.0000000

LOEWDIN ATOMIC CHARGES
----------------------
   0 C :   -0.363919
   1 C :   -0.115849
   2 O :   -0.246352
   3 P :    0.558719
   4 S :   -0.305274
   5 O :   -0.237713
   6 C :   -0.119659
   7 C :   -0.362929
   8 S :    0.084430
   9 C :   -0.479578
  10 S :    0.059957
  11 P :    0.577557
  12 S :   -0.287100
  13 O :   -0.227648
  14 C :   -0.114083
  15 C :   -0.360853
  16 O :   -0.251412
  17 C :   -0.117344
  18 C :   -0.370961
  19 H :    0.128910
  20 H :    0.125697
  21 H :    0.124432
  22 H :    0.118492
  23 H :    0.107900
  24 H :    0.108920
  25 H :    0.117411
  26 H :    0.127161
  27 H :    0.124311
  28 H :    0.128767
  29 H :    0.132754
  30 H :    0.123624
  31 H :    0.104549
  32 H :    0.121129
  33 H :    0.128386
  34 H :    0.129877
  35 H :    0.126172
  36 H :    0.117195
  37 H :    0.111588
  38 H :    0.118738
  39 H :    0.123777
  40 H :    0.130221

  Mayer bond orders larger than 0.100000
B(  0-C ,  1-C ) :   1.1673 B(  0-C , 19-H ) :   0.9394 B(  0-C , 20-H ) :   0.9311
B(  0-C , 21-H ) :   0.9464 B(  1-C ,  2-O ) :   0.9055 B(  1-C , 22-H ) :   0.9361
B(  1-C , 23-H ) :   0.9154 B(  2-O ,  3-P ) :   1.1029 B(  3-P ,  4-S ) :   1.6230
B(  3-P ,  5-O ) :   1.1261 B(  3-P ,  8-S ) :   0.9600 B(  4-S ,  8-S ) :   0.1153
B(  5-O ,  6-C ) :   0.9096 B(  6-C ,  7-C ) :   1.1626 B(  6-C , 24-H ) :   0.9022
B(  6-C , 25-H ) :   0.9344 B(  7-C , 26-H ) :   0.9461 B(  7-C , 27-H ) :   0.9362
B(  7-C , 28-H ) :   0.9389 B(  8-S ,  9-C ) :   1.0002 B(  9-C , 10-S ) :   1.0009
B(  9-C , 29-H ) :   0.9056 B(  9-C , 30-H ) :   0.8481 B( 10-S , 11-P ) :   0.9346
B( 10-S , 12-S ) :   0.1175 B( 11-P , 12-S ) :   1.6265 B( 11-P , 13-O ) :   1.1419
B( 11-P , 16-O ) :   1.0714 B( 12-S , 30-H ) :   0.1049 B( 13-O , 14-C ) :   0.9031
B( 14-C , 15-C ) :   1.1580 B( 14-C , 31-H ) :   0.9130 B( 14-C , 32-H ) :   0.9260
B( 15-C , 33-H ) :   0.9389 B( 15-C , 34-H ) :   0.9459 B( 15-C , 35-H ) :   0.9372
B( 16-O , 17-C ) :   0.9155 B( 17-C , 18-C ) :   1.1643 B( 17-C , 36-H ) :   0.9342
B( 17-C , 37-H ) :   0.9176 B( 18-C , 38-H ) :   0.9362 B( 18-C , 39-H ) :   0.9414
B( 18-C , 40-H ) :   0.9370

Dispersion correction           -0.066490516
FINAL SINGLE POINT ENERGY     -2929.517083767370

DIPOLE MOMENT
-------------

Method             : SCF
Type of density    : Electron Density
Multiplicity       :   1
Irrep              :   0
Energy             : -2929.6352004381237748 Eh
Relativity type    :
Basis              : AO
                                X                 Y                 Z
Electronic contribution:     -1.027712024      -5.722089119      -9.868817009
Nuclear contribution   :      1.010990108       5.219303894      10.977116377
                        -----------------------------------------
Total Dipole Moment    :     -0.016721916      -0.502785224       1.108299368
                        -----------------------------------------
Magnitude (a.u.)       :      1.217127805
Magnitude (Debye)      :      3.093693020

Rotational constants in cm-1:             0.012551             0.005208             0.004666
Rotational constants in MHz :           376.272345           156.137445           139.887308

                             ****ORCA TERMINATED NORMALLY****
TOTAL RUN TIME: 0 days 0 hours 0 minutes 21 seconds 113 msec
