                         Program Version 6.0.1  -  RELEASE   -
|  1> ! pbe def2-sv(p) def2/J RI DEFGRID1 loosescf d4 GCP(DFT/SV(P)) printgap
|  2> %output
|  3>     printlevel normal
|  4> end
|  5> * xyz 0 1
|  6> C 3.2947336495 -2.9367191 -2.889130378
|  7> C 2.1449622777 -3.1714492469 -1.9223122143
|  8> O 1.9008728636 -2.0034212384 -1.1164830191
|  9> C 2.6159325294 -1.8411204656 -0.0204300729
| 10> O 3.4582663155 -2.618182466 0.3703037281
| 11> C 2.2848503787 -0.5551720362 0.7143053743
| 12> C 0.9587111878 0.0626981711 0.2960766088
| 13> H 0.9253078159 0.1917162068 -0.7914517356
| 14> C 0.7215366715 1.4242783992 0.9246841672
| 15> O -0.3207419524 1.7145453973 1.4754122397
| 16> O 1.750202356 2.2154846763 0.7827359937
| 17> C 1.6249256136 3.5865065107 1.2202076661
| 18> C 1.0416571426 4.4430404357 0.1088162129
| 19> S -0.4406927196 -1.0142561675 0.7626806148
| 20> P -2.0119343387 0.2123561832 0.022870418
| 21> S -1.5631384776 1.4879377833 -1.390940037
| 22> O -3.0458837792 -0.9168267171 -0.4737967323
| 23> C -2.7538519835 -1.7401052439 -1.6053389271
| 24> O -2.8689931943 0.8252322653 1.197560101
| 25> C -3.2871026544 0.0548536062 2.3399796969
| 26> H 3.0950595185 -2.0639724217 -3.5049687358
| 27> H 4.219508557 -2.7801361836 -2.3386725387
| 28> H 3.4085574491 -3.806284659 -3.5278601861
| 29> H 2.3627379931 -4.012502137 -1.2583170148
| 30> H 1.2074682358 -3.3374491151 -2.4532471518
| 31> H 3.0865788248 0.1583228204 0.5062253341
| 32> H 2.2969577139 -0.7734642047 1.7835102751
| 33> H 0.9887511714 3.6131186026 2.1087140887
| 34> H 2.6432782983 3.8867338113 1.4659970741
| 35> H 0.0457079942 4.0904145129 -0.1547854748
| 36> H 0.9734398745 5.4723100443 0.4444772902
| 37> H 1.6708916879 4.3926814595 -0.7752201112
| 38> H -1.9672101472 -2.4512627701 -1.3522569718
| 39> H -2.4407663971 -1.1208712716 -2.4477175331
| 40> H -3.6800849054 -2.2588520926 -1.8384280774
| 41> H -2.4123555586 -0.288328042 2.8922097658
| 42> H -3.88861546 -0.7937468845 2.0186394635
| 43> H -3.8740415661 0.7427590318 2.9428721049
| 44> *
| 45>
| 46>                          ****END OF INPUT****

CARTESIAN COORDINATES (ANGSTROEM)
---------------------------------
  C      3.294734   -2.936719   -2.889130
  C      2.144962   -3.171449   -1.922312
  O      1.900873   -2.003421   -1.116483
  C      2.615933   -1.841120   -0.020430
  O      3.458266   -2.618182    0.370304
  C      2.284850   -0.555172    0.714305
  C      0.958711    0.062698    0.296077
  H      0.925308    0.191716   -0.791452
  C      0.721537    1.424278    0.924684
  O     -0.320742    1.714545    1.475412
  O      1.750202    2.215485    0.782736
  C      1.624926    3.586507    1.220208
  C      1.041657    4.443040    0.108816
  S     -0.440693   -1.014256    0.762681
  P     -2.011934    0.212356    0.022870
  S     -1.563138    1.487938   -1.390940
  O     -3.045884   -0.916827   -0.473797
  C     -2.753852   -1.740105   -1.605339
  O     -2.868993    0.825232    1.197560
  C     -3.287103    0.054854    2.339980
  H      3.095060   -2.063972   -3.504969
  H      4.219509   -2.780136   -2.338673
  H      3.408557   -3.806285   -3.527860
  H      2.362738   -4.012502   -1.258317
  H      1.207468   -3.337449   -2.453247
  H      3.086579    0.158323    0.506225
  H      2.296958   -0.773464    1.783510
  H      0.988751    3.613119    2.108714
  H      2.643278    3.886734    1.465997
  H      0.045708    4.090415   -0.154785
  H      0.973440    5.472310    0.444477
  H      1.670892    4.392681   -0.775220
  H     -1.967210   -2.451263   -1.352257
  H     -2.440766   -1.120871   -2.447718
  H     -3.680085   -2.258852   -1.838428
  H     -2.412356   -0.288328    2.892210
  H     -3.888615   -0.793747    2.018639
  H     -3.874042    0.742759    2.942872

 Total Charge           Charge          ....    0
 Multiplicity           Mult            ....    1
 Number of Electrons    NEL             ....  174
 Basis Dimension        Dim             ....  316

ORBITAL ENERGIES
----------------

  NO   OCC          E(Eh)            E(eV)
   0   2.0000     -88.037072     -2395.6105
   1   2.0000     -87.976807     -2393.9706
   2   2.0000     -76.421173     -2079.5258
   3   2.0000     -18.817070      -512.0385
   4   2.0000     -18.809421      -511.8304
   5   2.0000     -18.784145      -511.1426
   6   2.0000     -18.783154      -511.1156
   7   2.0000     -18.745914      -510.1023
   8   2.0000     -18.740845      -509.9643
   9   2.0000     -10.020147      -272.6621
  10   2.0000     -10.016006      -272.5494
  11   2.0000      -9.953897      -270.8593
  12   2.0000      -9.953020      -270.8354
  13   2.0000      -9.945569      -270.6327
  14   2.0000      -9.943222      -270.5688
  15   2.0000      -9.938442      -270.4387
  16   2.0000      -9.919784      -269.9310
  17   2.0000      -9.890891      -269.1448
  18   2.0000      -9.885135      -268.9882
  19   2.0000      -7.681875      -209.0344
  20   2.0000      -7.622086      -207.4075
  21   2.0000      -6.417484      -174.6286
  22   2.0000      -5.709619      -155.3666
  23   2.0000      -5.706617      -155.2849
  24   2.0000      -5.698817      -155.0727
  25   2.0000      -5.651230      -153.7778
  26   2.0000      -5.642648      -153.5443
  27   2.0000      -5.641981      -153.5261
  28   2.0000      -4.640182      -126.2658
  29   2.0000      -4.639542      -126.2483
  30   2.0000      -4.637837      -126.2020
  31   2.0000      -1.025034       -27.8926
  32   2.0000      -1.016828       -27.6693
  33   2.0000      -0.978547       -26.6276
  34   2.0000      -0.934023       -25.4160
  35   2.0000      -0.926936       -25.2232
  36   2.0000      -0.919467       -25.0200
  37   2.0000      -0.768074       -20.9004
  38   2.0000      -0.713702       -19.4208
  39   2.0000      -0.709335       -19.3020
  40   2.0000      -0.690096       -18.7785
  41   2.0000      -0.659762       -17.9530
  42   2.0000      -0.629549       -17.1309
  43   2.0000      -0.624082       -16.9821
  44   2.0000      -0.615172       -16.7397
  45   2.0000      -0.598410       -16.2836
  46   2.0000      -0.569491       -15.4966
  47   2.0000      -0.512493       -13.9456
  48   2.0000      -0.504458       -13.7270
  49   2.0000      -0.501400       -13.6438
  50   2.0000      -0.478394       -13.0178
  51   2.0000      -0.468117       -12.7381
  52   2.0000      -0.467350       -12.7173
  53   2.0000      -0.451602       -12.2887
  54   2.0000      -0.441825       -12.0227
  55   2.0000      -0.430901       -11.7254
  56   2.0000      -0.425289       -11.5727
  57   2.0000      -0.420138       -11.4325
  58   2.0000      -0.411319       -11.1926
  59   2.0000      -0.408662       -11.1203
  60   2.0000      -0.402299       -10.9471
  61   2.0000      -0.402036       -10.9400
  62   2.0000      -0.394481       -10.7344
  63   2.0000      -0.387570       -10.5463
  64   2.0000      -0.380329       -10.3493
  65   2.0000      -0.367633       -10.0038
  66   2.0000      -0.363023        -9.8784
  67   2.0000      -0.355224        -9.6661
  68   2.0000      -0.347952        -9.4682
  69   2.0000      -0.339303        -9.2329
  70   2.0000      -0.334747        -9.1089
  71   2.0000      -0.333714        -9.0808
  72   2.0000      -0.326307        -8.8793
  73   2.0000      -0.313255        -8.5241
  74   2.0000      -0.303088        -8.2474
  75   2.0000      -0.300224        -8.1695
  76   2.0000      -0.294878        -8.0240
  77   2.0000      -0.290263        -7.8985
  78   2.0000      -0.271754        -7.3948
  79   2.0000      -0.266398        -7.2491
  80   2.0000      -0.263456        -7.1690
  81   2.0000      -0.253870        -6.9082
  82   2.0000      -0.240460        -6.5432
  83   2.0000      -0.224232        -6.1017
  84   2.0000      -0.215557        -5.8656
  85   2.0000      -0.198035        -5.3888
  86   2.0000      -0.192471        -5.2374
  87   0.0000      -0.041497        -1.1292
  88   0.0000      -0.034571        -0.9407
  89   0.0000      -0.020028        -0.5450
  90   0.0000       0.007306         0.1988
  91   0.0000       0.024966         0.6793

MULLIKEN ATOMIC CHARGES
-----------------------
   0 C :   -0.307701
   1 C :   -0.010272
   2 O :   -0.228617
   3 C :    0.142049
   4 O :   -0.200220
   5 C :   -0.142634
   6 C :   -0.282443
   7 H :    0.153544
   8 C :    0.216549
   9 O :   -0.182212
  10 O :   -0.227958
  11 C :   -0.012015
  12 C :   -0.309006
  13 S :   -0.106978
  14 P :    0.623187
  15 S :   -0.329558
  16 O :   -0.392419
  17 C :   -0.100363
  18 O :   -0.350865
  19 C :   -0.102781
  20 H :    0.116582
  21 H :    0.128225
  22 H :    0.115108
  23 H :    0.111142
  24 H :    0.105420
  25 H :    0.144249
  26 H :    0.122185
  27 H :    0.113799
  28 H :    0.104755
  29 H :    0.144531
  30 H :    0.112944
  31 H :    0.113886
  32 H :    0.110705
  33 H :    0.113724
  34 H :    0.121617
  35 H :    0.121630
  36 H :    0.119568
  37 H :    0.130646
Sum of atomic charges:   -0.0000000

LOEWDIN ATOMIC CHARGES
----------------------
   0 C :   -0.356181
   1 C :   -0.108866
   2 O :   -0.053509
   3 C :    0.029047
   4 O :   -0.164916
   5 C :   -0.249298
   6 C :   -0.274011
   7 H :    0.143261
   8 C :    0.014055
   9 O :   -0.159521
  10 O :   -0.042833
  11 C :   -0.106822
  12 C :   -0.357002
  13 S :    0.092093
  14 P :    0.589668
  15 S :   -0.321602
  16 O :   -0.266549
  17 C :   -0.220288
  18 O :   -0.229383
  19 C :   -0.207837
  20 H :    0.125885
  21 H :    0.130957
  22 H :    0.131915
  23 H :    0.121628
  24 H :    0.118355
  25 H :    0.157145
  26 H :    0.145838
  27 H :    0.122948
  28 H :    0.118450
  29 H :    0.135280
  30 H :    0.131100
  31 H :    0.125534
  32 H :    0.104166
  33 H :    0.108969
  34 H :    0.120361
  35 H :    0.112398
  36 H :    0.113129
  37 H :    0.126441

  Mayer bond orders larger than 0.100000
B(  0-C ,  1-C ) :   1.1758 B(  0-C , 20-H ) :   0.9485 B(  0-C , 21-H ) :   0.9454
B(  0-C , 22-H ) :   0.9441 B(  1-C ,  2-O ) :   0.9115 B(  1-C , 23-H ) :   0.9144
B(  1-C , 24-H ) :   0.9353 B(  2-O ,  3-C ) :   1.2339 B(  3-C ,  4-O ) :   2.0544
B(  3-C ,  5-C ) :   1.0153 B(  5-C ,  6-C ) :   1.0754 B(  5-C , 25-H ) :   0.8737
B(  5-C , 26-H ) :   0.9016 B(  6-C ,  7-H ) :   0.8350 B(  6-C ,  8-C ) :   0.8923
B(  6-C , 13-S ) :   1.0208 B(  8-C ,  9-O ) :   2.0134 B(  8-C , 10-O ) :   1.2599
B( 10-O , 11-C ) :   0.8985 B( 11-C , 12-C ) :   1.1802 B( 11-C , 27-H ) :   0.9123
B( 11-C , 28-H ) :   0.9365 B( 12-C , 29-H ) :   0.9351 B( 12-C , 30-H ) :   0.9420
B( 12-C , 31-H ) :   0.9486 B( 13-S , 14-P ) :   0.9453 B( 13-S , 15-S ) :   0.1120
B( 14-P , 15-S ) :   1.6120 B( 14-P , 16-O ) :   1.0555 B( 14-P , 18-O ) :   1.1403
B( 16-O , 17-C ) :   0.9405 B( 17-C , 32-H ) :   0.9441 B( 17-C , 33-H ) :   0.9345
B( 17-C , 34-H ) :   0.9584 B( 18-O , 19-C ) :   0.9212 B( 19-C , 35-H ) :   0.9413
B( 19-C , 36-H ) :   0.9461 B( 19-C , 37-H ) :   0.9600

Dispersion correction           -0.050658084
FINAL SINGLE POINT ENERGY     -1979.017029482972

DIPOLE MOMENT
-------------

Method             : SCF
Type of density    : Electron Density
Multiplicity       :   1
Irrep              :   0
Energy             : -1979.1475655025888045 Eh
Relativity type    :
Basis              : AO
                                X                 Y                 Z
Electronic contribution:     -9.642334509       0.966029254       5.856929371
Nuclear contribution   :      9.994286884      -1.283454814      -5.861114844
                        -----------------------------------------
Total Dipole Moment    :      0.351952375      -0.317425560      -0.004185472
                        -----------------------------------------
Magnitude (a.u.)       :      0.473969386
Magnitude (Debye)      :      1.204734438

Rotational constants in cm-1:             0.010890             0.007574             0.005630
Rotational constants in MHz :           326.481707           227.064676           168.779404

                             ****ORCA TERMINATED NORMALLY****
TOTAL RUN TIME: 0 days 0 hours 0 minutes 39 seconds 308 msec
