                         Program Version 6.0.1  -  RELEASE   -
|  1> ! pbe def2-sv(p) def2/J RI DEFGRID1 loosescf d4 GCP(DFT/SV(P)) printgap
|  2> %output
|  3>     printlevel normal
|  4> end
|  5> * xyz 0 1
|  6> C 3.5100648935 -1.1429333801 1.9898134315
|  7> C 2.7590187039 -2.0579642663 1.0366429601
|  8> O 2.5420255206 -1.4142772516 -0.2358481688
|  9> C 1.5477700948 -0.5803337641 -0.3648527457
| 10> O 0.7707711917 -0.2726292057 0.5293826613
| 11> C 1.4281192033 0.0032573249 -1.749533979
| 12> C 0.2980064945 1.0212156657 -1.7383171162
| 13> H 0.2886185859 1.6064376652 -2.6614699696
| 14> C 0.4039565489 1.9730737645 -0.5541248259
| 15> O -0.5434272128 2.3960044327 0.0666338505
| 16> O 1.6577550251 2.3187885571 -0.3407230199
| 17> C 1.9391464375 3.2473116996 0.7264459769
| 18> C 3.2162570239 3.9912001507 0.3870566515
| 19> S -1.3611901186 0.2564224411 -1.7367970997
| 20> P -1.7289553818 -0.8037473564 0.064631682
| 21> S -0.9590682435 -2.5861845449 0.4082457076
| 22> O -1.8780289849 0.1964169216 1.2813557097
| 23> C -1.1756428432 0.1205084665 2.5184246646
| 24> O -3.309238531 -0.9564849522 -0.1781258367
| 25> C -3.8406080723 -1.8472463396 -1.161626715
| 26> H 2.9103115233 -0.2641367486 2.2169085896
| 27> H 3.7106635466 -1.6769477939 2.9125179647
| 28> H 4.4497072476 -0.8286730634 1.544227335
| 29> H 1.7893873336 -2.3525474352 1.4480574222
| 30> H 3.3422616847 -2.9441741602 0.788794731
| 31> H 1.225000564 -0.7961436115 -2.4639359726
| 32> H 2.374015778 0.4758132393 -2.0174654544
| 33> H 1.0845430687 3.9223159342 0.8328482648
| 34> H 2.0441789415 2.6683171687 1.6496350101
| 35> H 3.4496663943 4.6804086507 1.1917352057
| 36> H 4.0362199731 3.2899665001 0.2668142261
| 37> H 3.0904863656 4.5491893853 -0.5360335724
| 38> H -1.9101444819 0.3089125331 3.2985718496
| 39> H -0.4001069133 0.8851408351 2.5264470585
| 40> H -0.7269873181 -0.8666025917 2.6447793449
| 41> H -4.8920380223 -1.9654300728 -0.911473552
| 42> H -3.3281184522 -2.8104481655 -1.1103056206
| 43> H -3.7287015158 -1.4180243464 -2.157201083
| 44> *
| 45>
| 46>                          ****END OF INPUT****

CARTESIAN COORDINATES (ANGSTROEM)
---------------------------------
  C      3.510065   -1.142933    1.989813
  C      2.759019   -2.057964    1.036643
  O      2.542026   -1.414277   -0.235848
  C      1.547770   -0.580334   -0.364853
  O      0.770771   -0.272629    0.529383
  C      1.428119    0.003257   -1.749534
  C      0.298006    1.021216   -1.738317
  H      0.288619    1.606438   -2.661470
  C      0.403957    1.973074   -0.554125
  O     -0.543427    2.396004    0.066634
  O      1.657755    2.318789   -0.340723
  C      1.939146    3.247312    0.726446
  C      3.216257    3.991200    0.387057
  S     -1.361190    0.256422   -1.736797
  P     -1.728955   -0.803747    0.064632
  S     -0.959068   -2.586185    0.408246
  O     -1.878029    0.196417    1.281356
  C     -1.175643    0.120508    2.518425
  O     -3.309239   -0.956485   -0.178126
  C     -3.840608   -1.847246   -1.161627
  H      2.910312   -0.264137    2.216909
  H      3.710664   -1.676948    2.912518
  H      4.449707   -0.828673    1.544227
  H      1.789387   -2.352547    1.448057
  H      3.342262   -2.944174    0.788795
  H      1.225001   -0.796144   -2.463936
  H      2.374016    0.475813   -2.017465
  H      1.084543    3.922316    0.832848
  H      2.044179    2.668317    1.649635
  H      3.449666    4.680409    1.191735
  H      4.036220    3.289967    0.266814
  H      3.090486    4.549189   -0.536034
  H     -1.910144    0.308913    3.298572
  H     -0.400107    0.885141    2.526447
  H     -0.726987   -0.866603    2.644779
  H     -4.892038   -1.965430   -0.911474
  H     -3.328118   -2.810448   -1.110306
  H     -3.728702   -1.418024   -2.157201

 Total Charge           Charge          ....    0
 Multiplicity           Mult            ....    1
 Number of Electrons    NEL             ....  174
 Basis Dimension        Dim             ....  316

ORBITAL ENERGIES
----------------

  NO   OCC          E(Eh)            E(eV)
   0   2.0000     -88.029220     -2395.3969
   1   2.0000     -87.965205     -2393.6549
   2   2.0000     -76.414548     -2079.3456
   3   2.0000     -18.817361      -512.0464
   4   2.0000     -18.810489      -511.8594
   5   2.0000     -18.774507      -510.8803
   6   2.0000     -18.769211      -510.7362
   7   2.0000     -18.759190      -510.4635
   8   2.0000     -18.734429      -509.7897
   9   2.0000     -10.026442      -272.8334
  10   2.0000     -10.015580      -272.5378
  11   2.0000      -9.954832      -270.8848
  12   2.0000      -9.952556      -270.8228
  13   2.0000      -9.951123      -270.7838
  14   2.0000      -9.927550      -270.1424
  15   2.0000      -9.927207      -270.1330
  16   2.0000      -9.919142      -269.9136
  17   2.0000      -9.896545      -269.2987
  18   2.0000      -9.894518      -269.2435
  19   2.0000      -7.674108      -208.8231
  20   2.0000      -7.610454      -207.0910
  21   2.0000      -6.410397      -174.4358
  22   2.0000      -5.702632      -155.1765
  23   2.0000      -5.698347      -155.0599
  24   2.0000      -5.690670      -154.8510
  25   2.0000      -5.639506      -153.4588
  26   2.0000      -5.631144      -153.2312
  27   2.0000      -5.630325      -153.2089
  28   2.0000      -4.632907      -126.0678
  29   2.0000      -4.632674      -126.0615
  30   2.0000      -4.630782      -126.0100
  31   2.0000      -1.027706       -27.9653
  32   2.0000      -1.015827       -27.6420
  33   2.0000      -0.967388       -26.3240
  34   2.0000      -0.934567       -25.4309
  35   2.0000      -0.923127       -25.1196
  36   2.0000      -0.916520       -24.9398
  37   2.0000      -0.765662       -20.8347
  38   2.0000      -0.718567       -19.5532
  39   2.0000      -0.711316       -19.3559
  40   2.0000      -0.686572       -18.6826
  41   2.0000      -0.655696       -17.8424
  42   2.0000      -0.623338       -16.9619
  43   2.0000      -0.614710       -16.7271
  44   2.0000      -0.607529       -16.5317
  45   2.0000      -0.601386       -16.3645
  46   2.0000      -0.566331       -15.4106
  47   2.0000      -0.518830       -14.1181
  48   2.0000      -0.506935       -13.7944
  49   2.0000      -0.493770       -13.4362
  50   2.0000      -0.490087       -13.3360
  51   2.0000      -0.464728       -12.6459
  52   2.0000      -0.458154       -12.4670
  53   2.0000      -0.448740       -12.2108
  54   2.0000      -0.441320       -12.0089
  55   2.0000      -0.438939       -11.9441
  56   2.0000      -0.421222       -11.4620
  57   2.0000      -0.416671       -11.3382
  58   2.0000      -0.407577       -11.0907
  59   2.0000      -0.404118       -10.9966
  60   2.0000      -0.396294       -10.7837
  61   2.0000      -0.393053       -10.6955
  62   2.0000      -0.391132       -10.6433
  63   2.0000      -0.383130       -10.4255
  64   2.0000      -0.379639       -10.3305
  65   2.0000      -0.371037       -10.0964
  66   2.0000      -0.365598        -9.9484
  67   2.0000      -0.358373        -9.7518
  68   2.0000      -0.354506        -9.6466
  69   2.0000      -0.343689        -9.3523
  70   2.0000      -0.339081        -9.2269
  71   2.0000      -0.329710        -8.9719
  72   2.0000      -0.327090        -8.9006
  73   2.0000      -0.306644        -8.3442
  74   2.0000      -0.303137        -8.2488
  75   2.0000      -0.300213        -8.1692
  76   2.0000      -0.285575        -7.7709
  77   2.0000      -0.276925        -7.5355
  78   2.0000      -0.270960        -7.3732
  79   2.0000      -0.265117        -7.2142
  80   2.0000      -0.249189        -6.7808
  81   2.0000      -0.247178        -6.7261
  82   2.0000      -0.239271        -6.5109
  83   2.0000      -0.225187        -6.1276
  84   2.0000      -0.214482        -5.8364
  85   2.0000      -0.184018        -5.0074
  86   2.0000      -0.177234        -4.8228
  87   0.0000      -0.049402        -1.3443
  88   0.0000      -0.026650        -0.7252
  89   0.0000      -0.021704        -0.5906
  90   0.0000      -0.004689        -0.1276
  91   0.0000       0.017745         0.4829

MULLIKEN ATOMIC CHARGES
-----------------------
   0 C :   -0.317825
   1 C :   -0.020813
   2 O :   -0.208999
   3 C :    0.147035
   4 O :   -0.233260
   5 C :   -0.054197
   6 C :   -0.303620
   7 H :    0.146238
   8 C :    0.190249
   9 O :   -0.167731
  10 O :   -0.249085
  11 C :   -0.036575
  12 C :   -0.277713
  13 S :   -0.092806
  14 P :    0.637785
  15 S :   -0.369688
  16 O :   -0.348986
  17 C :   -0.086028
  18 O :   -0.374598
  19 C :   -0.103997
  20 H :    0.127554
  21 H :    0.118396
  22 H :    0.112909
  23 H :    0.134828
  24 H :    0.107237
  25 H :    0.136855
  26 H :    0.124711
  27 H :    0.118827
  28 H :    0.113061
  29 H :    0.114543
  30 H :    0.112952
  31 H :    0.115667
  32 H :    0.116233
  33 H :    0.112238
  34 H :    0.113091
  35 H :    0.120597
  36 H :    0.112067
  37 H :    0.112847
Sum of atomic charges:   -0.0000000

LOEWDIN ATOMIC CHARGES
----------------------
   0 C :   -0.358037
   1 C :   -0.109671
   2 O :   -0.031939
   3 C :    0.046044
   4 O :   -0.164465
   5 C :   -0.253854
   6 C :   -0.263949
   7 H :    0.152073
   8 C :    0.005906
   9 O :   -0.146712
  10 O :   -0.067171
  11 C :   -0.107379
  12 C :   -0.350468
  13 S :    0.111690
  14 P :    0.583289
  15 S :   -0.350138
  16 O :   -0.220145
  17 C :   -0.207772
  18 O :   -0.257602
  19 C :   -0.221067
  20 H :    0.126992
  21 H :    0.133738
  22 H :    0.124067
  23 H :    0.122862
  24 H :    0.121399
  25 H :    0.150362
  26 H :    0.148160
  27 H :    0.121989
  28 H :    0.116123
  29 H :    0.132079
  30 H :    0.125111
  31 H :    0.127079
  32 H :    0.116523
  33 H :    0.108546
  34 H :    0.105181
  35 H :    0.120137
  36 H :    0.105596
  37 H :    0.105422

  Mayer bond orders larger than 0.100000
B(  0-C ,  1-C ) :   1.1664 B(  0-C , 20-H ) :   0.9437 B(  0-C , 21-H ) :   0.9433
B(  0-C , 22-H ) :   0.9472 B(  1-C ,  2-O ) :   0.8998 B(  1-C , 23-H ) :   0.9068
B(  1-C , 24-H ) :   0.9381 B(  2-O ,  3-C ) :   1.2991 B(  3-C ,  4-O ) :   1.8409
B(  3-C ,  5-C ) :   1.0138 B(  5-C ,  6-C ) :   1.0310 B(  5-C , 25-H ) :   0.8816
B(  5-C , 26-H ) :   0.8723 B(  6-C ,  7-H ) :   0.8642 B(  6-C ,  8-C ) :   0.8740
B(  6-C , 13-S ) :   1.0591 B(  8-C ,  9-O ) :   2.1069 B(  8-C , 10-O ) :   1.2110
B( 10-O , 11-C ) :   0.9063 B( 11-C , 12-C ) :   1.1577 B( 11-C , 27-H ) :   0.9180
B( 11-C , 28-H ) :   0.9295 B( 12-C , 29-H ) :   0.9437 B( 12-C , 30-H ) :   0.9487
B( 12-C , 31-H ) :   0.9516 B( 13-S , 14-P ) :   0.9577 B( 13-S , 15-S ) :   0.1120
B( 14-P , 15-S ) :   1.5540 B( 14-P , 16-O ) :   1.1456 B( 14-P , 18-O ) :   1.0695
B( 16-O , 17-C ) :   0.9324 B( 17-C , 32-H ) :   0.9539 B( 17-C , 33-H ) :   0.9502
B( 17-C , 34-H ) :   0.9318 B( 18-O , 19-C ) :   0.9456 B( 19-C , 35-H ) :   0.9598
B( 19-C , 36-H ) :   0.9282 B( 19-C , 37-H ) :   0.9474

Dispersion correction           -0.054550670
FINAL SINGLE POINT ENERGY     -1979.004053459119

DIPOLE MOMENT
-------------

Method             : SCF
Type of density    : Electron Density
Multiplicity       :   1
Irrep              :   0
Energy             : -1979.1344119308610061 Eh
Relativity type    :
Basis              : AO
                                X                 Y                 Z
Electronic contribution:    -17.304009349      -6.259918086      -8.921821993
Nuclear contribution   :     19.246774642       6.882935947       8.875677096
                        -----------------------------------------
Total Dipole Moment    :      1.942765293       0.623017861      -0.046144897
                        -----------------------------------------
Magnitude (a.u.)       :      2.040739471
Magnitude (Debye)      :      5.187147507

Rotational constants in cm-1:             0.013547             0.008212             0.006691
Rotational constants in MHz :           406.136405           246.189061           200.601723

                             ****ORCA TERMINATED NORMALLY****
TOTAL RUN TIME: 0 days 0 hours 0 minutes 37 seconds 428 msec
