                         Program Version 6.0.0  -   RELEASE  -
|  1> ! pbe def2-sv(p) def2/J RI DEFGRID1 loosescf d4 GCP(DFT/SV(P)) printgap
|  2> %output
|  3>     printlevel normal
|  4> end
|  5> * xyz 0 1
|  6> C 5.0031614685 -0.5219369094 -2.6277784868
|  7> C 3.5212316569 -0.8282708785 -2.5287182729
|  8> O 3.1532587612 -0.8747145432 -1.1395535896
|  9> P 1.8218703595 -0.2383949105 -0.5336039655
| 10> S 1.3283430322 1.4045836122 -1.4936014007
| 11> O 2.192138765 -0.1258416845 0.9982487655
| 12> C 2.9560406421 0.9943953519 1.5005360521
| 13> C 2.7766197162 1.0435292092 3.0026401229
| 14> S 0.575683631 -1.9456275034 -0.4733516555
| 15> C -0.2900390189 -1.8594031781 1.1336646143
| 16> S -2.0651819734 -1.5564106322 0.9817427574
| 17> P -1.9115330341 0.4981990477 0.4637334037
| 18> S -0.6174371089 1.5214657535 1.5101263807
| 19> O -3.4082424094 1.0277641969 0.5187391971
| 20> C -4.0254428639 1.5194820193 1.7237731795
| 21> C -4.2009611338 0.4360121941 2.7675069204
| 22> O -1.6249941868 0.5080232179 -1.0857929572
| 23> C -2.5410255022 -0.0734566432 -2.052117362
| 24> C -1.7270103177 -0.64882585 -3.1920370201
| 25> H 5.301956797 -0.5484414569 -3.6704753263
| 26> H 5.2087626719 0.4654895447 -2.2225385748
| 27> H 5.5726290492 -1.2595653215 -2.0696933522
| 28> H 3.2860252363 -1.8046711615 -2.9583359784
| 29> H 2.9246163736 -0.0550655317 -3.025043188
| 30> H 4.0002145934 0.8368552305 1.2206337131
| 31> H 2.5867317706 1.90867934 1.0231809144
| 32> H 3.0810943149 0.099213783 3.4443315767
| 33> H 3.3857080179 1.8460126981 3.4050963673
| 34> H 1.7331796469 1.2334114999 3.2430520868
| 35> H 0.1633771159 -1.0754097346 1.7392114628
| 36> H -0.1828785408 -2.8364470814 1.5966069724
| 37> H -3.4122726125 2.337121103 2.114953542
| 38> H -4.9848108924 1.9077554619 1.3787341739
| 39> H -4.7041653431 -0.4264996455 2.3379026365
| 40> H -3.2303836821 0.1237025547 3.1490584196
| 41> H -4.7921571872 0.8270441467 3.5893336674
| 42> H -3.1369599001 -0.8439098836 -1.5537974238
| 43> H -3.1948153408 0.732029435 -2.3904187606
| 44> H -2.3993823364 -0.9926102275 -3.9710843955
| 45> H -1.0671036281 0.1162138398 -3.5938691728
| 46> H -1.121624825 -1.4829310644 -2.8443672669
| 47> *
| 48>
| 49>                          ****END OF INPUT****

CARTESIAN COORDINATES (ANGSTROEM)
---------------------------------
  C      5.003161   -0.521937   -2.627778
  C      3.521232   -0.828271   -2.528718
  O      3.153259   -0.874715   -1.139554
  P      1.821870   -0.238395   -0.533604
  S      1.328343    1.404584   -1.493601
  O      2.192139   -0.125842    0.998249
  C      2.956041    0.994395    1.500536
  C      2.776620    1.043529    3.002640
  S      0.575684   -1.945628   -0.473352
  C     -0.290039   -1.859403    1.133665
  S     -2.065182   -1.556411    0.981743
  P     -1.911533    0.498199    0.463733
  S     -0.617437    1.521466    1.510126
  O     -3.408242    1.027764    0.518739
  C     -4.025443    1.519482    1.723773
  C     -4.200961    0.436012    2.767507
  O     -1.624994    0.508023   -1.085793
  C     -2.541026   -0.073457   -2.052117
  C     -1.727010   -0.648826   -3.192037
  H      5.301957   -0.548441   -3.670475
  H      5.208763    0.465490   -2.222539
  H      5.572629   -1.259565   -2.069693
  H      3.286025   -1.804671   -2.958336
  H      2.924616   -0.055066   -3.025043
  H      4.000215    0.836855    1.220634
  H      2.586732    1.908679    1.023181
  H      3.081094    0.099214    3.444332
  H      3.385708    1.846013    3.405096
  H      1.733180    1.233411    3.243052
  H      0.163377   -1.075410    1.739211
  H     -0.182879   -2.836447    1.596607
  H     -3.412273    2.337121    2.114954
  H     -4.984811    1.907755    1.378734
  H     -4.704165   -0.426500    2.337903
  H     -3.230384    0.123703    3.149058
  H     -4.792157    0.827044    3.589334
  H     -3.136960   -0.843910   -1.553797
  H     -3.194815    0.732029   -2.390419
  H     -2.399382   -0.992610   -3.971084
  H     -1.067104    0.116214   -3.593869
  H     -1.121625   -1.482931   -2.844367

 Total Charge           Charge          ....    0
 Multiplicity           Mult            ....    1
 Number of Electrons    NEL             ....  202
 Basis Dimension        Dim             ....  334

ORBITAL ENERGIES
----------------

  NO   OCC          E(Eh)            E(eV)
   0   2.0000     -88.042093     -2395.7471
   1   2.0000     -88.036227     -2395.5875
   2   2.0000     -87.984920     -2394.1914
   3   2.0000     -87.973025     -2393.8677
   4   2.0000     -76.424151     -2079.6069
   5   2.0000     -76.417196     -2079.4176
   6   2.0000     -18.793900      -511.4080
   7   2.0000     -18.785882      -511.1898
   8   2.0000     -18.784235      -511.1450
   9   2.0000     -18.779276      -511.0101
  10   2.0000      -9.956651      -270.9343
  11   2.0000      -9.954242      -270.8687
  12   2.0000      -9.948625      -270.7158
  13   2.0000      -9.945163      -270.6216
  14   2.0000      -9.942984      -270.5623
  15   2.0000      -9.885680      -269.0030
  16   2.0000      -9.881444      -268.8878
  17   2.0000      -9.879437      -268.8331
  18   2.0000      -9.875482      -268.7255
  19   2.0000      -7.687311      -209.1824
  20   2.0000      -7.681723      -209.0303
  21   2.0000      -7.629934      -207.6210
  22   2.0000      -7.617975      -207.2956
  23   2.0000      -6.421671      -174.7425
  24   2.0000      -6.414838      -174.5566
  25   2.0000      -5.715006      -155.5132
  26   2.0000      -5.711776      -155.4253
  27   2.0000      -5.709997      -155.3769
  28   2.0000      -5.706044      -155.2694
  29   2.0000      -5.704473      -155.2266
  30   2.0000      -5.698357      -155.0602
  31   2.0000      -5.658764      -153.9828
  32   2.0000      -5.650471      -153.7571
  33   2.0000      -5.650187      -153.7494
  34   2.0000      -5.646934      -153.6609
  35   2.0000      -5.638798      -153.4395
  36   2.0000      -5.637881      -153.4145
  37   2.0000      -4.644574      -126.3853
  38   2.0000      -4.643353      -126.3520
  39   2.0000      -4.641920      -126.3131
  40   2.0000      -4.637455      -126.1916
  41   2.0000      -4.636680      -126.1705
  42   2.0000      -4.635145      -126.1287
  43   2.0000      -0.985953       -26.8291
  44   2.0000      -0.978222       -26.6188
  45   2.0000      -0.941054       -25.6074
  46   2.0000      -0.936190       -25.4750
  47   2.0000      -0.760089       -20.6831
  48   2.0000      -0.718321       -19.5465
  49   2.0000      -0.707317       -19.2471
  50   2.0000      -0.687157       -18.6985
  51   2.0000      -0.682231       -18.5644
  52   2.0000      -0.669718       -18.2240
  53   2.0000      -0.647202       -17.6113
  54   2.0000      -0.628442       -17.1008
  55   2.0000      -0.595702       -16.2099
  56   2.0000      -0.582485       -15.8502
  57   2.0000      -0.566322       -15.4104
  58   2.0000      -0.561995       -15.2927
  59   2.0000      -0.558886       -15.2081
  60   2.0000      -0.502050       -13.6615
  61   2.0000      -0.498956       -13.5773
  62   2.0000      -0.475561       -12.9407
  63   2.0000      -0.471776       -12.8377
  64   2.0000      -0.450169       -12.2497
  65   2.0000      -0.441020       -12.0008
  66   2.0000      -0.437727       -11.9112
  67   2.0000      -0.431408       -11.7392
  68   2.0000      -0.429203       -11.6792
  69   2.0000      -0.419278       -11.4091
  70   2.0000      -0.409067       -11.1313
  71   2.0000      -0.389689       -10.6040
  72   2.0000      -0.385423       -10.4879
  73   2.0000      -0.378702       -10.3050
  74   2.0000      -0.376758       -10.2521
  75   2.0000      -0.364726        -9.9247
  76   2.0000      -0.362854        -9.8737
  77   2.0000      -0.353470        -9.6184
  78   2.0000      -0.350871        -9.5477
  79   2.0000      -0.348527        -9.4839
  80   2.0000      -0.345793        -9.4095
  81   2.0000      -0.338136        -9.2011
  82   2.0000      -0.337352        -9.1798
  83   2.0000      -0.332620        -9.0510
  84   2.0000      -0.324108        -8.8194
  85   2.0000      -0.312648        -8.5076
  86   2.0000      -0.305923        -8.3246
  87   2.0000      -0.298834        -8.1317
  88   2.0000      -0.294464        -8.0128
  89   2.0000      -0.289777        -7.8852
  90   2.0000      -0.282510        -7.6875
  91   2.0000      -0.268225        -7.2988
  92   2.0000      -0.266194        -7.2435
  93   2.0000      -0.260885        -7.0990
  94   2.0000      -0.252478        -6.8703
  95   2.0000      -0.235104        -6.3975
  96   2.0000      -0.218577        -5.9478
  97   2.0000      -0.210746        -5.7347
  98   2.0000      -0.201411        -5.4807
  99   2.0000      -0.187909        -5.1133
 100   2.0000      -0.176303        -4.7974
 101   0.0000      -0.040593        -1.1046
 102   0.0000      -0.026631        -0.7247
 103   0.0000      -0.020118        -0.5474
 104   0.0000       0.004289         0.1167
 105   0.0000       0.019869         0.5407

MULLIKEN ATOMIC CHARGES
-----------------------
   0 C :   -0.285702
   1 C :   -0.005337
   2 O :   -0.384568
   3 P :    0.625277
   4 S :   -0.304868
   5 O :   -0.375611
   6 C :   -0.004260
   7 C :   -0.290232
   8 S :   -0.104633
   9 C :   -0.362891
  10 S :   -0.099855
  11 P :    0.600015
  12 S :   -0.306879
  13 O :   -0.381065
  14 C :    0.001086
  15 C :   -0.320434
  16 O :   -0.337813
  17 C :   -0.005475
  18 C :   -0.286834
  19 H :    0.108350
  20 H :    0.114776
  21 H :    0.114055
  22 H :    0.095651
  23 H :    0.101341
  24 H :    0.100644
  25 H :    0.114839
  26 H :    0.111164
  27 H :    0.108442
  28 H :    0.132848
  29 H :    0.213260
  30 H :    0.183783
  31 H :    0.113153
  32 H :    0.105477
  33 H :    0.117668
  34 H :    0.128075
  35 H :    0.114509
  36 H :    0.096670
  37 H :    0.106999
  38 H :    0.101453
  39 H :    0.125713
  40 H :    0.121210
Sum of atomic charges:    0.0000000

LOEWDIN ATOMIC CHARGES
----------------------
   0 C :   -0.352839
   1 C :   -0.124633
   2 O :   -0.254435
   3 P :    0.562126
   4 S :   -0.297697
   5 O :   -0.240607
   6 C :   -0.116303
   7 C :   -0.354389
   8 S :    0.072949
   9 C :   -0.477174
  10 S :    0.069749
  11 P :    0.570650
  12 S :   -0.293806
  13 O :   -0.247660
  14 C :   -0.115475
  15 C :   -0.371826
  16 O :   -0.226195
  17 C :   -0.111188
  18 C :   -0.357400
  19 H :    0.128916
  20 H :    0.125940
  21 H :    0.124816
  22 H :    0.109978
  23 H :    0.102101
  24 H :    0.111046
  25 H :    0.111588
  26 H :    0.124383
  27 H :    0.129686
  28 H :    0.125236
  29 H :    0.131696
  30 H :    0.138917
  31 H :    0.113357
  32 H :    0.119082
  33 H :    0.123308
  34 H :    0.121414
  35 H :    0.131888
  36 H :    0.101113
  37 H :    0.116528
  38 H :    0.125592
  39 H :    0.130164
  40 H :    0.119406

  Mayer bond orders larger than 0.100000
B(  0-C ,  1-C ) :   1.1623 B(  0-C , 19-H ) :   0.9421 B(  0-C , 20-H ) :   0.9501
B(  0-C , 21-H ) :   0.9514 B(  1-C ,  2-O ) :   0.9168 B(  1-C , 22-H ) :   0.9323
B(  1-C , 23-H ) :   0.8943 B(  2-O ,  3-P ) :   1.0828 B(  3-P ,  4-S ) :   1.6502
B(  3-P ,  5-O ) :   1.1196 B(  3-P ,  8-S ) :   0.9521 B(  4-S ,  8-S ) :   0.1076
B(  5-O ,  6-C ) :   0.8885 B(  6-C ,  7-C ) :   1.1642 B(  6-C , 24-H ) :   0.9313
B(  6-C , 25-H ) :   0.9095 B(  7-C , 26-H ) :   0.9490 B(  7-C , 27-H ) :   0.9410
B(  7-C , 28-H ) :   0.9434 B(  8-S ,  9-C ) :   0.9962 B(  9-C , 10-S ) :   1.0016
B(  9-C , 29-H ) :   0.8618 B(  9-C , 30-H ) :   0.9109 B( 10-S , 11-P ) :   0.9399
B( 10-S , 12-S ) :   0.1057 B( 11-P , 12-S ) :   1.6302 B( 11-P , 13-O ) :   1.0899
B( 11-P , 16-O ) :   1.1569 B( 13-O , 14-C ) :   0.9065 B( 14-C , 15-C ) :   1.1656
B( 14-C , 31-H ) :   0.9186 B( 14-C , 32-H ) :   0.9344 B( 15-C , 33-H ) :   0.9438
B( 15-C , 34-H ) :   0.9344 B( 15-C , 35-H ) :   0.9370 B( 16-O , 17-C ) :   0.8863
B( 17-C , 18-C ) :   1.1654 B( 17-C , 36-H ) :   0.9117 B( 17-C , 37-H ) :   0.9337
B( 18-C , 38-H ) :   0.9387 B( 18-C , 39-H ) :   0.9442 B( 18-C , 40-H ) :   0.9406

Dispersion correction           -0.067043063
FINAL SINGLE POINT ENERGY     -2929.512712663855

DIPOLE MOMENT
-------------

Method             : SCF
Type of density    : Electron Density
Multiplicity       :   1
Irrep              :   0
Energy             : -2929.6303048272334308 Eh
Relativity type    :
Basis              : AO
                                X                 Y                 Z
Electronic contribution:     -5.197560166      -1.446993875       0.239820950
Nuclear contribution   :      4.814778542       0.831937133      -0.017227219
                        -----------------------------------------
Total Dipole Moment    :     -0.382781624      -0.615056743       0.222593731
                        -----------------------------------------
Magnitude (a.u.)       :      0.757868417
Magnitude (Debye)      :      1.926348426

Rotational constants in cm-1:             0.012299             0.005620             0.004906
Rotational constants in MHz :           368.721529           168.496619           147.080892

                             ****ORCA TERMINATED NORMALLY****
TOTAL RUN TIME: 0 days 0 hours 0 minutes 21 seconds 222 msec
