                         Program Version 6.0.0  -   RELEASE  -
|  1> ! pbe def2-sv(p) def2/J RI DEFGRID1 loosescf d4 GCP(DFT/SV(P)) printgap
|  2> %output
|  3>     printlevel normal
|  4> end
|  5> * xyz 0 1
|  6> C 4.9528606825 1.2847143475 -1.0796340862
|  7> C 4.5095459627 -0.1478901547 -1.2889272264
|  8> O 3.6823164773 -0.6409153682 -0.2183649717
|  9> P 2.364890205 0.0588492836 0.332971042
| 10> S 2.5611255577 1.6038787106 1.5135984625
| 11> O 1.6946974942 -1.1341066882 1.1153879498
| 12> C 1.558169865 -2.4724370005 0.5707318684
| 13> C 0.6522641293 -3.2551118347 1.4962297217
| 14> S 1.2274329804 0.3834758008 -1.4443818964
| 15> C 0.1009905158 1.6160392641 -0.7365257206
| 16> S -0.8754598616 1.0085758063 0.6601737482
| 17> P -2.2753452568 -0.1641395488 -0.4623658223
| 18> S -1.5716696639 -1.7990375956 -1.2751772395
| 19> O -2.8803570402 0.8151724703 -1.5424532073
| 20> C -3.9769235736 1.7400507497 -1.3303366204
| 21> C -3.6371670206 2.8412497676 -0.3481729455
| 22> O -3.4874219073 -0.3884745607 0.5392780783
| 23> C -3.499689668 -1.4636017663 1.4939711612
| 24> C -2.7081101428 -1.114047284 2.7384048247
| 25> H 5.44383985 1.3926846986 -0.1154190991
| 26> H 5.6415934652 1.5670653045 -1.8693367034
| 27> H 4.0923323387 1.9517233674 -1.1022278604
| 28> H 5.3594301468 -0.8328151886 -1.2903579133
| 29> H 3.9507442518 -0.2486942142 -2.2237292565
| 30> H 1.1289798596 -2.404258811 -0.4339641126
| 31> H 2.5545082116 -2.9134142436 0.5116089144
| 32> H 1.033512776 -3.2164119438 2.5124471774
| 33> H -0.3506715653 -2.8375643195 1.475171075
| 34> H 0.609733905 -4.2854941987 1.1590750349
| 35> H -0.5545573771 1.9301160592 -1.5458587704
| 36> H 0.6869338003 2.4475679006 -0.3451253229
| 37> H -4.1623593693 2.1348870338 -2.3305761376
| 38> H -4.8417351957 1.1690353783 -0.9893480432
| 39> H -4.4727809735 3.5323808202 -0.2950710851
| 40> H -3.4593887143 2.425982835 0.6412198206
| 41> H -2.7502086299 3.3836438316 -0.6662987324
| 42> H -4.556962944 -1.6060329052 1.7227979934
| 43> H -3.1028180808 -2.3630221726 1.0105402465
| 44> H -1.6584121544 -0.9573449463 2.4928080757
| 45> H -3.0937428076 -0.2033081097 3.1884814983
| 46> H -2.7850757338 -1.9277040554 3.4525614978
| 47> *
| 48>
| 49>                          ****END OF INPUT****

CARTESIAN COORDINATES (ANGSTROEM)
---------------------------------
  C      4.952861    1.284714   -1.079634
  C      4.509546   -0.147890   -1.288927
  O      3.682316   -0.640915   -0.218365
  P      2.364890    0.058849    0.332971
  S      2.561126    1.603879    1.513598
  O      1.694697   -1.134107    1.115388
  C      1.558170   -2.472437    0.570732
  C      0.652264   -3.255112    1.496230
  S      1.227433    0.383476   -1.444382
  C      0.100991    1.616039   -0.736526
  S     -0.875460    1.008576    0.660174
  P     -2.275345   -0.164140   -0.462366
  S     -1.571670   -1.799038   -1.275177
  O     -2.880357    0.815172   -1.542453
  C     -3.976924    1.740051   -1.330337
  C     -3.637167    2.841250   -0.348173
  O     -3.487422   -0.388475    0.539278
  C     -3.499690   -1.463602    1.493971
  C     -2.708110   -1.114047    2.738405
  H      5.443840    1.392685   -0.115419
  H      5.641593    1.567065   -1.869337
  H      4.092332    1.951723   -1.102228
  H      5.359430   -0.832815   -1.290358
  H      3.950744   -0.248694   -2.223729
  H      1.128980   -2.404259   -0.433964
  H      2.554508   -2.913414    0.511609
  H      1.033513   -3.216412    2.512447
  H     -0.350672   -2.837564    1.475171
  H      0.609734   -4.285494    1.159075
  H     -0.554557    1.930116   -1.545859
  H      0.686934    2.447568   -0.345125
  H     -4.162359    2.134887   -2.330576
  H     -4.841735    1.169035   -0.989348
  H     -4.472781    3.532381   -0.295071
  H     -3.459389    2.425983    0.641220
  H     -2.750209    3.383644   -0.666299
  H     -4.556963   -1.606033    1.722798
  H     -3.102818   -2.363022    1.010540
  H     -1.658412   -0.957345    2.492808
  H     -3.093743   -0.203308    3.188481
  H     -2.785076   -1.927704    3.452561

 Total Charge           Charge          ....    0
 Multiplicity           Mult            ....    1
 Number of Electrons    NEL             ....  202
 Basis Dimension        Dim             ....  334

ORBITAL ENERGIES
----------------

  NO   OCC          E(Eh)            E(eV)
   0   2.0000     -88.040608     -2395.7067
   1   2.0000     -88.037188     -2395.6137
   2   2.0000     -87.983934     -2394.1645
   3   2.0000     -87.978666     -2394.0212
   4   2.0000     -76.428469     -2079.7244
   5   2.0000     -76.420997     -2079.5211
   6   2.0000     -18.800515      -511.5880
   7   2.0000     -18.796650      -511.4829
   8   2.0000     -18.790243      -511.3085
   9   2.0000     -18.781306      -511.0653
  10   2.0000      -9.962171      -271.0844
  11   2.0000      -9.957860      -270.9672
  12   2.0000      -9.955768      -270.9102
  13   2.0000      -9.955573      -270.9049
  14   2.0000      -9.941050      -270.5097
  15   2.0000      -9.891845      -269.1708
  16   2.0000      -9.889015      -269.0938
  17   2.0000      -9.880786      -268.8698
  18   2.0000      -9.877302      -268.7751
  19   2.0000      -7.684838      -209.1151
  20   2.0000      -7.682134      -209.0415
  21   2.0000      -7.629022      -207.5963
  22   2.0000      -7.624034      -207.4605
  23   2.0000      -6.425922      -174.8582
  24   2.0000      -6.417997      -174.6426
  25   2.0000      -5.712650      -155.4491
  26   2.0000      -5.709838      -155.3726
  27   2.0000      -5.709616      -155.3666
  28   2.0000      -5.706672      -155.2864
  29   2.0000      -5.701734      -155.1521
  30   2.0000      -5.699269      -155.0850
  31   2.0000      -5.657908      -153.9595
  32   2.0000      -5.653066      -153.8277
  33   2.0000      -5.649946      -153.7428
  34   2.0000      -5.648870      -153.7136
  35   2.0000      -5.644556      -153.5962
  36   2.0000      -5.644132      -153.5846
  37   2.0000      -4.649281      -126.5134
  38   2.0000      -4.647532      -126.4658
  39   2.0000      -4.645789      -126.4183
  40   2.0000      -4.640872      -126.2846
  41   2.0000      -4.639975      -126.2601
  42   2.0000      -4.638090      -126.2089
  43   2.0000      -0.994145       -27.0521
  44   2.0000      -0.982074       -26.7236
  45   2.0000      -0.951048       -25.8793
  46   2.0000      -0.936725       -25.4896
  47   2.0000      -0.761470       -20.7206
  48   2.0000      -0.721334       -19.6285
  49   2.0000      -0.709368       -19.3029
  50   2.0000      -0.696264       -18.9463
  51   2.0000      -0.685113       -18.6429
  52   2.0000      -0.673382       -18.3237
  53   2.0000      -0.649304       -17.6685
  54   2.0000      -0.635347       -17.2887
  55   2.0000      -0.597697       -16.2642
  56   2.0000      -0.585390       -15.9293
  57   2.0000      -0.584549       -15.9064
  58   2.0000      -0.564895       -15.3716
  59   2.0000      -0.559792       -15.2327
  60   2.0000      -0.503732       -13.7072
  61   2.0000      -0.498795       -13.5729
  62   2.0000      -0.479199       -13.0397
  63   2.0000      -0.468621       -12.7518
  64   2.0000      -0.465009       -12.6535
  65   2.0000      -0.451030       -12.2731
  66   2.0000      -0.440395       -11.9838
  67   2.0000      -0.432216       -11.7612
  68   2.0000      -0.424956       -11.5636
  69   2.0000      -0.417907       -11.3718
  70   2.0000      -0.412411       -11.2223
  71   2.0000      -0.403152       -10.9703
  72   2.0000      -0.391265       -10.6469
  73   2.0000      -0.383528       -10.4363
  74   2.0000      -0.378758       -10.3065
  75   2.0000      -0.373741       -10.1700
  76   2.0000      -0.365757        -9.9528
  77   2.0000      -0.358220        -9.7477
  78   2.0000      -0.355758        -9.6807
  79   2.0000      -0.347497        -9.4559
  80   2.0000      -0.346380        -9.4255
  81   2.0000      -0.343278        -9.3411
  82   2.0000      -0.340730        -9.2717
  83   2.0000      -0.332411        -9.0454
  84   2.0000      -0.331384        -9.0174
  85   2.0000      -0.327234        -8.9045
  86   2.0000      -0.312794        -8.5116
  87   2.0000      -0.302894        -8.2422
  88   2.0000      -0.297227        -8.0879
  89   2.0000      -0.293134        -7.9766
  90   2.0000      -0.288900        -7.8614
  91   2.0000      -0.277433        -7.5493
  92   2.0000      -0.267812        -7.2875
  93   2.0000      -0.263619        -7.1734
  94   2.0000      -0.253466        -6.8972
  95   2.0000      -0.238309        -6.4847
  96   2.0000      -0.216432        -5.8894
  97   2.0000      -0.206415        -5.6168
  98   2.0000      -0.196763        -5.3542
  99   2.0000      -0.194887        -5.3032
 100   2.0000      -0.186860        -5.0847
 101   0.0000      -0.043243        -1.1767
 102   0.0000      -0.025487        -0.6935
 103   0.0000      -0.009263        -0.2521
 104   0.0000       0.000142         0.0039
 105   0.0000       0.014690         0.3997

MULLIKEN ATOMIC CHARGES
-----------------------
   0 C :   -0.308218
   1 C :   -0.008209
   2 O :   -0.384934
   3 P :    0.608174
   4 S :   -0.318757
   5 O :   -0.354947
   6 C :   -0.020112
   7 C :   -0.291029
   8 S :   -0.095656
   9 C :   -0.355945
  10 S :   -0.081025
  11 P :    0.608210
  12 S :   -0.306001
  13 O :   -0.374479
  14 C :    0.006140
  15 C :   -0.320293
  16 O :   -0.383102
  17 C :   -0.015743
  18 C :   -0.333825
  19 H :    0.126944
  20 H :    0.109830
  21 H :    0.122598
  22 H :    0.107658
  23 H :    0.112530
  24 H :    0.121036
  25 H :    0.101003
  26 H :    0.114361
  27 H :    0.123398
  28 H :    0.105140
  29 H :    0.181800
  30 H :    0.194381
  31 H :    0.111482
  32 H :    0.112425
  33 H :    0.114600
  34 H :    0.131802
  35 H :    0.119832
  36 H :    0.106241
  37 H :    0.118141
  38 H :    0.158768
  39 H :    0.118934
  40 H :    0.116849
Sum of atomic charges:   -0.0000000

LOEWDIN ATOMIC CHARGES
----------------------
   0 C :   -0.369366
   1 C :   -0.114359
   2 O :   -0.246511
   3 P :    0.568112
   4 S :   -0.314655
   5 O :   -0.234257
   6 C :   -0.118426
   7 C :   -0.353329
   8 S :    0.068489
   9 C :   -0.482933
  10 S :    0.092115
  11 P :    0.567386
  12 S :   -0.302946
  13 O :   -0.243623
  14 C :   -0.107383
  15 C :   -0.368411
  16 O :   -0.244946
  17 C :   -0.120477
  18 C :   -0.368701
  19 H :    0.130309
  20 H :    0.129273
  21 H :    0.120044
  22 H :    0.120491
  23 H :    0.108511
  24 H :    0.106106
  25 H :    0.109880
  26 H :    0.126050
  27 H :    0.120145
  28 H :    0.129379
  29 H :    0.129007
  30 H :    0.131501
  31 H :    0.122386
  32 H :    0.116656
  33 H :    0.132105
  34 H :    0.121951
  35 H :    0.125510
  36 H :    0.119381
  37 H :    0.109479
  38 H :    0.125301
  39 H :    0.127014
  40 H :    0.133741

  Mayer bond orders larger than 0.100000
B(  0-C ,  1-C ) :   1.1665 B(  0-C , 19-H ) :   0.9429 B(  0-C , 20-H ) :   0.9350
B(  0-C , 21-H ) :   0.9327 B(  1-C ,  2-O ) :   0.9152 B(  1-C , 22-H ) :   0.9336
B(  1-C , 23-H ) :   0.9266 B(  2-O ,  3-P ) :   1.0830 B(  3-P ,  4-S ) :   1.6314
B(  3-P ,  5-O ) :   1.1412 B(  3-P ,  8-S ) :   0.9471 B(  4-S ,  8-S ) :   0.1110
B(  5-O ,  6-C ) :   0.8880 B(  6-C ,  7-C ) :   1.1704 B(  6-C , 24-H ) :   0.9058
B(  6-C , 25-H ) :   0.9293 B(  7-C , 26-H ) :   0.9490 B(  7-C , 27-H ) :   0.9313
B(  7-C , 28-H ) :   0.9397 B(  8-S ,  9-C ) :   1.0048 B(  9-C , 10-S ) :   1.0034
B(  9-C , 29-H ) :   0.8924 B(  9-C , 30-H ) :   0.8826 B( 10-S , 11-P ) :   0.9484
B( 10-S , 12-S ) :   0.1116 B( 11-P , 12-S ) :   1.6727 B( 11-P , 13-O ) :   1.1077
B( 11-P , 16-O ) :   1.0717 B( 13-O , 14-C ) :   0.8926 B( 14-C , 15-C ) :   1.1696
B( 14-C , 31-H ) :   0.9355 B( 14-C , 32-H ) :   0.9271 B( 15-C , 33-H ) :   0.9353
B( 15-C , 34-H ) :   0.9360 B( 15-C , 35-H ) :   0.9456 B( 16-O , 17-C ) :   0.9053
B( 17-C , 18-C ) :   1.1671 B( 17-C , 36-H ) :   0.9320 B( 17-C , 37-H ) :   0.9080
B( 18-C , 38-H ) :   0.9217 B( 18-C , 39-H ) :   0.9449 B( 18-C , 40-H ) :   0.9392

Dispersion correction           -0.066591522
FINAL SINGLE POINT ENERGY     -2929.516403506759

DIPOLE MOMENT
-------------

Method             : SCF
Type of density    : Electron Density
Multiplicity       :   1
Irrep              :   0
Energy             : -2929.6349365198616397 Eh
Relativity type    :
Basis              : AO
                                X                 Y                 Z
Electronic contribution:      4.233576453       1.767270864      -5.136368050
Nuclear contribution   :     -5.093725706      -1.706455317       4.782609372
                        -----------------------------------------
Total Dipole Moment    :     -0.860149252       0.060815547      -0.353758678
                        -----------------------------------------
Magnitude (a.u.)       :      0.932041023
Magnitude (Debye)      :      2.369060008

Rotational constants in cm-1:             0.012350             0.005262             0.004709
Rotational constants in MHz :           370.240388           157.763715           141.174515

                             ****ORCA TERMINATED NORMALLY****
TOTAL RUN TIME: 0 days 0 hours 0 minutes 21 seconds 420 msec
