                         Program Version 6.0.0  -   RELEASE  -
|  1> ! pbe def2-sv(p) def2/J RI DEFGRID1 loosescf d4 GCP(DFT/SV(P)) printgap
|  2> %output
|  3>     printlevel normal
|  4> end
|  5> * xyz 0 1
|  6> C 4.6283071084 1.3907843342 -2.1798627152
|  7> C 4.7104492079 -0.0185314044 -1.6324122915
|  8> O 3.4075771227 -0.5931211684 -1.3864339566
|  9> P 2.3185084172 0.007978777 -0.406785077
| 10> S 1.2223183298 1.4725095327 -1.1302659444
| 11> O 3.2033883131 0.3646622271 0.8587446764
| 12> C 2.7172572475 1.0175069114 2.0453945699
| 13> C 2.4430409311 0.0024311196 3.1359369959
| 14> S 1.2703360422 -1.768955594 0.0406483626
| 15> C -0.0890362783 -1.6142648781 -1.1701742095
| 16> S -1.7049615494 -1.9942967229 -0.4604795631
| 17> P -2.1166044004 -0.1529998585 0.4860572705
| 18> S -0.8823895162 0.597266032 1.8019846054
| 19> O -3.516303922 -0.409764421 1.1815553689
| 20> C -4.5685600895 -1.2754498825 0.6961644215
| 21> C -5.1740268343 -0.7836174125 -0.6015882309
| 22> O -2.3326369777 0.7549256545 -0.8138788219
| 23> C -2.2393321979 2.1872267136 -0.7698176196
| 24> C -3.4272991184 2.7978309065 -0.0563669752
| 25> H 4.0158847082 1.4136309839 -3.078281407
| 26> H 4.1797492872 2.0547744016 -1.441819831
| 27> H 5.6268113786 1.7453866363 -2.415334004
| 28> H 5.2759379266 -0.043556418 -0.6987171703
| 29> H 5.1539539542 -0.7045369489 -2.3558938961
| 30> H 3.517490043 1.7021350607 2.3328772772
| 31> H 1.8144164381 1.587489576 1.8054712799
| 32> H 2.1761085805 0.5269822571 4.0473630023
| 33> H 1.6130422407 -0.6409637354 2.8524307827
| 34> H 3.3244992023 -0.6082349844 3.3094783373
| 35> H 0.0684997991 -2.3451955033 -1.9586591373
| 36> H -0.0904119305 -0.5937117272 -1.5627859038
| 37> H -4.1589231983 -2.2817679632 0.5790977876
| 38> H -5.2957331612 -1.2645697017 1.5098896054
| 39> H -5.9822896308 -1.4491809024 -0.8880070478
| 40> H -5.5672353089 0.2220080462 -0.4777218988
| 41> H -4.4237609935 -0.7780023905 -1.3891318778
| 42> H -1.302866848 2.4645900757 -0.274951137
| 43> H -2.1898433236 2.484245844 -1.8183570255
| 44> H -3.3261617664 3.8784390861 -0.0506716938
| 45> H -4.3514213178 2.5243474631 -0.5583301356
| 46> H -3.4593260423 2.4380712613 0.9721875284
| 47> *
| 48>
| 49>                          ****END OF INPUT****

CARTESIAN COORDINATES (ANGSTROEM)
---------------------------------
  C      4.628307    1.390784   -2.179863
  C      4.710449   -0.018531   -1.632412
  O      3.407577   -0.593121   -1.386434
  P      2.318508    0.007979   -0.406785
  S      1.222318    1.472510   -1.130266
  O      3.203388    0.364662    0.858745
  C      2.717257    1.017507    2.045395
  C      2.443041    0.002431    3.135937
  S      1.270336   -1.768956    0.040648
  C     -0.089036   -1.614265   -1.170174
  S     -1.704962   -1.994297   -0.460480
  P     -2.116604   -0.153000    0.486057
  S     -0.882390    0.597266    1.801985
  O     -3.516304   -0.409764    1.181555
  C     -4.568560   -1.275450    0.696164
  C     -5.174027   -0.783617   -0.601588
  O     -2.332637    0.754926   -0.813879
  C     -2.239332    2.187227   -0.769818
  C     -3.427299    2.797831   -0.056367
  H      4.015885    1.413631   -3.078281
  H      4.179749    2.054774   -1.441820
  H      5.626811    1.745387   -2.415334
  H      5.275938   -0.043556   -0.698717
  H      5.153954   -0.704537   -2.355894
  H      3.517490    1.702135    2.332877
  H      1.814416    1.587490    1.805471
  H      2.176109    0.526982    4.047363
  H      1.613042   -0.640964    2.852431
  H      3.324499   -0.608235    3.309478
  H      0.068500   -2.345196   -1.958659
  H     -0.090412   -0.593712   -1.562786
  H     -4.158923   -2.281768    0.579098
  H     -5.295733   -1.264570    1.509890
  H     -5.982290   -1.449181   -0.888007
  H     -5.567235    0.222008   -0.477722
  H     -4.423761   -0.778002   -1.389132
  H     -1.302867    2.464590   -0.274951
  H     -2.189843    2.484246   -1.818357
  H     -3.326162    3.878439   -0.050672
  H     -4.351421    2.524347   -0.558330
  H     -3.459326    2.438071    0.972188

 Total Charge           Charge          ....    0
 Multiplicity           Mult            ....    1
 Number of Electrons    NEL             ....  202
 Basis Dimension        Dim             ....  334

ORBITAL ENERGIES
----------------

  NO   OCC          E(Eh)            E(eV)
   0   2.0000     -88.044263     -2395.8062
   1   2.0000     -88.035774     -2395.5752
   2   2.0000     -87.981483     -2394.0979
   3   2.0000     -87.975879     -2393.9454
   4   2.0000     -76.423446     -2079.5877
   5   2.0000     -76.421899     -2079.5456
   6   2.0000     -18.793771      -511.4045
   7   2.0000     -18.791761      -511.3498
   8   2.0000     -18.785289      -511.1737
   9   2.0000     -18.782457      -511.0966
  10   2.0000      -9.959663      -271.0162
  11   2.0000      -9.953811      -270.8570
  12   2.0000      -9.951861      -270.8039
  13   2.0000      -9.947001      -270.6717
  14   2.0000      -9.940202      -270.4867
  15   2.0000      -9.889170      -269.0980
  16   2.0000      -9.880616      -268.8652
  17   2.0000      -9.878954      -268.8200
  18   2.0000      -9.875185      -268.7174
  19   2.0000      -7.689645      -209.2459
  20   2.0000      -7.681173      -209.0154
  21   2.0000      -7.626357      -207.5237
  22   2.0000      -7.621096      -207.3806
  23   2.0000      -6.420907      -174.7217
  24   2.0000      -6.419514      -174.6839
  25   2.0000      -5.717477      -155.5805
  26   2.0000      -5.714095      -155.4884
  27   2.0000      -5.709105      -155.3527
  28   2.0000      -5.706652      -155.2859
  29   2.0000      -5.705858      -155.2643
  30   2.0000      -5.697856      -155.0466
  31   2.0000      -5.655097      -153.8830
  32   2.0000      -5.650111      -153.7473
  33   2.0000      -5.647319      -153.6714
  34   2.0000      -5.646322      -153.6442
  35   2.0000      -5.641887      -153.5236
  36   2.0000      -5.640868      -153.4958
  37   2.0000      -4.643875      -126.3663
  38   2.0000      -4.642418      -126.3266
  39   2.0000      -4.642412      -126.3265
  40   2.0000      -4.641268      -126.2953
  41   2.0000      -4.641235      -126.2944
  42   2.0000      -4.639756      -126.2542
  43   2.0000      -0.984941       -26.8016
  44   2.0000      -0.980322       -26.6759
  45   2.0000      -0.942321       -25.6418
  46   2.0000      -0.940012       -25.5790
  47   2.0000      -0.760709       -20.6999
  48   2.0000      -0.720280       -19.5998
  49   2.0000      -0.708209       -19.2713
  50   2.0000      -0.688522       -18.7356
  51   2.0000      -0.684738       -18.6327
  52   2.0000      -0.670121       -18.2349
  53   2.0000      -0.648922       -17.6581
  54   2.0000      -0.632249       -17.2044
  55   2.0000      -0.594515       -16.1776
  56   2.0000      -0.587824       -15.9955
  57   2.0000      -0.573928       -15.6174
  58   2.0000      -0.571912       -15.5625
  59   2.0000      -0.559159       -15.2155
  60   2.0000      -0.498183       -13.5562
  61   2.0000      -0.490952       -13.3595
  62   2.0000      -0.473543       -12.8858
  63   2.0000      -0.470007       -12.7895
  64   2.0000      -0.454379       -12.3643
  65   2.0000      -0.449824       -12.2403
  66   2.0000      -0.437365       -11.9013
  67   2.0000      -0.424101       -11.5404
  68   2.0000      -0.422257       -11.4902
  69   2.0000      -0.411553       -11.1989
  70   2.0000      -0.410238       -11.1632
  71   2.0000      -0.403264       -10.9734
  72   2.0000      -0.393160       -10.6984
  73   2.0000      -0.385588       -10.4924
  74   2.0000      -0.383155       -10.4262
  75   2.0000      -0.370597       -10.0845
  76   2.0000      -0.360481        -9.8092
  77   2.0000      -0.353017        -9.6061
  78   2.0000      -0.347678        -9.4608
  79   2.0000      -0.346766        -9.4360
  80   2.0000      -0.345972        -9.4144
  81   2.0000      -0.340506        -9.2656
  82   2.0000      -0.338388        -9.2080
  83   2.0000      -0.334791        -9.1101
  84   2.0000      -0.330958        -9.0058
  85   2.0000      -0.312194        -8.4952
  86   2.0000      -0.311592        -8.4789
  87   2.0000      -0.304822        -8.2946
  88   2.0000      -0.290335        -7.9004
  89   2.0000      -0.286454        -7.7948
  90   2.0000      -0.276481        -7.5234
  91   2.0000      -0.272789        -7.4230
  92   2.0000      -0.269716        -7.3393
  93   2.0000      -0.259644        -7.0653
  94   2.0000      -0.256294        -6.9741
  95   2.0000      -0.239522        -6.5177
  96   2.0000      -0.221164        -6.0182
  97   2.0000      -0.203217        -5.5298
  98   2.0000      -0.199010        -5.4153
  99   2.0000      -0.190401        -5.1811
 100   2.0000      -0.179639        -4.8882
 101   0.0000      -0.037617        -1.0236
 102   0.0000      -0.028925        -0.7871
 103   0.0000      -0.012858        -0.3499
 104   0.0000       0.009792         0.2664
 105   0.0000       0.016376         0.4456

MULLIKEN ATOMIC CHARGES
-----------------------
   0 C :   -0.314101
   1 C :    0.002771
   2 O :   -0.374117
   3 P :    0.635469
   4 S :   -0.330049
   5 O :   -0.383825
   6 C :   -0.014929
   7 C :   -0.305269
   8 S :   -0.075109
   9 C :   -0.344863
  10 S :   -0.113570
  11 P :    0.628179
  12 S :   -0.316056
  13 O :   -0.370920
  14 C :   -0.028339
  15 C :   -0.314233
  16 O :   -0.384143
  17 C :   -0.020155
  18 C :   -0.314808
  19 H :    0.122874
  20 H :    0.127436
  21 H :    0.107904
  22 H :    0.107571
  23 H :    0.105666
  24 H :    0.100131
  25 H :    0.125623
  26 H :    0.110872
  27 H :    0.142507
  28 H :    0.108259
  29 H :    0.184674
  30 H :    0.198646
  31 H :    0.125145
  32 H :    0.114812
  33 H :    0.112794
  34 H :    0.125649
  35 H :    0.129761
  36 H :    0.133051
  37 H :    0.102256
  38 H :    0.110793
  39 H :    0.114427
  40 H :    0.127215
Sum of atomic charges:   -0.0000000

LOEWDIN ATOMIC CHARGES
----------------------
   0 C :   -0.367910
   1 C :   -0.109424
   2 O :   -0.250720
   3 P :    0.573228
   4 S :   -0.305955
   5 O :   -0.240635
   6 C :   -0.116569
   7 C :   -0.364426
   8 S :    0.085814
   9 C :   -0.476803
  10 S :    0.081829
  11 P :    0.570917
  12 S :   -0.304610
  13 O :   -0.242354
  14 C :   -0.116412
  15 C :   -0.367327
  16 O :   -0.249213
  17 C :   -0.126795
  18 C :   -0.365949
  19 H :    0.128917
  20 H :    0.122126
  21 H :    0.127916
  22 H :    0.112598
  23 H :    0.119813
  24 H :    0.115793
  25 H :    0.110448
  26 H :    0.131545
  27 H :    0.123979
  28 H :    0.122375
  29 H :    0.137163
  30 H :    0.122873
  31 H :    0.109460
  32 H :    0.124298
  33 H :    0.131429
  34 H :    0.126866
  35 H :    0.124429
  36 H :    0.108715
  37 H :    0.117313
  38 H :    0.130557
  39 H :    0.120063
  40 H :    0.124639

  Mayer bond orders larger than 0.100000
B(  0-C ,  1-C ) :   1.1667 B(  0-C , 19-H ) :   0.9447 B(  0-C , 20-H ) :   0.9363
B(  0-C , 21-H ) :   0.9358 B(  1-C ,  2-O ) :   0.9114 B(  1-C , 22-H ) :   0.9301
B(  1-C , 23-H ) :   0.9359 B(  2-O ,  3-P ) :   1.1210 B(  3-P ,  4-S ) :   1.6092
B(  3-P ,  5-O ) :   1.1057 B(  3-P ,  8-S ) :   0.9674 B(  4-S ,  8-S ) :   0.1237
B(  4-S , 30-H ) :   0.1091 B(  5-O ,  6-C ) :   0.8941 B(  6-C ,  7-C ) :   1.1736
B(  6-C , 24-H ) :   0.9340 B(  6-C , 25-H ) :   0.9038 B(  7-C , 26-H ) :   0.9403
B(  7-C , 27-H ) :   0.9302 B(  7-C , 28-H ) :   0.9468 B(  8-S ,  9-C ) :   0.9960
B(  9-C , 10-S ) :   1.0061 B(  9-C , 29-H ) :   0.9111 B(  9-C , 30-H ) :   0.8464
B( 10-S , 11-P ) :   0.9572 B( 10-S , 12-S ) :   0.1076 B( 11-P , 12-S ) :   1.6531
B( 11-P , 13-O ) :   1.1148 B( 11-P , 16-O ) :   1.0713 B( 13-O , 14-C ) :   0.9067
B( 14-C , 15-C ) :   1.1633 B( 14-C , 31-H ) :   0.9195 B( 14-C , 32-H ) :   0.9341
B( 15-C , 33-H ) :   0.9359 B( 15-C , 34-H ) :   0.9402 B( 15-C , 35-H ) :   0.9352
B( 16-O , 17-C ) :   0.9018 B( 17-C , 18-C ) :   1.1592 B( 17-C , 36-H ) :   0.9028
B( 17-C , 37-H ) :   0.9351 B( 18-C , 38-H ) :   0.9394 B( 18-C , 39-H ) :   0.9409
B( 18-C , 40-H ) :   0.9356

Dispersion correction           -0.066498184
FINAL SINGLE POINT ENERGY     -2929.513376653120

DIPOLE MOMENT
-------------

Method             : SCF
Type of density    : Electron Density
Multiplicity       :   1
Irrep              :   0
Energy             : -2929.6325198226368229 Eh
Relativity type    :
Basis              : AO
                                X                 Y                 Z
Electronic contribution:      3.207271222     -11.792755516       1.059489071
Nuclear contribution   :     -3.338878297      11.750218451      -1.543914108
                        -----------------------------------------
Total Dipole Moment    :     -0.131607075      -0.042537065      -0.484425036
                        -----------------------------------------
Magnitude (a.u.)       :      0.503783128
Magnitude (Debye)      :      1.280514947

Rotational constants in cm-1:             0.013697             0.004714             0.004655
Rotational constants in MHz :           410.639840           141.310705           139.548250

                             ****ORCA TERMINATED NORMALLY****
TOTAL RUN TIME: 0 days 0 hours 0 minutes 21 seconds 332 msec
