                         Program Version 6.0.0  -   RELEASE  -
|  1> ! pbe def2-sv(p) def2/J RI DEFGRID1 loosescf d4 GCP(DFT/SV(P)) printgap
|  2> %output
|  3>     printlevel normal
|  4> end
|  5> * xyz 0 1
|  6> C -3.0602658836 -0.3812010875 -0.0017871696
|  7> C -1.597233843 -0.0544583847 0.0026027149
|  8> C -1.1685541546 1.2689854007 0.0006175352
|  9> C 0.1783900296 1.5586852438 -0.0009863106
| 10> C 1.150450724 0.5586558428 -0.0009299446
| 11> C 0.732669031 -0.7708397751 -0.0005025623
| 12> C -0.6341531198 -1.0466983449 0.0013949264
| 13> C 1.6584648182 -1.9549583961 -0.0004610402
| 14> C 2.5853776822 1.0056397495 0.0009532007
| 15> H -3.5136527789 -0.0613449299 -0.9393329298
| 16> H -3.2199576533 -1.4499945726 0.1131500707
| 17> H -3.5681612971 0.1395107408 0.8081565464
| 18> H -1.8951887435 2.0688937171 0.001112334
| 19> H 0.4994022004 2.5912434645 -0.0016672822
| 20> H -0.9465177405 -2.0824740593 0.0027509503
| 21> H 1.4587896138 -2.5765006469 -0.8721738935
| 22> H 2.7053996906 -1.6746240039 -0.0157745435
| 23> H 1.4800498289 -2.559878307 0.8874622647
| 24> H 3.2868796618 0.1793469295 -0.0077864371
| 25> H 2.7779386235 1.6262317005 -0.8731814176
| 26> H 2.7804000755 1.6091495498 0.8865430771
| 27> *
| 28>
| 29>                          ****END OF INPUT****

CARTESIAN COORDINATES (ANGSTROEM)
---------------------------------
  C     -3.060266   -0.381201   -0.001787
  C     -1.597234   -0.054458    0.002603
  C     -1.168554    1.268985    0.000618
  C      0.178390    1.558685   -0.000986
  C      1.150451    0.558656   -0.000930
  C      0.732669   -0.770840   -0.000503
  C     -0.634153   -1.046698    0.001395
  C      1.658465   -1.954958   -0.000461
  C      2.585378    1.005640    0.000953
  H     -3.513653   -0.061345   -0.939333
  H     -3.219958   -1.449995    0.113150
  H     -3.568161    0.139511    0.808157
  H     -1.895189    2.068894    0.001112
  H      0.499402    2.591243   -0.001667
  H     -0.946518   -2.082474    0.002751
  H      1.458790   -2.576501   -0.872174
  H      2.705400   -1.674624   -0.015775
  H      1.480050   -2.559878    0.887462
  H      3.286880    0.179347   -0.007786
  H      2.777939    1.626232   -0.873181
  H      2.780400    1.609150    0.886543

 Total Charge           Charge          ....    0
 Multiplicity           Mult            ....    1
 Number of Electrons    NEL             ....   66
 Basis Dimension        Dim             ....  150

ORBITAL ENERGIES
----------------

  NO   OCC          E(Eh)            E(eV)
   0   2.0000      -9.894292      -269.2374
   1   2.0000      -9.892567      -269.1904
   2   2.0000      -9.891664      -269.1659
   3   2.0000      -9.878945      -268.8198
   4   2.0000      -9.878447      -268.8062
   5   2.0000      -9.878241      -268.8006
   6   2.0000      -9.878176      -268.7988
   7   2.0000      -9.877134      -268.7705
   8   2.0000      -9.877063      -268.7685
   9   2.0000      -0.774552       -21.0766
  10   2.0000      -0.707512       -19.2524
  11   2.0000      -0.683620       -18.6022
  12   2.0000      -0.642682       -17.4883
  13   2.0000      -0.611046       -16.6274
  14   2.0000      -0.576227       -15.6799
  15   2.0000      -0.530197       -14.4274
  16   2.0000      -0.494397       -13.4532
  17   2.0000      -0.431520       -11.7423
  18   2.0000      -0.428401       -11.6574
  19   2.0000      -0.384907       -10.4738
  20   2.0000      -0.384221       -10.4552
  21   2.0000      -0.369324       -10.0498
  22   2.0000      -0.361691        -9.8421
  23   2.0000      -0.359185        -9.7739
  24   2.0000      -0.354395        -9.6436
  25   2.0000      -0.345516        -9.4020
  26   2.0000      -0.333448        -9.0736
  27   2.0000      -0.324642        -8.8339
  28   2.0000      -0.294792        -8.0217
  29   2.0000      -0.286480        -7.7955
  30   2.0000      -0.282984        -7.7004
  31   2.0000      -0.211990        -5.7685
  32   2.0000      -0.201342        -5.4788
  33   0.0000      -0.027904        -0.7593
  34   0.0000      -0.020520        -0.5584
  35   0.0000       0.048094         1.3087
  36   0.0000       0.056408         1.5349
  37   0.0000       0.066872         1.8197

MULLIKEN ATOMIC CHARGES
-----------------------
   0 C :   -0.220722
   1 C :    0.075433
   2 C :   -0.106972
   3 C :   -0.118635
   4 C :   -0.009144
   5 C :    0.009303
   6 C :   -0.206499
   7 C :   -0.233927
   8 C :   -0.232224
   9 H :    0.114064
  10 H :    0.098949
  11 H :    0.110190
  12 H :    0.028285
  13 H :    0.028814
  14 H :    0.015287
  15 H :    0.112362
  16 H :    0.099566
  17 H :    0.112722
  18 H :    0.098796
  19 H :    0.112022
  20 H :    0.112329
Sum of atomic charges:    0.0000000

LOEWDIN ATOMIC CHARGES
----------------------
   0 C :   -0.322749
   1 C :   -0.052307
   2 C :   -0.128238
   3 C :   -0.118343
   4 C :   -0.055914
   5 C :   -0.048450
   6 C :   -0.125126
   7 C :   -0.325972
   8 C :   -0.326021
   9 H :    0.131417
  10 H :    0.122647
  11 H :    0.129392
  12 H :    0.118326
  13 H :    0.118285
  14 H :    0.115919
  15 H :    0.131774
  16 H :    0.120516
  17 H :    0.132002
  18 H :    0.120241
  19 H :    0.131207
  20 H :    0.131394

  Mayer bond orders larger than 0.100000
B(  0-C ,  1-C ) :   1.0946 B(  0-C ,  9-H ) :   0.9347 B(  0-C , 10-H ) :   0.9456
B(  0-C , 11-H ) :   0.9375 B(  1-C ,  2-C ) :   1.3486 B(  1-C ,  6-C ) :   1.4041
B(  2-C ,  3-C ) :   1.3928 B(  2-C , 12-H ) :   0.9689 B(  3-C ,  4-C ) :   1.3504
B(  3-C , 13-H ) :   0.9633 B(  4-C ,  5-C ) :   1.4542 B(  4-C ,  8-C ) :   1.1067
B(  5-C ,  6-C ) :   1.3360 B(  5-C ,  7-C ) :   1.1047 B(  6-C , 14-H ) :   0.9590
B(  7-C , 15-H ) :   0.9356 B(  7-C , 16-H ) :   0.9331 B(  7-C , 17-H ) :   0.9352
B(  8-C , 18-H ) :   0.9337 B(  8-C , 19-H ) :   0.9356 B(  8-C , 20-H ) :   0.9355

Dispersion correction           -0.021076766
FINAL SINGLE POINT ENERGY      -349.373320589842

DIPOLE MOMENT
-------------

Method             : SCF
Type of density    : Electron Density
Multiplicity       :   1
Irrep              :   0
Energy             :  -349.4317784953015575 Eh
Relativity type    :
Basis              : AO
                                X                 Y                 Z
Electronic contribution:     -1.667221294       1.990978023       0.003879395
Nuclear contribution   :      1.731276100      -2.054999024      -0.010077096
                        -----------------------------------------
Total Dipole Moment    :      0.064054806      -0.064021001      -0.006197701
                        -----------------------------------------
Magnitude (a.u.)       :      0.090775097
Magnitude (Debye)      :      0.230731959

Rotational constants in cm-1:             0.095746             0.043920             0.030621
Rotational constants in MHz :          2870.390280          1316.679548           917.987152

                             ****ORCA TERMINATED NORMALLY****
TOTAL RUN TIME: 0 days 0 hours 0 minutes 23 seconds 605 msec
