                         Program Version 6.0.0  -   RELEASE  -
|  1> ! pbe def2-sv(p) def2/J RI DEFGRID1 loosescf d4 GCP(DFT/SV(P)) printgap
|  2> %output
|  3>     printlevel normal
|  4> end
|  5> * xyz 0 1
|  6> C 3.7061179194 1.7556015515 -1.7112489598
|  7> C 2.4031691581 1.0745930907 -2.0696497759
|  8> O 2.2384299699 -0.1781033759 -1.3766431566
|  9> P 2.1154046591 -0.2898351488 0.1964908893
| 10> S 1.1463994643 1.1599876654 1.1091229242
| 11> O 3.630144985 -0.4261406558 0.6552576191
| 12> C 4.0420115418 -0.265129257 2.0224151652
| 13> C 3.5238736665 -1.3821834997 2.9051662261
| 14> S 1.4182401605 -2.2721495704 0.3203158115
| 15> C -0.2422405575 -2.0923181503 -0.3815625731
| 16> S -1.4921797386 -1.5008600773 0.8147597631
| 17> P -2.104532316 0.2915379143 -0.1230267007
| 18> S -1.1572362721 0.8239115727 -1.7612442698
| 19> O -2.0710881735 1.3251678559 1.0703434026
| 20> C -1.9199944694 2.7423623601 0.8746453281
| 21> C -3.170719687 3.3521479482 0.2786411246
| 22> O -3.6824081432 0.1159899797 -0.269197314
| 23> C -4.3571645381 -1.0122757966 -0.850072261
| 24> C -3.9373128946 -1.2828783463 -2.2808150118
| 25> H 3.8340790584 2.6349595329 -2.3346369586
| 26> H 3.6884674669 2.0619616053 -0.6657876882
| 27> H 4.5390641216 1.0746018018 -1.8653319064
| 28> H 2.3638232865 0.7922766621 -3.1225535213
| 29> H 1.5466914902 1.7152185331 -1.8362508145
| 30> H 5.1314563996 -0.2633356398 1.9697652488
| 31> H 3.6830506052 0.7054724277 2.3806194117
| 32> H 3.948833516 -1.2841014464 3.8989483289
| 33> H 2.4380441515 -1.3242341056 2.9784315387
| 34> H 3.7933682086 -2.3491879694 2.4879625331
| 35> H -0.5353239049 -3.0915262741 -0.6916810152
| 36> H -0.2082364658 -1.4003153177 -1.2280307928
| 37> H -1.70821928 3.1237926374 1.874326411
| 38> H -1.0500678378 2.9174689988 0.2328323543
| 39> H -3.0464431934 4.4275518678 0.2007611865
| 40> H -3.3417704385 2.9385771931 -0.7149887004
| 41> H -4.030220365 3.1271178643 0.9042777793
| 42> H -4.1691070624 -1.8855024579 -0.2183116863
| 43> H -5.4112590044 -0.7353064316 -0.7913360754
| 44> H -4.5483467396 -2.0814532592 -2.6889680288
| 45> H -4.0602635018 -0.3893446598 -2.8881573724
| 46> H -2.8907809353 -1.5816505441 -2.3188279696
| 47> *
| 48>
| 49>                          ****END OF INPUT****

CARTESIAN COORDINATES (ANGSTROEM)
---------------------------------
  C      3.706118    1.755602   -1.711249
  C      2.403169    1.074593   -2.069650
  O      2.238430   -0.178103   -1.376643
  P      2.115405   -0.289835    0.196491
  S      1.146399    1.159988    1.109123
  O      3.630145   -0.426141    0.655258
  C      4.042012   -0.265129    2.022415
  C      3.523874   -1.382183    2.905166
  S      1.418240   -2.272150    0.320316
  C     -0.242241   -2.092318   -0.381563
  S     -1.492180   -1.500860    0.814760
  P     -2.104532    0.291538   -0.123027
  S     -1.157236    0.823912   -1.761244
  O     -2.071088    1.325168    1.070343
  C     -1.919994    2.742362    0.874645
  C     -3.170720    3.352148    0.278641
  O     -3.682408    0.115990   -0.269197
  C     -4.357165   -1.012276   -0.850072
  C     -3.937313   -1.282878   -2.280815
  H      3.834079    2.634960   -2.334637
  H      3.688467    2.061962   -0.665788
  H      4.539064    1.074602   -1.865332
  H      2.363823    0.792277   -3.122554
  H      1.546691    1.715219   -1.836251
  H      5.131456   -0.263336    1.969765
  H      3.683051    0.705472    2.380619
  H      3.948834   -1.284101    3.898948
  H      2.438044   -1.324234    2.978432
  H      3.793368   -2.349188    2.487963
  H     -0.535324   -3.091526   -0.691681
  H     -0.208236   -1.400315   -1.228031
  H     -1.708219    3.123793    1.874326
  H     -1.050068    2.917469    0.232832
  H     -3.046443    4.427552    0.200761
  H     -3.341770    2.938577   -0.714989
  H     -4.030220    3.127118    0.904278
  H     -4.169107   -1.885502   -0.218312
  H     -5.411259   -0.735306   -0.791336
  H     -4.548347   -2.081453   -2.688968
  H     -4.060264   -0.389345   -2.888157
  H     -2.890781   -1.581651   -2.318828

 Total Charge           Charge          ....    0
 Multiplicity           Mult            ....    1
 Number of Electrons    NEL             ....  202
 Basis Dimension        Dim             ....  334

ORBITAL ENERGIES
----------------

  NO   OCC          E(Eh)            E(eV)
   0   2.0000     -88.041685     -2395.7360
   1   2.0000     -88.040640     -2395.7076
   2   2.0000     -87.986549     -2394.2357
   3   2.0000     -87.981093     -2394.0873
   4   2.0000     -76.424508     -2079.6166
   5   2.0000     -76.422274     -2079.5558
   6   2.0000     -18.789784      -511.2960
   7   2.0000     -18.785440      -511.1778
   8   2.0000     -18.785032      -511.1667
   9   2.0000     -18.782613      -511.1009
  10   2.0000      -9.956451      -270.9288
  11   2.0000      -9.952929      -270.8330
  12   2.0000      -9.950080      -270.7554
  13   2.0000      -9.943510      -270.5767
  14   2.0000      -9.942969      -270.5620
  15   2.0000      -9.883302      -268.9383
  16   2.0000      -9.882423      -268.9144
  17   2.0000      -9.878345      -268.8034
  18   2.0000      -9.877275      -268.7743
  19   2.0000      -7.686871      -209.1704
  20   2.0000      -7.686287      -209.1545
  21   2.0000      -7.631302      -207.6583
  22   2.0000      -7.625669      -207.5050
  23   2.0000      -6.421665      -174.7424
  24   2.0000      -6.419826      -174.6923
  25   2.0000      -5.714689      -155.5046
  26   2.0000      -5.714182      -155.4908
  27   2.0000      -5.711435      -155.4160
  28   2.0000      -5.710772      -155.3980
  29   2.0000      -5.703823      -155.2089
  30   2.0000      -5.703149      -155.1906
  31   2.0000      -5.660065      -154.0182
  32   2.0000      -5.654488      -153.8664
  33   2.0000      -5.652485      -153.8119
  34   2.0000      -5.651022      -153.7721
  35   2.0000      -5.646365      -153.6454
  36   2.0000      -5.645923      -153.6334
  37   2.0000      -4.643951      -126.3683
  38   2.0000      -4.643498      -126.3560
  39   2.0000      -4.642397      -126.3260
  40   2.0000      -4.642310      -126.3237
  41   2.0000      -4.641648      -126.3057
  42   2.0000      -4.640310      -126.2693
  43   2.0000      -0.983084       -26.7511
  44   2.0000      -0.980928       -26.6924
  45   2.0000      -0.942472       -25.6460
  46   2.0000      -0.938247       -25.5310
  47   2.0000      -0.760254       -20.6876
  48   2.0000      -0.718337       -19.5469
  49   2.0000      -0.704882       -19.1808
  50   2.0000      -0.685003       -18.6399
  51   2.0000      -0.682527       -18.5725
  52   2.0000      -0.671320       -18.2675
  53   2.0000      -0.651488       -17.7279
  54   2.0000      -0.635243       -17.2858
  55   2.0000      -0.600354       -16.3365
  56   2.0000      -0.590735       -16.0747
  57   2.0000      -0.570267       -15.5178
  58   2.0000      -0.569540       -15.4980
  59   2.0000      -0.558803       -15.2058
  60   2.0000      -0.493285       -13.4230
  61   2.0000      -0.486704       -13.2439
  62   2.0000      -0.469660       -12.7801
  63   2.0000      -0.464873       -12.6499
  64   2.0000      -0.452437       -12.3114
  65   2.0000      -0.444797       -12.1035
  66   2.0000      -0.435865       -11.8605
  67   2.0000      -0.431722       -11.7478
  68   2.0000      -0.425651       -11.5825
  69   2.0000      -0.414062       -11.2672
  70   2.0000      -0.410328       -11.1656
  71   2.0000      -0.397331       -10.8119
  72   2.0000      -0.390514       -10.6264
  73   2.0000      -0.387396       -10.5416
  74   2.0000      -0.378862       -10.3094
  75   2.0000      -0.373285       -10.1576
  76   2.0000      -0.370235       -10.0746
  77   2.0000      -0.352407        -9.5895
  78   2.0000      -0.347704        -9.4615
  79   2.0000      -0.345216        -9.3938
  80   2.0000      -0.344476        -9.3737
  81   2.0000      -0.340765        -9.2727
  82   2.0000      -0.338619        -9.2143
  83   2.0000      -0.334201        -9.0941
  84   2.0000      -0.330105        -8.9826
  85   2.0000      -0.312018        -8.4904
  86   2.0000      -0.308242        -8.3877
  87   2.0000      -0.293083        -7.9752
  88   2.0000      -0.292160        -7.9501
  89   2.0000      -0.283027        -7.7016
  90   2.0000      -0.277690        -7.5563
  91   2.0000      -0.271097        -7.3769
  92   2.0000      -0.268110        -7.2957
  93   2.0000      -0.260394        -7.0857
  94   2.0000      -0.256073        -6.9681
  95   2.0000      -0.235637        -6.4120
  96   2.0000      -0.220453        -5.9988
  97   2.0000      -0.210820        -5.7367
  98   2.0000      -0.205474        -5.5912
  99   2.0000      -0.194588        -5.2950
 100   2.0000      -0.184546        -5.0218
 101   0.0000      -0.038835        -1.0568
 102   0.0000      -0.030225        -0.8225
 103   0.0000      -0.012751        -0.3470
 104   0.0000       0.004449         0.1211
 105   0.0000       0.022482         0.6118

MULLIKEN ATOMIC CHARGES
-----------------------
   0 C :   -0.307647
   1 C :   -0.008243
   2 O :   -0.367645
   3 P :    0.614395
   4 S :   -0.328363
   5 O :   -0.372439
   6 C :   -0.002689
   7 C :   -0.324388
   8 S :   -0.078394
   9 C :   -0.367212
  10 S :   -0.081179
  11 P :    0.626851
  12 S :   -0.329571
  13 O :   -0.360212
  14 C :   -0.010306
  15 C :   -0.296988
  16 O :   -0.372302
  17 C :   -0.003368
  18 C :   -0.309894
  19 H :    0.110138
  20 H :    0.120671
  21 H :    0.115157
  22 H :    0.102567
  23 H :    0.126450
  24 H :    0.104533
  25 H :    0.110430
  26 H :    0.114118
  27 H :    0.133631
  28 H :    0.119481
  29 H :    0.182282
  30 H :    0.204851
  31 H :    0.105419
  32 H :    0.120557
  33 H :    0.108406
  34 H :    0.121956
  35 H :    0.114062
  36 H :    0.105352
  37 H :    0.106275
  38 H :    0.109014
  39 H :    0.124176
  40 H :    0.120067
Sum of atomic charges:   -0.0000000

LOEWDIN ATOMIC CHARGES
----------------------
   0 C :   -0.366733
   1 C :   -0.118983
   2 O :   -0.238238
   3 P :    0.570054
   4 S :   -0.315032
   5 O :   -0.242491
   6 C :   -0.120630
   7 C :   -0.371456
   8 S :    0.093354
   9 C :   -0.481982
  10 S :    0.087233
  11 P :    0.577405
  12 S :   -0.299625
  13 O :   -0.232058
  14 C :   -0.118926
  15 C :   -0.363735
  16 O :   -0.247433
  17 C :   -0.118186
  18 C :   -0.368248
  19 H :    0.129659
  20 H :    0.121197
  21 H :    0.125251
  22 H :    0.118649
  23 H :    0.108602
  24 H :    0.118375
  25 H :    0.109745
  26 H :    0.131811
  27 H :    0.123998
  28 H :    0.124234
  29 H :    0.136142
  30 H :    0.123488
  31 H :    0.119452
  32 H :    0.108068
  33 H :    0.128866
  34 H :    0.122280
  35 H :    0.125390
  36 H :    0.104772
  37 H :    0.120041
  38 H :    0.128493
  39 H :    0.129230
  40 H :    0.117968

  Mayer bond orders larger than 0.100000
B(  0-C ,  1-C ) :   1.1627 B(  0-C , 19-H ) :   0.9388 B(  0-C , 20-H ) :   0.9355
B(  0-C , 21-H ) :   0.9447 B(  1-C ,  2-O ) :   0.8992 B(  1-C , 22-H ) :   0.9363
B(  1-C , 23-H ) :   0.9093 B(  2-O ,  3-P ) :   1.1280 B(  3-P ,  4-S ) :   1.6129
B(  3-P ,  5-O ) :   1.1007 B(  3-P ,  8-S ) :   0.9644 B(  4-S ,  8-S ) :   0.1140
B(  5-O ,  6-C ) :   0.9080 B(  6-C ,  7-C ) :   1.1661 B(  6-C , 24-H ) :   0.9331
B(  6-C , 25-H ) :   0.9134 B(  7-C , 26-H ) :   0.9380 B(  7-C , 27-H ) :   0.9336
B(  7-C , 28-H ) :   0.9438 B(  8-S ,  9-C ) :   1.0030 B(  9-C , 10-S ) :   0.9970
B(  9-C , 29-H ) :   0.9109 B(  9-C , 30-H ) :   0.8455 B( 10-S , 11-P ) :   0.9544
B( 10-S , 12-S ) :   0.1167 B( 11-P , 12-S ) :   1.5753 B( 11-P , 13-O ) :   1.1491
B( 11-P , 16-O ) :   1.0969 B( 12-S , 30-H ) :   0.1053 B( 13-O , 14-C ) :   0.8990
B( 14-C , 15-C ) :   1.1627 B( 14-C , 31-H ) :   0.9348 B( 14-C , 32-H ) :   0.9118
B( 15-C , 33-H ) :   0.9396 B( 15-C , 34-H ) :   0.9364 B( 15-C , 35-H ) :   0.9460
B( 16-O , 17-C ) :   0.9239 B( 17-C , 18-C ) :   1.1623 B( 17-C , 36-H ) :   0.9205
B( 17-C , 37-H ) :   0.9342 B( 18-C , 38-H ) :   0.9358 B( 18-C , 39-H ) :   0.9437
B( 18-C , 40-H ) :   0.9369

Dispersion correction           -0.067690360
FINAL SINGLE POINT ENERGY     -2929.520011712026

DIPOLE MOMENT
-------------

Method             : SCF
Type of density    : Electron Density
Multiplicity       :   1
Irrep              :   0
Energy             : -2929.6373614751501009 Eh
Relativity type    :
Basis              : AO
                                X                 Y                 Z
Electronic contribution:     -0.034471885      -8.810379132       4.085650633
Nuclear contribution   :     -0.036666269       8.631024775      -4.241049324
                        -----------------------------------------
Total Dipole Moment    :     -0.071138154      -0.179354357      -0.155398691
                        -----------------------------------------
Magnitude (a.u.)       :      0.247744577
Magnitude (Debye)      :      0.629716671

Rotational constants in cm-1:             0.012166             0.005358             0.004964
Rotational constants in MHz :           364.740352           160.640259           148.803705

                             ****ORCA TERMINATED NORMALLY****
TOTAL RUN TIME: 0 days 0 hours 0 minutes 21 seconds 407 msec
