                         Program Version 6.0.1  -  RELEASE   -
|  1> ! pbe def2-sv(p) def2/J RI DEFGRID1 loosescf d4 GCP(DFT/SV(P)) printgap
|  2> %output
|  3>     printlevel normal
|  4> end
|  5> * xyz 0 1
|  6> C 4.260519967 0.4014352468 -2.795651246
|  7> C 4.2782225821 -0.5195499832 -1.5916873942
|  8> O 2.960262104 -1.0801112212 -1.4372445552
|  9> C 2.6403685874 -1.6078983174 -0.2764038527
| 10> O 3.3940321999 -1.7021647276 0.6668913227
| 11> C 1.1949914296 -2.0761517827 -0.2591617835
| 12> C 0.2743147539 -0.860432455 -0.3924726089
| 13> H 0.4468036445 -0.3539423512 -1.3448235954
| 14> C 0.5362576601 0.1016551924 0.751826449
| 15> O -0.1848422415 0.1869330512 1.7237900065
| 16> O 1.6440395783 0.7717102831 0.561694175
| 17> C 2.0710634844 1.6841000062 1.5953423315
| 18> C 2.696651285 0.9412274899 2.764686084
| 19> S -1.4671768896 -1.3902337445 -0.3006178358
| 20> P -2.3405537906 0.5217021251 -0.0155051724
| 21> S -1.3073527854 2.0474927604 -0.6759568934
| 22> O -3.7511447111 0.3302901046 -0.7520971129
| 23> C -3.8372209548 0.1855489963 -2.1743333067
| 24> O -2.8456384599 0.7053088727 1.4666676017
| 25> C -3.5224906482 -0.3385215037 2.1948749882
| 26> H 3.5432295293 1.2027731629 -2.6420075982
| 27> H 5.2481720783 0.8278212026 -2.936041356
| 28> H 3.9799651001 -0.1544313074 -3.6849866363
| 29> H 4.5350279827 0.0139650084 -0.6717321064
| 30> H 4.9838115535 -1.3450130942 -1.7249490336
| 31> H 1.0020429716 -2.5978431089 0.6787686476
| 32> H 1.0184725538 -2.7476760831 -1.0993881823
| 33> H 2.7923216104 2.328226237 1.0928332555
| 34> H 1.2025553186 2.2670965167 1.9160218635
| 35> H 3.1555887667 1.6561020718 3.43902603
| 36> H 1.9372447428 0.3802333523 3.3044538351
| 37> H 3.4509802363 0.2449826639 2.4041991235
| 38> H -3.2601949434 0.9705311215 -2.6655298211
| 39> H -4.8928990839 0.2837570175 -2.4137893412
| 40> H -3.463592989 -0.7946136981 -2.4698798489
| 41> H -2.8159808803 -1.13656523 2.42210013
| 42> H -4.3587325194 -0.7216113803 1.612766597
| 43> H -3.8685322593 0.1358613312 3.1093108247
| 44> *
| 45>
| 46>                          ****END OF INPUT****

CARTESIAN COORDINATES (ANGSTROEM)
---------------------------------
  C      4.260520    0.401435   -2.795651
  C      4.278223   -0.519550   -1.591687
  O      2.960262   -1.080111   -1.437245
  C      2.640369   -1.607898   -0.276404
  O      3.394032   -1.702165    0.666891
  C      1.194991   -2.076152   -0.259162
  C      0.274315   -0.860432   -0.392473
  H      0.446804   -0.353942   -1.344824
  C      0.536258    0.101655    0.751826
  O     -0.184842    0.186933    1.723790
  O      1.644040    0.771710    0.561694
  C      2.071063    1.684100    1.595342
  C      2.696651    0.941227    2.764686
  S     -1.467177   -1.390234   -0.300618
  P     -2.340554    0.521702   -0.015505
  S     -1.307353    2.047493   -0.675957
  O     -3.751145    0.330290   -0.752097
  C     -3.837221    0.185549   -2.174333
  O     -2.845638    0.705309    1.466668
  C     -3.522491   -0.338522    2.194875
  H      3.543230    1.202773   -2.642008
  H      5.248172    0.827821   -2.936041
  H      3.979965   -0.154431   -3.684987
  H      4.535028    0.013965   -0.671732
  H      4.983812   -1.345013   -1.724949
  H      1.002043   -2.597843    0.678769
  H      1.018473   -2.747676   -1.099388
  H      2.792322    2.328226    1.092833
  H      1.202555    2.267097    1.916022
  H      3.155589    1.656102    3.439026
  H      1.937245    0.380233    3.304454
  H      3.450980    0.244983    2.404199
  H     -3.260195    0.970531   -2.665530
  H     -4.892899    0.283757   -2.413789
  H     -3.463593   -0.794614   -2.469880
  H     -2.815981   -1.136565    2.422100
  H     -4.358733   -0.721611    1.612767
  H     -3.868532    0.135861    3.109311

 Total Charge           Charge          ....    0
 Multiplicity           Mult            ....    1
 Number of Electrons    NEL             ....  174
 Basis Dimension        Dim             ....  316

ORBITAL ENERGIES
----------------

  NO   OCC          E(Eh)            E(eV)
   0   2.0000     -88.039547     -2395.6779
   1   2.0000     -87.979751     -2394.0507
   2   2.0000     -76.422998     -2079.5755
   3   2.0000     -18.809392      -511.8296
   4   2.0000     -18.808151      -511.7958
   5   2.0000     -18.788292      -511.2554
   6   2.0000     -18.786619      -511.2099
   7   2.0000     -18.743323      -510.0317
   8   2.0000     -18.739624      -509.9311
   9   2.0000     -10.016402      -272.5602
  10   2.0000     -10.016303      -272.5575
  11   2.0000      -9.953083      -270.8372
  12   2.0000      -9.947782      -270.6929
  13   2.0000      -9.946033      -270.6453
  14   2.0000      -9.943730      -270.5826
  15   2.0000      -9.942141      -270.5394
  16   2.0000      -9.918985      -269.9093
  17   2.0000      -9.892034      -269.1759
  18   2.0000      -9.877165      -268.7713
  19   2.0000      -7.684589      -209.1083
  20   2.0000      -7.625011      -207.4871
  21   2.0000      -6.419820      -174.6922
  22   2.0000      -5.712362      -155.4413
  23   2.0000      -5.709205      -155.3554
  24   2.0000      -5.701581      -155.1479
  25   2.0000      -5.654110      -153.8561
  26   2.0000      -5.645450      -153.6205
  27   2.0000      -5.645106      -153.6111
  28   2.0000      -4.642469      -126.3280
  29   2.0000      -4.641841      -126.3109
  30   2.0000      -4.640136      -126.2645
  31   2.0000      -1.020185       -27.7607
  32   2.0000      -1.014290       -27.6002
  33   2.0000      -0.981975       -26.7209
  34   2.0000      -0.937705       -25.5163
  35   2.0000      -0.921409       -25.0728
  36   2.0000      -0.919802       -25.0291
  37   2.0000      -0.769173       -20.9303
  38   2.0000      -0.717827       -19.5331
  39   2.0000      -0.703784       -19.1509
  40   2.0000      -0.692125       -18.8337
  41   2.0000      -0.661847       -18.0098
  42   2.0000      -0.632745       -17.2179
  43   2.0000      -0.619027       -16.8446
  44   2.0000      -0.615834       -16.7577
  45   2.0000      -0.590839       -16.0775
  46   2.0000      -0.564304       -15.3555
  47   2.0000      -0.517107       -14.0712
  48   2.0000      -0.511365       -13.9149
  49   2.0000      -0.494172       -13.4471
  50   2.0000      -0.478919       -13.0320
  51   2.0000      -0.470561       -12.8046
  52   2.0000      -0.460949       -12.5431
  53   2.0000      -0.454354       -12.3636
  54   2.0000      -0.437683       -11.9100
  55   2.0000      -0.429957       -11.6997
  56   2.0000      -0.426842       -11.6150
  57   2.0000      -0.423022       -11.5110
  58   2.0000      -0.413154       -11.2425
  59   2.0000      -0.411159       -11.1882
  60   2.0000      -0.402140       -10.9428
  61   2.0000      -0.398488       -10.8434
  62   2.0000      -0.390744       -10.6327
  63   2.0000      -0.384763       -10.4699
  64   2.0000      -0.368948       -10.0396
  65   2.0000      -0.365680        -9.9507
  66   2.0000      -0.361532        -9.8378
  67   2.0000      -0.356522        -9.7015
  68   2.0000      -0.347760        -9.4630
  69   2.0000      -0.339896        -9.2490
  70   2.0000      -0.337382        -9.1806
  71   2.0000      -0.327645        -8.9157
  72   2.0000      -0.321014        -8.7352
  73   2.0000      -0.315049        -8.5729
  74   2.0000      -0.305919        -8.3245
  75   2.0000      -0.299484        -8.1494
  76   2.0000      -0.294936        -8.0256
  77   2.0000      -0.290449        -7.9035
  78   2.0000      -0.271598        -7.3905
  79   2.0000      -0.267088        -7.2678
  80   2.0000      -0.258839        -7.0434
  81   2.0000      -0.256682        -6.9847
  82   2.0000      -0.232928        -6.3383
  83   2.0000      -0.225383        -6.1330
  84   2.0000      -0.220408        -5.9976
  85   2.0000      -0.199106        -5.4179
  86   2.0000      -0.197319        -5.3693
  87   0.0000      -0.043443        -1.1821
  88   0.0000      -0.034759        -0.9458
  89   0.0000      -0.022260        -0.6057
  90   0.0000       0.014036         0.3819
  91   0.0000       0.024271         0.6604

MULLIKEN ATOMIC CHARGES
-----------------------
   0 C :   -0.280229
   1 C :   -0.029352
   2 O :   -0.233489
   3 C :    0.104769
   4 O :   -0.198466
   5 C :   -0.040567
   6 C :   -0.285848
   7 H :    0.152414
   8 C :    0.168355
   9 O :   -0.187278
  10 O :   -0.223670
  11 C :   -0.002583
  12 C :   -0.327100
  13 S :   -0.099577
  14 P :    0.613795
  15 S :   -0.322957
  16 O :   -0.387205
  17 C :   -0.099969
  18 O :   -0.347653
  19 C :   -0.102577
  20 H :    0.124538
  21 H :    0.112283
  22 H :    0.115451
  23 H :    0.112245
  24 H :    0.106494
  25 H :    0.111421
  26 H :    0.124930
  27 H :    0.099798
  28 H :    0.116868
  29 H :    0.109254
  30 H :    0.128144
  31 H :    0.137119
  32 H :    0.116756
  33 H :    0.124464
  34 H :    0.112894
  35 H :    0.128090
  36 H :    0.117199
  37 H :    0.131236
Sum of atomic charges:   -0.0000000

LOEWDIN ATOMIC CHARGES
----------------------
   0 C :   -0.351049
   1 C :   -0.105579
   2 O :   -0.057825
   3 C :    0.024868
   4 O :   -0.159719
   5 C :   -0.237933
   6 C :   -0.266716
   7 H :    0.139765
   8 C :   -0.002090
   9 O :   -0.165564
  10 O :   -0.036182
  11 C :   -0.104230
  12 C :   -0.364170
  13 S :    0.092432
  14 P :    0.584572
  15 S :   -0.311160
  16 O :   -0.262197
  17 C :   -0.217378
  18 O :   -0.227058
  19 C :   -0.207224
  20 H :    0.130455
  21 H :    0.131025
  22 H :    0.126962
  23 H :    0.118288
  24 H :    0.117482
  25 H :    0.140304
  26 H :    0.143011
  27 H :    0.116704
  28 H :    0.124809
  29 H :    0.128674
  30 H :    0.130854
  31 H :    0.130802
  32 H :    0.111149
  33 H :    0.122022
  34 H :    0.106942
  35 H :    0.116131
  36 H :    0.111763
  37 H :    0.127062

  Mayer bond orders larger than 0.100000
B(  0-C ,  1-C ) :   1.1560 B(  0-C , 20-H ) :   0.9499 B(  0-C , 21-H ) :   0.9435
B(  0-C , 22-H ) :   0.9484 B(  1-C ,  2-O ) :   0.9039 B(  1-C , 23-H ) :   0.9223
B(  1-C , 24-H ) :   0.9361 B(  2-O ,  3-C ) :   1.2122 B(  3-C ,  4-O ) :   2.0420
B(  3-C ,  5-C ) :   1.0272 B(  5-C ,  6-C ) :   1.0524 B(  5-C , 25-H ) :   0.8967
B(  5-C , 26-H ) :   0.8908 B(  6-C ,  7-H ) :   0.8652 B(  6-C ,  8-C ) :   0.8813
B(  6-C , 13-S ) :   1.0168 B(  8-C ,  9-O ) :   2.0192 B(  8-C , 10-O ) :   1.2389
B( 10-O , 11-C ) :   0.9012 B( 11-C , 12-C ) :   1.1715 B( 11-C , 27-H ) :   0.9380
B( 11-C , 28-H ) :   0.9178 B( 12-C , 29-H ) :   0.9421 B( 12-C , 30-H ) :   0.9427
B( 12-C , 31-H ) :   0.9357 B( 13-S , 14-P ) :   0.9496 B( 13-S , 15-S ) :   0.1122
B( 14-P , 15-S ) :   1.6125 B( 14-P , 16-O ) :   1.0719 B( 14-P , 18-O ) :   1.1491
B( 16-O , 17-C ) :   0.9342 B( 17-C , 32-H ) :   0.9355 B( 17-C , 33-H ) :   0.9587
B( 17-C , 34-H ) :   0.9462 B( 18-O , 19-C ) :   0.9168 B( 19-C , 35-H ) :   0.9422
B( 19-C , 36-H ) :   0.9452 B( 19-C , 37-H ) :   0.9598

Dispersion correction           -0.052297079
FINAL SINGLE POINT ENERGY     -1979.016135053939

DIPOLE MOMENT
-------------

Method             : SCF
Type of density    : Electron Density
Multiplicity       :   1
Irrep              :   0
Energy             : -1979.1468906518671247 Eh
Relativity type    :
Basis              : AO
                                X                 Y                 Z
Electronic contribution:    -15.680263794      -0.514151534       0.822029919
Nuclear contribution   :     15.920979890      -0.065608237      -1.495021148
                        -----------------------------------------
Total Dipole Moment    :      0.240716096      -0.579759772      -0.672991229
                        -----------------------------------------
Magnitude (a.u.)       :      0.920316699
Magnitude (Debye)      :      2.339259145

Rotational constants in cm-1:             0.015850             0.006209             0.005752
Rotational constants in MHz :           475.167795           186.141341           172.428509

                             ****ORCA TERMINATED NORMALLY****
TOTAL RUN TIME: 0 days 0 hours 0 minutes 44 seconds 88 msec
