                         Program Version 6.0.0  -   RELEASE  -
|  1> ! pbe def2-sv(p) def2/J RI DEFGRID1 loosescf d4 GCP(DFT/SV(P)) printgap
|  2> %output
|  3>     printlevel normal
|  4> end
|  5> * xyz 0 1
|  6> C 4.90933e-05 1.8139604635 -0.0002190515
|  7> C 5.9371e-06 0.4970500667 -0.0022957273
|  8> Cl 1.4414760869 -0.4586368152 0.0002594083
|  9> Cl -1.4414991258 -0.4586009772 0.0002692627
| 10> H -0.9234881796 2.362169934 0.0054152631
| 11> H 0.9236427931 2.3621524625 0.0059558474
| 12> *
| 13>
| 14>                          ****END OF INPUT****

CARTESIAN COORDINATES (ANGSTROEM)
---------------------------------
  C      0.000049    1.813960   -0.000219
  C      0.000006    0.497050   -0.002296
  Cl     1.441476   -0.458637    0.000259
  Cl    -1.441499   -0.458601    0.000269
  H     -0.923488    2.362170    0.005415
  H      0.923643    2.362152    0.005956

 Total Charge           Charge          ....    0
 Multiplicity           Mult            ....    1
 Number of Electrons    NEL             ....   48
 Basis Dimension        Dim             ....   68

ORBITAL ENERGIES
----------------

  NO   OCC          E(Eh)            E(eV)
   0   2.0000    -100.656138     -2738.9928
   1   2.0000    -100.656087     -2738.9914
   2   2.0000     -10.002380      -272.1786
   3   2.0000      -9.905799      -269.5505
   4   2.0000      -9.192316      -250.1356
   5   2.0000      -9.192281      -250.1347
   6   2.0000      -7.023923      -191.1307
   7   2.0000      -7.023901      -191.1301
   8   2.0000      -7.012173      -190.8109
   9   2.0000      -7.012171      -190.8109
  10   2.0000      -7.011523      -190.7932
  11   2.0000      -7.011508      -190.7928
  12   2.0000      -0.843340       -22.9485
  13   2.0000      -0.764257       -20.7965
  14   2.0000      -0.679454       -18.4889
  15   2.0000      -0.513798       -13.9812
  16   2.0000      -0.450854       -12.2684
  17   2.0000      -0.428315       -11.6550
  18   2.0000      -0.367137        -9.9903
  19   2.0000      -0.363314        -9.8863
  20   2.0000      -0.301229        -8.1969
  21   2.0000      -0.287893        -7.8340
  22   2.0000      -0.269307        -7.3282
  23   2.0000      -0.229903        -6.2560
  24   0.0000      -0.043884        -1.1941
  25   0.0000      -0.009363        -0.2548
  26   0.0000       0.014933         0.4064
  27   0.0000       0.073224         1.9925
  28   0.0000       0.147180         4.0050

MULLIKEN ATOMIC CHARGES
-----------------------
   0 C :   -0.129858
   1 C :   -0.028102
   2 Cl:   -0.038121
   3 Cl:   -0.038119
   4 H :    0.117092
   5 H :    0.117109
Sum of atomic charges:    0.0000000

LOEWDIN ATOMIC CHARGES
----------------------
   0 C :   -0.298172
   1 C :   -0.256991
   2 Cl:    0.135899
   3 Cl:    0.135896
   4 H :    0.141682
   5 H :    0.141686

  Mayer bond orders larger than 0.100000
B(  0-C ,  1-C ) :   1.9719 B(  0-C ,  4-H ) :   0.9023 B(  0-C ,  5-H ) :   0.9023
B(  1-C ,  2-Cl) :   1.0583 B(  1-C ,  3-Cl) :   1.0583

Dispersion correction           -0.005337942
FINAL SINGLE POINT ENERGY      -996.940174262360

DIPOLE MOMENT
-------------

Method             : SCF
Type of density    : Electron Density
Multiplicity       :   1
Irrep              :   0
Energy             :  -996.9524989004428335 Eh
Relativity type    :
Basis              : AO
                                X                 Y                 Z
Electronic contribution:     -0.000168403      -5.246297049      -0.006332760
Nuclear contribution   :      0.000175978       5.663378195       0.009958522
                        -----------------------------------------
Total Dipole Moment    :      0.000007575       0.417081145       0.003625762
                        -----------------------------------------
Magnitude (a.u.)       :      0.417096905
Magnitude (Debye)      :      1.060176078

Rotational constants in cm-1:             0.245553             0.113097             0.077433
Rotational constants in MHz :          7361.486849          3390.571833          2321.386207

                             ****ORCA TERMINATED NORMALLY****
TOTAL RUN TIME: 0 days 0 hours 0 minutes 4 seconds 351 msec
