                         Program Version 6.0.0  -   RELEASE  -
|  1> ! pbe def2-sv(p) def2/J RI DEFGRID1 loosescf d4 GCP(DFT/SV(P)) printgap
|  2> %output
|  3>     printlevel normal
|  4> end
|  5> * xyz 0 1
|  6> C 0.847107409 1.2794901554 -1.0069090348
|  7> C 1.4403088184 0.3031920395 0.0101896192
|  8> H 2.4589580144 0.0424870929 -0.3049080435
|  9> C 0.6261989039 -1.0022386142 0.0197954449
| 10> H 0.5913354878 -1.3757345721 1.0531175075
| 11> C -0.8241505568 -0.7613389577 -0.4407126812
| 12> H -0.8570690957 -0.8377822342 -1.540081264
| 13> C -1.2840182479 0.661853398 -0.0644121607
| 14> H -2.3143849283 0.8263964007 -0.4091943751
| 15> O -0.5071547603 1.6310125247 -0.7244532585
| 16> O -1.3308838723 0.8696125494 1.3104995905
| 17> O -1.6209687655 -1.757568835 0.1472523334
| 18> O 1.2837564248 -1.9191933203 -0.8183639199
| 19> O 1.4416694618 0.8249733371 1.3210174839
| 20> H 0.909614574 0.8231724135 -2.0021094679
| 21> H 1.3885916398 2.2272535103 -1.012667665
| 22> H -0.4188472736 0.880097927 1.6656669169
| 23> H -2.558438648 -1.5737582354 -0.003762973
| 24> H 0.83167584 -2.7736660898 -0.7675463057
| 25> H 2.0150453961 1.604397582 1.3633491368
| 26> *
| 27>
| 28>                          ****END OF INPUT****

CARTESIAN COORDINATES (ANGSTROEM)
---------------------------------
  C      0.847107    1.279490   -1.006909
  C      1.440309    0.303192    0.010190
  H      2.458958    0.042487   -0.304908
  C      0.626199   -1.002239    0.019795
  H      0.591335   -1.375735    1.053118
  C     -0.824151   -0.761339   -0.440713
  H     -0.857069   -0.837782   -1.540081
  C     -1.284018    0.661853   -0.064412
  H     -2.314385    0.826396   -0.409194
  O     -0.507155    1.631013   -0.724453
  O     -1.330884    0.869613    1.310500
  O     -1.620969   -1.757569    0.147252
  O      1.283756   -1.919193   -0.818364
  O      1.441669    0.824973    1.321017
  H      0.909615    0.823172   -2.002109
  H      1.388592    2.227254   -1.012668
  H     -0.418847    0.880098    1.665667
  H     -2.558439   -1.573758   -0.003763
  H      0.831676   -2.773666   -0.767546
  H      2.015045    1.604398    1.363349

 Total Charge           Charge          ....    0
 Multiplicity           Mult            ....    1
 Number of Electrons    NEL             ....   80
 Basis Dimension        Dim             ....  160

ORBITAL ENERGIES
----------------

  NO   OCC          E(Eh)            E(eV)
   0   2.0000     -18.783771      -511.1324
   1   2.0000     -18.759154      -510.4625
   2   2.0000     -18.755983      -510.3762
   3   2.0000     -18.753623      -510.3120
   4   2.0000     -18.730302      -509.6774
   5   2.0000      -9.975088      -271.4359
   6   2.0000      -9.957186      -270.9488
   7   2.0000      -9.946963      -270.6706
   8   2.0000      -9.942018      -270.5361
   9   2.0000      -9.938296      -270.4348
  10   2.0000      -0.973798       -26.4984
  11   2.0000      -0.949038       -25.8246
  12   2.0000      -0.938703       -25.5434
  13   2.0000      -0.922862       -25.1124
  14   2.0000      -0.890816       -24.2403
  15   2.0000      -0.709669       -19.3111
  16   2.0000      -0.672531       -18.3005
  17   2.0000      -0.597924       -16.2703
  18   2.0000      -0.583740       -15.8844
  19   2.0000      -0.528581       -14.3834
  20   2.0000      -0.499091       -13.5810
  21   2.0000      -0.487507       -13.2657
  22   2.0000      -0.466762       -12.7012
  23   2.0000      -0.441284       -12.0079
  24   2.0000      -0.433497       -11.7961
  25   2.0000      -0.415803       -11.3146
  26   2.0000      -0.414356       -11.2752
  27   2.0000      -0.381749       -10.3879
  28   2.0000      -0.371198       -10.1008
  29   2.0000      -0.361051        -9.8247
  30   2.0000      -0.324132        -8.8201
  31   2.0000      -0.318687        -8.6719
  32   2.0000      -0.292732        -7.9657
  33   2.0000      -0.286492        -7.7958
  34   2.0000      -0.275639        -7.5005
  35   2.0000      -0.245059        -6.6684
  36   2.0000      -0.244261        -6.6467
  37   2.0000      -0.227832        -6.1996
  38   2.0000      -0.212151        -5.7729
  39   2.0000      -0.200822        -5.4647
  40   0.0000       0.005369         0.1461
  41   0.0000       0.024552         0.6681
  42   0.0000       0.039187         1.0663
  43   0.0000       0.057798         1.5728
  44   0.0000       0.077443         2.1073

MULLIKEN ATOMIC CHARGES
-----------------------
   0 C :    0.062032
   1 C :   -0.002872
   2 H :    0.087317
   3 C :    0.045546
   4 H :    0.085399
   5 C :    0.050775
   6 H :    0.055170
   7 C :    0.140643
   8 H :    0.053281
   9 O :   -0.313078
  10 O :   -0.404723
  11 O :   -0.413754
  12 O :   -0.419493
  13 O :   -0.425947
  14 H :    0.089594
  15 H :    0.082935
  16 H :    0.297987
  17 H :    0.302916
  18 H :    0.310133
  19 H :    0.316139
Sum of atomic charges:   -0.0000000

LOEWDIN ATOMIC CHARGES
----------------------
   0 C :   -0.119624
   1 C :   -0.080329
   2 H :    0.119170
   3 C :   -0.059148
   4 H :    0.115737
   5 C :   -0.101236
   6 H :    0.102591
   7 C :   -0.015549
   8 H :    0.100213
   9 O :   -0.162719
  10 O :   -0.323110
  11 O :   -0.318494
  12 O :   -0.319385
  13 O :   -0.304394
  14 H :    0.111480
  15 H :    0.111749
  16 H :    0.265736
  17 H :    0.288064
  18 H :    0.292938
  19 H :    0.296309

  Mayer bond orders larger than 0.100000
B(  0-C ,  1-C ) :   1.1067 B(  0-C ,  9-O ) :   1.0221 B(  0-C , 14-H ) :   0.9053
B(  0-C , 15-H ) :   0.9120 B(  1-C ,  2-H ) :   0.8836 B(  1-C ,  3-C ) :   1.0162
B(  1-C , 13-O ) :   0.9957 B(  3-C ,  4-H ) :   0.8826 B(  3-C ,  5-C ) :   1.0320
B(  3-C , 12-O ) :   1.0887 B(  5-C ,  6-H ) :   0.8499 B(  5-C ,  7-C ) :   1.0036
B(  5-C , 11-O ) :   1.0798 B(  7-C ,  8-H ) :   0.8999 B(  7-C ,  9-O ) :   1.0495
B(  7-C , 10-O ) :   1.1692 B( 10-O , 16-H ) :   0.7941 B( 11-O , 17-H ) :   0.8442
B( 12-O , 18-H ) :   0.8441 B( 13-O , 16-H ) :   0.1158 B( 13-O , 19-H ) :   0.8391

Dispersion correction           -0.019840583
FINAL SINGLE POINT ENERGY      -571.409494516449

DIPOLE MOMENT
-------------

Method             : SCF
Type of density    : Electron Density
Multiplicity       :   1
Irrep              :   0
Energy             :  -571.5188560247762553 Eh
Relativity type    :
Basis              : AO
                                X                 Y                 Z
Electronic contribution:     -1.309802776       0.075664262       1.406246251
Nuclear contribution   :      1.909079690      -0.152622804      -1.818755179
                        -----------------------------------------
Total Dipole Moment    :      0.599276914      -0.076958543      -0.412508928
                        -----------------------------------------
Magnitude (a.u.)       :      0.731586668
Magnitude (Debye)      :      1.859545529

Rotational constants in cm-1:             0.051964             0.049003             0.035395
Rotational constants in MHz :          1557.855123          1469.064337          1061.113711

                             ****ORCA TERMINATED NORMALLY****
TOTAL RUN TIME: 0 days 0 hours 0 minutes 11 seconds 560 msec
