                         Program Version 6.0.0  -   RELEASE  -
|  1> ! pbe def2-sv(p) def2/J RI DEFGRID1 loosescf d4 GCP(DFT/SV(P)) printgap
|  2> %output
|  3>     printlevel normal
|  4> end
|  5> * xyz 0 1
|  6> C 4.3033585521 0.0971483022 -2.2806853218
|  7> C 2.9475122399 -0.5463695752 -2.0783598658
|  8> O 2.1173077681 0.2675138916 -1.2113165735
|  9> P 1.9900241825 0.0587340955 0.3401031093
| 10> S 0.8937444511 1.4357316384 1.1887248724
| 11> O 3.4961514416 0.0238853926 0.8391875505
| 12> C 3.8141114175 -0.0824212201 2.2429559142
| 13> C 5.2684386233 0.3029971345 2.4207799195
| 14> S 1.4260858481 -1.9826121372 0.6239594798
| 15> C -0.2335071015 -1.9549431743 -0.0908052612
| 16> S -1.4783414509 -1.1749296377 0.9985055744
| 17> P -2.2750610344 0.1673575664 -0.4038336527
| 18> S -1.09248146 0.8583616843 -1.8190524861
| 19> O -3.0950131625 1.2619036806 0.3991626483
| 20> C -2.5469390607 2.4283866004 1.0390547507
| 21> C -2.3609522691 2.1827217119 2.5224849341
| 22> O -3.4491018575 -0.742609099 -0.9502305297
| 23> C -4.2703096997 -0.3472621423 -2.07270432
| 24> C -4.8451575034 -1.6030931536 -2.6948139005
| 25> H 4.1819683747 1.1045246015 -2.6696753376
| 26> H 4.8405190821 0.1474657397 -1.3375289595
| 27> H 4.8736581756 -0.495193772 -2.9893950883
| 28> H 3.0436386581 -1.5447444875 -1.6424441367
| 29> H 2.3856180629 -0.5975286677 -3.0132156765
| 30> H 3.1493650062 0.5848395316 2.801292056
| 31> H 3.6312174179 -1.1140413026 2.5545262701
| 32> H 5.4278046095 1.3242034332 2.0859004533
| 33> H 5.5295308575 0.2262114141 3.471027239
| 34> H 5.9035085017 -0.36228333 1.8431453377
| 35> H -0.5103485622 -2.9951770161 -0.2383313719
| 36> H -0.2141979439 -1.4049503164 -1.0352136106
| 37> H -1.598618362 2.6944600907 0.5623070755
| 38> H -3.2820667223 3.2141233563 0.854439978
| 39> H -3.2922769649 1.8375258136 2.9622188851
| 40> H -1.5886212497 1.4341607867 2.686013328
| 41> H -2.0522141993 3.1076022021 2.9981898405
| 42> H -5.0557477807 0.311582908 -1.6959763564
| 43> H -3.64608997 0.2065280607 -2.7825844779
| 44> H -5.4120552247 -2.1561057903 -1.9516611934
| 45> H -5.498756959 -1.3261596327 -3.5155544473
| 46> H -4.0454049447 -2.2351322675 -3.0701352319
| 47> *
| 48>
| 49>                          ****END OF INPUT****

CARTESIAN COORDINATES (ANGSTROEM)
---------------------------------
  C      4.303359    0.097148   -2.280685
  C      2.947512   -0.546370   -2.078360
  O      2.117308    0.267514   -1.211317
  P      1.990024    0.058734    0.340103
  S      0.893744    1.435732    1.188725
  O      3.496151    0.023885    0.839188
  C      3.814111   -0.082421    2.242956
  C      5.268439    0.302997    2.420780
  S      1.426086   -1.982612    0.623959
  C     -0.233507   -1.954943   -0.090805
  S     -1.478341   -1.174930    0.998506
  P     -2.275061    0.167358   -0.403834
  S     -1.092481    0.858362   -1.819052
  O     -3.095013    1.261904    0.399163
  C     -2.546939    2.428387    1.039055
  C     -2.360952    2.182722    2.522485
  O     -3.449102   -0.742609   -0.950231
  C     -4.270310   -0.347262   -2.072704
  C     -4.845158   -1.603093   -2.694814
  H      4.181968    1.104525   -2.669675
  H      4.840519    0.147466   -1.337529
  H      4.873658   -0.495194   -2.989395
  H      3.043639   -1.544744   -1.642444
  H      2.385618   -0.597529   -3.013216
  H      3.149365    0.584840    2.801292
  H      3.631217   -1.114041    2.554526
  H      5.427805    1.324203    2.085900
  H      5.529531    0.226211    3.471027
  H      5.903509   -0.362283    1.843145
  H     -0.510349   -2.995177   -0.238331
  H     -0.214198   -1.404950   -1.035214
  H     -1.598618    2.694460    0.562307
  H     -3.282067    3.214123    0.854440
  H     -3.292277    1.837526    2.962219
  H     -1.588621    1.434161    2.686013
  H     -2.052214    3.107602    2.998190
  H     -5.055748    0.311583   -1.695976
  H     -3.646090    0.206528   -2.782584
  H     -5.412055   -2.156106   -1.951661
  H     -5.498757   -1.326160   -3.515554
  H     -4.045405   -2.235132   -3.070135

 Total Charge           Charge          ....    0
 Multiplicity           Mult            ....    1
 Number of Electrons    NEL             ....  202
 Basis Dimension        Dim             ....  334

ORBITAL ENERGIES
----------------

  NO   OCC          E(Eh)            E(eV)
   0   2.0000     -88.042343     -2395.7540
   1   2.0000     -88.035629     -2395.5712
   2   2.0000     -87.977788     -2393.9973
   3   2.0000     -87.976571     -2393.9642
   4   2.0000     -76.423396     -2079.5863
   5   2.0000     -76.417636     -2079.4296
   6   2.0000     -18.794003      -511.4108
   7   2.0000     -18.790993      -511.3289
   8   2.0000     -18.785925      -511.1910
   9   2.0000     -18.778328      -510.9843
  10   2.0000      -9.954743      -270.8823
  11   2.0000      -9.954725      -270.8818
  12   2.0000      -9.953958      -270.8610
  13   2.0000      -9.943952      -270.5887
  14   2.0000      -9.942980      -270.5623
  15   2.0000      -9.890495      -269.1341
  16   2.0000      -9.884677      -268.9757
  17   2.0000      -9.882611      -268.9195
  18   2.0000      -9.873642      -268.6755
  19   2.0000      -7.687404      -209.1849
  20   2.0000      -7.681160      -209.0150
  21   2.0000      -7.622894      -207.4295
  22   2.0000      -7.621508      -207.3918
  23   2.0000      -6.420930      -174.7224
  24   2.0000      -6.415449      -174.5733
  25   2.0000      -5.715023      -155.5137
  26   2.0000      -5.711881      -155.4282
  27   2.0000      -5.709114      -155.3529
  28   2.0000      -5.705837      -155.2637
  29   2.0000      -5.704689      -155.2325
  30   2.0000      -5.697779      -155.0444
  31   2.0000      -5.651834      -153.7942
  32   2.0000      -5.650366      -153.7543
  33   2.0000      -5.643385      -153.5643
  34   2.0000      -5.643085      -153.5562
  35   2.0000      -5.642323      -153.5354
  36   2.0000      -5.641524      -153.5137
  37   2.0000      -4.643941      -126.3680
  38   2.0000      -4.642867      -126.3388
  39   2.0000      -4.640818      -126.2831
  40   2.0000      -4.637991      -126.2061
  41   2.0000      -4.637150      -126.1833
  42   2.0000      -4.635926      -126.1500
  43   2.0000      -0.988702       -26.9039
  44   2.0000      -0.978215       -26.6186
  45   2.0000      -0.946369       -25.7520
  46   2.0000      -0.935381       -25.4530
  47   2.0000      -0.759464       -20.6661
  48   2.0000      -0.720259       -19.5992
  49   2.0000      -0.708722       -19.2853
  50   2.0000      -0.692969       -18.8566
  51   2.0000      -0.680628       -18.5208
  52   2.0000      -0.670592       -18.2477
  53   2.0000      -0.645451       -17.5636
  54   2.0000      -0.627795       -17.0832
  55   2.0000      -0.590516       -16.0687
  56   2.0000      -0.586399       -15.9567
  57   2.0000      -0.569784       -15.5046
  58   2.0000      -0.564564       -15.3626
  59   2.0000      -0.557973       -15.1832
  60   2.0000      -0.508514       -13.8374
  61   2.0000      -0.496756       -13.5174
  62   2.0000      -0.482399       -13.1267
  63   2.0000      -0.471046       -12.8178
  64   2.0000      -0.448590       -12.2068
  65   2.0000      -0.444000       -12.0819
  66   2.0000      -0.440496       -11.9865
  67   2.0000      -0.432431       -11.7670
  68   2.0000      -0.429494       -11.6871
  69   2.0000      -0.413143       -11.2422
  70   2.0000      -0.405609       -11.0372
  71   2.0000      -0.390586       -10.6284
  72   2.0000      -0.385098       -10.4791
  73   2.0000      -0.383146       -10.4259
  74   2.0000      -0.378843       -10.3088
  75   2.0000      -0.367817       -10.0088
  76   2.0000      -0.360867        -9.8197
  77   2.0000      -0.356363        -9.6971
  78   2.0000      -0.352851        -9.6016
  79   2.0000      -0.352109        -9.5814
  80   2.0000      -0.345121        -9.3912
  81   2.0000      -0.344298        -9.3688
  82   2.0000      -0.337164        -9.1747
  83   2.0000      -0.333313        -9.0699
  84   2.0000      -0.327920        -8.9232
  85   2.0000      -0.317696        -8.6449
  86   2.0000      -0.306286        -8.3345
  87   2.0000      -0.300558        -8.1786
  88   2.0000      -0.291593        -7.9346
  89   2.0000      -0.287877        -7.8335
  90   2.0000      -0.280958        -7.6453
  91   2.0000      -0.272827        -7.4240
  92   2.0000      -0.265244        -7.2177
  93   2.0000      -0.261308        -7.1106
  94   2.0000      -0.256040        -6.9672
  95   2.0000      -0.239792        -6.5251
  96   2.0000      -0.222638        -6.0583
  97   2.0000      -0.202333        -5.5058
  98   2.0000      -0.196111        -5.3365
  99   2.0000      -0.186236        -5.0677
 100   2.0000      -0.180308        -4.9064
 101   0.0000      -0.037172        -1.0115
 102   0.0000      -0.028123        -0.7653
 103   0.0000      -0.010746        -0.2924
 104   0.0000       0.005376         0.1463
 105   0.0000       0.026896         0.7319

MULLIKEN ATOMIC CHARGES
-----------------------
   0 C :   -0.292149
   1 C :   -0.013707
   2 O :   -0.343309
   3 P :    0.611145
   4 S :   -0.308411
   5 O :   -0.383943
   6 C :   -0.013471
   7 C :   -0.283629
   8 S :   -0.118921
   9 C :   -0.349722
  10 S :   -0.067714
  11 P :    0.612161
  12 S :   -0.320959
  13 O :   -0.378784
  14 C :   -0.011936
  15 C :   -0.308334
  16 O :   -0.372888
  17 C :   -0.005728
  18 C :   -0.278029
  19 H :    0.122365
  20 H :    0.122709
  21 H :    0.108539
  22 H :    0.098846
  23 H :    0.112468
  24 H :    0.107281
  25 H :    0.105675
  26 H :    0.123700
  27 H :    0.113722
  28 H :    0.116294
  29 H :    0.184209
  30 H :    0.188961
  31 H :    0.125854
  32 H :    0.100532
  33 H :    0.109779
  34 H :    0.139199
  35 H :    0.108678
  36 H :    0.100553
  37 H :    0.100408
  38 H :    0.116254
  39 H :    0.108550
  40 H :    0.113751
Sum of atomic charges:   -0.0000000

LOEWDIN ATOMIC CHARGES
----------------------
   0 C :   -0.359967
   1 C :   -0.115121
   2 O :   -0.223178
   3 P :    0.567469
   4 S :   -0.299723
   5 O :   -0.249756
   6 C :   -0.120474
   7 C :   -0.350773
   8 S :    0.059440
   9 C :   -0.479649
  10 S :    0.089244
  11 P :    0.567261
  12 S :   -0.314730
  13 O :   -0.241977
  14 C :   -0.115804
  15 C :   -0.365272
  16 O :   -0.252735
  17 C :   -0.119028
  18 C :   -0.351121
  19 H :    0.129926
  20 H :    0.125458
  21 H :    0.129109
  22 H :    0.102408
  23 H :    0.122050
  24 H :    0.110316
  25 H :    0.109501
  26 H :    0.130227
  27 H :    0.131847
  28 H :    0.125630
  29 H :    0.137020
  30 H :    0.121071
  31 H :    0.110954
  32 H :    0.116284
  33 H :    0.123129
  34 H :    0.122084
  35 H :    0.130118
  36 H :    0.112152
  37 H :    0.104893
  38 H :    0.126620
  39 H :    0.129030
  40 H :    0.126069

  Mayer bond orders larger than 0.100000
B(  0-C ,  1-C ) :   1.1672 B(  0-C , 19-H ) :   0.9470 B(  0-C , 20-H ) :   0.9409
B(  0-C , 21-H ) :   0.9396 B(  1-C ,  2-O ) :   0.8931 B(  1-C , 22-H ) :   0.9093
B(  1-C , 23-H ) :   0.9331 B(  2-O ,  3-P ) :   1.1463 B(  3-P ,  4-S ) :   1.6709
B(  3-P ,  5-O ) :   1.0752 B(  3-P ,  8-S ) :   0.9475 B(  4-S ,  8-S ) :   0.1140
B(  5-O ,  6-C ) :   0.9042 B(  6-C ,  7-C ) :   1.1601 B(  6-C , 24-H ) :   0.9078
B(  6-C , 25-H ) :   0.9288 B(  7-C , 26-H ) :   0.9507 B(  7-C , 27-H ) :   0.9416
B(  7-C , 28-H ) :   0.9508 B(  8-S ,  9-C ) :   0.9984 B(  9-C , 10-S ) :   0.9926
B(  9-C , 29-H ) :   0.9109 B(  9-C , 30-H ) :   0.8538 B( 10-S , 11-P ) :   0.9712
B( 10-S , 12-S ) :   0.1184 B( 11-P , 12-S ) :   1.6078 B( 11-P , 13-O ) :   1.1241
B( 11-P , 16-O ) :   1.1155 B( 12-S , 30-H ) :   0.1085 B( 13-O , 14-C ) :   0.8989
B( 14-C , 15-C ) :   1.1704 B( 14-C , 31-H ) :   0.9061 B( 14-C , 32-H ) :   0.9342
B( 15-C , 33-H ) :   0.9468 B( 15-C , 34-H ) :   0.9314 B( 15-C , 35-H ) :   0.9408
B( 16-O , 17-C ) :   0.9061 B( 17-C , 18-C ) :   1.1616 B( 17-C , 36-H ) :   0.9318
B( 17-C , 37-H ) :   0.9052 B( 18-C , 38-H ) :   0.9508 B( 18-C , 39-H ) :   0.9424
B( 18-C , 40-H ) :   0.9514

Dispersion correction           -0.064000053
FINAL SINGLE POINT ENERGY     -2929.514951160445

DIPOLE MOMENT
-------------

Method             : SCF
Type of density    : Electron Density
Multiplicity       :   1
Irrep              :   0
Energy             : -2929.6342162541377547 Eh
Relativity type    :
Basis              : AO
                                X                 Y                 Z
Electronic contribution:     -6.088788053      -2.346548730       2.797358265
Nuclear contribution   :      6.599990651       1.675596853      -2.915035949
                        -----------------------------------------
Total Dipole Moment    :      0.511202598      -0.670951877      -0.117677683
                        -----------------------------------------
Magnitude (a.u.)       :      0.851676320
Magnitude (Debye)      :      2.164789168

Rotational constants in cm-1:             0.012610             0.004838             0.004347
Rotational constants in MHz :           378.052078           145.041022           130.320643

                             ****ORCA TERMINATED NORMALLY****
TOTAL RUN TIME: 0 days 0 hours 0 minutes 20 seconds 315 msec
