                         Program Version 6.0.0  -   RELEASE  -
|  1> ! pbe def2-sv(p) def2/J RI DEFGRID1 loosescf d4 GCP(DFT/SV(P)) printgap
|  2> %output
|  3>     printlevel normal
|  4> end
|  5> * xyz 0 1
|  6> C 2.9989121158 -2.9934775403 -1.3046020701
|  7> C 4.0983202597 -2.2128815063 -0.616684499
|  8> O 3.9027061833 -0.7800188325 -0.7066596255
|  9> P 2.704225466 0.0336022902 -0.0941396125
| 10> S 3.1818848175 1.9305390634 0.0045688951
| 11> O 2.4598325324 -0.7614827818 1.264233874
| 12> C 1.3515099046 -0.5814789861 2.1609629408
| 13> C 1.4360682835 0.7208207007 2.9313943611
| 14> S 0.986757676 -0.3854394619 -1.3105608487
| 15> C 0.2843989697 1.2739740003 -1.3850361521
| 16> S -0.7059955721 1.7013730765 0.0721984302
| 17> P -2.2852224319 0.351153454 -0.3333557979
| 18> S -2.834324131 0.1381491894 -2.1946383367
| 19> O -3.4686121822 0.8732424217 0.5789967779
| 20> C -3.3032346187 1.0892680224 2.0043973742
| 21> C -4.6847479516 1.2013802413 2.6146570491
| 22> O -1.704039473 -0.9639749864 0.3753752145
| 23> C -2.0842984178 -2.2848017586 -0.0561033554
| 24> C -3.5107671345 -2.6028141264 0.3429214611
| 25> H 3.2443129035 -4.0506552634 -1.2789868851
| 26> H 2.0481080841 -2.8379369535 -0.797658506
| 27> H 2.8956639684 -2.6746398226 -2.3386843134
| 28> H 5.0622694658 -2.3613435908 -1.1056598285
| 29> H 4.1708671888 -2.4811121363 0.4386680385
| 30> H 0.4195980026 -0.6377509942 1.590239762
| 31> H 1.4228096457 -1.4409747214 2.8306904924
| 32> H 2.4002930257 0.8008084898 3.4267123167
| 33> H 1.3192999138 1.5705102078 2.2614356843
| 34> H 0.6462445903 0.7492534028 3.6750929143
| 35> H -0.3498599454 1.3094728006 -2.2704849082
| 36> H 1.0916843195 2.0062272312 -1.4352557907
| 37> H -2.743557264 0.2493389068 2.4232942872
| 38> H -2.7277669389 2.0086066085 2.1388731523
| 39> H -5.228949066 2.0195789162 2.1520358968
| 40> H -5.2414969802 0.2815836889 2.4592721939
| 41> H -4.5893572509 1.3896631718 3.6791005429
| 42> H -1.9614256034 -2.3447068313 -1.1417212466
| 43> H -1.3666836876 -2.9437920293 0.4342074787
| 44> H -3.7580402677 -3.6113151417 0.0270612349
| 45> H -3.632100881 -2.5228034311 1.4201311847
| 46> H -4.1904634967 -1.9034714502 -0.1441364019
| 47> *
| 48>
| 49>                          ****END OF INPUT****

CARTESIAN COORDINATES (ANGSTROEM)
---------------------------------
  C      2.998912   -2.993478   -1.304602
  C      4.098320   -2.212882   -0.616684
  O      3.902706   -0.780019   -0.706660
  P      2.704225    0.033602   -0.094140
  S      3.181885    1.930539    0.004569
  O      2.459833   -0.761483    1.264234
  C      1.351510   -0.581479    2.160963
  C      1.436068    0.720821    2.931394
  S      0.986758   -0.385439   -1.310561
  C      0.284399    1.273974   -1.385036
  S     -0.705996    1.701373    0.072198
  P     -2.285222    0.351153   -0.333356
  S     -2.834324    0.138149   -2.194638
  O     -3.468612    0.873242    0.578997
  C     -3.303235    1.089268    2.004397
  C     -4.684748    1.201380    2.614657
  O     -1.704039   -0.963975    0.375375
  C     -2.084298   -2.284802   -0.056103
  C     -3.510767   -2.602814    0.342921
  H      3.244313   -4.050655   -1.278987
  H      2.048108   -2.837937   -0.797659
  H      2.895664   -2.674640   -2.338684
  H      5.062269   -2.361344   -1.105660
  H      4.170867   -2.481112    0.438668
  H      0.419598   -0.637751    1.590240
  H      1.422810   -1.440975    2.830690
  H      2.400293    0.800808    3.426712
  H      1.319300    1.570510    2.261436
  H      0.646245    0.749253    3.675093
  H     -0.349860    1.309473   -2.270485
  H      1.091684    2.006227   -1.435256
  H     -2.743557    0.249339    2.423294
  H     -2.727767    2.008607    2.138873
  H     -5.228949    2.019579    2.152036
  H     -5.241497    0.281584    2.459272
  H     -4.589357    1.389663    3.679101
  H     -1.961426   -2.344707   -1.141721
  H     -1.366684   -2.943792    0.434207
  H     -3.758040   -3.611315    0.027061
  H     -3.632101   -2.522803    1.420131
  H     -4.190463   -1.903471   -0.144136

 Total Charge           Charge          ....    0
 Multiplicity           Mult            ....    1
 Number of Electrons    NEL             ....  202
 Basis Dimension        Dim             ....  334

ORBITAL ENERGIES
----------------

  NO   OCC          E(Eh)            E(eV)
   0   2.0000     -88.044118     -2395.8022
   1   2.0000     -88.041727     -2395.7372
   2   2.0000     -87.991954     -2394.3828
   3   2.0000     -87.983957     -2394.1652
   4   2.0000     -76.429630     -2079.7560
   5   2.0000     -76.427034     -2079.6853
   6   2.0000     -18.800313      -511.5825
   7   2.0000     -18.797591      -511.5085
   8   2.0000     -18.793416      -511.3948
   9   2.0000     -18.791815      -511.3513
  10   2.0000      -9.966223      -271.1947
  11   2.0000      -9.959415      -271.0095
  12   2.0000      -9.956425      -270.9281
  13   2.0000      -9.951949      -270.8063
  14   2.0000      -9.950936      -270.7787
  15   2.0000      -9.897845      -269.3341
  16   2.0000      -9.894053      -269.2309
  17   2.0000      -9.891443      -269.1599
  18   2.0000      -9.878595      -268.8102
  19   2.0000      -7.689110      -209.2313
  20   2.0000      -7.686186      -209.1518
  21   2.0000      -7.637160      -207.8177
  22   2.0000      -7.629148      -207.5997
  23   2.0000      -6.427666      -174.9057
  24   2.0000      -6.424190      -174.8111
  25   2.0000      -5.716835      -155.5630
  26   2.0000      -5.714118      -155.4891
  27   2.0000      -5.713805      -155.4805
  28   2.0000      -5.710647      -155.3946
  29   2.0000      -5.706059      -155.2698
  30   2.0000      -5.703283      -155.1942
  31   2.0000      -5.666201      -154.1852
  32   2.0000      -5.658198      -153.9674
  33   2.0000      -5.657827      -153.9573
  34   2.0000      -5.657105      -153.9377
  35   2.0000      -5.649539      -153.7318
  36   2.0000      -5.649356      -153.7268
  37   2.0000      -4.650564      -126.5483
  38   2.0000      -4.649064      -126.5074
  39   2.0000      -4.648140      -126.4823
  40   2.0000      -4.647087      -126.4537
  41   2.0000      -4.645961      -126.4230
  42   2.0000      -4.644414      -126.3809
  43   2.0000      -0.992013       -26.9941
  44   2.0000      -0.988850       -26.9080
  45   2.0000      -0.951312       -25.8865
  46   2.0000      -0.943887       -25.6845
  47   2.0000      -0.764539       -20.8042
  48   2.0000      -0.726646       -19.7730
  49   2.0000      -0.715867       -19.4797
  50   2.0000      -0.698291       -19.0015
  51   2.0000      -0.691222       -18.8091
  52   2.0000      -0.676870       -18.4186
  53   2.0000      -0.653846       -17.7921
  54   2.0000      -0.640276       -17.4228
  55   2.0000      -0.598107       -16.2753
  56   2.0000      -0.591475       -16.0949
  57   2.0000      -0.581019       -15.8103
  58   2.0000      -0.580686       -15.8013
  59   2.0000      -0.563071       -15.3220
  60   2.0000      -0.512731       -13.9521
  61   2.0000      -0.498044       -13.5525
  62   2.0000      -0.486383       -13.2352
  63   2.0000      -0.473391       -12.8816
  64   2.0000      -0.460826       -12.5397
  65   2.0000      -0.450681       -12.2637
  66   2.0000      -0.449233       -12.2243
  67   2.0000      -0.439897       -11.9702
  68   2.0000      -0.427452       -11.6316
  69   2.0000      -0.421370       -11.4661
  70   2.0000      -0.409843       -11.1524
  71   2.0000      -0.403735       -10.9862
  72   2.0000      -0.400819       -10.9068
  73   2.0000      -0.393942       -10.7197
  74   2.0000      -0.384774       -10.4702
  75   2.0000      -0.373738       -10.1699
  76   2.0000      -0.366202        -9.9648
  77   2.0000      -0.364430        -9.9166
  78   2.0000      -0.357913        -9.7393
  79   2.0000      -0.354827        -9.6553
  80   2.0000      -0.353878        -9.6295
  81   2.0000      -0.348018        -9.4701
  82   2.0000      -0.345946        -9.4137
  83   2.0000      -0.341896        -9.3035
  84   2.0000      -0.335086        -9.1182
  85   2.0000      -0.326304        -8.8792
  86   2.0000      -0.320294        -8.7156
  87   2.0000      -0.314511        -8.5583
  88   2.0000      -0.297199        -8.0872
  89   2.0000      -0.292079        -7.9479
  90   2.0000      -0.287074        -7.8117
  91   2.0000      -0.277968        -7.5639
  92   2.0000      -0.276416        -7.5217
  93   2.0000      -0.272593        -7.4176
  94   2.0000      -0.259248        -7.0545
  95   2.0000      -0.234704        -6.3866
  96   2.0000      -0.218333        -5.9412
  97   2.0000      -0.214390        -5.8339
  98   2.0000      -0.205599        -5.5946
  99   2.0000      -0.201198        -5.4749
 100   2.0000      -0.198658        -5.4057
 101   0.0000      -0.046339        -1.2610
 102   0.0000      -0.027352        -0.7443
 103   0.0000      -0.006303        -0.1715
 104   0.0000       0.001458         0.0397
 105   0.0000       0.005484         0.1492

MULLIKEN ATOMIC CHARGES
-----------------------
   0 C :   -0.334477
   1 C :    0.006638
   2 O :   -0.359758
   3 P :    0.618407
   4 S :   -0.311383
   5 O :   -0.383399
   6 C :   -0.041694
   7 C :   -0.304923
   8 S :   -0.117609
   9 C :   -0.342807
  10 S :   -0.100718
  11 P :    0.615948
  12 S :   -0.304526
  13 O :   -0.369644
  14 C :   -0.039705
  15 C :   -0.275103
  16 O :   -0.378971
  17 C :   -0.005144
  18 C :   -0.315310
  19 H :    0.117623
  20 H :    0.127893
  21 H :    0.132468
  22 H :    0.112903
  23 H :    0.110951
  24 H :    0.139021
  25 H :    0.096569
  26 H :    0.115097
  27 H :    0.136846
  28 H :    0.099046
  29 H :    0.193813
  30 H :    0.196631
  31 H :    0.108956
  32 H :    0.119854
  33 H :    0.127259
  34 H :    0.119900
  35 H :    0.113461
  36 H :    0.116220
  37 H :    0.101545
  38 H :    0.115625
  39 H :    0.110227
  40 H :    0.132269
Sum of atomic charges:    0.0000000

LOEWDIN ATOMIC CHARGES
----------------------
   0 C :   -0.371298
   1 C :   -0.108357
   2 O :   -0.235070
   3 P :    0.569961
   4 S :   -0.299448
   5 O :   -0.246361
   6 C :   -0.125404
   7 C :   -0.368287
   8 S :    0.076012
   9 C :   -0.486689
  10 S :    0.087487
  11 P :    0.569415
  12 S :   -0.300641
  13 O :   -0.243964
  14 C :   -0.120089
  15 C :   -0.348355
  16 O :   -0.250959
  17 C :   -0.121997
  18 C :   -0.365987
  19 H :    0.133596
  20 H :    0.115767
  21 H :    0.130794
  22 H :    0.123974
  23 H :    0.115062
  24 H :    0.105394
  25 H :    0.114969
  26 H :    0.126474
  27 H :    0.117297
  28 H :    0.124791
  29 H :    0.131116
  30 H :    0.129060
  31 H :    0.108529
  32 H :    0.113626
  33 H :    0.132957
  34 H :    0.128572
  35 H :    0.131857
  36 H :    0.111033
  37 H :    0.115408
  38 H :    0.132497
  39 H :    0.121240
  40 H :    0.126017

  Mayer bond orders larger than 0.100000
B(  0-C ,  1-C ) :   1.1691 B(  0-C , 19-H ) :   0.9355 B(  0-C , 20-H ) :   0.9318
B(  0-C , 21-H ) :   0.9423 B(  1-C ,  2-O ) :   0.9007 B(  1-C , 22-H ) :   0.9336
B(  1-C , 23-H ) :   0.9271 B(  2-O ,  3-P ) :   1.1443 B(  3-P ,  4-S ) :   1.6510
B(  3-P ,  5-O ) :   1.0730 B(  3-P ,  8-S ) :   0.9300 B(  4-S ,  8-S ) :   0.1142
B(  5-O ,  6-C ) :   0.9095 B(  6-C ,  7-C ) :   1.1668 B(  6-C , 24-H ) :   0.8961
B(  6-C , 25-H ) :   0.9347 B(  7-C , 26-H ) :   0.9445 B(  7-C , 27-H ) :   0.9278
B(  7-C , 28-H ) :   0.9383 B(  8-S ,  9-C ) :   1.0163 B(  9-C , 10-S ) :   1.0033
B(  9-C , 29-H ) :   0.8746 B(  9-C , 30-H ) :   0.8607 B( 10-S , 11-P ) :   0.9653
B( 10-S , 12-S ) :   0.1016 B( 11-P , 12-S ) :   1.6411 B( 11-P , 13-O ) :   1.1220
B( 11-P , 16-O ) :   1.0577 B( 13-O , 14-C ) :   0.8987 B( 14-C , 15-C ) :   1.1668
B( 14-C , 31-H ) :   0.9169 B( 14-C , 32-H ) :   0.9239 B( 15-C , 33-H ) :   0.9488
B( 15-C , 34-H ) :   0.9507 B( 15-C , 35-H ) :   0.9399 B( 16-O , 17-C ) :   0.9022
B( 17-C , 18-C ) :   1.1615 B( 17-C , 36-H ) :   0.9130 B( 17-C , 37-H ) :   0.9329
B( 18-C , 38-H ) :   0.9396 B( 18-C , 39-H ) :   0.9464 B( 18-C , 40-H ) :   0.9337

Dispersion correction           -0.065394729
FINAL SINGLE POINT ENERGY     -2929.519317157996

DIPOLE MOMENT
-------------

Method             : SCF
Type of density    : Electron Density
Multiplicity       :   1
Irrep              :   0
Energy             : -2929.6400737785570527 Eh
Relativity type    :
Basis              : AO
                                X                 Y                 Z
Electronic contribution:     10.166043232      15.034586706     -16.263479156
Nuclear contribution   :    -10.759148887     -16.814004667      17.807459204
                        -----------------------------------------
Total Dipole Moment    :     -0.593105655      -1.779417961       1.543980048
                        -----------------------------------------
Magnitude (a.u.)       :      2.429398483
Magnitude (Debye)      :      6.175040205

Rotational constants in cm-1:             0.011999             0.004994             0.004650
Rotational constants in MHz :           359.722201           149.721159           139.392839

                             ****ORCA TERMINATED NORMALLY****
TOTAL RUN TIME: 0 days 0 hours 0 minutes 21 seconds 597 msec
