                         Program Version 6.0.0  -   RELEASE  -
|  1> ! r2scan-3c def2/J RI DEFGRID2 scfconv6 printgap
|  2> %output
|  3>     printlevel normal
|  4> end
|  5> * xyz 0 1
|  6> C 3.9454086505 -2.0742389638 -2.2293630119
|  7> C 4.4949479283 -1.7459236355 -0.8566455373
|  8> O 3.4579824595 -1.4050372733 0.0830468558
|  9> P 2.5514055873 -0.1070465237 -0.0621884454
| 10> S 3.4487380646 1.5153896939 -0.6777410662
| 11> O 1.9720342992 0.0438991319 1.3945918405
| 12> C 1.347835021 -1.0446428242 2.1227988257
| 13> C 0.4233251426 -0.4393289749 3.1583608677
| 14> S 0.9157363487 -0.7752269888 -1.2633990693
| 15> C 0.2655813168 0.8699506514 -1.6378208428
| 16> S -0.3474315231 1.7402032389 -0.1672724334
| 17> P -2.1815448603 0.699130056 -0.0292387116
| 18> S -3.2812047167 0.6193985399 -1.6512457292
| 19> O -2.7402502904 1.534543605 1.194954558
| 20> C -4.1539754296 1.6788996557 1.4447675044
| 21> C -4.795691558 0.3629016247 1.8328060408
| 22> O -1.814735632 -0.7173739105 0.5933662628
| 23> C -2.1049769152 -1.9981753572 -0.0026074393
| 24> C -2.6405196179 -2.9243913795 1.0710426198
| 25> H 3.1640053112 -2.8264042156 -2.1561922108
| 26> H 3.5302440146 -1.1785126356 -2.6887556648
| 27> H 4.7492094673 -2.4479064622 -2.8554924262
| 28> H 5.1957866725 -0.9077459878 -0.9131514268
| 29> H 4.9817950496 -2.6086828204 -0.3998191685
| 30> H 0.8007106786 -1.6730167572 1.4138477966
| 31> H 2.1450452752 -1.6302268281 2.5843403479
| 32> H -0.3748338228 0.1177095652 2.6722600264
| 33> H -0.0081151111 -1.2329885349 3.7599230205
| 34> H 0.9786974635 0.239476854 3.7992532208
| 35> H -0.5448967572 0.7422566199 -2.3558307605
| 36> H 1.0673169614 1.4828451246 -2.0495297482
| 37> H -4.2026615426 2.410140552 2.2527118372
| 38> H -4.6247898009 2.0873526398 0.5451803999
| 39> H -5.8322643838 0.5346113829 2.1058947987
| 40> H -4.7632686901 -0.3228130964 0.9864949055
| 41> H -4.2680309799 -0.07852117 2.6743485373
| 42> H -2.828019907 -1.8549007689 -0.8124458134
| 43> H -1.1724476378 -2.3794277114 -0.4266514518
| 44> H -1.9267616243 -3.0000875212 1.8862023922
| 45> H -3.5839117853 -2.5543314267 1.4619804898
| 46> H -2.7960674478 -3.9074952533 0.6387468079
| 47> *
| 48>
| 49>                          ****END OF INPUT****

CARTESIAN COORDINATES (ANGSTROEM)
---------------------------------
  C      3.945409   -2.074239   -2.229363
  C      4.494948   -1.745924   -0.856646
  O      3.457982   -1.405037    0.083047
  P      2.551406   -0.107047   -0.062188
  S      3.448738    1.515390   -0.677741
  O      1.972034    0.043899    1.394592
  C      1.347835   -1.044643    2.122799
  C      0.423325   -0.439329    3.158361
  S      0.915736   -0.775227   -1.263399
  C      0.265581    0.869951   -1.637821
  S     -0.347432    1.740203   -0.167272
  P     -2.181545    0.699130   -0.029239
  S     -3.281205    0.619399   -1.651246
  O     -2.740250    1.534544    1.194955
  C     -4.153975    1.678900    1.444768
  C     -4.795692    0.362902    1.832806
  O     -1.814736   -0.717374    0.593366
  C     -2.104977   -1.998175   -0.002607
  C     -2.640520   -2.924391    1.071043
  H      3.164005   -2.826404   -2.156192
  H      3.530244   -1.178513   -2.688756
  H      4.749209   -2.447906   -2.855492
  H      5.195787   -0.907746   -0.913151
  H      4.981795   -2.608683   -0.399819
  H      0.800711   -1.673017    1.413848
  H      2.145045   -1.630227    2.584340
  H     -0.374834    0.117710    2.672260
  H     -0.008115   -1.232989    3.759923
  H      0.978697    0.239477    3.799253
  H     -0.544897    0.742257   -2.355831
  H      1.067317    1.482845   -2.049530
  H     -4.202662    2.410141    2.252712
  H     -4.624790    2.087353    0.545180
  H     -5.832264    0.534611    2.105895
  H     -4.763269   -0.322813    0.986495
  H     -4.268031   -0.078521    2.674349
  H     -2.828020   -1.854901   -0.812446
  H     -1.172448   -2.379428   -0.426651
  H     -1.926762   -3.000088    1.886202
  H     -3.583912   -2.554331    1.461980
  H     -2.796067   -3.907495    0.638747

 Total Charge           Charge          ....    0
 Multiplicity           Mult            ....    1
 Number of Electrons    NEL             ....  202
 Basis Dimension        Dim             ....  539

ORBITAL ENERGIES
----------------

  NO   OCC          E(Eh)            E(eV)
   0   2.0000     -88.574370     -2410.2311
   1   2.0000     -88.571989     -2410.1664
   2   2.0000     -88.524431     -2408.8722
   3   2.0000     -88.521728     -2408.7987
   4   2.0000     -76.916416     -2093.0021
   5   2.0000     -76.914622     -2092.9533
   6   2.0000     -18.996000      -516.9074
   7   2.0000     -18.995900      -516.9047
   8   2.0000     -18.995420      -516.8916
   9   2.0000     -18.988787      -516.7112
  10   2.0000     -10.104502      -274.9575
  11   2.0000     -10.103840      -274.9395
  12   2.0000     -10.102183      -274.8944
  13   2.0000     -10.100353      -274.8446
  14   2.0000     -10.099868      -274.8314
  15   2.0000     -10.038228      -273.1541
  16   2.0000     -10.037023      -273.1213
  17   2.0000     -10.031014      -272.9578
  18   2.0000     -10.028118      -272.8790
  19   2.0000      -7.869049      -214.1277
  20   2.0000      -7.866037      -214.0457
  21   2.0000      -7.819232      -212.7721
  22   2.0000      -7.816409      -212.6953
  23   2.0000      -6.594914      -179.4567
  24   2.0000      -6.593089      -179.4071
  25   2.0000      -5.815793      -158.2558
  26   2.0000      -5.813034      -158.1807
  27   2.0000      -5.812910      -158.1773
  28   2.0000      -5.810031      -158.0990
  29   2.0000      -5.806244      -157.9959
  30   2.0000      -5.802924      -157.9056
  31   2.0000      -5.766811      -156.9229
  32   2.0000      -5.764095      -156.8490
  33   2.0000      -5.759824      -156.7328
  34   2.0000      -5.758971      -156.7096
  35   2.0000      -5.756644      -156.6462
  36   2.0000      -5.756434      -156.6405
  37   2.0000      -4.740349      -128.9914
  38   2.0000      -4.739686      -128.9734
  39   2.0000      -4.738950      -128.9534
  40   2.0000      -4.738809      -128.9495
  41   2.0000      -4.737971      -128.9268
  42   2.0000      -4.736560      -128.8883
  43   2.0000      -1.052356       -28.6361
  44   2.0000      -1.051945       -28.6249
  45   2.0000      -1.015361       -27.6294
  46   2.0000      -1.010215       -27.4893
  47   2.0000      -0.801461       -21.8089
  48   2.0000      -0.763679       -20.7808
  49   2.0000      -0.752966       -20.4893
  50   2.0000      -0.738671       -20.1003
  51   2.0000      -0.734554       -19.9882
  52   2.0000      -0.711803       -19.3691
  53   2.0000      -0.687536       -18.7088
  54   2.0000      -0.669627       -18.2215
  55   2.0000      -0.637729       -17.3535
  56   2.0000      -0.624800       -17.0017
  57   2.0000      -0.607937       -16.5428
  58   2.0000      -0.604037       -16.4367
  59   2.0000      -0.591441       -16.0939
  60   2.0000      -0.533965       -14.5299
  61   2.0000      -0.525994       -14.3130
  62   2.0000      -0.502136       -13.6638
  63   2.0000      -0.495321       -13.4784
  64   2.0000      -0.481550       -13.1036
  65   2.0000      -0.466351       -12.6901
  66   2.0000      -0.458191       -12.4680
  67   2.0000      -0.457704       -12.4548
  68   2.0000      -0.448255       -12.1976
  69   2.0000      -0.437726       -11.9111
  70   2.0000      -0.428259       -11.6535
  71   2.0000      -0.416809       -11.3419
  72   2.0000      -0.408601       -11.1186
  73   2.0000      -0.401348       -10.9212
  74   2.0000      -0.393510       -10.7080
  75   2.0000      -0.391174       -10.6444
  76   2.0000      -0.382439       -10.4067
  77   2.0000      -0.380531       -10.3548
  78   2.0000      -0.380050       -10.3417
  79   2.0000      -0.370047       -10.0695
  80   2.0000      -0.367959       -10.0127
  81   2.0000      -0.364135        -9.9086
  82   2.0000      -0.358901        -9.7662
  83   2.0000      -0.355412        -9.6713
  84   2.0000      -0.352337        -9.5876
  85   2.0000      -0.336354        -9.1526
  86   2.0000      -0.324045        -8.8177
  87   2.0000      -0.317869        -8.6497
  88   2.0000      -0.315041        -8.5727
  89   2.0000      -0.311798        -8.4845
  90   2.0000      -0.303339        -8.2543
  91   2.0000      -0.295286        -8.0351
  92   2.0000      -0.285521        -7.7694
  93   2.0000      -0.280738        -7.6393
  94   2.0000      -0.275229        -7.4894
  95   2.0000      -0.247105        -6.7241
  96   2.0000      -0.232534        -6.3276
  97   2.0000      -0.228444        -6.2163
  98   2.0000      -0.221214        -6.0195
  99   2.0000      -0.216061        -5.8793
 100   2.0000      -0.211182        -5.7466
 101   0.0000      -0.047678        -1.2974
 102   0.0000      -0.025167        -0.6848
 103   0.0000      -0.002722        -0.0741
 104   0.0000       0.005017         0.1365
 105   0.0000       0.011920         0.3244

MULLIKEN ATOMIC CHARGES
-----------------------
   0 C :   -0.446679
   1 C :   -0.164062
   2 O :   -0.288961
   3 P :    0.648548
   4 S :   -0.435269
   5 O :   -0.260584
   6 C :   -0.096618
   7 C :   -0.463734
   8 S :   -0.178042
   9 C :   -0.251586
  10 S :   -0.100087
  11 P :    0.676796
  12 S :   -0.488756
  13 O :   -0.321476
  14 C :   -0.146236
  15 C :   -0.459263
  16 O :   -0.242938
  17 C :   -0.147597
  18 C :   -0.443118
  19 H :    0.152450
  20 H :    0.180651
  21 H :    0.148575
  22 H :    0.174448
  23 H :    0.148123
  24 H :    0.149688
  25 H :    0.154028
  26 H :    0.177931
  27 H :    0.140129
  28 H :    0.154574
  29 H :    0.207572
  30 H :    0.222118
  31 H :    0.152412
  32 H :    0.174727
  33 H :    0.151680
  34 H :    0.168990
  35 H :    0.160488
  36 H :    0.179381
  37 H :    0.160130
  38 H :    0.150006
  39 H :    0.151262
  40 H :    0.150298
Sum of atomic charges:    0.0000000

LOEWDIN ATOMIC CHARGES
----------------------
   0 C :   -0.408846
   1 C :    0.023148
   2 O :   -0.665189
   3 P :    0.377593
   4 S :   -0.095914
   5 O :   -0.654690
   6 C :    0.024607
   7 C :   -0.389528
   8 S :    0.128190
   9 C :   -0.420476
  10 S :    0.199073
  11 P :    0.375771
  12 S :   -0.134997
  13 O :   -0.670202
  14 C :    0.025824
  15 C :   -0.402591
  16 O :   -0.678702
  17 C :    0.002157
  18 C :   -0.388623
  19 H :    0.159351
  20 H :    0.166801
  21 H :    0.159726
  22 H :    0.180515
  23 H :    0.179614
  24 H :    0.175435
  25 H :    0.173368
  26 H :    0.171224
  27 H :    0.158362
  28 H :    0.162015
  29 H :    0.190814
  30 H :    0.193096
  31 H :    0.181773
  32 H :    0.180597
  33 H :    0.161449
  34 H :    0.162940
  35 H :    0.160474
  36 H :    0.184126
  37 H :    0.175245
  38 H :    0.157763
  39 H :    0.158148
  40 H :    0.160559

  Mayer bond orders larger than 0.100000
B(  0-C ,  1-C ) :   0.9173 B(  0-C , 19-H ) :   0.9678 B(  0-C , 20-H ) :   0.9634
B(  0-C , 21-H ) :   0.9559 B(  1-C ,  2-O ) :   0.8195 B(  1-C , 22-H ) :   0.9692
B(  1-C , 23-H ) :   0.9613 B(  2-O ,  3-P ) :   1.0351 B(  3-P ,  4-S ) :   1.8406
B(  3-P ,  5-O ) :   1.1706 B(  3-P ,  8-S ) :   0.9867 B(  5-O ,  6-C ) :   0.7386
B(  6-C ,  7-C ) :   0.9464 B(  6-C , 24-H ) :   0.9502 B(  6-C , 25-H ) :   0.9461
B(  7-C , 26-H ) :   0.9628 B(  7-C , 27-H ) :   0.9669 B(  7-C , 28-H ) :   0.9699
B(  8-S ,  9-C ) :   0.9062 B(  9-C , 10-S ) :   0.9084 B(  9-C , 29-H ) :   0.9059
B(  9-C , 30-H ) :   0.9078 B( 10-S , 11-P ) :   1.1032 B( 11-P , 12-S ) :   1.7600
B( 11-P , 13-O ) :   1.1439 B( 11-P , 16-O ) :   1.0411 B( 13-O , 14-C ) :   0.8029
B( 14-C , 15-C ) :   0.9153 B( 14-C , 31-H ) :   0.9595 B( 14-C , 32-H ) :   0.9686
B( 15-C , 33-H ) :   0.9594 B( 15-C , 34-H ) :   0.9616 B( 15-C , 35-H ) :   0.9695
B( 16-O , 17-C ) :   0.7232 B( 17-C , 18-C ) :   0.9460 B( 17-C , 36-H ) :   0.9458
B( 17-C , 37-H ) :   0.9461 B( 18-C , 38-H ) :   0.9747 B( 18-C , 39-H ) :   0.9689
B( 18-C , 40-H ) :   0.9678

Dispersion correction           -0.021989785
FINAL SINGLE POINT ENERGY     -2932.463298815247

DIPOLE MOMENT
-------------

Method             : SCF
Type of density    : Electron Density
Multiplicity       :   1
Irrep              :   0
Energy             : -2932.4878581843695429 Eh
Relativity type    :
Basis              : AO
                                X                 Y                 Z
Electronic contribution:      9.444710645      18.431380319     -10.703194675
Nuclear contribution   :    -10.014421966     -20.317792533      11.612644937
                        -----------------------------------------
Total Dipole Moment    :     -0.569711321      -1.886412214       0.909450262
                        -----------------------------------------
Magnitude (a.u.)       :      2.170304543
Magnitude (Debye)      :      5.516475746

Rotational constants in cm-1:             0.013521             0.004781             0.004625
Rotational constants in MHz :           405.356512           143.321489           138.662354

                             ****ORCA TERMINATED NORMALLY****
TOTAL RUN TIME: 0 days 0 hours 1 minutes 25 seconds 904 msec
