                         Program Version 6.0.0  -   RELEASE  -
|  1> ! r2scan-3c def2/J RI DEFGRID2 scfconv6 printgap
|  2> %output
|  3>     printlevel normal
|  4> end
|  5> %cpcm
|  6>     smd true
|  7>     smdsolvent "water"
|  8> end
|  9> * xyz 0 1
| 10> C 3.9454086505 -2.0742389638 -2.2293630119
| 11> C 4.4949479283 -1.7459236355 -0.8566455373
| 12> O 3.4579824595 -1.4050372733 0.0830468558
| 13> P 2.5514055873 -0.1070465237 -0.0621884454
| 14> S 3.4487380646 1.5153896939 -0.6777410662
| 15> O 1.9720342992 0.0438991319 1.3945918405
| 16> C 1.347835021 -1.0446428242 2.1227988257
| 17> C 0.4233251426 -0.4393289749 3.1583608677
| 18> S 0.9157363487 -0.7752269888 -1.2633990693
| 19> C 0.2655813168 0.8699506514 -1.6378208428
| 20> S -0.3474315231 1.7402032389 -0.1672724334
| 21> P -2.1815448603 0.699130056 -0.0292387116
| 22> S -3.2812047167 0.6193985399 -1.6512457292
| 23> O -2.7402502904 1.534543605 1.194954558
| 24> C -4.1539754296 1.6788996557 1.4447675044
| 25> C -4.795691558 0.3629016247 1.8328060408
| 26> O -1.814735632 -0.7173739105 0.5933662628
| 27> C -2.1049769152 -1.9981753572 -0.0026074393
| 28> C -2.6405196179 -2.9243913795 1.0710426198
| 29> H 3.1640053112 -2.8264042156 -2.1561922108
| 30> H 3.5302440146 -1.1785126356 -2.6887556648
| 31> H 4.7492094673 -2.4479064622 -2.8554924262
| 32> H 5.1957866725 -0.9077459878 -0.9131514268
| 33> H 4.9817950496 -2.6086828204 -0.3998191685
| 34> H 0.8007106786 -1.6730167572 1.4138477966
| 35> H 2.1450452752 -1.6302268281 2.5843403479
| 36> H -0.3748338228 0.1177095652 2.6722600264
| 37> H -0.0081151111 -1.2329885349 3.7599230205
| 38> H 0.9786974635 0.239476854 3.7992532208
| 39> H -0.5448967572 0.7422566199 -2.3558307605
| 40> H 1.0673169614 1.4828451246 -2.0495297482
| 41> H -4.2026615426 2.410140552 2.2527118372
| 42> H -4.6247898009 2.0873526398 0.5451803999
| 43> H -5.8322643838 0.5346113829 2.1058947987
| 44> H -4.7632686901 -0.3228130964 0.9864949055
| 45> H -4.2680309799 -0.07852117 2.6743485373
| 46> H -2.828019907 -1.8549007689 -0.8124458134
| 47> H -1.1724476378 -2.3794277114 -0.4266514518
| 48> H -1.9267616243 -3.0000875212 1.8862023922
| 49> H -3.5839117853 -2.5543314267 1.4619804898
| 50> H -2.7960674478 -3.9074952533 0.6387468079
| 51> *
| 52>
| 53>                          ****END OF INPUT****

CARTESIAN COORDINATES (ANGSTROEM)
---------------------------------
  C      3.945409   -2.074239   -2.229363
  C      4.494948   -1.745924   -0.856646
  O      3.457982   -1.405037    0.083047
  P      2.551406   -0.107047   -0.062188
  S      3.448738    1.515390   -0.677741
  O      1.972034    0.043899    1.394592
  C      1.347835   -1.044643    2.122799
  C      0.423325   -0.439329    3.158361
  S      0.915736   -0.775227   -1.263399
  C      0.265581    0.869951   -1.637821
  S     -0.347432    1.740203   -0.167272
  P     -2.181545    0.699130   -0.029239
  S     -3.281205    0.619399   -1.651246
  O     -2.740250    1.534544    1.194955
  C     -4.153975    1.678900    1.444768
  C     -4.795692    0.362902    1.832806
  O     -1.814736   -0.717374    0.593366
  C     -2.104977   -1.998175   -0.002607
  C     -2.640520   -2.924391    1.071043
  H      3.164005   -2.826404   -2.156192
  H      3.530244   -1.178513   -2.688756
  H      4.749209   -2.447906   -2.855492
  H      5.195787   -0.907746   -0.913151
  H      4.981795   -2.608683   -0.399819
  H      0.800711   -1.673017    1.413848
  H      2.145045   -1.630227    2.584340
  H     -0.374834    0.117710    2.672260
  H     -0.008115   -1.232989    3.759923
  H      0.978697    0.239477    3.799253
  H     -0.544897    0.742257   -2.355831
  H      1.067317    1.482845   -2.049530
  H     -4.202662    2.410141    2.252712
  H     -4.624790    2.087353    0.545180
  H     -5.832264    0.534611    2.105895
  H     -4.763269   -0.322813    0.986495
  H     -4.268031   -0.078521    2.674349
  H     -2.828020   -1.854901   -0.812446
  H     -1.172448   -2.379428   -0.426651
  H     -1.926762   -3.000088    1.886202
  H     -3.583912   -2.554331    1.461980
  H     -2.796067   -3.907495    0.638747

 Total Charge           Charge          ....    0
 Multiplicity           Mult            ....    1
 Number of Electrons    NEL             ....  202
 Basis Dimension        Dim             ....  539

ORBITAL ENERGIES
----------------

  NO   OCC          E(Eh)            E(eV)
   0   2.0000     -88.578095     -2410.3325
   1   2.0000     -88.576596     -2410.2917
   2   2.0000     -88.531979     -2409.0776
   3   2.0000     -88.529780     -2409.0178
   4   2.0000     -76.920646     -2093.1172
   5   2.0000     -76.919952     -2093.0983
   6   2.0000     -18.996964      -516.9337
   7   2.0000     -18.996044      -516.9086
   8   2.0000     -18.994020      -516.8536
   9   2.0000     -18.993519      -516.8399
  10   2.0000     -10.104554      -274.9589
  11   2.0000     -10.091897      -274.6145
  12   2.0000     -10.091395      -274.6008
  13   2.0000     -10.091177      -274.5949
  14   2.0000     -10.087447      -274.4934
  15   2.0000     -10.019549      -272.6458
  16   2.0000     -10.019012      -272.6312
  17   2.0000     -10.018855      -272.6269
  18   2.0000     -10.018425      -272.6152
  19   2.0000      -7.872323      -214.2168
  20   2.0000      -7.871172      -214.1855
  21   2.0000      -7.827034      -212.9844
  22   2.0000      -7.824873      -212.9256
  23   2.0000      -6.599169      -179.5725
  24   2.0000      -6.598421      -179.5522
  25   2.0000      -5.819209      -158.3487
  26   2.0000      -5.817969      -158.3150
  27   2.0000      -5.816249      -158.2682
  28   2.0000      -5.815067      -158.2360
  29   2.0000      -5.809388      -158.0815
  30   2.0000      -5.808284      -158.0514
  31   2.0000      -5.774594      -157.1347
  32   2.0000      -5.772404      -157.0751
  33   2.0000      -5.767245      -156.9347
  34   2.0000      -5.767137      -156.9318
  35   2.0000      -5.765392      -156.8843
  36   2.0000      -5.764681      -156.8650
  37   2.0000      -4.744985      -129.1176
  38   2.0000      -4.743993      -129.0906
  39   2.0000      -4.743763      -129.0843
  40   2.0000      -4.743190      -129.0688
  41   2.0000      -4.742776      -129.0575
  42   2.0000      -4.742456      -129.0488
  43   2.0000      -1.054478       -28.6938
  44   2.0000      -1.051272       -28.6066
  45   2.0000      -1.013421       -27.5766
  46   2.0000      -1.012269       -27.5452
  47   2.0000      -0.803990       -21.8777
  48   2.0000      -0.758574       -20.6419
  49   2.0000      -0.746392       -20.3104
  50   2.0000      -0.725637       -19.7456
  51   2.0000      -0.724327       -19.7100
  52   2.0000      -0.709777       -19.3140
  53   2.0000      -0.690409       -18.7870
  54   2.0000      -0.675549       -18.3826
  55   2.0000      -0.632318       -17.2063
  56   2.0000      -0.619435       -16.8557
  57   2.0000      -0.599610       -16.3162
  58   2.0000      -0.595512       -16.2047
  59   2.0000      -0.589400       -16.0384
  60   2.0000      -0.529189       -14.4000
  61   2.0000      -0.520526       -14.1642
  62   2.0000      -0.495426       -13.4812
  63   2.0000      -0.491212       -13.3666
  64   2.0000      -0.480318       -13.0701
  65   2.0000      -0.460840       -12.5401
  66   2.0000      -0.452044       -12.3007
  67   2.0000      -0.449553       -12.2330
  68   2.0000      -0.441961       -12.0264
  69   2.0000      -0.433762       -11.8033
  70   2.0000      -0.420725       -11.4485
  71   2.0000      -0.411951       -11.2097
  72   2.0000      -0.407285       -11.0828
  73   2.0000      -0.396278       -10.7833
  74   2.0000      -0.391199       -10.6451
  75   2.0000      -0.385056       -10.4779
  76   2.0000      -0.380866       -10.3639
  77   2.0000      -0.375022       -10.2049
  78   2.0000      -0.365631        -9.9493
  79   2.0000      -0.358824        -9.7641
  80   2.0000      -0.355834        -9.6827
  81   2.0000      -0.354450        -9.6451
  82   2.0000      -0.351335        -9.5603
  83   2.0000      -0.347429        -9.4540
  84   2.0000      -0.345094        -9.3905
  85   2.0000      -0.330441        -8.9918
  86   2.0000      -0.318882        -8.6772
  87   2.0000      -0.316198        -8.6042
  88   2.0000      -0.306999        -8.3539
  89   2.0000      -0.306756        -8.3473
  90   2.0000      -0.301115        -8.1938
  91   2.0000      -0.290628        -7.9084
  92   2.0000      -0.282590        -7.6897
  93   2.0000      -0.278815        -7.5870
  94   2.0000      -0.276189        -7.5155
  95   2.0000      -0.251009        -6.8303
  96   2.0000      -0.239970        -6.5299
  97   2.0000      -0.235551        -6.4097
  98   2.0000      -0.230367        -6.2686
  99   2.0000      -0.224779        -6.1165
 100   2.0000      -0.217681        -5.9234
 101   0.0000      -0.052910        -1.4398
 102   0.0000      -0.031261        -0.8506
 103   0.0000      -0.006499        -0.1768
 104   0.0000       0.001208         0.0329
 105   0.0000       0.012675         0.3449

MULLIKEN ATOMIC CHARGES
-----------------------
   0 C :   -0.484468
   1 C :   -0.156939
   2 O :   -0.308332
   3 P :    0.662103
   4 S :   -0.494210
   5 O :   -0.289615
   6 C :   -0.096972
   7 C :   -0.509448
   8 S :   -0.161676
   9 C :   -0.259269
  10 S :   -0.144488
  11 P :    0.705771
  12 S :   -0.529360
  13 O :   -0.348565
  14 C :   -0.146271
  15 C :   -0.486676
  16 O :   -0.264729
  17 C :   -0.111750
  18 C :   -0.494838
  19 H :    0.169116
  20 H :    0.174450
  21 H :    0.173121
  22 H :    0.179574
  23 H :    0.175938
  24 H :    0.171213
  25 H :    0.176344
  26 H :    0.171584
  27 H :    0.172751
  28 H :    0.166263
  29 H :    0.228287
  30 H :    0.237951
  31 H :    0.176643
  32 H :    0.178160
  33 H :    0.174334
  34 H :    0.172378
  35 H :    0.172535
  36 H :    0.175575
  37 H :    0.170082
  38 H :    0.166605
  39 H :    0.166640
  40 H :    0.170186
Sum of atomic charges:    0.0000000

LOEWDIN ATOMIC CHARGES
----------------------
   0 C :   -0.411187
   1 C :    0.029089
   2 O :   -0.670761
   3 P :    0.379788
   4 S :   -0.140448
   5 O :   -0.677574
   6 C :    0.030633
   7 C :   -0.394353
   8 S :    0.143711
   9 C :   -0.416018
  10 S :    0.169710
  11 P :    0.379761
  12 S :   -0.162065
  13 O :   -0.683898
  14 C :    0.029810
  15 C :   -0.403347
  16 O :   -0.682486
  17 C :    0.011349
  18 C :   -0.391681
  19 H :    0.163789
  20 H :    0.161899
  21 H :    0.168753
  22 H :    0.181777
  23 H :    0.191672
  24 H :    0.183270
  25 H :    0.183452
  26 H :    0.166303
  27 H :    0.170811
  28 H :    0.164143
  29 H :    0.197247
  30 H :    0.197582
  31 H :    0.191795
  32 H :    0.181705
  33 H :    0.169828
  34 H :    0.163221
  35 H :    0.164756
  36 H :    0.184130
  37 H :    0.180382
  38 H :    0.162805
  39 H :    0.162233
  40 H :    0.168412

  Mayer bond orders larger than 0.100000
B(  0-C ,  1-C ) :   0.9051 B(  0-C , 19-H ) :   0.9646 B(  0-C , 20-H ) :   0.9652
B(  0-C , 21-H ) :   0.9506 B(  1-C ,  2-O ) :   0.8071 B(  1-C , 22-H ) :   0.9677
B(  1-C , 23-H ) :   0.9502 B(  2-O ,  3-P ) :   1.0472 B(  3-P ,  4-S ) :   1.8125
B(  3-P ,  5-O ) :   1.1759 B(  3-P ,  8-S ) :   1.0031 B(  5-O ,  6-C ) :   0.7259
B(  6-C ,  7-C ) :   0.9313 B(  6-C , 24-H ) :   0.9435 B(  6-C , 25-H ) :   0.9358
B(  7-C , 26-H ) :   0.9659 B(  7-C , 27-H ) :   0.9600 B(  7-C , 28-H ) :   0.9685
B(  8-S ,  9-C ) :   0.8999 B(  9-C , 10-S ) :   0.8956 B(  9-C , 29-H ) :   0.9024
B(  9-C , 30-H ) :   0.9024 B( 10-S , 11-P ) :   1.1021 B( 11-P , 12-S ) :   1.7411
B( 11-P , 13-O ) :   1.1503 B( 11-P , 16-O ) :   1.0546 B( 13-O , 14-C ) :   0.7896
B( 14-C , 15-C ) :   0.9088 B( 14-C , 31-H ) :   0.9500 B( 14-C , 32-H ) :   0.9642
B( 15-C , 33-H ) :   0.9543 B( 15-C , 34-H ) :   0.9586 B( 15-C , 35-H ) :   0.9670
B( 16-O , 17-C ) :   0.7190 B( 17-C , 18-C ) :   0.9408 B( 17-C , 36-H ) :   0.9450
B( 17-C , 37-H ) :   0.9389 B( 18-C , 38-H ) :   0.9710 B( 18-C , 39-H ) :   0.9669
B( 18-C , 40-H ) :   0.9614

Dispersion correction           -0.021989785
FINAL SINGLE POINT ENERGY     -2932.473453955457

DIPOLE MOMENT
-------------

Method             : SCF
Type of density    : Electron Density
Multiplicity       :   1
Irrep              :   0
Energy             : -2932.4980133245799152 Eh
Relativity type    :
Basis              : AO
                                X                 Y                 Z
Electronic contribution:      9.199706949      17.452126754     -10.544839795
Nuclear contribution   :    -10.014421966     -20.317792533      11.612644937
                        -----------------------------------------
Total Dipole Moment    :     -0.814715018      -2.865665779       1.067805142
                        -----------------------------------------
Magnitude (a.u.)       :      3.164807851
Magnitude (Debye)      :      8.044302267

Rotational constants in cm-1:             0.013521             0.004781             0.004625
Rotational constants in MHz :           405.356512           143.321489           138.662354

                             ****ORCA TERMINATED NORMALLY****
TOTAL RUN TIME: 0 days 0 hours 1 minutes 52 seconds 862 msec
