                         Program Version 6.0.0  -   RELEASE  -
|  1> ! pbe def2-sv(p) def2/J RI DEFGRID1 loosescf d4 GCP(DFT/SV(P)) printgap
|  2> %output
|  3>     printlevel normal
|  4> end
|  5> * xyz 0 1
|  6> C 0.8591668999 1.3917459867 -0.5943465182
|  7> C 1.5945055868 0.1668085969 -0.0258904301
|  8> H 2.5684828734 0.0953390539 -0.522668688
|  9> C 0.7731455855 -1.1095737021 -0.317238975
| 10> H 1.1981245128 -1.9367255862 0.2685780669
| 11> C -0.6774452237 -0.9130433698 0.1467879478
| 12> H -1.2810831458 -1.7600867854 -0.2113324092
| 13> C -1.2495159683 0.3712871332 -0.4752074884
| 14> H -1.254383544 0.2553014775 -1.5782837302
| 15> O -0.4705578499 1.4910150444 -0.1244221812
| 16> O -2.524570825 0.5558786932 0.0291948434
| 17> O -0.7003587661 -0.8359256918 1.5486909281
| 18> O 0.7366018254 -1.4114538199 -1.6901982028
| 19> O 1.8777946483 0.2931121428 1.3430889483
| 20> H 0.8573775712 1.3273423938 -1.6907143255
| 21> H 1.3499777196 2.3085089175 -0.26828319
| 22> H -2.8188438064 1.4602776977 -0.1606230276
| 23> H -1.5844918167 -0.5363956318 1.8156638935
| 24> H 1.589940111 -1.7751364464 -1.967730671
| 25> H 1.0459242651 0.1968149827 1.8386254085
| 26> *
| 27>
| 28>                          ****END OF INPUT****

CARTESIAN COORDINATES (ANGSTROEM)
---------------------------------
  C      0.859167    1.391746   -0.594347
  C      1.594506    0.166809   -0.025890
  H      2.568483    0.095339   -0.522669
  C      0.773146   -1.109574   -0.317239
  H      1.198125   -1.936726    0.268578
  C     -0.677445   -0.913043    0.146788
  H     -1.281083   -1.760087   -0.211332
  C     -1.249516    0.371287   -0.475207
  H     -1.254384    0.255301   -1.578284
  O     -0.470558    1.491015   -0.124422
  O     -2.524571    0.555879    0.029195
  O     -0.700359   -0.835926    1.548691
  O      0.736602   -1.411454   -1.690198
  O      1.877795    0.293112    1.343089
  H      0.857378    1.327342   -1.690714
  H      1.349978    2.308509   -0.268283
  H     -2.818844    1.460278   -0.160623
  H     -1.584492   -0.536396    1.815664
  H      1.589940   -1.775136   -1.967731
  H      1.045924    0.196815    1.838625

 Total Charge           Charge          ....    0
 Multiplicity           Mult            ....    1
 Number of Electrons    NEL             ....   80
 Basis Dimension        Dim             ....  160

ORBITAL ENERGIES
----------------

  NO   OCC          E(Eh)            E(eV)
   0   2.0000     -18.771789      -510.8064
   1   2.0000     -18.765771      -510.6426
   2   2.0000     -18.765062      -510.6233
   3   2.0000     -18.764599      -510.6107
   4   2.0000     -18.731767      -509.7173
   5   2.0000      -9.985648      -271.7233
   6   2.0000      -9.945954      -270.6432
   7   2.0000      -9.944504      -270.6037
   8   2.0000      -9.935994      -270.3722
   9   2.0000      -9.929639      -270.1992
  10   2.0000      -0.988019       -26.8854
  11   2.0000      -0.945116       -25.7179
  12   2.0000      -0.934493       -25.4288
  13   2.0000      -0.922507       -25.1027
  14   2.0000      -0.905649       -24.6440
  15   2.0000      -0.697658       -18.9843
  16   2.0000      -0.671974       -18.2854
  17   2.0000      -0.594178       -16.1684
  18   2.0000      -0.579029       -15.7562
  19   2.0000      -0.526025       -14.3139
  20   2.0000      -0.496363       -13.5067
  21   2.0000      -0.486205       -13.2303
  22   2.0000      -0.470027       -12.7901
  23   2.0000      -0.458322       -12.4716
  24   2.0000      -0.428628       -11.6636
  25   2.0000      -0.417353       -11.3568
  26   2.0000      -0.395920       -10.7735
  27   2.0000      -0.382582       -10.4106
  28   2.0000      -0.369335       -10.0501
  29   2.0000      -0.356709        -9.7065
  30   2.0000      -0.320826        -8.7301
  31   2.0000      -0.313927        -8.5424
  32   2.0000      -0.305759        -8.3201
  33   2.0000      -0.293346        -7.9824
  34   2.0000      -0.272474        -7.4144
  35   2.0000      -0.257117        -6.9965
  36   2.0000      -0.240820        -6.5531
  37   2.0000      -0.230997        -6.2857
  38   2.0000      -0.221667        -6.0319
  39   2.0000      -0.192564        -5.2399
  40   0.0000       0.009483         0.2580
  41   0.0000       0.022894         0.6230
  42   0.0000       0.053922         1.4673
  43   0.0000       0.069398         1.8884
  44   0.0000       0.081980         2.2308

MULLIKEN ATOMIC CHARGES
-----------------------
   0 C :    0.067126
   1 C :    0.036099
   2 H :    0.056395
   3 C :   -0.000162
   4 H :    0.083632
   5 C :    0.073502
   6 H :    0.076970
   7 C :    0.147049
   8 H :    0.058520
   9 O :   -0.323560
  10 O :   -0.392586
  11 O :   -0.431593
  12 O :   -0.413018
  13 O :   -0.434001
  14 H :    0.060544
  15 H :    0.097119
  16 H :    0.312968
  17 H :    0.313178
  18 H :    0.309263
  19 H :    0.302557
Sum of atomic charges:    0.0000000

LOEWDIN ATOMIC CHARGES
----------------------
   0 C :   -0.124106
   1 C :   -0.085072
   2 H :    0.109612
   3 C :   -0.072985
   4 H :    0.108423
   5 C :   -0.076815
   6 H :    0.111054
   7 C :   -0.007388
   8 H :    0.087932
   9 O :   -0.167837
  10 O :   -0.301815
  11 O :   -0.307910
  12 O :   -0.316717
  13 O :   -0.326858
  14 H :    0.100745
  15 H :    0.120010
  16 H :    0.293832
  17 H :    0.289537
  18 H :    0.293193
  19 H :    0.273166

  Mayer bond orders larger than 0.100000
B(  0-C ,  1-C ) :   1.0467 B(  0-C ,  9-O ) :   1.0115 B(  0-C , 14-H ) :   0.8889
B(  0-C , 15-H ) :   0.9218 B(  1-C ,  2-H ) :   0.8961 B(  1-C ,  3-C ) :   0.9683
B(  1-C , 13-O ) :   1.0686 B(  3-C ,  4-H ) :   0.9076 B(  3-C ,  5-C ) :   1.0064
B(  3-C , 12-O ) :   1.0625 B(  5-C ,  6-H ) :   0.8846 B(  5-C ,  7-C ) :   0.9895
B(  5-C , 11-O ) :   1.0214 B(  7-C ,  8-H ) :   0.8952 B(  7-C ,  9-O ) :   1.0284
B(  7-C , 10-O ) :   1.1660 B( 10-O , 16-H ) :   0.8371 B( 11-O , 17-H ) :   0.8226
B( 12-O , 18-H ) :   0.8464 B( 13-O , 19-H ) :   0.8118

Dispersion correction           -0.019828818
FINAL SINGLE POINT ENERGY      -571.421342075446

DIPOLE MOMENT
-------------

Method             : SCF
Type of density    : Electron Density
Multiplicity       :   1
Irrep              :   0
Energy             :  -571.5308097170461679 Eh
Relativity type    :
Basis              : AO
                                X                 Y                 Z
Electronic contribution:     -1.816408558       0.319239128       1.657655553
Nuclear contribution   :      1.551689665      -0.340834651      -2.307240281
                        -----------------------------------------
Total Dipole Moment    :     -0.264718893      -0.021595524      -0.649584728
                        -----------------------------------------
Magnitude (a.u.)       :      0.701785422
Magnitude (Debye)      :      1.783796782

Rotational constants in cm-1:             0.058584             0.040608             0.038507
Rotational constants in MHz :          1756.302472          1217.390835          1154.419258

                             ****ORCA TERMINATED NORMALLY****
TOTAL RUN TIME: 0 days 0 hours 0 minutes 11 seconds 293 msec
