                         Program Version 6.0.0  -   RELEASE  -
|  1> ! pbe def2-sv(p) def2/J RI DEFGRID1 loosescf d4 GCP(DFT/SV(P)) printgap
|  2> %output
|  3>     printlevel normal
|  4> end
|  5> * xyz 0 1
|  6> C 2.6243519142 -0.5261268486 -2.831947016
|  7> C 3.0836182488 0.7371419623 -2.1356644115
|  8> O 2.246824084 1.0775044662 -1.0044619667
|  9> P 2.096183016 0.2591910648 0.3266233751
| 10> S 1.2149643047 1.3656702605 1.6834646704
| 11> O 3.6209009669 -0.1272358694 0.5964797818
| 12> C 4.0830793109 -1.1279507474 1.5189472152
| 13> C 3.7813544944 -0.7766456639 2.9616966052
| 14> S 1.1810564024 -1.6394606319 -0.0211653156
| 15> C -0.1070657469 -1.6299914118 1.2594777389
| 16> S -1.7896649704 -1.8055376347 0.6086357422
| 17> P -2.1037822412 0.1068644683 -0.2110349672
| 18> S -0.8469607227 0.8320415893 -1.539858304
| 19> O -2.2173645002 0.9746574001 1.1113342566
| 20> C -2.0952763139 2.4063376114 1.1120774888
| 21> C -3.3180526875 3.0620214987 0.5080256798
| 22> O -3.6188218838 0.0322170025 -0.6833714008
| 23> C -4.1938460323 -1.0075460824 -1.4976560329
| 24> C -3.3706972624 -1.3201048976 -2.7297054864
| 25> H 3.1837576002 -0.6483391551 -3.753994023
| 26> H 2.7886430701 -1.3961944149 -2.1980906678
| 27> H 1.5634830141 -0.4543649343 -3.0626352874
| 28> H 2.9808854532 1.6082816022 -2.7845963582
| 29> H 4.1137875471 0.6486229945 -1.7850002459
| 30> H 3.6287842879 -2.0854287436 1.2473538844
| 31> H 5.1588007442 -1.1649342215 1.3374151144
| 32> H 4.2279224083 -1.5205373989 3.6134197309
| 33> H 4.1845840346 0.2036117332 3.2038325147
| 34> H 2.7062188029 -0.753151068 3.1308196056
| 35> H -0.0290594347 -0.6971919556 1.8266648577
| 36> H 0.0442161982 -2.4995416578 1.8938197529
| 37> H -1.9632292442 2.6607945971 2.1647082722
| 38> H -1.1889610598 2.6828544639 0.5617021754
| 39> H -4.2133126784 2.7348877727 1.0297200017
| 40> H -3.2236254591 4.1405989805 0.5844625337
| 41> H -3.4005020996 2.7828555158 -0.5419811343
| 42> H -4.3090859856 -1.8976597077 -0.873052763
| 43> H -5.1756395293 -0.611106572 -1.762957781
| 44> H -3.2038663439 -0.4183767774 -3.3145666439
| 45> H -2.4023068564 -1.7271756099 -2.4400006375
| 46> H -3.8943345807 -2.0516872558 -3.3365403454
| 47> *
| 48>
| 49>                          ****END OF INPUT****

CARTESIAN COORDINATES (ANGSTROEM)
---------------------------------
  C      2.624352   -0.526127   -2.831947
  C      3.083618    0.737142   -2.135664
  O      2.246824    1.077504   -1.004462
  P      2.096183    0.259191    0.326623
  S      1.214964    1.365670    1.683465
  O      3.620901   -0.127236    0.596480
  C      4.083079   -1.127951    1.518947
  C      3.781354   -0.776646    2.961697
  S      1.181056   -1.639461   -0.021165
  C     -0.107066   -1.629991    1.259478
  S     -1.789665   -1.805538    0.608636
  P     -2.103782    0.106864   -0.211035
  S     -0.846961    0.832042   -1.539858
  O     -2.217365    0.974657    1.111334
  C     -2.095276    2.406338    1.112077
  C     -3.318053    3.062021    0.508026
  O     -3.618822    0.032217   -0.683371
  C     -4.193846   -1.007546   -1.497656
  C     -3.370697   -1.320105   -2.729705
  H      3.183758   -0.648339   -3.753994
  H      2.788643   -1.396194   -2.198091
  H      1.563483   -0.454365   -3.062635
  H      2.980885    1.608282   -2.784596
  H      4.113788    0.648623   -1.785000
  H      3.628784   -2.085429    1.247354
  H      5.158801   -1.164934    1.337415
  H      4.227922   -1.520537    3.613420
  H      4.184584    0.203612    3.203833
  H      2.706219   -0.753151    3.130820
  H     -0.029059   -0.697192    1.826665
  H      0.044216   -2.499542    1.893820
  H     -1.963229    2.660795    2.164708
  H     -1.188961    2.682854    0.561702
  H     -4.213313    2.734888    1.029720
  H     -3.223625    4.140599    0.584463
  H     -3.400502    2.782856   -0.541981
  H     -4.309086   -1.897660   -0.873053
  H     -5.175640   -0.611107   -1.762958
  H     -3.203866   -0.418377   -3.314567
  H     -2.402307   -1.727176   -2.440001
  H     -3.894335   -2.051687   -3.336540

 Total Charge           Charge          ....    0
 Multiplicity           Mult            ....    1
 Number of Electrons    NEL             ....  202
 Basis Dimension        Dim             ....  334

ORBITAL ENERGIES
----------------

  NO   OCC          E(Eh)            E(eV)
   0   2.0000     -88.042314     -2395.7532
   1   2.0000     -88.041616     -2395.7342
   2   2.0000     -87.980533     -2394.0720
   3   2.0000     -87.975959     -2393.9475
   4   2.0000     -76.424515     -2079.6168
   5   2.0000     -76.419178     -2079.4715
   6   2.0000     -18.789465      -511.2873
   7   2.0000     -18.787050      -511.2216
   8   2.0000     -18.784988      -511.1655
   9   2.0000     -18.777326      -510.9570
  10   2.0000      -9.955612      -270.9060
  11   2.0000      -9.955052      -270.8907
  12   2.0000      -9.954294      -270.8701
  13   2.0000      -9.953058      -270.8365
  14   2.0000      -9.934412      -270.3291
  15   2.0000      -9.884953      -268.9833
  16   2.0000      -9.882494      -268.9163
  17   2.0000      -9.880701      -268.8675
  18   2.0000      -9.871901      -268.6281
  19   2.0000      -7.687206      -209.1795
  20   2.0000      -7.686636      -209.1640
  21   2.0000      -7.625569      -207.5023
  22   2.0000      -7.620564      -207.3661
  23   2.0000      -6.421370      -174.7344
  24   2.0000      -6.416522      -174.6024
  25   2.0000      -5.714994      -155.5129
  26   2.0000      -5.714525      -155.5001
  27   2.0000      -5.711617      -155.4210
  28   2.0000      -5.711139      -155.4080
  29   2.0000      -5.704259      -155.2208
  30   2.0000      -5.703745      -155.2068
  31   2.0000      -5.654565      -153.8685
  32   2.0000      -5.649440      -153.7291
  33   2.0000      -5.646214      -153.6413
  34   2.0000      -5.645536      -153.6228
  35   2.0000      -5.641247      -153.5061
  36   2.0000      -5.640753      -153.4927
  37   2.0000      -4.644177      -126.3745
  38   2.0000      -4.643217      -126.3484
  39   2.0000      -4.641646      -126.3056
  40   2.0000      -4.639086      -126.2359
  41   2.0000      -4.638549      -126.2213
  42   2.0000      -4.636786      -126.1734
  43   2.0000      -0.985133       -26.8068
  44   2.0000      -0.977755       -26.6061
  45   2.0000      -0.939865       -25.5750
  46   2.0000      -0.936552       -25.4849
  47   2.0000      -0.760407       -20.6917
  48   2.0000      -0.717948       -19.5364
  49   2.0000      -0.705998       -19.2112
  50   2.0000      -0.688634       -18.7387
  51   2.0000      -0.683210       -18.5911
  52   2.0000      -0.671115       -18.2620
  53   2.0000      -0.648399       -17.6438
  54   2.0000      -0.633389       -17.2354
  55   2.0000      -0.591818       -16.1042
  56   2.0000      -0.585922       -15.9437
  57   2.0000      -0.579150       -15.7595
  58   2.0000      -0.568987       -15.4829
  59   2.0000      -0.559778       -15.2323
  60   2.0000      -0.497548       -13.5390
  61   2.0000      -0.486636       -13.2420
  62   2.0000      -0.469586       -12.7781
  63   2.0000      -0.462072       -12.5736
  64   2.0000      -0.450764       -12.2659
  65   2.0000      -0.447985       -12.1903
  66   2.0000      -0.439036       -11.9468
  67   2.0000      -0.430062       -11.7026
  68   2.0000      -0.423866       -11.5340
  69   2.0000      -0.419838       -11.4244
  70   2.0000      -0.409383       -11.1399
  71   2.0000      -0.404672       -11.0117
  72   2.0000      -0.390116       -10.6156
  73   2.0000      -0.387283       -10.5385
  74   2.0000      -0.380282       -10.3480
  75   2.0000      -0.365559        -9.9474
  76   2.0000      -0.354834        -9.6555
  77   2.0000      -0.353508        -9.6194
  78   2.0000      -0.349804        -9.5187
  79   2.0000      -0.344073        -9.3627
  80   2.0000      -0.343455        -9.3459
  81   2.0000      -0.338895        -9.2218
  82   2.0000      -0.336559        -9.1582
  83   2.0000      -0.335595        -9.1320
  84   2.0000      -0.331405        -9.0180
  85   2.0000      -0.314857        -8.5677
  86   2.0000      -0.308273        -8.3885
  87   2.0000      -0.295051        -8.0288
  88   2.0000      -0.292221        -7.9517
  89   2.0000      -0.287345        -7.8191
  90   2.0000      -0.278032        -7.5656
  91   2.0000      -0.273693        -7.4476
  92   2.0000      -0.262111        -7.1324
  93   2.0000      -0.256909        -6.9908
  94   2.0000      -0.254353        -6.9213
  95   2.0000      -0.239322        -6.5123
  96   2.0000      -0.219977        -5.9859
  97   2.0000      -0.201334        -5.4786
  98   2.0000      -0.197752        -5.3811
  99   2.0000      -0.188702        -5.1348
 100   2.0000      -0.181721        -4.9449
 101   0.0000      -0.038161        -1.0384
 102   0.0000      -0.031738        -0.8636
 103   0.0000      -0.012196        -0.3319
 104   0.0000       0.001952         0.0531
 105   0.0000       0.014954         0.4069

MULLIKEN ATOMIC CHARGES
-----------------------
   0 C :   -0.332377
   1 C :    0.001471
   2 O :   -0.344445
   3 P :    0.626290
   4 S :   -0.306412
   5 O :   -0.382527
   6 C :   -0.006976
   7 C :   -0.304503
   8 S :   -0.115722
   9 C :   -0.338128
  10 S :   -0.106116
  11 P :    0.611157
  12 S :   -0.318465
  13 O :   -0.363854
  14 C :   -0.016540
  15 C :   -0.294672
  16 O :   -0.376247
  17 C :   -0.011322
  18 C :   -0.313556
  19 H :    0.113363
  20 H :    0.122736
  21 H :    0.143541
  22 H :    0.111683
  23 H :    0.108622
  24 H :    0.102886
  25 H :    0.103705
  26 H :    0.107926
  27 H :    0.123506
  28 H :    0.120879
  29 H :    0.201950
  30 H :    0.178803
  31 H :    0.100861
  32 H :    0.128060
  33 H :    0.109957
  34 H :    0.107833
  35 H :    0.119438
  36 H :    0.113914
  37 H :    0.109682
  38 H :    0.127068
  39 H :    0.126927
  40 H :    0.109601
Sum of atomic charges:   -0.0000000

LOEWDIN ATOMIC CHARGES
----------------------
   0 C :   -0.370289
   1 C :   -0.108647
   2 O :   -0.220851
   3 P :    0.574138
   4 S :   -0.287956
   5 O :   -0.249567
   6 C :   -0.121057
   7 C :   -0.367042
   8 S :    0.078780
   9 C :   -0.482822
  10 S :    0.078024
  11 P :    0.567094
  12 S :   -0.311617
  13 O :   -0.237949
  14 C :   -0.124911
  15 C :   -0.363658
  16 O :   -0.246896
  17 C :   -0.113261
  18 C :   -0.372599
  19 H :    0.131467
  20 H :    0.114240
  21 H :    0.132401
  22 H :    0.124012
  23 H :    0.112705
  24 H :    0.100795
  25 H :    0.118176
  26 H :    0.128208
  27 H :    0.130295
  28 H :    0.119096
  29 H :    0.123499
  30 H :    0.135832
  31 H :    0.116673
  32 H :    0.109343
  33 H :    0.123235
  34 H :    0.128462
  35 H :    0.122093
  36 H :    0.109433
  37 H :    0.121779
  38 H :    0.129452
  39 H :    0.120894
  40 H :    0.128996

  Mayer bond orders larger than 0.100000
B(  0-C ,  1-C ) :   1.1682 B(  0-C , 19-H ) :   0.9361 B(  0-C , 20-H ) :   0.9348
B(  0-C , 21-H ) :   0.9363 B(  1-C ,  2-O ) :   0.8987 B(  1-C , 22-H ) :   0.9329
B(  1-C , 23-H ) :   0.9267 B(  2-O ,  3-P ) :   1.1523 B(  3-P ,  4-S ) :   1.6207
B(  3-P ,  5-O ) :   1.0653 B(  3-P ,  8-S ) :   0.9312 B(  4-S ,  8-S ) :   0.1179
B(  4-S , 29-H ) :   0.1240 B(  5-O ,  6-C ) :   0.9223 B(  6-C ,  7-C ) :   1.1641
B(  6-C , 24-H ) :   0.9148 B(  6-C , 25-H ) :   0.9335 B(  7-C , 26-H ) :   0.9368
B(  7-C , 27-H ) :   0.9454 B(  7-C , 28-H ) :   0.9348 B(  8-S ,  9-C ) :   1.0012
B(  9-C , 10-S ) :   1.0018 B(  9-C , 29-H ) :   0.8390 B(  9-C , 30-H ) :   0.9110
B( 10-S , 11-P ) :   0.9530 B( 10-S , 12-S ) :   0.1171 B( 11-P , 12-S ) :   1.6295
B( 11-P , 13-O ) :   1.1282 B( 11-P , 16-O ) :   1.0952 B( 13-O , 14-C ) :   0.9001
B( 14-C , 15-C ) :   1.1587 B( 14-C , 31-H ) :   0.9355 B( 14-C , 32-H ) :   0.9051
B( 15-C , 33-H ) :   0.9462 B( 15-C , 34-H ) :   0.9405 B( 15-C , 35-H ) :   0.9371
B( 16-O , 17-C ) :   0.9184 B( 17-C , 18-C ) :   1.1647 B( 17-C , 36-H ) :   0.9286
B( 17-C , 37-H ) :   0.9344 B( 18-C , 38-H ) :   0.9406 B( 18-C , 39-H ) :   0.9320
B( 18-C , 40-H ) :   0.9339

Dispersion correction           -0.068066643
FINAL SINGLE POINT ENERGY     -2929.511352508760

DIPOLE MOMENT
-------------

Method             : SCF
Type of density    : Electron Density
Multiplicity       :   1
Irrep              :   0
Energy             : -2929.6286102818685322 Eh
Relativity type    :
Basis              : AO
                                X                 Y                 Z
Electronic contribution:     -1.127098148      -0.337539401       4.777534464
Nuclear contribution   :      1.493868841      -0.696525585      -5.058457883
                        -----------------------------------------
Total Dipole Moment    :      0.366770693      -1.034064986      -0.280923419
                        -----------------------------------------
Magnitude (a.u.)       :      1.132576313
Magnitude (Debye)      :      2.878780206

Rotational constants in cm-1:             0.012112             0.005417             0.005163
Rotational constants in MHz :           363.093736           162.411964           154.791651

                             ****ORCA TERMINATED NORMALLY****
TOTAL RUN TIME: 0 days 0 hours 0 minutes 21 seconds 914 msec
