                         Program Version 6.0.1  -  RELEASE   -
|  1> ! pbe def2-sv(p) def2/J RI DEFGRID1 loosescf d4 GCP(DFT/SV(P)) printgap
|  2> %output
|  3>     printlevel normal
|  4> end
|  5> * xyz 0 1
|  6> C 3.0920614292 -3.3561562622 1.1197224029
|  7> C 2.9768108543 -1.8488314376 1.2535981289
|  8> O 2.6238171787 -1.298465362 -0.0306509052
|  9> C 1.6563614651 -0.42803736 -0.1223183407
| 10> O 1.0497945366 0.0573667272 0.8211085633
| 11> C 1.3851603669 -0.0135209151 -1.551121587
| 12> C 0.3052729272 1.057649986 -1.5704650334
| 13> H 0.309528283 1.5864053316 -2.5278339258
| 14> C 0.5026928991 2.0838398609 -0.4604684319
| 15> O -0.3958191984 2.5270128265 0.2163884814
| 16> O 1.7588519458 2.479935425 -0.4083271774
| 17> C 2.108401504 3.4835503049 0.5667982183
| 18> C 1.798275522 4.8806034367 0.0544744903
| 19> S -1.3985636794 0.4139148116 -1.4851563544
| 20> P -1.5556568188 -0.9382584355 0.1467910392
| 21> S -0.4737234666 -2.5696459832 0.1361686321
| 22> O -1.5849514177 -0.2090426266 1.5460480542
| 23> C -2.4914800565 0.861668714 1.8739373586
| 24> O -3.1164120359 -1.2696272981 -0.0231720644
| 25> C -3.597324132 -2.0760360612 -1.1034964131
| 26> H 3.3962485324 -3.7783455565 2.0714911962
| 27> H 2.1300497224 -3.7749716126 0.8328852131
| 28> H 3.8259377335 -3.6051039506 0.3597557415
| 29> H 3.9319325002 -1.3983653901 1.5354505439
| 30> H 2.2075875245 -1.5657532431 1.9781483217
| 31> H 1.0888442516 -0.8909481457 -2.129007168
| 32> H 2.3132805523 0.3766777965 -1.9718572455
| 33> H 1.5608238917 3.2717929555 1.4897304192
| 34> H 3.178250694 3.3431873431 0.7220082238
| 35> H 2.3071730849 5.0539517871 -0.8895988128
| 36> H 0.7268865376 4.9970792499 -0.0910257828
| 37> H 2.1360178913 5.6096883104 0.7834562824
| 38> H -2.1366194951 1.7852230425 1.4170766279
| 39> H -2.4571365732 0.9345030822 2.9578134199
| 40> H -3.496216594 0.622471113 1.531640113
| 41> H -2.9549787749 -2.9488299784 -1.2322850396
| 42> H -3.6193652432 -1.4893224556 -2.0208534746
| 43> H -4.6001643902 -2.3819689426 -0.8163668317
| 44> *
| 45>
| 46>                          ****END OF INPUT****

CARTESIAN COORDINATES (ANGSTROEM)
---------------------------------
  C      3.092061   -3.356156    1.119722
  C      2.976811   -1.848831    1.253598
  O      2.623817   -1.298465   -0.030651
  C      1.656361   -0.428037   -0.122318
  O      1.049795    0.057367    0.821109
  C      1.385160   -0.013521   -1.551122
  C      0.305273    1.057650   -1.570465
  H      0.309528    1.586405   -2.527834
  C      0.502693    2.083840   -0.460468
  O     -0.395819    2.527013    0.216388
  O      1.758852    2.479935   -0.408327
  C      2.108402    3.483550    0.566798
  C      1.798276    4.880603    0.054474
  S     -1.398564    0.413915   -1.485156
  P     -1.555657   -0.938258    0.146791
  S     -0.473723   -2.569646    0.136169
  O     -1.584951   -0.209043    1.546048
  C     -2.491480    0.861669    1.873937
  O     -3.116412   -1.269627   -0.023172
  C     -3.597324   -2.076036   -1.103496
  H      3.396249   -3.778346    2.071491
  H      2.130050   -3.774972    0.832885
  H      3.825938   -3.605104    0.359756
  H      3.931933   -1.398365    1.535451
  H      2.207588   -1.565753    1.978148
  H      1.088844   -0.890948   -2.129007
  H      2.313281    0.376678   -1.971857
  H      1.560824    3.271793    1.489730
  H      3.178251    3.343187    0.722008
  H      2.307173    5.053952   -0.889599
  H      0.726887    4.997079   -0.091026
  H      2.136018    5.609688    0.783456
  H     -2.136619    1.785223    1.417077
  H     -2.457137    0.934503    2.957813
  H     -3.496217    0.622471    1.531640
  H     -2.954979   -2.948830   -1.232285
  H     -3.619365   -1.489322   -2.020853
  H     -4.600164   -2.381969   -0.816367

 Total Charge           Charge          ....    0
 Multiplicity           Mult            ....    1
 Number of Electrons    NEL             ....  174
 Basis Dimension        Dim             ....  316

ORBITAL ENERGIES
----------------

  NO   OCC          E(Eh)            E(eV)
   0   2.0000     -88.032358     -2395.4822
   1   2.0000     -87.971856     -2393.8359
   2   2.0000     -76.418575     -2079.4551
   3   2.0000     -18.804362      -511.6927
   4   2.0000     -18.802837      -511.6512
   5   2.0000     -18.784348      -511.1481
   6   2.0000     -18.778928      -511.0006
   7   2.0000     -18.738672      -509.9052
   8   2.0000     -18.736490      -509.8458
   9   2.0000     -10.014538      -272.5094
  10   2.0000     -10.013249      -272.4744
  11   2.0000      -9.949626      -270.7431
  12   2.0000      -9.948664      -270.7169
  13   2.0000      -9.941969      -270.5347
  14   2.0000      -9.937704      -270.4187
  15   2.0000      -9.926980      -270.1269
  16   2.0000      -9.911208      -269.6977
  17   2.0000      -9.888213      -269.0719
  18   2.0000      -9.879051      -268.8226
  19   2.0000      -7.677185      -208.9068
  20   2.0000      -7.617244      -207.2757
  21   2.0000      -6.415133      -174.5647
  22   2.0000      -5.705338      -155.2501
  23   2.0000      -5.701609      -155.1487
  24   2.0000      -5.693959      -154.9405
  25   2.0000      -5.646279      -153.6431
  26   2.0000      -5.637542      -153.4053
  27   2.0000      -5.637452      -153.4029
  28   2.0000      -4.638179      -126.2113
  29   2.0000      -4.637080      -126.1814
  30   2.0000      -4.635239      -126.1313
  31   2.0000      -1.014913       -27.6172
  32   2.0000      -1.009013       -27.4566
  33   2.0000      -0.975476       -26.5441
  34   2.0000      -0.930739       -25.3267
  35   2.0000      -0.917568       -24.9683
  36   2.0000      -0.915598       -24.9147
  37   2.0000      -0.761536       -20.7225
  38   2.0000      -0.709116       -19.2960
  39   2.0000      -0.704681       -19.1753
  40   2.0000      -0.686096       -18.6696
  41   2.0000      -0.653829       -17.7916
  42   2.0000      -0.627741       -17.0817
  43   2.0000      -0.621520       -16.9124
  44   2.0000      -0.607813       -16.5394
  45   2.0000      -0.588377       -16.0105
  46   2.0000      -0.562793       -15.3144
  47   2.0000      -0.510166       -13.8823
  48   2.0000      -0.503092       -13.6898
  49   2.0000      -0.496362       -13.5067
  50   2.0000      -0.480638       -13.0788
  51   2.0000      -0.463925       -12.6240
  52   2.0000      -0.449860       -12.2413
  53   2.0000      -0.445148       -12.1131
  54   2.0000      -0.430671       -11.7191
  55   2.0000      -0.426078       -11.5942
  56   2.0000      -0.422129       -11.4867
  57   2.0000      -0.417528       -11.3615
  58   2.0000      -0.411368       -11.1939
  59   2.0000      -0.405764       -11.0414
  60   2.0000      -0.402515       -10.9530
  61   2.0000      -0.393052       -10.6955
  62   2.0000      -0.383150       -10.4260
  63   2.0000      -0.382978       -10.4214
  64   2.0000      -0.379794       -10.3347
  65   2.0000      -0.361236        -9.8297
  66   2.0000      -0.353475        -9.6185
  67   2.0000      -0.348778        -9.4907
  68   2.0000      -0.340899        -9.2763
  69   2.0000      -0.337242        -9.1768
  70   2.0000      -0.331145        -9.0109
  71   2.0000      -0.327715        -8.9176
  72   2.0000      -0.315880        -8.5955
  73   2.0000      -0.307760        -8.3746
  74   2.0000      -0.299103        -8.1390
  75   2.0000      -0.295278        -8.0349
  76   2.0000      -0.290747        -7.9116
  77   2.0000      -0.284067        -7.7298
  78   2.0000      -0.263002        -7.1567
  79   2.0000      -0.258880        -7.0445
  80   2.0000      -0.252725        -6.8770
  81   2.0000      -0.248185        -6.7535
  82   2.0000      -0.230766        -6.2795
  83   2.0000      -0.226673        -6.1681
  84   2.0000      -0.217943        -5.9305
  85   2.0000      -0.191516        -5.2114
  86   2.0000      -0.185331        -5.0431
  87   0.0000      -0.035101        -0.9551
  88   0.0000      -0.021456        -0.5838
  89   0.0000      -0.017618        -0.4794
  90   0.0000      -0.005039        -0.1371
  91   0.0000       0.035027         0.9531

MULLIKEN ATOMIC CHARGES
-----------------------
   0 C :   -0.291069
   1 C :   -0.020998
   2 O :   -0.214241
   3 C :    0.122019
   4 O :   -0.210147
   5 C :   -0.076332
   6 C :   -0.295776
   7 H :    0.143323
   8 C :    0.217300
   9 O :   -0.181321
  10 O :   -0.246414
  11 C :   -0.003447
  12 C :   -0.307413
  13 S :   -0.101354
  14 P :    0.637831
  15 S :   -0.349421
  16 O :   -0.350112
  17 C :   -0.124353
  18 O :   -0.393796
  19 C :   -0.103283
  20 H :    0.108516
  21 H :    0.133530
  22 H :    0.108460
  23 H :    0.099544
  24 H :    0.125432
  25 H :    0.138424
  26 H :    0.122862
  27 H :    0.115030
  28 H :    0.100589
  29 H :    0.110661
  30 H :    0.129582
  31 H :    0.113534
  32 H :    0.151395
  33 H :    0.119477
  34 H :    0.114531
  35 H :    0.117543
  36 H :    0.117275
  37 H :    0.122621
Sum of atomic charges:   -0.0000000

LOEWDIN ATOMIC CHARGES
----------------------
   0 C :   -0.352899
   1 C :   -0.107932
   2 O :   -0.039531
   3 C :    0.021624
   4 O :   -0.163283
   5 C :   -0.256973
   6 C :   -0.262678
   7 H :    0.150738
   8 C :    0.016684
   9 O :   -0.159056
  10 O :   -0.062299
  11 C :   -0.105824
  12 C :   -0.357792
  13 S :    0.101994
  14 P :    0.579399
  15 S :   -0.319225
  16 O :   -0.225063
  17 C :   -0.214933
  18 O :   -0.261151
  19 C :   -0.217927
  20 H :    0.128997
  21 H :    0.127830
  22 H :    0.123133
  23 H :    0.114370
  24 H :    0.125034
  25 H :    0.147997
  26 H :    0.147933
  27 H :    0.124086
  28 H :    0.117237
  29 H :    0.123432
  30 H :    0.131099
  31 H :    0.131065
  32 H :    0.122792
  33 H :    0.121588
  34 H :    0.110094
  35 H :    0.109646
  36 H :    0.108688
  37 H :    0.121107

  Mayer bond orders larger than 0.100000
B(  0-C ,  1-C ) :   1.1713 B(  0-C , 20-H ) :   0.9436 B(  0-C , 21-H ) :   0.9418
B(  0-C , 22-H ) :   0.9486 B(  1-C ,  2-O ) :   0.8957 B(  1-C , 23-H ) :   0.9354
B(  1-C , 24-H ) :   0.9081 B(  2-O ,  3-C ) :   1.2753 B(  3-C ,  4-O ) :   1.9228
B(  3-C ,  5-C ) :   1.0023 B(  5-C ,  6-C ) :   1.0365 B(  5-C , 25-H ) :   0.8851
B(  5-C , 26-H ) :   0.8754 B(  6-C ,  7-H ) :   0.8665 B(  6-C ,  8-C ) :   0.8690
B(  6-C , 13-S ) :   1.0553 B(  8-C ,  9-O ) :   2.0382 B(  8-C , 10-O ) :   1.2216
B( 10-O , 11-C ) :   0.9114 B( 11-C , 12-C ) :   1.1738 B( 11-C , 27-H ) :   0.9163
B( 11-C , 28-H ) :   0.9379 B( 12-C , 29-H ) :   0.9482 B( 12-C , 30-H ) :   0.9444
B( 12-C , 31-H ) :   0.9441 B( 13-S , 14-P ) :   0.9710 B( 13-S , 15-S ) :   0.1131
B( 14-P , 15-S ) :   1.5970 B( 14-P , 16-O ) :   1.1531 B( 14-P , 18-O ) :   1.0478
B( 16-O , 17-C ) :   0.9107 B( 17-C , 32-H ) :   0.9241 B( 17-C , 33-H ) :   0.9590
B( 17-C , 34-H ) :   0.9427 B( 18-O , 19-C ) :   0.9351 B( 19-C , 35-H ) :   0.9302
B( 19-C , 36-H ) :   0.9493 B( 19-C , 37-H ) :   0.9586

Dispersion correction           -0.054387543
FINAL SINGLE POINT ENERGY     -1979.012540525850

DIPOLE MOMENT
-------------

Method             : SCF
Type of density    : Electron Density
Multiplicity       :   1
Irrep              :   0
Energy             : -1979.1428025195136797 Eh
Relativity type    :
Basis              : AO
                                X                 Y                 Z
Electronic contribution:     -9.984661873      -5.511558495      -4.090104795
Nuclear contribution   :     10.688341729       6.326637469       3.692585145
                        -----------------------------------------
Total Dipole Moment    :      0.703679856       0.815078974      -0.397519650
                        -----------------------------------------
Magnitude (a.u.)       :      1.147841865
Magnitude (Debye)      :      2.917582156

Rotational constants in cm-1:             0.011745             0.008918             0.006243
Rotational constants in MHz :           352.092009           267.368645           187.172926

                             ****ORCA TERMINATED NORMALLY****
TOTAL RUN TIME: 0 days 0 hours 0 minutes 37 seconds 481 msec
