                         Program Version 6.0.0  -   RELEASE  -
|  1> ! pbe def2-sv(p) def2/J RI DEFGRID1 loosescf d4 GCP(DFT/SV(P)) printgap
|  2> %output
|  3>     printlevel normal
|  4> end
|  5> * xyz 0 1
|  6> C 1.6563430622 -2.9049529998 0.9225663442
|  7> C 1.6486174518 -1.5552914653 1.6123514204
|  8> O 2.7042208201 -0.6948752406 1.1564023569
|  9> P 2.7765252847 0.0293628475 -0.2598789979
| 10> S 3.1114747851 -1.1023792011 -1.8214017185
| 11> O 3.9875082025 1.0093335811 -0.0525813234
| 12> C 3.9966056399 2.251320184 0.693553384
| 13> C 3.4686477258 2.1069913298 2.1042022997
| 14> S 1.0320396941 1.2713086249 -0.3596832349
| 15> C 0.2099147863 0.4691749878 -1.7518309432
| 16> S -0.7241630151 -1.0035939569 -1.259410032
| 17> P -2.1970591898 0.0075581456 -0.1185393884
| 18> S -2.714519198 1.762866547 -0.8389555154
| 19> O -1.5472453331 -0.0573729751 1.3232703967
| 20> C -2.2993905332 -0.01524632 2.5596644421
| 21> C -3.1338928599 1.2414073402 2.683910477
| 22> O -3.3841944224 -1.0375643792 0.0115267589
| 23> C -4.3872627297 -1.1910301621 -1.0122961182
| 24> C -5.6647231589 -1.6711279066 -0.3528575886
| 25> H 1.4220290656 -2.7970756245 -0.1348888149
| 26> H 2.6360142138 -3.3668350427 1.0140403406
| 27> H 0.9106413973 -3.5452704903 1.382781242
| 28> H 1.8464807377 -1.6592949553 2.6811235244
| 29> H 0.6894399621 -1.0489229667 1.4656879644
| 30> H 5.0501082021 2.5352683429 0.6848568199
| 31> H 3.4105003138 2.9835549636 0.13238518
| 32> H 3.61255684 3.0452321292 2.6313511834
| 33> H 2.4055269923 1.8735340542 2.0860438865
| 34> H 3.9991249771 1.3148233672 2.6258518362
| 35> H 0.9556515986 0.1372007813 -2.4753299346
| 36> H -0.4735082854 1.2031699975 -2.1782320563
| 37> H -2.9246485508 -0.9089145924 2.606690466
| 38> H -1.5258105511 -0.0587083431 3.3279927766
| 39> H -2.5082353971 2.1243830798 2.5747998138
| 40> H -3.8968880854 1.2643691155 1.9067897568
| 41> H -3.6168728881 1.259792314 3.655883244
| 42> H -4.5319338322 -0.2254949304 -1.509148662
| 43> H -4.0153132823 -1.9172491377 -1.738886606
| 44> H -6.4201586602 -1.8272656686 -1.1158889361
| 45> H -5.4842537785 -2.6057277515 0.1701962532
| 46> H -6.0235290413 -0.9312047808 0.3572837614
| 47> *
| 48>
| 49>                          ****END OF INPUT****

CARTESIAN COORDINATES (ANGSTROEM)
---------------------------------
  C      1.656343   -2.904953    0.922566
  C      1.648617   -1.555291    1.612351
  O      2.704221   -0.694875    1.156402
  P      2.776525    0.029363   -0.259879
  S      3.111475   -1.102379   -1.821402
  O      3.987508    1.009334   -0.052581
  C      3.996606    2.251320    0.693553
  C      3.468648    2.106991    2.104202
  S      1.032040    1.271309   -0.359683
  C      0.209915    0.469175   -1.751831
  S     -0.724163   -1.003594   -1.259410
  P     -2.197059    0.007558   -0.118539
  S     -2.714519    1.762867   -0.838956
  O     -1.547245   -0.057373    1.323270
  C     -2.299391   -0.015246    2.559664
  C     -3.133893    1.241407    2.683910
  O     -3.384194   -1.037564    0.011527
  C     -4.387263   -1.191030   -1.012296
  C     -5.664723   -1.671128   -0.352858
  H      1.422029   -2.797076   -0.134889
  H      2.636014   -3.366835    1.014040
  H      0.910641   -3.545270    1.382781
  H      1.846481   -1.659295    2.681124
  H      0.689440   -1.048923    1.465688
  H      5.050108    2.535268    0.684857
  H      3.410500    2.983555    0.132385
  H      3.612557    3.045232    2.631351
  H      2.405527    1.873534    2.086044
  H      3.999125    1.314823    2.625852
  H      0.955652    0.137201   -2.475330
  H     -0.473508    1.203170   -2.178232
  H     -2.924649   -0.908915    2.606690
  H     -1.525811   -0.058708    3.327993
  H     -2.508235    2.124383    2.574800
  H     -3.896888    1.264369    1.906790
  H     -3.616873    1.259792    3.655883
  H     -4.531934   -0.225495   -1.509149
  H     -4.015313   -1.917249   -1.738887
  H     -6.420159   -1.827266   -1.115889
  H     -5.484254   -2.605728    0.170196
  H     -6.023529   -0.931205    0.357284

 Total Charge           Charge          ....    0
 Multiplicity           Mult            ....    1
 Number of Electrons    NEL             ....  202
 Basis Dimension        Dim             ....  334

ORBITAL ENERGIES
----------------

  NO   OCC          E(Eh)            E(eV)
   0   2.0000     -88.043336     -2395.7810
   1   2.0000     -88.041073     -2395.7194
   2   2.0000     -87.992053     -2394.3855
   3   2.0000     -87.979261     -2394.0374
   4   2.0000     -76.432689     -2079.8392
   5   2.0000     -76.422844     -2079.5713
   6   2.0000     -18.803539      -511.6703
   7   2.0000     -18.798193      -511.5248
   8   2.0000     -18.788190      -511.2526
   9   2.0000     -18.785696      -511.1848
  10   2.0000      -9.963495      -271.1205
  11   2.0000      -9.959581      -271.0140
  12   2.0000      -9.957055      -270.9452
  13   2.0000      -9.950125      -270.7567
  14   2.0000      -9.945565      -270.6326
  15   2.0000      -9.895316      -269.2652
  16   2.0000      -9.890280      -269.1282
  17   2.0000      -9.889771      -269.1144
  18   2.0000      -9.871992      -268.6306
  19   2.0000      -7.688346      -209.2105
  20   2.0000      -7.685619      -209.1363
  21   2.0000      -7.637021      -207.8139
  22   2.0000      -7.624526      -207.4739
  23   2.0000      -6.430202      -174.9747
  24   2.0000      -6.420007      -174.6973
  25   2.0000      -5.716185      -155.5453
  26   2.0000      -5.713426      -155.4702
  27   2.0000      -5.712949      -155.4572
  28   2.0000      -5.710112      -155.3800
  29   2.0000      -5.705290      -155.2488
  30   2.0000      -5.702792      -155.1808
  31   2.0000      -5.665834      -154.1752
  32   2.0000      -5.657721      -153.9544
  33   2.0000      -5.657238      -153.9413
  34   2.0000      -5.653616      -153.8427
  35   2.0000      -5.645182      -153.6132
  36   2.0000      -5.644410      -153.5922
  37   2.0000      -4.653201      -126.6200
  38   2.0000      -4.651784      -126.5815
  39   2.0000      -4.650431      -126.5447
  40   2.0000      -4.642672      -126.3335
  41   2.0000      -4.642010      -126.3155
  42   2.0000      -4.640221      -126.2668
  43   2.0000      -0.996577       -27.1182
  44   2.0000      -0.982244       -26.7282
  45   2.0000      -0.952874       -25.9290
  46   2.0000      -0.939880       -25.5754
  47   2.0000      -0.764034       -20.7904
  48   2.0000      -0.724933       -19.7264
  49   2.0000      -0.712793       -19.3961
  50   2.0000      -0.697955       -18.9923
  51   2.0000      -0.686446       -18.6791
  52   2.0000      -0.674804       -18.3623
  53   2.0000      -0.651141       -17.7185
  54   2.0000      -0.637842       -17.3566
  55   2.0000      -0.600580       -16.3426
  56   2.0000      -0.590349       -16.0642
  57   2.0000      -0.580519       -15.7967
  58   2.0000      -0.571474       -15.5506
  59   2.0000      -0.564240       -15.3538
  60   2.0000      -0.512910       -13.9570
  61   2.0000      -0.491602       -13.3772
  62   2.0000      -0.481155       -13.0929
  63   2.0000      -0.470139       -12.7931
  64   2.0000      -0.461844       -12.5674
  65   2.0000      -0.447483       -12.1766
  66   2.0000      -0.445738       -12.1292
  67   2.0000      -0.437566       -11.9068
  68   2.0000      -0.428789       -11.6680
  69   2.0000      -0.419643       -11.4191
  70   2.0000      -0.409498       -11.1430
  71   2.0000      -0.399069       -10.8592
  72   2.0000      -0.396339       -10.7849
  73   2.0000      -0.394455       -10.7337
  74   2.0000      -0.382263       -10.4019
  75   2.0000      -0.376938       -10.2570
  76   2.0000      -0.364728        -9.9248
  77   2.0000      -0.359212        -9.7747
  78   2.0000      -0.354485        -9.6460
  79   2.0000      -0.353377        -9.6159
  80   2.0000      -0.350567        -9.5394
  81   2.0000      -0.347300        -9.4505
  82   2.0000      -0.345036        -9.3889
  83   2.0000      -0.340045        -9.2531
  84   2.0000      -0.330749        -9.0001
  85   2.0000      -0.325741        -8.8639
  86   2.0000      -0.313025        -8.5178
  87   2.0000      -0.307901        -8.3784
  88   2.0000      -0.297646        -8.0994
  89   2.0000      -0.287754        -7.8302
  90   2.0000      -0.283474        -7.7137
  91   2.0000      -0.281717        -7.6659
  92   2.0000      -0.273150        -7.4328
  93   2.0000      -0.265876        -7.2349
  94   2.0000      -0.256168        -6.9707
  95   2.0000      -0.239595        -6.5197
  96   2.0000      -0.216151        -5.8818
  97   2.0000      -0.214920        -5.8483
  98   2.0000      -0.202836        -5.5195
  99   2.0000      -0.198934        -5.4133
 100   2.0000      -0.192391        -5.2352
 101   0.0000      -0.047943        -1.3046
 102   0.0000      -0.027534        -0.7492
 103   0.0000      -0.002877        -0.0783
 104   0.0000      -0.000088        -0.0024
 105   0.0000       0.011688         0.3180

MULLIKEN ATOMIC CHARGES
-----------------------
   0 C :   -0.300644
   1 C :   -0.044284
   2 O :   -0.371512
   3 P :    0.604096
   4 S :   -0.312922
   5 O :   -0.359990
   6 C :   -0.002034
   7 C :   -0.317557
   8 S :   -0.116356
   9 C :   -0.353960
  10 S :   -0.085029
  11 P :    0.629165
  12 S :   -0.329607
  13 O :   -0.362570
  14 C :    0.000463
  15 C :   -0.316411
  16 O :   -0.387499
  17 C :   -0.010624
  18 C :   -0.286580
  19 H :    0.135093
  20 H :    0.113450
  21 H :    0.099726
  22 H :    0.096122
  23 H :    0.137628
  24 H :    0.112979
  25 H :    0.114511
  26 H :    0.115030
  27 H :    0.124641
  28 H :    0.126647
  29 H :    0.194551
  30 H :    0.196334
  31 H :    0.111169
  32 H :    0.106725
  33 H :    0.128252
  34 H :    0.128798
  35 H :    0.112230
  36 H :    0.110438
  37 H :    0.107580
  38 H :    0.116217
  39 H :    0.117455
  40 H :    0.118280
Sum of atomic charges:    0.0000000

LOEWDIN ATOMIC CHARGES
----------------------
   0 C :   -0.367747
   1 C :   -0.125807
   2 O :   -0.242418
   3 P :    0.567875
   4 S :   -0.303630
   5 O :   -0.235284
   6 C :   -0.111456
   7 C :   -0.367608
   8 S :    0.070271
   9 C :   -0.486852
  10 S :    0.090954
  11 P :    0.570425
  12 S :   -0.313815
  13 O :   -0.239733
  14 C :   -0.108428
  15 C :   -0.367196
  16 O :   -0.248720
  17 C :   -0.119858
  18 C :   -0.351225
  19 H :    0.116849
  20 H :    0.125550
  21 H :    0.125657
  22 H :    0.114633
  23 H :    0.105379
  24 H :    0.124058
  25 H :    0.112287
  26 H :    0.131977
  27 H :    0.118116
  28 H :    0.130571
  29 H :    0.128682
  30 H :    0.129040
  31 H :    0.113906
  32 H :    0.119753
  33 H :    0.131772
  34 H :    0.121397
  35 H :    0.130309
  36 H :    0.108867
  37 H :    0.114699
  38 H :    0.133127
  39 H :    0.126808
  40 H :    0.126818

  Mayer bond orders larger than 0.100000
B(  0-C ,  1-C ) :   1.1673 B(  0-C , 19-H ) :   0.9276 B(  0-C , 20-H ) :   0.9452
B(  0-C , 21-H ) :   0.9382 B(  1-C ,  2-O ) :   0.9115 B(  1-C , 22-H ) :   0.9346
B(  1-C , 23-H ) :   0.8976 B(  2-O ,  3-P ) :   1.0912 B(  3-P ,  4-S ) :   1.6436
B(  3-P ,  5-O ) :   1.1462 B(  3-P ,  8-S ) :   0.9268 B(  4-S ,  8-S ) :   0.1121
B(  5-O ,  6-C ) :   0.9052 B(  6-C ,  7-C ) :   1.1675 B(  6-C , 24-H ) :   0.9348
B(  6-C , 25-H ) :   0.9245 B(  7-C , 26-H ) :   0.9348 B(  7-C , 27-H ) :   0.9392
B(  7-C , 28-H ) :   0.9419 B(  8-S ,  9-C ) :   1.0164 B(  9-C , 10-S ) :   1.0029
B(  9-C , 29-H ) :   0.8620 B(  9-C , 30-H ) :   0.8728 B( 10-S , 11-P ) :   0.9594
B( 10-S , 12-S ) :   0.1178 B( 11-P , 12-S ) :   1.6188 B( 11-P , 13-O ) :   1.1168
B( 11-P , 16-O ) :   1.0896 B( 13-O , 14-C ) :   0.9005 B( 14-C , 15-C ) :   1.1683
B( 14-C , 31-H ) :   0.9304 B( 14-C , 32-H ) :   0.9334 B( 15-C , 33-H ) :   0.9441
B( 15-C , 34-H ) :   0.9346 B( 15-C , 35-H ) :   0.9352 B( 16-O , 17-C ) :   0.8986
B( 17-C , 18-C ) :   1.1606 B( 17-C , 36-H ) :   0.9046 B( 17-C , 37-H ) :   0.9314
B( 18-C , 38-H ) :   0.9414 B( 18-C , 39-H ) :   0.9505 B( 18-C , 40-H ) :   0.9513

Dispersion correction           -0.064643676
FINAL SINGLE POINT ENERGY     -2929.517904914208

DIPOLE MOMENT
-------------

Method             : SCF
Type of density    : Electron Density
Multiplicity       :   1
Irrep              :   0
Energy             : -2929.6384851790799075 Eh
Relativity type    :
Basis              : AO
                                X                 Y                 Z
Electronic contribution:     12.781701215       3.003720162     -17.715213441
Nuclear contribution   :    -14.099704160      -3.027254997      19.403572830
                        -----------------------------------------
Total Dipole Moment    :     -1.318002945      -0.023534835       1.688359389
                        -----------------------------------------
Magnitude (a.u.)       :      2.142018459
Magnitude (Debye)      :      5.444578234

Rotational constants in cm-1:             0.012971             0.004659             0.004405
Rotational constants in MHz :           388.853884           139.679017           132.069349

                             ****ORCA TERMINATED NORMALLY****
TOTAL RUN TIME: 0 days 0 hours 0 minutes 21 seconds 202 msec
