                         Program Version 6.0.0  -   RELEASE  -
|  1> ! pbe def2-sv(p) def2/J RI DEFGRID1 loosescf d4 GCP(DFT/SV(P)) printgap
|  2> %output
|  3>     printlevel normal
|  4> end
|  5> * xyz 0 1
|  6> C 5.5603596371 -0.6247443359 -1.3305303866
|  7> C 4.4333913012 0.3038728867 -0.9255847086
|  8> O 3.218067009 -0.4701162316 -0.8523578552
|  9> P 2.0232878374 -0.0633300666 0.1076183969
| 10> S 2.570504681 0.5236997997 1.899912008
| 11> O 1.0661249073 -1.3184937587 0.0041092212
| 12> C 1.5208417258 -2.6870258892 -0.0943773476
| 13> C 2.1797646624 -3.1454251532 1.1893882013
| 14> S 0.9686911115 1.3992427665 -1.0044831414
| 15> C -0.0409570104 2.0274021732 0.3695534808
| 16> S -0.967619134 0.7354362816 1.2343266547
| 17> P -2.2535194241 0.0927449694 -0.3594146934
| 18> S -1.5559754973 -0.9291620349 -1.8717181203
| 19> O -2.9561242873 1.4250578273 -0.824757354
| 20> C -3.7892569044 2.2249046642 0.0581853019
| 21> C -3.8752858333 3.6216823358 -0.5210203532
| 22> O -3.4076659341 -0.6467047783 0.4509872882
| 23> C -3.3475106077 -2.0523254129 0.7483095313
| 24> C -2.2328762783 -2.3764180244 1.7218878653
| 25> H 5.7001992753 -1.3973107814 -0.5794119555
| 26> H 5.3308332539 -1.0945143288 -2.2827410483
| 27> H 6.4753738406 -0.0494374553 -1.4251853919
| 28> H 4.2815943814 1.094791241 -1.6640131818
| 29> H 4.6187070463 0.7556551462 0.0550847489
| 30> H 0.6060109601 -3.2426382074 -0.3097298802
| 31> H 2.2028627121 -2.7646579818 -0.942895787
| 32> H 1.5001156244 -3.0231603064 2.029612529
| 33> H 2.4585864059 -4.1903722316 1.0988094929
| 34> H 3.072629056 -2.5509655214 1.3807797117
| 35> H -0.7168998007 2.7626134981 -0.06068971
| 36> H 0.6089407182 2.475135765 1.121348125
| 37> H -4.7699464231 1.7484999003 0.1011905907
| 38> H -3.3466427284 2.2240100621 1.0582860317
| 39> H -4.5375377213 4.2205703081 0.0958045491
| 40> H -2.894581459 4.0891507941 -0.5475930022
| 41> H -4.2666249747 3.5793086146 -1.5334124036
| 42> H -4.3293221366 -2.2737255249 1.1687439556
| 43> H -3.2101703253 -2.5972681172 -0.1912059291
| 44> H -1.2688448459 -2.1557507453 1.2637562856
| 45> H -2.3310323195 -1.7791252465 2.6252253715
| 46> H -2.2701238189 -3.4303389334 1.9780146744
| 47> *
| 48>
| 49>                          ****END OF INPUT****

CARTESIAN COORDINATES (ANGSTROEM)
---------------------------------
  C      5.560360   -0.624744   -1.330530
  C      4.433391    0.303873   -0.925585
  O      3.218067   -0.470116   -0.852358
  P      2.023288   -0.063330    0.107618
  S      2.570505    0.523700    1.899912
  O      1.066125   -1.318494    0.004109
  C      1.520842   -2.687026   -0.094377
  C      2.179765   -3.145425    1.189388
  S      0.968691    1.399243   -1.004483
  C     -0.040957    2.027402    0.369553
  S     -0.967619    0.735436    1.234327
  P     -2.253519    0.092745   -0.359415
  S     -1.555975   -0.929162   -1.871718
  O     -2.956124    1.425058   -0.824757
  C     -3.789257    2.224905    0.058185
  C     -3.875286    3.621682   -0.521020
  O     -3.407666   -0.646705    0.450987
  C     -3.347511   -2.052325    0.748310
  C     -2.232876   -2.376418    1.721888
  H      5.700199   -1.397311   -0.579412
  H      5.330833   -1.094514   -2.282741
  H      6.475374   -0.049437   -1.425185
  H      4.281594    1.094791   -1.664013
  H      4.618707    0.755655    0.055085
  H      0.606011   -3.242638   -0.309730
  H      2.202863   -2.764658   -0.942896
  H      1.500116   -3.023160    2.029613
  H      2.458586   -4.190372    1.098809
  H      3.072629   -2.550966    1.380780
  H     -0.716900    2.762613   -0.060690
  H      0.608941    2.475136    1.121348
  H     -4.769946    1.748500    0.101191
  H     -3.346643    2.224010    1.058286
  H     -4.537538    4.220570    0.095805
  H     -2.894581    4.089151   -0.547593
  H     -4.266625    3.579309   -1.533412
  H     -4.329322   -2.273726    1.168744
  H     -3.210170   -2.597268   -0.191206
  H     -1.268845   -2.155751    1.263756
  H     -2.331032   -1.779125    2.625225
  H     -2.270124   -3.430339    1.978015

 Total Charge           Charge          ....    0
 Multiplicity           Mult            ....    1
 Number of Electrons    NEL             ....  202
 Basis Dimension        Dim             ....  334

ORBITAL ENERGIES
----------------

  NO   OCC          E(Eh)            E(eV)
   0   2.0000     -88.038032     -2395.6366
   1   2.0000     -88.033834     -2395.5224
   2   2.0000     -87.981352     -2394.0943
   3   2.0000     -87.976272     -2393.9561
   4   2.0000     -76.423990     -2079.6025
   5   2.0000     -76.420521     -2079.5081
   6   2.0000     -18.795288      -511.4458
   7   2.0000     -18.790975      -511.3284
   8   2.0000     -18.789636      -511.2920
   9   2.0000     -18.782814      -511.1063
  10   2.0000      -9.955681      -270.9078
  11   2.0000      -9.955385      -270.8998
  12   2.0000      -9.953000      -270.8349
  13   2.0000      -9.951137      -270.7842
  14   2.0000      -9.949391      -270.7367
  15   2.0000      -9.892408      -269.1861
  16   2.0000      -9.889389      -269.1040
  17   2.0000      -9.884431      -268.9690
  18   2.0000      -9.881046      -268.8769
  19   2.0000      -7.682285      -209.0456
  20   2.0000      -7.679258      -208.9632
  21   2.0000      -7.626501      -207.5276
  22   2.0000      -7.621539      -207.3926
  23   2.0000      -6.421113      -174.7274
  24   2.0000      -6.417994      -174.6425
  25   2.0000      -5.710145      -155.3809
  26   2.0000      -5.707245      -155.3020
  27   2.0000      -5.706839      -155.2910
  28   2.0000      -5.703932      -155.2119
  29   2.0000      -5.699330      -155.0867
  30   2.0000      -5.695892      -154.9931
  31   2.0000      -5.655327      -153.8893
  32   2.0000      -5.650627      -153.7614
  33   2.0000      -5.647324      -153.6715
  34   2.0000      -5.646574      -153.6511
  35   2.0000      -5.642175      -153.5314
  36   2.0000      -5.641480      -153.5125
  37   2.0000      -4.644302      -126.3779
  38   2.0000      -4.642641      -126.3327
  39   2.0000      -4.641300      -126.2962
  40   2.0000      -4.641216      -126.2939
  41   2.0000      -4.639695      -126.2525
  42   2.0000      -4.637918      -126.2042
  43   2.0000      -0.986319       -26.8391
  44   2.0000      -0.985914       -26.8281
  45   2.0000      -0.943409       -25.6715
  46   2.0000      -0.941203       -25.6114
  47   2.0000      -0.760286       -20.6884
  48   2.0000      -0.719021       -19.5656
  49   2.0000      -0.710242       -19.3267
  50   2.0000      -0.689529       -18.7630
  51   2.0000      -0.688890       -18.7457
  52   2.0000      -0.668944       -18.2029
  53   2.0000      -0.646355       -17.5882
  54   2.0000      -0.634869       -17.2757
  55   2.0000      -0.592107       -16.1121
  56   2.0000      -0.586348       -15.9553
  57   2.0000      -0.573563       -15.6075
  58   2.0000      -0.572070       -15.5668
  59   2.0000      -0.558719       -15.2035
  60   2.0000      -0.506488       -13.7822
  61   2.0000      -0.503874       -13.7111
  62   2.0000      -0.473194       -12.8763
  63   2.0000      -0.472819       -12.8661
  64   2.0000      -0.460114       -12.5203
  65   2.0000      -0.444260       -12.0889
  66   2.0000      -0.438750       -11.9390
  67   2.0000      -0.436170       -11.8688
  68   2.0000      -0.427239       -11.6258
  69   2.0000      -0.413825       -11.2608
  70   2.0000      -0.404628       -11.0105
  71   2.0000      -0.397319       -10.8116
  72   2.0000      -0.391692       -10.6585
  73   2.0000      -0.378815       -10.3081
  74   2.0000      -0.376566       -10.2469
  75   2.0000      -0.370206       -10.0738
  76   2.0000      -0.363880        -9.9017
  77   2.0000      -0.362465        -9.8632
  78   2.0000      -0.358156        -9.7459
  79   2.0000      -0.353362        -9.6155
  80   2.0000      -0.347921        -9.4674
  81   2.0000      -0.344481        -9.3738
  82   2.0000      -0.342906        -9.3310
  83   2.0000      -0.336505        -9.1568
  84   2.0000      -0.332324        -9.0430
  85   2.0000      -0.320334        -8.7167
  86   2.0000      -0.311275        -8.4702
  87   2.0000      -0.301558        -8.2058
  88   2.0000      -0.300821        -8.1858
  89   2.0000      -0.290757        -7.9119
  90   2.0000      -0.287364        -7.8196
  91   2.0000      -0.272253        -7.4084
  92   2.0000      -0.266395        -7.2490
  93   2.0000      -0.256787        -6.9875
  94   2.0000      -0.255550        -6.9539
  95   2.0000      -0.238803        -6.4982
  96   2.0000      -0.213028        -5.7968
  97   2.0000      -0.203746        -5.5442
  98   2.0000      -0.197002        -5.3607
  99   2.0000      -0.189960        -5.1691
 100   2.0000      -0.182302        -4.9607
 101   0.0000      -0.045824        -1.2469
 102   0.0000      -0.024434        -0.6649
 103   0.0000      -0.004501        -0.1225
 104   0.0000       0.005272         0.1435
 105   0.0000       0.022278         0.6062

MULLIKEN ATOMIC CHARGES
-----------------------
   0 C :   -0.286190
   1 C :   -0.009489
   2 O :   -0.387266
   3 P :    0.641000
   4 S :   -0.340787
   5 O :   -0.357995
   6 C :   -0.000464
   7 C :   -0.310652
   8 S :   -0.082022
   9 C :   -0.358987
  10 S :   -0.096964
  11 P :    0.597237
  12 S :   -0.293433
  13 O :   -0.368858
  14 C :   -0.015182
  15 C :   -0.288289
  16 O :   -0.386735
  17 C :    0.005326
  18 C :   -0.364535
  19 H :    0.118406
  20 H :    0.118030
  21 H :    0.113507
  22 H :    0.104923
  23 H :    0.107831
  24 H :    0.108067
  25 H :    0.112699
  26 H :    0.122466
  27 H :    0.107744
  28 H :    0.122559
  29 H :    0.186947
  30 H :    0.192339
  31 H :    0.110734
  32 H :    0.104103
  33 H :    0.112819
  34 H :    0.121481
  35 H :    0.125269
  36 H :    0.103302
  37 H :    0.108341
  38 H :    0.166963
  39 H :    0.122310
  40 H :    0.113443
Sum of atomic charges:   -0.0000000

LOEWDIN ATOMIC CHARGES
----------------------
   0 C :   -0.351452
   1 C :   -0.120363
   2 O :   -0.246567
   3 P :    0.573296
   4 S :   -0.330503
   5 O :   -0.234885
   6 C :   -0.110309
   7 C :   -0.364224
   8 S :    0.079124
   9 C :   -0.479112
  10 S :    0.085115
  11 P :    0.565354
  12 S :   -0.301104
  13 O :   -0.243963
  14 C :   -0.118034
  15 C :   -0.350234
  16 O :   -0.252007
  17 C :   -0.118337
  18 C :   -0.376428
  19 H :    0.127001
  20 H :    0.126966
  21 H :    0.131801
  22 H :    0.113250
  23 H :    0.107733
  24 H :    0.116954
  25 H :    0.113210
  26 H :    0.128698
  27 H :    0.127742
  28 H :    0.121189
  29 H :    0.127984
  30 H :    0.132293
  31 H :    0.117916
  32 H :    0.103754
  33 H :    0.131593
  34 H :    0.123679
  35 H :    0.131758
  36 H :    0.117757
  37 H :    0.109896
  38 H :    0.126504
  39 H :    0.125848
  40 H :    0.131110

  Mayer bond orders larger than 0.100000
B(  0-C ,  1-C ) :   1.1603 B(  0-C , 19-H ) :   0.9510 B(  0-C , 20-H ) :   0.9505
B(  0-C , 21-H ) :   0.9416 B(  1-C ,  2-O ) :   0.9016 B(  1-C , 22-H ) :   0.9313
B(  1-C , 23-H ) :   0.9030 B(  2-O ,  3-P ) :   1.0859 B(  3-P ,  4-S ) :   1.6119
B(  3-P ,  5-O ) :   1.1262 B(  3-P ,  8-S ) :   0.9559 B(  4-S ,  8-S ) :   0.1204
B(  5-O ,  6-C ) :   0.8947 B(  6-C ,  7-C ) :   1.1680 B(  6-C , 24-H ) :   0.9257
B(  6-C , 25-H ) :   0.9284 B(  7-C , 26-H ) :   0.9479 B(  7-C , 27-H ) :   0.9381
B(  7-C , 28-H ) :   0.9345 B(  8-S ,  9-C ) :   1.0044 B(  9-C , 10-S ) :   1.0025
B(  9-C , 29-H ) :   0.8944 B(  9-C , 30-H ) :   0.8879 B( 10-S , 11-P ) :   0.9348
B( 10-S , 12-S ) :   0.1133 B( 11-P , 12-S ) :   1.6874 B( 11-P , 13-O ) :   1.1145
B( 11-P , 16-O ) :   1.0700 B( 13-O , 14-C ) :   0.8872 B( 14-C , 15-C ) :   1.1590
B( 14-C , 31-H ) :   0.9308 B( 14-C , 32-H ) :   0.9093 B( 15-C , 33-H ) :   0.9402
B( 15-C , 34-H ) :   0.9498 B( 15-C , 35-H ) :   0.9471 B( 16-O , 17-C ) :   0.9114
B( 17-C , 18-C ) :   1.1622 B( 17-C , 36-H ) :   0.9331 B( 17-C , 37-H ) :   0.9142
B( 18-C , 38-H ) :   0.9186 B( 18-C , 39-H ) :   0.9415 B( 18-C , 40-H ) :   0.9376

Dispersion correction           -0.066014185
FINAL SINGLE POINT ENERGY     -2929.513365549698

DIPOLE MOMENT
-------------

Method             : SCF
Type of density    : Electron Density
Multiplicity       :   1
Irrep              :   0
Energy             : -2929.6318647165512630 Eh
Relativity type    :
Basis              : AO
                                X                 Y                 Z
Electronic contribution:     -3.073527810       7.149599606      -4.109118848
Nuclear contribution   :      2.879466553      -7.220965397       4.364687807
                        -----------------------------------------
Total Dipole Moment    :     -0.194061258      -0.071365791       0.255568959
                        -----------------------------------------
Magnitude (a.u.)       :      0.328737495
Magnitude (Debye)      :      0.835584308

Rotational constants in cm-1:             0.012442             0.005289             0.004638
Rotational constants in MHz :           372.995518           158.562095           139.034662

                             ****ORCA TERMINATED NORMALLY****
TOTAL RUN TIME: 0 days 0 hours 0 minutes 21 seconds 297 msec
