                         Program Version 6.0.0  -   RELEASE  -
|  1> ! pbe def2-sv(p) def2/J RI DEFGRID1 loosescf d4 GCP(DFT/SV(P)) printgap
|  2> %output
|  3>     printlevel normal
|  4> end
|  5> * xyz 0 1
|  6> C 4.1867768106 2.3631301349 0.2053867904
|  7> C 3.0198658714 1.7740697242 -0.5600100619
|  8> O 2.0959335471 1.124859357 0.3493923287
|  9> P 2.0380145364 -0.4327636169 0.5734493205
| 10> S 0.672745982 -0.8445211607 1.9149721418
| 11> O 3.5521864401 -0.7741625194 0.9111541941
| 12> C 4.1502780503 -2.0814827985 0.8401366088
| 13> C 3.3843912611 -3.1220688192 1.6296048709
| 14> S 1.7934345211 -1.3233414853 -1.3561289185
| 15> C -0.001931064 -1.255625418 -1.4287285246
| 16> S -0.6096704286 0.4616637312 -1.3518190886
| 17> P -2.4791142616 0.1021890393 -0.3866526108
| 18> S -2.694631247 -1.6311327844 0.4889147721
| 19> O -3.5464874758 0.2849889763 -1.5305035226
| 20> C -3.636339384 1.4579825685 -2.377861853
| 21> C -4.647578802 2.4455693176 -1.833340093
| 22> O -2.7274886766 1.3897373849 0.512167111
| 23> C -2.0998458051 1.6101297593 1.7887495968
| 24> C -0.9450333963 2.5839288194 1.6618248945
| 25> H 3.8258670637 3.0601870489 0.9563462477
| 26> H 4.7472198558 1.5751043865 0.7012819348
| 27> H 4.8380414631 2.8864915295 -0.4875009625
| 28> H 3.3571590277 1.0475895114 -1.3043558779
| 29> H 2.4264361103 2.5495303161 -1.0478765406
| 30> H 4.2181946495 -2.3679391765 -0.2129756394
| 31> H 5.1504246236 -1.929583544 1.2498970505
| 32> H 3.923373115 -4.063718099 1.606032265
| 33> H 3.2619820336 -2.8023297756 2.6620070881
| 34> H 2.3948313244 -3.2703803541 1.1984327961
| 35> H -0.432904895 -1.8056199719 -0.5865796877
| 36> H -0.2884693557 -1.7010675212 -2.3783973838
| 37> H -2.6434860027 1.9094406785 -2.4622635595
| 38> H -3.9474639074 1.0649227827 -3.3473668466
| 39> H -4.3275367324 2.8203425831 -0.8650512118
| 40> H -4.7414076977 3.2751836609 -2.5271355643
| 41> H -5.61377434 1.9620458585 -1.7183505647
| 42> H -2.8918673389 2.0164212085 2.4208214248
| 43> H -1.7665005165 0.6520757732 2.2009075946
| 44> H -0.5751316289 2.8194005432 2.6546089919
| 45> H -0.1332545267 2.1429564216 1.0872685945
| 46> H -1.2753467474 3.4950951131 1.171433106
| 47> *
| 48>
| 49>                          ****END OF INPUT****

CARTESIAN COORDINATES (ANGSTROEM)
---------------------------------
  C      4.186777    2.363130    0.205387
  C      3.019866    1.774070   -0.560010
  O      2.095934    1.124859    0.349392
  P      2.038015   -0.432764    0.573449
  S      0.672746   -0.844521    1.914972
  O      3.552186   -0.774163    0.911154
  C      4.150278   -2.081483    0.840137
  C      3.384391   -3.122069    1.629605
  S      1.793435   -1.323341   -1.356129
  C     -0.001931   -1.255625   -1.428729
  S     -0.609670    0.461664   -1.351819
  P     -2.479114    0.102189   -0.386653
  S     -2.694631   -1.631133    0.488915
  O     -3.546487    0.284989   -1.530504
  C     -3.636339    1.457983   -2.377862
  C     -4.647579    2.445569   -1.833340
  O     -2.727489    1.389737    0.512167
  C     -2.099846    1.610130    1.788750
  C     -0.945033    2.583929    1.661825
  H      3.825867    3.060187    0.956346
  H      4.747220    1.575104    0.701282
  H      4.838041    2.886492   -0.487501
  H      3.357159    1.047590   -1.304356
  H      2.426436    2.549530   -1.047877
  H      4.218195   -2.367939   -0.212976
  H      5.150425   -1.929584    1.249897
  H      3.923373   -4.063718    1.606032
  H      3.261982   -2.802330    2.662007
  H      2.394831   -3.270380    1.198433
  H     -0.432905   -1.805620   -0.586580
  H     -0.288469   -1.701068   -2.378397
  H     -2.643486    1.909441   -2.462264
  H     -3.947464    1.064923   -3.347367
  H     -4.327537    2.820343   -0.865051
  H     -4.741408    3.275184   -2.527136
  H     -5.613774    1.962046   -1.718351
  H     -2.891867    2.016421    2.420821
  H     -1.766501    0.652076    2.200908
  H     -0.575132    2.819401    2.654609
  H     -0.133255    2.142956    1.087269
  H     -1.275347    3.495095    1.171433

 Total Charge           Charge          ....    0
 Multiplicity           Mult            ....    1
 Number of Electrons    NEL             ....  202
 Basis Dimension        Dim             ....  334

ORBITAL ENERGIES
----------------

  NO   OCC          E(Eh)            E(eV)
   0   2.0000     -88.049470     -2395.9479
   1   2.0000     -88.037853     -2395.6318
   2   2.0000     -87.981957     -2394.1108
   3   2.0000     -87.977769     -2393.9968
   4   2.0000     -76.428397     -2079.7224
   5   2.0000     -76.419695     -2079.4856
   6   2.0000     -18.798548      -511.5345
   7   2.0000     -18.793187      -511.3886
   8   2.0000     -18.787416      -511.2316
   9   2.0000     -18.785290      -511.1737
  10   2.0000      -9.962464      -271.0924
  11   2.0000      -9.957664      -270.9618
  12   2.0000      -9.953486      -270.8481
  13   2.0000      -9.952342      -270.8170
  14   2.0000      -9.940882      -270.5051
  15   2.0000      -9.889141      -269.0972
  16   2.0000      -9.884853      -268.9805
  17   2.0000      -9.883308      -268.9385
  18   2.0000      -9.870697      -268.5953
  19   2.0000      -7.694246      -209.3711
  20   2.0000      -7.682445      -209.0500
  21   2.0000      -7.626853      -207.5372
  22   2.0000      -7.623105      -207.4352
  23   2.0000      -6.425363      -174.8430
  24   2.0000      -6.417326      -174.6243
  25   2.0000      -5.722022      -155.7041
  26   2.0000      -5.718557      -155.6099
  27   2.0000      -5.711613      -155.4209
  28   2.0000      -5.710265      -155.3842
  29   2.0000      -5.707074      -155.2974
  30   2.0000      -5.699419      -155.0891
  31   2.0000      -5.656014      -153.9080
  32   2.0000      -5.652136      -153.8024
  33   2.0000      -5.647271      -153.6701
  34   2.0000      -5.646971      -153.6619
  35   2.0000      -5.643575      -153.5695
  36   2.0000      -5.643226      -153.5600
  37   2.0000      -4.648218      -126.4844
  38   2.0000      -4.647473      -126.4642
  39   2.0000      -4.645308      -126.4053
  40   2.0000      -4.640097      -126.2635
  41   2.0000      -4.639070      -126.2355
  42   2.0000      -4.637608      -126.1957
  43   2.0000      -0.992414       -27.0050
  44   2.0000      -0.981981       -26.7211
  45   2.0000      -0.948867       -25.8200
  46   2.0000      -0.938758       -25.5449
  47   2.0000      -0.762636       -20.7524
  48   2.0000      -0.720635       -19.6095
  49   2.0000      -0.710675       -19.3384
  50   2.0000      -0.694085       -18.8870
  51   2.0000      -0.682751       -18.5786
  52   2.0000      -0.673925       -18.3384
  53   2.0000      -0.649555       -17.6753
  54   2.0000      -0.632105       -17.2005
  55   2.0000      -0.591664       -16.1000
  56   2.0000      -0.586183       -15.9508
  57   2.0000      -0.577905       -15.7256
  58   2.0000      -0.571087       -15.5401
  59   2.0000      -0.560949       -15.2642
  60   2.0000      -0.506337       -13.7781
  61   2.0000      -0.495773       -13.4907
  62   2.0000      -0.477786       -13.0012
  63   2.0000      -0.473399       -12.8818
  64   2.0000      -0.454529       -12.3684
  65   2.0000      -0.442939       -12.0530
  66   2.0000      -0.441469       -12.0130
  67   2.0000      -0.438187       -11.9237
  68   2.0000      -0.431513       -11.7421
  69   2.0000      -0.415667       -11.3109
  70   2.0000      -0.413065       -11.2401
  71   2.0000      -0.400481       -10.8976
  72   2.0000      -0.387833       -10.5535
  73   2.0000      -0.386497       -10.5171
  74   2.0000      -0.380761       -10.3610
  75   2.0000      -0.365058        -9.9337
  76   2.0000      -0.359965        -9.7951
  77   2.0000      -0.357723        -9.7341
  78   2.0000      -0.353218        -9.6115
  79   2.0000      -0.349575        -9.5124
  80   2.0000      -0.348052        -9.4710
  81   2.0000      -0.343027        -9.3343
  82   2.0000      -0.340980        -9.2785
  83   2.0000      -0.338519        -9.2116
  84   2.0000      -0.325505        -8.8575
  85   2.0000      -0.322859        -8.7854
  86   2.0000      -0.312245        -8.4966
  87   2.0000      -0.299859        -8.1596
  88   2.0000      -0.294294        -8.0082
  89   2.0000      -0.287752        -7.8301
  90   2.0000      -0.282303        -7.6818
  91   2.0000      -0.281620        -7.6633
  92   2.0000      -0.269911        -7.3446
  93   2.0000      -0.264748        -7.2042
  94   2.0000      -0.255500        -6.9525
  95   2.0000      -0.234672        -6.3858
  96   2.0000      -0.221335        -6.0228
  97   2.0000      -0.207094        -5.6353
  98   2.0000      -0.196769        -5.3543
  99   2.0000      -0.194295        -5.2870
 100   2.0000      -0.185801        -5.0559
 101   0.0000      -0.044554        -1.2124
 102   0.0000      -0.030420        -0.8278
 103   0.0000      -0.013731        -0.3736
 104   0.0000       0.010281         0.2798
 105   0.0000       0.015260         0.4153

MULLIKEN ATOMIC CHARGES
-----------------------
   0 C :   -0.287329
   1 C :   -0.006368
   2 O :   -0.343816
   3 P :    0.591108
   4 S :   -0.292129
   5 O :   -0.377680
   6 C :   -0.011787
   7 C :   -0.311246
   8 S :   -0.121817
   9 C :   -0.339143
  10 S :   -0.137475
  11 P :    0.612508
  12 S :   -0.294770
  13 O :   -0.356604
  14 C :   -0.013509
  15 C :   -0.289256
  16 O :   -0.383213
  17 C :   -0.007826
  18 C :   -0.317705
  19 H :    0.120024
  20 H :    0.120477
  21 H :    0.109490
  22 H :    0.097609
  23 H :    0.109331
  24 H :    0.113311
  25 H :    0.109609
  26 H :    0.112437
  27 H :    0.128768
  28 H :    0.131127
  29 H :    0.214201
  30 H :    0.180636
  31 H :    0.101247
  32 H :    0.108100
  33 H :    0.123770
  34 H :    0.106888
  35 H :    0.119749
  36 H :    0.100862
  37 H :    0.123803
  38 H :    0.106841
  39 H :    0.151158
  40 H :    0.098620
Sum of atomic charges:   -0.0000000

LOEWDIN ATOMIC CHARGES
----------------------
   0 C :   -0.358013
   1 C :   -0.115951
   2 O :   -0.227713
   3 P :    0.564204
   4 S :   -0.286774
   5 O :   -0.245326
   6 C :   -0.115343
   7 C :   -0.369027
   8 S :    0.065673
   9 C :   -0.479622
  10 S :    0.053148
  11 P :    0.567573
  12 S :   -0.289050
  13 O :   -0.240001
  14 C :   -0.114745
  15 C :   -0.360235
  16 O :   -0.244425
  17 C :   -0.116742
  18 C :   -0.368670
  19 H :    0.128923
  20 H :    0.126517
  21 H :    0.129189
  22 H :    0.102268
  23 H :    0.119737
  24 H :    0.108173
  25 H :    0.121267
  26 H :    0.130736
  27 H :    0.131418
  28 H :    0.123366
  29 H :    0.123849
  30 H :    0.134430
  31 H :    0.101422
  32 H :    0.120471
  33 H :    0.126367
  34 H :    0.127948
  35 H :    0.129018
  36 H :    0.115862
  37 H :    0.109263
  38 H :    0.130132
  39 H :    0.122974
  40 H :    0.117710

  Mayer bond orders larger than 0.100000
B(  0-C ,  1-C ) :   1.1653 B(  0-C , 19-H ) :   0.9475 B(  0-C , 20-H ) :   0.9434
B(  0-C , 21-H ) :   0.9405 B(  1-C ,  2-O ) :   0.8887 B(  1-C , 22-H ) :   0.9126
B(  1-C , 23-H ) :   0.9340 B(  2-O ,  3-P ) :   1.1191 B(  3-P ,  4-S ) :   1.6632
B(  3-P ,  5-O ) :   1.0810 B(  3-P ,  8-S ) :   0.9308 B(  4-S ,  8-S ) :   0.1104
B(  5-O ,  6-C ) :   0.9110 B(  6-C ,  7-C ) :   1.1673 B(  6-C , 24-H ) :   0.9266
B(  6-C , 25-H ) :   0.9329 B(  7-C , 26-H ) :   0.9346 B(  7-C , 27-H ) :   0.9425
B(  7-C , 28-H ) :   0.9322 B(  8-S ,  9-C ) :   1.0069 B(  9-C , 10-S ) :   0.9896
B(  9-C , 29-H ) :   0.8421 B(  9-C , 30-H ) :   0.9097 B( 10-S , 11-P ) :   0.9365
B( 10-S , 12-S ) :   0.1182 B( 11-P , 12-S ) :   1.6650 B( 11-P , 13-O ) :   1.1343
B( 11-P , 16-O ) :   1.0960 B( 13-O , 14-C ) :   0.9002 B( 14-C , 15-C ) :   1.1627
B( 14-C , 31-H ) :   0.9127 B( 14-C , 32-H ) :   0.9369 B( 15-C , 33-H ) :   0.9407
B( 15-C , 34-H ) :   0.9396 B( 15-C , 35-H ) :   0.9469 B( 16-O , 17-C ) :   0.8912
B( 17-C , 18-C ) :   1.1727 B( 17-C , 36-H ) :   0.9350 B( 17-C , 37-H ) :   0.9015
B( 18-C , 38-H ) :   0.9399 B( 18-C , 39-H ) :   0.9230 B( 18-C , 40-H ) :   0.9470

Dispersion correction           -0.065687934
FINAL SINGLE POINT ENERGY     -2929.516605567174

DIPOLE MOMENT
-------------

Method             : SCF
Type of density    : Electron Density
Multiplicity       :   1
Irrep              :   0
Energy             : -2929.6362928590074262 Eh
Relativity type    :
Basis              : AO
                                X                 Y                 Z
Electronic contribution:     -7.854274828     -13.725167550      -1.771564486
Nuclear contribution   :      9.327740125      14.809916031       0.756621773
                        -----------------------------------------
Total Dipole Moment    :      1.473465297       1.084748482      -1.014942713
                        -----------------------------------------
Magnitude (a.u.)       :      2.092340307
Magnitude (Debye)      :      5.318306408

Rotational constants in cm-1:             0.012918             0.004916             0.004606
Rotational constants in MHz :           387.284565           147.391562           138.071379

                             ****ORCA TERMINATED NORMALLY****
TOTAL RUN TIME: 0 days 0 hours 0 minutes 21 seconds 174 msec
