                         Program Version 6.0.0  -   RELEASE  -
|  1> ! pbe def2-sv(p) def2/J RI DEFGRID1 loosescf d4 GCP(DFT/SV(P)) printgap
|  2> %output
|  3>     printlevel normal
|  4> end
|  5> * xyz 0 1
|  6> C 5.6983792586 1.0826287511 -0.7087988351
|  7> C 4.3571540647 0.5249069157 -1.1398085079
|  8> O 3.5428216458 0.3702581499 0.039473488
|  9> P 1.9699219107 0.1952412889 -0.0642110786
| 10> S 1.0810627375 1.5761760362 -1.1342080567
| 11> O 1.5048473396 0.2232407018 1.4368031532
| 12> C 1.7005037869 -0.8170406176 2.430786723
| 13> C 3.1462496514 -1.2365133583 2.5755605125
| 14> S 1.7551884247 -1.7850673653 -0.805368386
| 15> C 0.0001468538 -1.7126390022 -1.2177559858
| 16> S -1.0649381516 -1.7031988047 0.2678974998
| 17> P -2.1220787753 0.093984724 -0.0009205559
| 18> S -2.3897245324 0.735663579 -1.8374207095
| 19> O -1.3431967653 1.0297381613 1.013116832
| 20> C -1.4812999893 2.4629629815 1.0121209529
| 21> C -2.8766485324 2.904911491 1.396991894
| 22> O -3.4686458259 -0.1696372127 0.8043773859
| 23> C -4.6491716488 -0.7094616817 0.1863436843
| 24> C -4.4717000494 -2.1567084649 -0.2258473884
| 25> H 6.1753213183 0.4035996143 -0.0083432744
| 26> H 6.3308274196 1.2019112078 -1.5822616558
| 27> H 5.563873134 2.0480886651 -0.2292035654
| 28> H 4.4635752188 -0.4560121794 -1.6104472517
| 29> H 3.8444387053 1.2005578725 -1.8329212986
| 30> H 1.3188190108 -0.3552480941 3.3425708497
| 31> H 1.0687088491 -1.6679019198 2.1597227725
| 32> H 3.7744134466 -0.3683850144 2.7568664076
| 33> H 3.2286659871 -1.9222886352 3.4132552774
| 34> H 3.4880004017 -1.7386717872 1.6729795622
| 35> H -0.216176685 -2.6153183268 -1.7827722636
| 36> H -0.2099865709 -0.8153727135 -1.8066283195
| 37> H -0.7320027275 2.7932423088 1.7336304741
| 38> H -1.211267691 2.8344236345 0.0175318481
| 39> H -3.1678331981 2.4484217632 2.3394605706
| 40> H -2.8937221197 3.9859633221 1.4944052561
| 41> H -3.5857722608 2.6084077094 0.624956892
| 42> H -5.4177373914 -0.5996061605 0.9525549645
| 43> H -4.8960794689 -0.0916908308 -0.6831829736
| 44> H -4.1077844723 -2.7468189797 0.6114832651
| 45> H -5.4249336137 -2.5527258051 -0.5610478281
| 46> H -3.7550475696 -2.2246422229 -1.0432200194
| 47> *
| 48>
| 49>                          ****END OF INPUT****

CARTESIAN COORDINATES (ANGSTROEM)
---------------------------------
  C      5.698379    1.082629   -0.708799
  C      4.357154    0.524907   -1.139809
  O      3.542822    0.370258    0.039473
  P      1.969922    0.195241   -0.064211
  S      1.081063    1.576176   -1.134208
  O      1.504847    0.223241    1.436803
  C      1.700504   -0.817041    2.430787
  C      3.146250   -1.236513    2.575561
  S      1.755188   -1.785067   -0.805368
  C      0.000147   -1.712639   -1.217756
  S     -1.064938   -1.703199    0.267897
  P     -2.122079    0.093985   -0.000921
  S     -2.389725    0.735664   -1.837421
  O     -1.343197    1.029738    1.013117
  C     -1.481300    2.462963    1.012121
  C     -2.876649    2.904911    1.396992
  O     -3.468646   -0.169637    0.804377
  C     -4.649172   -0.709462    0.186344
  C     -4.471700   -2.156708   -0.225847
  H      6.175321    0.403600   -0.008343
  H      6.330827    1.201911   -1.582262
  H      5.563873    2.048089   -0.229204
  H      4.463575   -0.456012   -1.610447
  H      3.844439    1.200558   -1.832921
  H      1.318819   -0.355248    3.342571
  H      1.068709   -1.667902    2.159723
  H      3.774413   -0.368385    2.756866
  H      3.228666   -1.922289    3.413255
  H      3.488000   -1.738672    1.672980
  H     -0.216177   -2.615318   -1.782772
  H     -0.209987   -0.815373   -1.806628
  H     -0.732003    2.793242    1.733630
  H     -1.211268    2.834424    0.017532
  H     -3.167833    2.448422    2.339461
  H     -2.893722    3.985963    1.494405
  H     -3.585772    2.608408    0.624957
  H     -5.417737   -0.599606    0.952555
  H     -4.896079   -0.091691   -0.683183
  H     -4.107784   -2.746819    0.611483
  H     -5.424934   -2.552726   -0.561048
  H     -3.755048   -2.224642   -1.043220

 Total Charge           Charge          ....    0
 Multiplicity           Mult            ....    1
 Number of Electrons    NEL             ....  202
 Basis Dimension        Dim             ....  334

ORBITAL ENERGIES
----------------

  NO   OCC          E(Eh)            E(eV)
   0   2.0000     -88.045045     -2395.8275
   1   2.0000     -88.041688     -2395.7361
   2   2.0000     -87.982541     -2394.1266
   3   2.0000     -87.977079     -2393.9780
   4   2.0000     -76.423410     -2079.5867
   5   2.0000     -76.420816     -2079.5161
   6   2.0000     -18.793489      -511.3968
   7   2.0000     -18.789980      -511.3014
   8   2.0000     -18.788298      -511.2556
   9   2.0000     -18.778274      -510.9828
  10   2.0000      -9.955436      -270.9012
  11   2.0000      -9.952815      -270.8299
  12   2.0000      -9.952680      -270.8262
  13   2.0000      -9.948664      -270.7169
  14   2.0000      -9.937437      -270.4114
  15   2.0000      -9.888720      -269.0857
  16   2.0000      -9.886816      -269.0339
  17   2.0000      -9.881424      -268.8872
  18   2.0000      -9.875260      -268.7195
  19   2.0000      -7.690183      -209.2605
  20   2.0000      -7.686745      -209.1670
  21   2.0000      -7.627433      -207.5530
  22   2.0000      -7.622049      -207.4065
  23   2.0000      -6.420885      -174.7212
  24   2.0000      -6.418355      -174.6523
  25   2.0000      -5.717965      -155.5937
  26   2.0000      -5.714600      -155.5022
  27   2.0000      -5.714499      -155.4994
  28   2.0000      -5.711264      -155.4114
  29   2.0000      -5.707462      -155.3079
  30   2.0000      -5.703644      -155.2040
  31   2.0000      -5.656272      -153.9150
  32   2.0000      -5.651032      -153.7724
  33   2.0000      -5.648282      -153.6976
  34   2.0000      -5.647473      -153.6756
  35   2.0000      -5.642578      -153.5424
  36   2.0000      -5.642187      -153.5317
  37   2.0000      -4.643633      -126.3597
  38   2.0000      -4.642897      -126.3396
  39   2.0000      -4.640923      -126.2859
  40   2.0000      -4.640619      -126.2777
  41   2.0000      -4.639970      -126.2600
  42   2.0000      -4.639246      -126.2403
  43   2.0000      -0.986589       -26.8465
  44   2.0000      -0.979699       -26.6590
  45   2.0000      -0.944901       -25.7121
  46   2.0000      -0.936900       -25.4943
  47   2.0000      -0.762462       -20.7476
  48   2.0000      -0.719774       -19.5861
  49   2.0000      -0.707163       -19.2429
  50   2.0000      -0.692302       -18.8385
  51   2.0000      -0.682429       -18.5698
  52   2.0000      -0.671761       -18.2796
  53   2.0000      -0.647186       -17.6108
  54   2.0000      -0.631252       -17.1772
  55   2.0000      -0.598225       -16.2785
  56   2.0000      -0.591163       -16.0864
  57   2.0000      -0.568382       -15.4664
  58   2.0000      -0.566058       -15.4032
  59   2.0000      -0.562369       -15.3028
  60   2.0000      -0.503670       -13.7056
  61   2.0000      -0.486093       -13.2273
  62   2.0000      -0.474747       -12.9185
  63   2.0000      -0.465069       -12.6552
  64   2.0000      -0.451044       -12.2735
  65   2.0000      -0.446089       -12.1387
  66   2.0000      -0.435198       -11.8423
  67   2.0000      -0.434444       -11.8218
  68   2.0000      -0.430584       -11.7168
  69   2.0000      -0.414484       -11.2787
  70   2.0000      -0.408821       -11.1246
  71   2.0000      -0.400009       -10.8848
  72   2.0000      -0.385777       -10.4975
  73   2.0000      -0.384353       -10.4588
  74   2.0000      -0.377308       -10.2671
  75   2.0000      -0.376763       -10.2523
  76   2.0000      -0.363693        -9.8966
  77   2.0000      -0.357966        -9.7408
  78   2.0000      -0.350334        -9.5331
  79   2.0000      -0.349995        -9.5238
  80   2.0000      -0.348684        -9.4882
  81   2.0000      -0.342309        -9.3147
  82   2.0000      -0.337060        -9.1719
  83   2.0000      -0.334557        -9.1038
  84   2.0000      -0.332013        -9.0345
  85   2.0000      -0.314850        -8.5675
  86   2.0000      -0.307660        -8.3718
  87   2.0000      -0.298817        -8.1312
  88   2.0000      -0.291758        -7.9391
  89   2.0000      -0.289301        -7.8723
  90   2.0000      -0.274939        -7.4815
  91   2.0000      -0.271192        -7.3795
  92   2.0000      -0.263771        -7.1776
  93   2.0000      -0.261056        -7.1037
  94   2.0000      -0.257246        -7.0000
  95   2.0000      -0.238600        -6.4926
  96   2.0000      -0.219531        -5.9738
  97   2.0000      -0.212429        -5.7805
  98   2.0000      -0.201617        -5.4863
  99   2.0000      -0.191309        -5.2058
 100   2.0000      -0.183929        -5.0050
 101   0.0000      -0.041111        -1.1187
 102   0.0000      -0.030614        -0.8331
 103   0.0000      -0.007483        -0.2036
 104   0.0000       0.014324         0.3898
 105   0.0000       0.024623         0.6700

MULLIKEN ATOMIC CHARGES
-----------------------
   0 C :   -0.280488
   1 C :   -0.013154
   2 O :   -0.377009
   3 P :    0.595734
   4 S :   -0.303448
   5 O :   -0.347817
   6 C :   -0.000633
   7 C :   -0.307113
   8 S :   -0.119854
   9 C :   -0.351074
  10 S :   -0.099489
  11 P :    0.614884
  12 S :   -0.317659
  13 O :   -0.354843
  14 C :   -0.001113
  15 C :   -0.301753
  16 O :   -0.375045
  17 C :   -0.003336
  18 C :   -0.309163
  19 H :    0.114393
  20 H :    0.112885
  21 H :    0.121823
  22 H :    0.102161
  23 H :    0.107897
  24 H :    0.108389
  25 H :    0.115665
  26 H :    0.121381
  27 H :    0.112887
  28 H :    0.116212
  29 H :    0.182410
  30 H :    0.212920
  31 H :    0.101576
  32 H :    0.121873
  33 H :    0.111727
  34 H :    0.108886
  35 H :    0.118882
  36 H :    0.103199
  37 H :    0.109378
  38 H :    0.116392
  39 H :    0.111051
  40 H :    0.120389
Sum of atomic charges:   -0.0000000

LOEWDIN ATOMIC CHARGES
----------------------
   0 C :   -0.350292
   1 C :   -0.121706
   2 O :   -0.245424
   3 P :    0.564207
   4 S :   -0.294581
   5 O :   -0.226329
   6 C :   -0.112909
   7 C :   -0.367255
   8 S :    0.061432
   9 C :   -0.476744
  10 S :    0.089519
  11 P :    0.571350
  12 S :   -0.311350
  13 O :   -0.232614
  14 C :   -0.118592
  15 C :   -0.366013
  16 O :   -0.245545
  17 C :   -0.120273
  18 C :   -0.369231
  19 H :    0.125543
  20 H :    0.131385
  21 H :    0.129703
  22 H :    0.108400
  23 H :    0.109880
  24 H :    0.122639
  25 H :    0.103701
  26 H :    0.127666
  27 H :    0.131118
  28 H :    0.117004
  29 H :    0.136735
  30 H :    0.127849
  31 H :    0.118414
  32 H :    0.109506
  33 H :    0.123777
  34 H :    0.128899
  35 H :    0.120586
  36 H :    0.117638
  37 H :    0.109316
  38 H :    0.123261
  39 H :    0.129774
  40 H :    0.119558

  Mayer bond orders larger than 0.100000
B(  0-C ,  1-C ) :   1.1602 B(  0-C , 19-H ) :   0.9515 B(  0-C , 20-H ) :   0.9418
B(  0-C , 21-H ) :   0.9507 B(  1-C ,  2-O ) :   0.9033 B(  1-C , 22-H ) :   0.9294
B(  1-C , 23-H ) :   0.9070 B(  2-O ,  3-P ) :   1.0872 B(  3-P ,  4-S ) :   1.6460
B(  3-P ,  5-O ) :   1.1584 B(  3-P ,  8-S ) :   0.9347 B(  4-S ,  8-S ) :   0.1054
B(  5-O ,  6-C ) :   0.8950 B(  6-C ,  7-C ) :   1.1690 B(  6-C , 24-H ) :   0.9354
B(  6-C , 25-H ) :   0.9106 B(  7-C , 26-H ) :   0.9427 B(  7-C , 27-H ) :   0.9358
B(  7-C , 28-H ) :   0.9387 B(  8-S ,  9-C ) :   1.0065 B(  9-C , 10-S ) :   0.9927
B(  9-C , 29-H ) :   0.9111 B(  9-C , 30-H ) :   0.8470 B( 10-S , 11-P ) :   0.9560
B( 10-S , 12-S ) :   0.1136 B( 11-P , 12-S ) :   1.5971 B( 11-P , 13-O ) :   1.1489
B( 11-P , 16-O ) :   1.0958 B( 13-O , 14-C ) :   0.9037 B( 14-C , 15-C ) :   1.1576
B( 14-C , 31-H ) :   0.9362 B( 14-C , 32-H ) :   0.9138 B( 15-C , 33-H ) :   0.9446
B( 15-C , 34-H ) :   0.9393 B( 15-C , 35-H ) :   0.9377 B( 16-O , 17-C ) :   0.9124
B( 17-C , 18-C ) :   1.1674 B( 17-C , 36-H ) :   0.9340 B( 17-C , 37-H ) :   0.9141
B( 18-C , 38-H ) :   0.9441 B( 18-C , 39-H ) :   0.9381 B( 18-C , 40-H ) :   0.9370

Dispersion correction           -0.067528720
FINAL SINGLE POINT ENERGY     -2929.519547557150

DIPOLE MOMENT
-------------

Method             : SCF
Type of density    : Electron Density
Multiplicity       :   1
Irrep              :   0
Energy             : -2929.6378243375320380 Eh
Relativity type    :
Basis              : AO
                                X                 Y                 Z
Electronic contribution:     -3.099429077      -1.856296667      -8.632858077
Nuclear contribution   :      3.570697094       1.082390307       9.570937570
                        -----------------------------------------
Total Dipole Moment    :      0.471268016      -0.773906360       0.938079493
                        -----------------------------------------
Magnitude (a.u.)       :      1.304230705
Magnitude (Debye)      :      3.315090998

Rotational constants in cm-1:             0.013543             0.005061             0.004784
Rotational constants in MHz :           406.007618           151.716477           143.419502

                             ****ORCA TERMINATED NORMALLY****
TOTAL RUN TIME: 0 days 0 hours 0 minutes 21 seconds 542 msec
