                         Program Version 6.0.0  -   RELEASE  -
|  1> ! pbe def2-sv(p) def2/J RI DEFGRID1 loosescf d4 GCP(DFT/SV(P)) printgap
|  2> %output
|  3>     printlevel normal
|  4> end
|  5> * xyz 0 1
|  6> C 2.6745354883 -0.3590087595 3.3646203675
|  7> C 1.4050027924 -0.6851522073 2.6066815406
|  8> O 1.2921312007 0.0969939468 1.4021798396
|  9> P 2.2080819044 -0.1527070559 0.1348023155
| 10> S 2.8916171417 -1.9757323203 -0.1157812587
| 11> O 3.3180721432 0.9664565741 0.3312500366
| 12> C 4.5562081471 0.9655858798 -0.401317717
| 13> C 4.3490154277 1.2508242555 -1.8747887838
| 14> S 0.9490260846 0.6259078762 -1.3737733042
| 15> C 0.090227876 -0.9273286355 -1.7511474649
| 16> S -0.8387979139 -1.5917638642 -0.3434979244
| 17> P -2.1624541647 0.052913315 -0.1271954677
| 18> S -2.7353380122 0.8943820448 -1.8058005205
| 19> O -1.4172812955 0.9913039582 0.9025980618
| 20> C -1.3883278477 2.4252398795 0.7785279673
| 21> C -2.6668321396 3.0339052848 1.3147976749
| 22> O -3.2811597743 -0.538999045 0.8297594634
| 23> C -4.1733019191 -1.6045407556 0.4464849988
| 24> C -5.4108718131 -1.0683746312 -0.2470873173
| 25> H 2.6828439938 -0.9018930324 4.3045601999
| 26> H 3.5412979538 -0.6568354917 2.7754647231
| 27> H 2.732500284 0.7084799555 3.5600660063
| 28> H 0.5092133854 -0.4245504203 3.172607537
| 29> H 1.3740056122 -1.7460503735 2.3361323946
| 30> H 5.146173861 1.7456189117 0.0817148765
| 31> H 5.0380975935 -0.0076068929 -0.262988977
| 32> H 5.3142421849 1.3576464162 -2.3592937989
| 33> H 3.8089382273 0.4281272939 -2.3417459468
| 34> H 3.7745234012 2.1643507511 -2.0065997173
| 35> H 0.8159593862 -1.6912823597 -2.0275309779
| 36> H -0.5931427074 -0.7082830397 -2.5711018863
| 37> H -0.5130950176 2.7274102392 1.3557140985
| 38> H -1.2423420312 2.6890201482 -0.2745598592
| 39> H -2.5993159631 4.1161649032 1.2699083617
| 40> H -3.5092352029 2.7036817367 0.7082878146
| 41> H -2.8299343299 2.7206002983 2.3422702266
| 42> H -3.6361040557 -2.310332424 -0.1940480668
| 43> H -4.4273594586 -2.0921427197 1.3896832934
| 44> H -5.9210325822 -0.3566432065 0.3959800321
| 45> H -5.1401792636 -0.5693985891 -1.1748768217
| 46> H -6.0796026381 -1.8932084853 -0.4710750748
| 47> *
| 48>
| 49>                          ****END OF INPUT****

CARTESIAN COORDINATES (ANGSTROEM)
---------------------------------
  C      2.674535   -0.359009    3.364620
  C      1.405003   -0.685152    2.606682
  O      1.292131    0.096994    1.402180
  P      2.208082   -0.152707    0.134802
  S      2.891617   -1.975732   -0.115781
  O      3.318072    0.966457    0.331250
  C      4.556208    0.965586   -0.401318
  C      4.349015    1.250824   -1.874789
  S      0.949026    0.625908   -1.373773
  C      0.090228   -0.927329   -1.751147
  S     -0.838798   -1.591764   -0.343498
  P     -2.162454    0.052913   -0.127195
  S     -2.735338    0.894382   -1.805801
  O     -1.417281    0.991304    0.902598
  C     -1.388328    2.425240    0.778528
  C     -2.666832    3.033905    1.314798
  O     -3.281160   -0.538999    0.829759
  C     -4.173302   -1.604541    0.446485
  C     -5.410872   -1.068375   -0.247087
  H      2.682844   -0.901893    4.304560
  H      3.541298   -0.656835    2.775465
  H      2.732500    0.708480    3.560066
  H      0.509213   -0.424550    3.172608
  H      1.374006   -1.746050    2.336132
  H      5.146174    1.745619    0.081715
  H      5.038098   -0.007607   -0.262989
  H      5.314242    1.357646   -2.359294
  H      3.808938    0.428127   -2.341746
  H      3.774523    2.164351   -2.006600
  H      0.815959   -1.691282   -2.027531
  H     -0.593143   -0.708283   -2.571102
  H     -0.513095    2.727410    1.355714
  H     -1.242342    2.689020   -0.274560
  H     -2.599316    4.116165    1.269908
  H     -3.509235    2.703682    0.708288
  H     -2.829934    2.720600    2.342270
  H     -3.636104   -2.310332   -0.194048
  H     -4.427359   -2.092143    1.389683
  H     -5.921033   -0.356643    0.395980
  H     -5.140179   -0.569399   -1.174877
  H     -6.079603   -1.893208   -0.471075

 Total Charge           Charge          ....    0
 Multiplicity           Mult            ....    1
 Number of Electrons    NEL             ....  202
 Basis Dimension        Dim             ....  334

ORBITAL ENERGIES
----------------

  NO   OCC          E(Eh)            E(eV)
   0   2.0000     -88.043009     -2395.7721
   1   2.0000     -88.041207     -2395.7230
   2   2.0000     -87.990363     -2394.3395
   3   2.0000     -87.988922     -2394.3003
   4   2.0000     -76.426546     -2079.6720
   5   2.0000     -76.426250     -2079.6640
   6   2.0000     -18.795513      -511.4519
   7   2.0000     -18.794169      -511.4153
   8   2.0000     -18.786352      -511.2026
   9   2.0000     -18.786010      -511.1933
  10   2.0000      -9.955755      -270.9099
  11   2.0000      -9.954192      -270.8673
  12   2.0000      -9.954044      -270.8633
  13   2.0000      -9.947351      -270.6812
  14   2.0000      -9.945422      -270.6287
  15   2.0000      -9.885146      -268.9885
  16   2.0000      -9.882267      -268.9102
  17   2.0000      -9.881390      -268.8863
  18   2.0000      -9.879627      -268.8383
  19   2.0000      -7.687806      -209.1958
  20   2.0000      -7.686125      -209.1501
  21   2.0000      -7.635278      -207.7665
  22   2.0000      -7.633807      -207.7264
  23   2.0000      -6.424094      -174.8085
  24   2.0000      -6.423633      -174.7960
  25   2.0000      -5.715643      -155.5306
  26   2.0000      -5.713927      -155.4839
  27   2.0000      -5.712474      -155.4443
  28   2.0000      -5.710661      -155.3950
  29   2.0000      -5.704664      -155.2318
  30   2.0000      -5.703148      -155.1905
  31   2.0000      -5.664003      -154.1253
  32   2.0000      -5.662547      -154.0857
  33   2.0000      -5.655970      -153.9068
  34   2.0000      -5.655597      -153.8966
  35   2.0000      -5.654371      -153.8632
  36   2.0000      -5.654212      -153.8589
  37   2.0000      -4.646429      -126.4358
  38   2.0000      -4.645950      -126.4227
  39   2.0000      -4.645850      -126.4200
  40   2.0000      -4.645529      -126.4113
  41   2.0000      -4.644771      -126.3906
  42   2.0000      -4.644227      -126.3758
  43   2.0000      -0.987256       -26.8646
  44   2.0000      -0.985996       -26.8303
  45   2.0000      -0.945574       -25.7304
  46   2.0000      -0.943647       -25.6779
  47   2.0000      -0.764985       -20.8163
  48   2.0000      -0.720370       -19.6023
  49   2.0000      -0.707441       -19.2505
  50   2.0000      -0.686519       -18.6811
  51   2.0000      -0.683454       -18.5977
  52   2.0000      -0.673140       -18.3171
  53   2.0000      -0.652442       -17.7539
  54   2.0000      -0.640199       -17.4207
  55   2.0000      -0.602226       -16.3874
  56   2.0000      -0.594541       -16.1783
  57   2.0000      -0.571310       -15.5461
  58   2.0000      -0.568530       -15.4705
  59   2.0000      -0.561008       -15.2658
  60   2.0000      -0.500377       -13.6160
  61   2.0000      -0.491283       -13.3685
  62   2.0000      -0.474130       -12.9017
  63   2.0000      -0.472489       -12.8571
  64   2.0000      -0.454468       -12.3667
  65   2.0000      -0.440346       -11.9824
  66   2.0000      -0.439296       -11.9539
  67   2.0000      -0.437710       -11.9107
  68   2.0000      -0.425784       -11.5862
  69   2.0000      -0.412663       -11.2291
  70   2.0000      -0.404698       -11.0124
  71   2.0000      -0.396895       -10.8001
  72   2.0000      -0.391073       -10.6416
  73   2.0000      -0.387371       -10.5409
  74   2.0000      -0.384846       -10.4722
  75   2.0000      -0.376508       -10.2453
  76   2.0000      -0.370066       -10.0700
  77   2.0000      -0.357448        -9.7267
  78   2.0000      -0.351340        -9.5604
  79   2.0000      -0.348979        -9.4962
  80   2.0000      -0.347926        -9.4675
  81   2.0000      -0.346362        -9.4250
  82   2.0000      -0.340952        -9.2778
  83   2.0000      -0.335748        -9.1362
  84   2.0000      -0.331573        -9.0225
  85   2.0000      -0.322712        -8.7814
  86   2.0000      -0.308940        -8.4067
  87   2.0000      -0.297122        -8.0851
  88   2.0000      -0.296592        -8.0707
  89   2.0000      -0.285478        -7.7683
  90   2.0000      -0.281644        -7.6639
  91   2.0000      -0.276576        -7.5260
  92   2.0000      -0.268805        -7.3145
  93   2.0000      -0.265271        -7.2184
  94   2.0000      -0.256933        -6.9915
  95   2.0000      -0.232482        -6.3262
  96   2.0000      -0.218572        -5.9476
  97   2.0000      -0.215166        -5.8550
  98   2.0000      -0.209366        -5.6971
  99   2.0000      -0.201176        -5.4743
 100   2.0000      -0.200237        -5.4487
 101   0.0000      -0.045032        -1.2254
 102   0.0000      -0.023168        -0.6304
 103   0.0000      -0.001072        -0.0292
 104   0.0000       0.001410         0.0384
 105   0.0000       0.012345         0.3359

MULLIKEN ATOMIC CHARGES
-----------------------
   0 C :   -0.303925
   1 C :   -0.001353
   2 O :   -0.352429
   3 P :    0.614354
   4 S :   -0.338567
   5 O :   -0.370560
   6 C :   -0.004442
   7 C :   -0.315422
   8 S :   -0.077008
   9 C :   -0.358240
  10 S :   -0.084669
  11 P :    0.615001
  12 S :   -0.338353
  13 O :   -0.350421
  14 C :   -0.006786
  15 C :   -0.294410
  16 O :   -0.366222
  17 C :   -0.014013
  18 C :   -0.296401
  19 H :    0.111052
  20 H :    0.119730
  21 H :    0.114231
  22 H :    0.105431
  23 H :    0.111657
  24 H :    0.106052
  25 H :    0.111170
  26 H :    0.113831
  27 H :    0.126956
  28 H :    0.119063
  29 H :    0.189540
  30 H :    0.192378
  31 H :    0.102492
  32 H :    0.114038
  33 H :    0.109229
  34 H :    0.118970
  35 H :    0.112283
  36 H :    0.104967
  37 H :    0.108228
  38 H :    0.113852
  39 H :    0.130856
  40 H :    0.107858
Sum of atomic charges:    0.0000000

LOEWDIN ATOMIC CHARGES
----------------------
   0 C :   -0.364047
   1 C :   -0.117348
   2 O :   -0.231747
   3 P :    0.572863
   4 S :   -0.325600
   5 O :   -0.244159
   6 C :   -0.118863
   7 C :   -0.369273
   8 S :    0.099474
   9 C :   -0.480862
  10 S :    0.085324
  11 P :    0.570199
  12 S :   -0.319183
  13 O :   -0.227294
  14 C :   -0.120271
  15 C :   -0.362110
  16 O :   -0.242585
  17 C :   -0.116600
  18 C :   -0.364608
  19 H :    0.129738
  20 H :    0.121516
  21 H :    0.125167
  22 H :    0.118805
  23 H :    0.109640
  24 H :    0.119090
  25 H :    0.110694
  26 H :    0.131455
  27 H :    0.121264
  28 H :    0.124920
  29 H :    0.130286
  30 H :    0.130494
  31 H :    0.116788
  32 H :    0.106472
  33 H :    0.129053
  34 H :    0.122375
  35 H :    0.124354
  36 H :    0.105947
  37 H :    0.119456
  38 H :    0.126005
  39 H :    0.124261
  40 H :    0.128913

  Mayer bond orders larger than 0.100000
B(  0-C ,  1-C ) :   1.1625 B(  0-C , 19-H ) :   0.9402 B(  0-C , 20-H ) :   0.9375
B(  0-C , 21-H ) :   0.9466 B(  1-C ,  2-O ) :   0.9046 B(  1-C , 22-H ) :   0.9332
B(  1-C , 23-H ) :   0.9163 B(  2-O ,  3-P ) :   1.1344 B(  3-P ,  4-S ) :   1.5838
B(  3-P ,  5-O ) :   1.1131 B(  3-P ,  8-S ) :   0.9522 B(  4-S ,  8-S ) :   0.1078
B(  5-O ,  6-C ) :   0.9078 B(  6-C ,  7-C ) :   1.1661 B(  6-C , 24-H ) :   0.9340
B(  6-C , 25-H ) :   0.9164 B(  7-C , 26-H ) :   0.9378 B(  7-C , 27-H ) :   0.9355
B(  7-C , 28-H ) :   0.9446 B(  8-S ,  9-C ) :   1.0012 B(  9-C , 10-S ) :   1.0080
B(  9-C , 29-H ) :   0.8856 B(  9-C , 30-H ) :   0.8828 B( 10-S , 11-P ) :   0.9501
B( 10-S , 12-S ) :   0.1094 B( 11-P , 12-S ) :   1.5884 B( 11-P , 13-O ) :   1.1393
B( 11-P , 16-O ) :   1.1249 B( 13-O , 14-C ) :   0.8996 B( 14-C , 15-C ) :   1.1624
B( 14-C , 31-H ) :   0.9324 B( 14-C , 32-H ) :   0.9097 B( 15-C , 33-H ) :   0.9411
B( 15-C , 34-H ) :   0.9386 B( 15-C , 35-H ) :   0.9473 B( 16-O , 17-C ) :   0.9078
B( 17-C , 18-C ) :   1.1660 B( 17-C , 36-H ) :   0.9158 B( 17-C , 37-H ) :   0.9360
B( 18-C , 38-H ) :   0.9476 B( 18-C , 39-H ) :   0.9315 B( 18-C , 40-H ) :   0.9390

Dispersion correction           -0.066841365
FINAL SINGLE POINT ENERGY     -2929.527807595355

DIPOLE MOMENT
-------------

Method             : SCF
Type of density    : Electron Density
Multiplicity       :   1
Irrep              :   0
Energy             : -2929.6453512218249671 Eh
Relativity type    :
Basis              : AO
                                X                 Y                 Z
Electronic contribution:      1.812477872      -7.347238638      -8.779673383
Nuclear contribution   :     -1.694918742       7.678946147       9.539623632
                        -----------------------------------------
Total Dipole Moment    :      0.117559130       0.331707509       0.759950248
                        -----------------------------------------
Magnitude (a.u.)       :      0.837480985
Magnitude (Debye)      :      2.128707493

Rotational constants in cm-1:             0.013155             0.004898             0.004836
Rotational constants in MHz :           394.386430           146.829629           144.988844

                             ****ORCA TERMINATED NORMALLY****
TOTAL RUN TIME: 0 days 0 hours 0 minutes 20 seconds 900 msec
