                         Program Version 6.0.0  -   RELEASE  -
|  1> ! pbe def2-sv(p) def2/J RI DEFGRID1 loosescf d4 GCP(DFT/SV(P)) printgap
|  2> %output
|  3>     printlevel normal
|  4> end
|  5> * xyz 0 1
|  6> C 5.2728607769 0.408905332 -0.5125050282
|  7> C 3.9363065045 0.240203439 -1.2053429056
|  8> O 2.8752394888 0.8492669977 -0.4244839916
|  9> P 1.9640303585 0.0572260401 0.5883787623
| 10> S 0.9309808777 1.2444198717 1.7436117566
| 11> O 2.9988365692 -0.861342968 1.3754403318
| 12> C 2.6597146109 -1.5072357573 2.6132770267
| 13> C 1.7425945469 -2.6931302637 2.3940873643
| 14> S 0.9486859784 -1.3818272984 -0.6482750639
| 15> C 0.4783258664 -0.3136539917 -2.0368040568
| 16> S -0.4391994851 1.1716445415 -1.5541195618
| 17> P -2.1595728286 0.1557586099 -0.8675353882
| 18> S -2.7541499223 -1.380789248 -1.9151065402
| 19> O -3.2714560049 1.2827956831 -0.822683303
| 20> C -3.066319073 2.6671547225 -0.4593514138
| 21> C -2.716677919 2.8407302621 1.0037931625
| 22> O -1.7316500865 -0.1880442279 0.6314677731
| 23> C -2.2487225456 -1.3252115042 1.3415997034
| 24> C -3.7019278001 -1.1255956073 1.7180036629
| 25> H 5.2815576888 -0.1342310294 0.4283610199
| 26> H 6.0568928442 0.0232517303 -1.1568349517
| 27> H 5.4572754054 1.4608208296 -0.3123696658
| 28> H 3.7059262094 -0.8168369085 -1.3622173289
| 29> H 3.9170041117 0.7762916179 -2.1565334784
| 30> H 3.6217697586 -1.8145788992 3.025647104
| 31> H 2.1919160628 -0.7685376223 3.272690641
| 32> H 2.1867242017 -3.3906220423 1.6888904423
| 33> H 1.5697271416 -3.196038396 3.3399972862
| 34> H 0.7879087306 -2.3558259727 1.9919155723
| 35> H -0.1485334457 -0.9313410052 -2.6821312377
| 36> H 1.3634365652 0.0328835721 -2.5642164739
| 37> H -2.2812091069 3.0802006539 -1.0990833824
| 38> H -4.0226801347 3.1335028352 -0.7026189121
| 39> H -2.6520519334 3.9009464503 1.2279426802
| 40> H -3.4816250193 2.3896636903 1.630313042
| 41> H -1.7570849254 2.3783345092 1.2302910888
| 42> H -2.127677867 -2.2143380336 0.7135893401
| 43> H -1.6091631734 -1.3980228295 2.2231530817
| 44> H -3.811486295 -0.2420586511 2.3412828957
| 45> H -4.2985467659 -0.9985681068 0.8143538825
| 46> H -4.0580531394 -1.9962989092 2.2592919683
| 47> *
| 48>
| 49>                          ****END OF INPUT****

CARTESIAN COORDINATES (ANGSTROEM)
---------------------------------
  C      5.272861    0.408905   -0.512505
  C      3.936307    0.240203   -1.205343
  O      2.875239    0.849267   -0.424484
  P      1.964030    0.057226    0.588379
  S      0.930981    1.244420    1.743612
  O      2.998837   -0.861343    1.375440
  C      2.659715   -1.507236    2.613277
  C      1.742595   -2.693130    2.394087
  S      0.948686   -1.381827   -0.648275
  C      0.478326   -0.313654   -2.036804
  S     -0.439199    1.171645   -1.554120
  P     -2.159573    0.155759   -0.867535
  S     -2.754150   -1.380789   -1.915107
  O     -3.271456    1.282796   -0.822683
  C     -3.066319    2.667155   -0.459351
  C     -2.716678    2.840730    1.003793
  O     -1.731650   -0.188044    0.631468
  C     -2.248723   -1.325212    1.341600
  C     -3.701928   -1.125596    1.718004
  H      5.281558   -0.134231    0.428361
  H      6.056893    0.023252   -1.156835
  H      5.457275    1.460821   -0.312370
  H      3.705926   -0.816837   -1.362217
  H      3.917004    0.776292   -2.156533
  H      3.621770   -1.814579    3.025647
  H      2.191916   -0.768538    3.272691
  H      2.186724   -3.390622    1.688890
  H      1.569727   -3.196038    3.339997
  H      0.787909   -2.355826    1.991916
  H     -0.148533   -0.931341   -2.682131
  H      1.363437    0.032884   -2.564216
  H     -2.281209    3.080201   -1.099083
  H     -4.022680    3.133503   -0.702619
  H     -2.652052    3.900946    1.227943
  H     -3.481625    2.389664    1.630313
  H     -1.757085    2.378335    1.230291
  H     -2.127678   -2.214338    0.713589
  H     -1.609163   -1.398023    2.223153
  H     -3.811486   -0.242059    2.341283
  H     -4.298547   -0.998568    0.814354
  H     -4.058053   -1.996299    2.259292

 Total Charge           Charge          ....    0
 Multiplicity           Mult            ....    1
 Number of Electrons    NEL             ....  202
 Basis Dimension        Dim             ....  334

ORBITAL ENERGIES
----------------

  NO   OCC          E(Eh)            E(eV)
   0   2.0000     -88.041483     -2395.7306
   1   2.0000     -88.040079     -2395.6923
   2   2.0000     -87.982499     -2394.1255
   3   2.0000     -87.979819     -2394.0526
   4   2.0000     -76.427303     -2079.6926
   5   2.0000     -76.421180     -2079.5260
   6   2.0000     -18.796923      -511.4903
   7   2.0000     -18.795721      -511.4576
   8   2.0000     -18.789519      -511.2888
   9   2.0000     -18.781062      -511.0587
  10   2.0000      -9.962638      -271.0972
  11   2.0000      -9.958979      -270.9976
  12   2.0000      -9.956320      -270.9253
  13   2.0000      -9.955694      -270.9082
  14   2.0000      -9.943038      -270.5638
  15   2.0000      -9.890893      -269.1449
  16   2.0000      -9.890502      -269.1342
  17   2.0000      -9.880763      -268.8692
  18   2.0000      -9.878567      -268.8095
  19   2.0000      -7.685838      -209.1423
  20   2.0000      -7.685258      -209.1265
  21   2.0000      -7.627564      -207.5566
  22   2.0000      -7.625162      -207.4912
  23   2.0000      -6.424583      -174.8218
  24   2.0000      -6.418815      -174.6648
  25   2.0000      -5.713765      -155.4795
  26   2.0000      -5.713108      -155.4616
  27   2.0000      -5.710374      -155.3872
  28   2.0000      -5.709921      -155.3748
  29   2.0000      -5.702854      -155.1825
  30   2.0000      -5.702038      -155.1603
  31   2.0000      -5.656623      -153.9245
  32   2.0000      -5.654123      -153.8565
  33   2.0000      -5.648239      -153.6964
  34   2.0000      -5.647493      -153.6761
  35   2.0000      -5.646082      -153.6377
  36   2.0000      -5.644893      -153.6053
  37   2.0000      -4.647831      -126.4739
  38   2.0000      -4.646310      -126.4325
  39   2.0000      -4.644480      -126.3827
  40   2.0000      -4.641681      -126.3065
  41   2.0000      -4.640324      -126.2696
  42   2.0000      -4.639282      -126.2413
  43   2.0000      -0.992208       -26.9994
  44   2.0000      -0.978284       -26.6205
  45   2.0000      -0.950325       -25.8596
  46   2.0000      -0.939640       -25.5689
  47   2.0000      -0.763420       -20.7737
  48   2.0000      -0.721296       -19.6275
  49   2.0000      -0.709213       -19.2987
  50   2.0000      -0.695588       -18.9279
  51   2.0000      -0.686261       -18.6741
  52   2.0000      -0.671587       -18.2748
  53   2.0000      -0.650118       -17.6906
  54   2.0000      -0.637298       -17.3418
  55   2.0000      -0.596347       -16.2274
  56   2.0000      -0.589956       -16.0535
  57   2.0000      -0.580671       -15.8009
  58   2.0000      -0.572356       -15.5746
  59   2.0000      -0.561537       -15.2802
  60   2.0000      -0.507460       -13.8087
  61   2.0000      -0.491596       -13.3770
  62   2.0000      -0.481030       -13.0895
  63   2.0000      -0.471644       -12.8341
  64   2.0000      -0.459635       -12.5073
  65   2.0000      -0.449200       -12.2234
  66   2.0000      -0.440426       -11.9846
  67   2.0000      -0.433648       -11.8002
  68   2.0000      -0.426914       -11.6169
  69   2.0000      -0.418305       -11.3827
  70   2.0000      -0.406644       -11.0653
  71   2.0000      -0.399583       -10.8732
  72   2.0000      -0.388921       -10.5831
  73   2.0000      -0.385047       -10.4777
  74   2.0000      -0.381047       -10.3688
  75   2.0000      -0.374553       -10.1921
  76   2.0000      -0.367477        -9.9996
  77   2.0000      -0.362536        -9.8651
  78   2.0000      -0.358688        -9.7604
  79   2.0000      -0.352311        -9.5869
  80   2.0000      -0.347846        -9.4654
  81   2.0000      -0.345396        -9.3987
  82   2.0000      -0.342353        -9.3159
  83   2.0000      -0.340826        -9.2743
  84   2.0000      -0.329916        -8.9775
  85   2.0000      -0.321895        -8.7592
  86   2.0000      -0.310480        -8.4486
  87   2.0000      -0.303113        -8.2481
  88   2.0000      -0.301803        -8.2125
  89   2.0000      -0.294470        -8.0129
  90   2.0000      -0.277026        -7.5383
  91   2.0000      -0.271017        -7.3747
  92   2.0000      -0.269368        -7.3299
  93   2.0000      -0.263737        -7.1766
  94   2.0000      -0.260948        -7.1008
  95   2.0000      -0.231012        -6.2862
  96   2.0000      -0.219865        -5.9828
  97   2.0000      -0.206100        -5.6083
  98   2.0000      -0.198205        -5.3934
  99   2.0000      -0.193360        -5.2616
 100   2.0000      -0.189350        -5.1525
 101   0.0000      -0.049438        -1.3453
 102   0.0000      -0.020056        -0.5457
 103   0.0000      -0.013733        -0.3737
 104   0.0000       0.004523         0.1231
 105   0.0000       0.015519         0.4223

MULLIKEN ATOMIC CHARGES
-----------------------
   0 C :   -0.280254
   1 C :   -0.032229
   2 O :   -0.363822
   3 P :    0.604908
   4 S :   -0.290913
   5 O :   -0.380435
   6 C :   -0.003316
   7 C :   -0.342854
   8 S :   -0.107899
   9 C :   -0.340775
  10 S :   -0.101250
  11 P :    0.630821
  12 S :   -0.328006
  13 O :   -0.370359
  14 C :   -0.025804
  15 C :   -0.332520
  16 O :   -0.363709
  17 C :   -0.023959
  18 C :   -0.305285
  19 H :    0.124450
  20 H :    0.109988
  21 H :    0.121696
  22 H :    0.106930
  23 H :    0.112134
  24 H :    0.105518
  25 H :    0.110701
  26 H :    0.120859
  27 H :    0.116920
  28 H :    0.150226
  29 H :    0.193445
  30 H :    0.184510
  31 H :    0.121966
  32 H :    0.112616
  33 H :    0.111116
  34 H :    0.119793
  35 H :    0.159196
  36 H :    0.111560
  37 H :    0.111820
  38 H :    0.116833
  39 H :    0.126924
  40 H :    0.108458
Sum of atomic charges:   -0.0000000

LOEWDIN ATOMIC CHARGES
----------------------
   0 C :   -0.357166
   1 C :   -0.117512
   2 O :   -0.238591
   3 P :    0.567182
   4 S :   -0.293689
   5 O :   -0.247738
   6 C :   -0.120470
   7 C :   -0.371193
   8 S :    0.069615
   9 C :   -0.477380
  10 S :    0.086810
  11 P :    0.574520
  12 S :   -0.318823
  13 O :   -0.242171
  14 C :   -0.114504
  15 C :   -0.370287
  16 O :   -0.239111
  17 C :   -0.124325
  18 C :   -0.364983
  19 H :    0.127829
  20 H :    0.130227
  21 H :    0.129917
  22 H :    0.107440
  23 H :    0.118713
  24 H :    0.118533
  25 H :    0.109787
  26 H :    0.126892
  27 H :    0.133148
  28 H :    0.121944
  29 H :    0.132161
  30 H :    0.129115
  31 H :    0.108589
  32 H :    0.122904
  33 H :    0.131197
  34 H :    0.125189
  35 H :    0.127391
  36 H :    0.107517
  37 H :    0.114692
  38 H :    0.122879
  39 H :    0.124454
  40 H :    0.129300

  Mayer bond orders larger than 0.100000
B(  0-C ,  1-C ) :   1.1694 B(  0-C , 19-H ) :   0.9414 B(  0-C , 20-H ) :   0.9389
B(  0-C , 21-H ) :   0.9468 B(  1-C ,  2-O ) :   0.8920 B(  1-C , 22-H ) :   0.9089
B(  1-C , 23-H ) :   0.9304 B(  2-O ,  3-P ) :   1.1203 B(  3-P ,  4-S ) :   1.6794
B(  3-P ,  5-O ) :   1.0656 B(  3-P ,  8-S ) :   0.9387 B(  4-S ,  8-S ) :   0.1098
B(  5-O ,  6-C ) :   0.9116 B(  6-C ,  7-C ) :   1.1640 B(  6-C , 24-H ) :   0.9322
B(  6-C , 25-H ) :   0.9101 B(  7-C , 26-H ) :   0.9432 B(  7-C , 27-H ) :   0.9385
B(  7-C , 28-H ) :   0.9246 B(  8-S ,  9-C ) :   0.9966 B(  9-C , 10-S ) :   1.0201
B(  9-C , 29-H ) :   0.8767 B(  9-C , 30-H ) :   0.9009 B( 10-S , 11-P ) :   0.9517
B( 11-P , 12-S ) :   1.6179 B( 11-P , 13-O ) :   1.1268 B( 11-P , 16-O ) :   1.0961
B( 13-O , 14-C ) :   0.9062 B( 14-C , 15-C ) :   1.1639 B( 14-C , 31-H ) :   0.9175
B( 14-C , 32-H ) :   0.9347 B( 15-C , 33-H ) :   0.9352 B( 15-C , 34-H ) :   0.9414
B( 15-C , 35-H ) :   0.9251 B( 16-O , 17-C ) :   0.9082 B( 17-C , 18-C ) :   1.1609
B( 17-C , 36-H ) :   0.9125 B( 17-C , 37-H ) :   0.9204 B( 18-C , 38-H ) :   0.9424
B( 18-C , 39-H ) :   0.9336 B( 18-C , 40-H ) :   0.9397

Dispersion correction           -0.068022912
FINAL SINGLE POINT ENERGY     -2929.514194114841

DIPOLE MOMENT
-------------

Method             : SCF
Type of density    : Electron Density
Multiplicity       :   1
Irrep              :   0
Energy             : -2929.6322324106408814 Eh
Relativity type    :
Basis              : AO
                                X                 Y                 Z
Electronic contribution:     -4.542801487       2.943967144     -13.080371038
Nuclear contribution   :      5.753378389      -3.055121469      13.606136961
                        -----------------------------------------
Total Dipole Moment    :      1.210576902      -0.111154326       0.525765923
                        -----------------------------------------
Magnitude (a.u.)       :      1.324492932
Magnitude (Debye)      :      3.366593485

Rotational constants in cm-1:             0.012029             0.005476             0.005217
Rotational constants in MHz :           360.607247           164.151657           156.404604

                             ****ORCA TERMINATED NORMALLY****
TOTAL RUN TIME: 0 days 0 hours 0 minutes 21 seconds 727 msec
