                         Program Version 6.0.0  -   RELEASE  -
|  1> ! r2scan-3c def2/J RI DEFGRID2 scfconv6 printgap
|  2> %output
|  3>     printlevel normal
|  4> end
|  5> * xyz 0 1
|  6> C -3.0786976663 0.3751688244 0.0053677299
|  7> C -1.6169488716 0.045498065 -0.0043313764
|  8> C -1.1903683439 -1.2772301371 -0.0029312183
|  9> C 0.158209531 -1.5784840307 -0.0003523726
| 10> C 1.1269992141 -0.5849791135 0.0007640991
| 11> C 0.697029971 0.7443672192 -0.000426087
| 12> C -0.6596437289 1.0462521129 -0.0027470086
| 13> O 1.5677692864 1.796986733 -0.0004324571
| 14> C 2.5905787848 -0.926913394 0.0020581822
| 15> H -3.5110499544 0.1254026597 0.973597755
| 16> H -3.2384488995 1.4334511123 -0.1811434529
| 17> H -3.6038804512 -0.2015133651 -0.7531959967
| 18> H -1.9192554672 -2.0739139979 -0.0043297302
| 19> H 0.47141959 -2.6126644617 5.83525e-05
| 20> H -0.9451382585 2.0875813487 -0.0041048828
| 21> H 2.4813598276 1.4765699797 -0.0002144804
| 22> H 3.0852834068 -0.5307272698 -0.8850406634
| 23> H 3.0845260244 -0.5273278849 0.8880659748
| 24> H 2.7184867407 -2.0056551914 0.0041325577
| 25> *
| 26>
| 27>                          ****END OF INPUT****

CARTESIAN COORDINATES (ANGSTROEM)
---------------------------------
  C     -3.078698    0.375169    0.005368
  C     -1.616949    0.045498   -0.004331
  C     -1.190368   -1.277230   -0.002931
  C      0.158210   -1.578484   -0.000352
  C      1.126999   -0.584979    0.000764
  C      0.697030    0.744367   -0.000426
  C     -0.659644    1.046252   -0.002747
  O      1.567769    1.796987   -0.000432
  C      2.590579   -0.926913    0.002058
  H     -3.511050    0.125403    0.973598
  H     -3.238449    1.433451   -0.181143
  H     -3.603880   -0.201513   -0.753196
  H     -1.919255   -2.073914   -0.004330
  H      0.471420   -2.612664    0.000058
  H     -0.945138    2.087581   -0.004105
  H      2.481360    1.476570   -0.000214
  H      3.085283   -0.530727   -0.885041
  H      3.084526   -0.527328    0.888066
  H      2.718487   -2.005655    0.004133

 Total Charge           Charge          ....    0
 Multiplicity           Mult            ....    1
 Number of Electrons    NEL             ....   66
 Basis Dimension        Dim             ....  226

ORBITAL ENERGIES
----------------

  NO   OCC          E(Eh)            E(eV)
   0   2.0000     -18.982257      -516.5335
   1   2.0000     -10.089285      -274.5434
   2   2.0000     -10.039547      -273.1900
   3   2.0000     -10.037908      -273.1454
   4   2.0000     -10.037619      -273.1375
   5   2.0000     -10.029198      -272.9084
   6   2.0000     -10.023742      -272.7599
   7   2.0000     -10.021401      -272.6962
   8   2.0000     -10.018580      -272.6194
   9   2.0000      -1.024712       -27.8838
  10   2.0000      -0.823158       -22.3993
  11   2.0000      -0.756507       -20.5856
  12   2.0000      -0.705937       -19.2095
  13   2.0000      -0.693552       -18.8725
  14   2.0000      -0.625917       -17.0321
  15   2.0000      -0.573548       -15.6070
  16   2.0000      -0.567623       -15.4458
  17   2.0000      -0.488479       -13.2922
  18   2.0000      -0.458290       -12.4707
  19   2.0000      -0.439326       -11.9547
  20   2.0000      -0.410011       -11.1570
  21   2.0000      -0.402113       -10.9420
  22   2.0000      -0.388130       -10.5616
  23   2.0000      -0.376776       -10.2526
  24   2.0000      -0.367608       -10.0031
  25   2.0000      -0.360653        -9.8139
  26   2.0000      -0.358893        -9.7660
  27   2.0000      -0.337872        -9.1940
  28   2.0000      -0.317683        -8.6446
  29   2.0000      -0.300218        -8.1693
  30   2.0000      -0.298458        -8.1215
  31   2.0000      -0.221141        -6.0176
  32   2.0000      -0.197048        -5.3620
  33   0.0000      -0.021536        -0.5860
  34   0.0000      -0.013352        -0.3633
  35   0.0000       0.049437         1.3453
  36   0.0000       0.082500         2.2449
  37   0.0000       0.100977         2.7477

MULLIKEN ATOMIC CHARGES
-----------------------
   0 C :   -0.537967
   1 C :    0.266350
   2 C :   -0.252656
   3 C :   -0.192252
   4 C :    0.038721
   5 C :    0.368813
   6 C :   -0.387176
   7 O :   -0.423079
   8 C :   -0.618275
   9 H :    0.164740
  10 H :    0.151604
  11 H :    0.155091
  12 H :    0.144067
  13 H :    0.143268
  14 H :    0.155066
  15 H :    0.326457
  16 H :    0.168590
  17 H :    0.168262
  18 H :    0.160375
Sum of atomic charges:   -0.0000000

LOEWDIN ATOMIC CHARGES
----------------------
   0 C :   -0.388653
   1 C :   -0.092502
   2 C :   -0.186852
   3 C :   -0.151561
   4 C :   -0.111158
   5 C :    0.192188
   6 C :   -0.141543
   7 O :   -0.500525
   8 C :   -0.393428
   9 H :    0.165270
  10 H :    0.159142
  11 H :    0.163083
  12 H :    0.167786
  13 H :    0.166947
  14 H :    0.180200
  15 H :    0.284541
  16 H :    0.160056
  17 H :    0.160022
  18 H :    0.166986

  Mayer bond orders larger than 0.100000
B(  0-C ,  1-C ) :   0.7731 B(  0-C ,  9-H ) :   0.9725 B(  0-C , 10-H ) :   0.9958
B(  0-C , 11-H ) :   0.9834 B(  1-C ,  2-C ) :   1.3779 B(  1-C ,  6-C ) :   1.3923
B(  2-C ,  3-C ) :   1.4879 B(  2-C , 12-H ) :   0.9446 B(  3-C ,  4-C ) :   1.3724
B(  3-C , 13-H ) :   0.9269 B(  4-C ,  5-C ) :   1.4323 B(  4-C ,  8-C ) :   0.7565
B(  5-C ,  6-C ) :   1.4518 B(  5-C ,  7-O ) :   0.9457 B(  6-C , 14-H ) :   0.9266
B(  7-O , 15-H ) :   0.8661 B(  8-C , 16-H ) :   0.9828 B(  8-C , 17-H ) :   0.9821
B(  8-C , 18-H ) :   0.9739

Dispersion correction           -0.006153893
FINAL SINGLE POINT ENERGY      -386.005606395936

DIPOLE MOMENT
-------------

Method             : SCF
Type of density    : Electron Density
Multiplicity       :   1
Irrep              :   0
Energy             :  -386.0067857325343539 Eh
Relativity type    :
Basis              : AO
                                X                 Y                 Z
Electronic contribution:      1.649857072       2.273063355      -0.024361355
Nuclear contribution   :     -1.268340042      -2.627257481       0.035480230
                        -----------------------------------------
Total Dipole Moment    :      0.381517030      -0.354194127       0.011118874
                        -----------------------------------------
Magnitude (a.u.)       :      0.520703710
Magnitude (Debye)      :      1.323523648

Rotational constants in cm-1:             0.102283             0.043701             0.030973
Rotational constants in MHz :          3066.357263          1310.131584           928.545859

                             ****ORCA TERMINATED NORMALLY****
TOTAL RUN TIME: 0 days 0 hours 0 minutes 30 seconds 533 msec
