                         Program Version 6.0.0  -   RELEASE  -
|  1> ! r2scan-3c def2/J RI DEFGRID2 scfconv6 printgap
|  2> %output
|  3>     printlevel normal
|  4> end
|  5> %cpcm
|  6>     smd true
|  7>     smdsolvent "water"
|  8> end
|  9> * xyz 0 1
| 10> C -3.0786976663 0.3751688244 0.0053677299
| 11> C -1.6169488716 0.045498065 -0.0043313764
| 12> C -1.1903683439 -1.2772301371 -0.0029312183
| 13> C 0.158209531 -1.5784840307 -0.0003523726
| 14> C 1.1269992141 -0.5849791135 0.0007640991
| 15> C 0.697029971 0.7443672192 -0.000426087
| 16> C -0.6596437289 1.0462521129 -0.0027470086
| 17> O 1.5677692864 1.796986733 -0.0004324571
| 18> C 2.5905787848 -0.926913394 0.0020581822
| 19> H -3.5110499544 0.1254026597 0.973597755
| 20> H -3.2384488995 1.4334511123 -0.1811434529
| 21> H -3.6038804512 -0.2015133651 -0.7531959967
| 22> H -1.9192554672 -2.0739139979 -0.0043297302
| 23> H 0.47141959 -2.6126644617 5.83525e-05
| 24> H -0.9451382585 2.0875813487 -0.0041048828
| 25> H 2.4813598276 1.4765699797 -0.0002144804
| 26> H 3.0852834068 -0.5307272698 -0.8850406634
| 27> H 3.0845260244 -0.5273278849 0.8880659748
| 28> H 2.7184867407 -2.0056551914 0.0041325577
| 29> *
| 30>
| 31>                          ****END OF INPUT****

CARTESIAN COORDINATES (ANGSTROEM)
---------------------------------
  C     -3.078698    0.375169    0.005368
  C     -1.616949    0.045498   -0.004331
  C     -1.190368   -1.277230   -0.002931
  C      0.158210   -1.578484   -0.000352
  C      1.126999   -0.584979    0.000764
  C      0.697030    0.744367   -0.000426
  C     -0.659644    1.046252   -0.002747
  O      1.567769    1.796987   -0.000432
  C      2.590579   -0.926913    0.002058
  H     -3.511050    0.125403    0.973598
  H     -3.238449    1.433451   -0.181143
  H     -3.603880   -0.201513   -0.753196
  H     -1.919255   -2.073914   -0.004330
  H      0.471420   -2.612664    0.000058
  H     -0.945138    2.087581   -0.004105
  H      2.481360    1.476570   -0.000214
  H      3.085283   -0.530727   -0.885041
  H      3.084526   -0.527328    0.888066
  H      2.718487   -2.005655    0.004133

 Total Charge           Charge          ....    0
 Multiplicity           Mult            ....    1
 Number of Electrons    NEL             ....   66
 Basis Dimension        Dim             ....  226

ORBITAL ENERGIES
----------------

  NO   OCC          E(Eh)            E(eV)
   0   2.0000     -18.982366      -516.5364
   1   2.0000     -10.091261      -274.5972
   2   2.0000     -10.039611      -273.1917
   3   2.0000     -10.036967      -273.1198
   4   2.0000     -10.028399      -272.8866
   5   2.0000     -10.023537      -272.7543
   6   2.0000     -10.022729      -272.7323
   7   2.0000     -10.019241      -272.6374
   8   2.0000     -10.017327      -272.5853
   9   2.0000      -1.024790       -27.8860
  10   2.0000      -0.824976       -22.4487
  11   2.0000      -0.752945       -20.4887
  12   2.0000      -0.707536       -19.2530
  13   2.0000      -0.686141       -18.6708
  14   2.0000      -0.620042       -16.8722
  15   2.0000      -0.572901       -15.5894
  16   2.0000      -0.565872       -15.3982
  17   2.0000      -0.485219       -13.2035
  18   2.0000      -0.456712       -12.4278
  19   2.0000      -0.437286       -11.8992
  20   2.0000      -0.403807       -10.9881
  21   2.0000      -0.399517       -10.8714
  22   2.0000      -0.381879       -10.3915
  23   2.0000      -0.367703       -10.0057
  24   2.0000      -0.362815        -9.8727
  25   2.0000      -0.356883        -9.7113
  26   2.0000      -0.356376        -9.6975
  27   2.0000      -0.333505        -9.0751
  28   2.0000      -0.314268        -8.5517
  29   2.0000      -0.301514        -8.2046
  30   2.0000      -0.298608        -8.1255
  31   2.0000      -0.224793        -6.1169
  32   2.0000      -0.200362        -5.4521
  33   0.0000      -0.024757        -0.6737
  34   0.0000      -0.016185        -0.4404
  35   0.0000       0.069598         1.8939
  36   0.0000       0.089813         2.4439
  37   0.0000       0.106600         2.9007

MULLIKEN ATOMIC CHARGES
-----------------------
   0 C :   -0.555362
   1 C :    0.218651
   2 C :   -0.280185
   3 C :   -0.235669
   4 C :    0.016781
   5 C :    0.354720
   6 C :   -0.416673
   7 O :   -0.471721
   8 C :   -0.618172
   9 H :    0.179662
  10 H :    0.170058
  11 H :    0.171220
  12 H :    0.172936
  13 H :    0.176359
  14 H :    0.181077
  15 H :    0.381404
  16 H :    0.188429
  17 H :    0.188209
  18 H :    0.178277
Sum of atomic charges:   -0.0000000

LOEWDIN ATOMIC CHARGES
----------------------
   0 C :   -0.393776
   1 C :   -0.103504
   2 C :   -0.201321
   3 C :   -0.163447
   4 C :   -0.110253
   5 C :    0.178613
   6 C :   -0.159796
   7 O :   -0.518727
   8 C :   -0.393511
   9 H :    0.170976
  10 H :    0.164801
  11 H :    0.168968
  12 H :    0.177521
  13 H :    0.179132
  14 H :    0.188071
  15 H :    0.303619
  16 H :    0.170647
  17 H :    0.170639
  18 H :    0.171347

  Mayer bond orders larger than 0.100000
B(  0-C ,  1-C ) :   0.7916 B(  0-C ,  9-H ) :   0.9653 B(  0-C , 10-H ) :   0.9906
B(  0-C , 11-H ) :   0.9757 B(  1-C ,  2-C ) :   1.3408 B(  1-C ,  6-C ) :   1.3789
B(  2-C ,  3-C ) :   1.4350 B(  2-C , 12-H ) :   0.9611 B(  3-C ,  4-C ) :   1.3505
B(  3-C , 13-H ) :   0.9495 B(  4-C ,  5-C ) :   1.3896 B(  4-C ,  8-C ) :   0.8044
B(  5-C ,  6-C ) :   1.3908 B(  5-C ,  7-O ) :   0.9414 B(  6-C , 14-H ) :   0.9469
B(  7-O , 15-H ) :   0.8379 B(  8-C , 16-H ) :   0.9699 B(  8-C , 17-H ) :   0.9693
B(  8-C , 18-H ) :   0.9720

Dispersion correction           -0.006153893
FINAL SINGLE POINT ENERGY      -386.013541316482

DIPOLE MOMENT
-------------

Method             : SCF
Type of density    : Electron Density
Multiplicity       :   1
Irrep              :   0
Energy             :  -386.0147206530803601 Eh
Relativity type    :
Basis              : AO
                                X                 Y                 Z
Electronic contribution:      1.869058045       2.124401385      -0.019693042
Nuclear contribution   :     -1.268340042      -2.627257481       0.035480230
                        -----------------------------------------
Total Dipole Moment    :      0.600718004      -0.502856096       0.015787188
                        -----------------------------------------
Magnitude (a.u.)       :      0.783565957
Magnitude (Debye)      :      1.991666382

Rotational constants in cm-1:             0.102283             0.043701             0.030973
Rotational constants in MHz :          3066.357263          1310.131584           928.545859

                             ****ORCA TERMINATED NORMALLY****
TOTAL RUN TIME: 0 days 0 hours 0 minutes 35 seconds 223 msec
