                         Program Version 6.0.0  -   RELEASE  -
|  1> ! pbe def2-sv(p) def2/J RI DEFGRID1 loosescf d4 GCP(DFT/SV(P)) printgap
|  2> %output
|  3>     printlevel normal
|  4> end
|  5> * xyz 0 1
|  6> C 5.4130822792 -1.2443404182 -1.4143281477
|  7> C 3.9799150451 -1.5310946234 -1.0145967494
|  8> O 3.1682169563 -0.3970599023 -1.4088603141
|  9> P 1.8663396151 0.0557515137 -0.6190758043
| 10> S 1.2473782576 1.7224794008 -1.4288634481
| 11> O 2.2340884986 0.0732076456 0.9362601949
| 12> C 2.6704158069 1.2787883253 1.5907571269
| 13> C 4.0785399734 1.6519422595 1.1788049511
| 14> S 0.7459881803 -1.7406398367 -0.6808232314
| 15> C -0.1486768781 -1.8418988537 0.9126122126
| 16> S -1.9419808589 -1.7267041256 0.7284518946
| 17> P -2.0148966804 0.366675693 0.3882409937
| 18> S -0.7979106167 1.4212217637 1.5009110669
| 19> O -3.5450671889 0.7576221644 0.5384748491
| 20> C -4.1385065452 1.1044426411 1.802871739
| 21> C -4.1848416749 -0.0689467726 2.7600352317
| 22> O -1.7409747304 0.5745787679 -1.1492752661
| 23> C -2.213151002 -0.2490869026 -2.2434411414
| 24> C -3.7169095649 -0.4096512307 -2.2556080621
| 25> H 5.4672857743 -1.0582189071 -2.4830163365
| 26> H 5.7855969115 -0.3683181905 -0.8904553365
| 27> H 6.029767652 -2.1020892178 -1.1659049554
| 28> H 3.8858320917 -1.6778528276 0.0645965526
| 29> H 3.5899874993 -2.4087265333 -1.5350860165
| 30> H 1.9657885699 2.0812951132 1.3503867011
| 31> H 2.5986801931 1.043832954 2.6537435797
| 32> H 4.382527293 2.5452155972 1.715168701
| 33> H 4.7672510094 0.842265625 1.4067796073
| 34> H 4.1033624541 1.8568479839 0.1084459159
| 35> H 0.2010470256 -1.0437225967 1.567675798
| 36> H 0.0587159292 -2.825109601 1.3253956159
| 37> H -3.5689345966 1.9325628773 2.2362682167
| 38> H -5.1388858233 1.4449714133 1.5321251974
| 39> H -4.7624786449 0.2092495839 3.6356709648
| 40> H -4.644413384 -0.9305668901 2.2827660778
| 41> H -3.176752424 -0.3346753077 3.0733742707
| 42> H -1.851066074 0.2864866739 -3.1229767765
| 43> H -1.7146014929 -1.2213785305 -2.1789345701
| 44> H -4.1992456414 0.5642563854 -2.2415111333
| 45> H -4.0042809481 -0.9412744612 -3.1575445084
| 46> H -4.043197096 -0.9792751893 -1.387816999
| 47> *
| 48>
| 49>                          ****END OF INPUT****

CARTESIAN COORDINATES (ANGSTROEM)
---------------------------------
  C      5.413082   -1.244340   -1.414328
  C      3.979915   -1.531095   -1.014597
  O      3.168217   -0.397060   -1.408860
  P      1.866340    0.055752   -0.619076
  S      1.247378    1.722479   -1.428863
  O      2.234088    0.073208    0.936260
  C      2.670416    1.278788    1.590757
  C      4.078540    1.651942    1.178805
  S      0.745988   -1.740640   -0.680823
  C     -0.148677   -1.841899    0.912612
  S     -1.941981   -1.726704    0.728452
  P     -2.014897    0.366676    0.388241
  S     -0.797911    1.421222    1.500911
  O     -3.545067    0.757622    0.538475
  C     -4.138507    1.104443    1.802872
  C     -4.184842   -0.068947    2.760035
  O     -1.740975    0.574579   -1.149275
  C     -2.213151   -0.249087   -2.243441
  C     -3.716910   -0.409651   -2.255608
  H      5.467286   -1.058219   -2.483016
  H      5.785597   -0.368318   -0.890455
  H      6.029768   -2.102089   -1.165905
  H      3.885832   -1.677853    0.064597
  H      3.589987   -2.408727   -1.535086
  H      1.965789    2.081295    1.350387
  H      2.598680    1.043833    2.653744
  H      4.382527    2.545216    1.715169
  H      4.767251    0.842266    1.406780
  H      4.103362    1.856848    0.108446
  H      0.201047   -1.043723    1.567676
  H      0.058716   -2.825110    1.325396
  H     -3.568935    1.932563    2.236268
  H     -5.138886    1.444971    1.532125
  H     -4.762479    0.209250    3.635671
  H     -4.644413   -0.930567    2.282766
  H     -3.176752   -0.334675    3.073374
  H     -1.851066    0.286487   -3.122977
  H     -1.714601   -1.221379   -2.178935
  H     -4.199246    0.564256   -2.241511
  H     -4.004281   -0.941274   -3.157545
  H     -4.043197   -0.979275   -1.387817

 Total Charge           Charge          ....    0
 Multiplicity           Mult            ....    1
 Number of Electrons    NEL             ....  202
 Basis Dimension        Dim             ....  334

ORBITAL ENERGIES
----------------

  NO   OCC          E(Eh)            E(eV)
   0   2.0000     -88.045576     -2395.8419
   1   2.0000     -88.039188     -2395.6681
   2   2.0000     -87.981731     -2394.1046
   3   2.0000     -87.968969     -2393.7573
   4   2.0000     -76.424460     -2079.6153
   5   2.0000     -76.415783     -2079.3792
   6   2.0000     -18.792430      -511.3680
   7   2.0000     -18.787480      -511.2333
   8   2.0000     -18.782973      -511.1107
   9   2.0000     -18.782573      -511.0998
  10   2.0000      -9.958618      -270.9878
  11   2.0000      -9.953035      -270.8359
  12   2.0000      -9.950558      -270.7685
  13   2.0000      -9.946685      -270.6631
  14   2.0000      -9.944025      -270.5907
  15   2.0000      -9.887603      -269.0553
  16   2.0000      -9.885405      -268.9955
  17   2.0000      -9.882820      -268.9252
  18   2.0000      -9.881452      -268.8880
  19   2.0000      -7.690619      -209.2724
  20   2.0000      -7.684264      -209.0995
  21   2.0000      -7.626686      -207.5327
  22   2.0000      -7.614257      -207.1945
  23   2.0000      -6.421742      -174.7445
  24   2.0000      -6.413453      -174.5189
  25   2.0000      -5.718345      -155.6041
  26   2.0000      -5.715050      -155.5144
  27   2.0000      -5.712474      -155.4443
  28   2.0000      -5.708364      -155.3325
  29   2.0000      -5.707809      -155.3174
  30   2.0000      -5.701262      -155.1392
  31   2.0000      -5.655555      -153.8955
  32   2.0000      -5.647356      -153.6724
  33   2.0000      -5.646789      -153.6569
  34   2.0000      -5.643517      -153.5679
  35   2.0000      -5.634912      -153.3337
  36   2.0000      -5.634008      -153.3091
  37   2.0000      -4.644473      -126.3825
  38   2.0000      -4.643622      -126.3594
  39   2.0000      -4.641994      -126.3151
  40   2.0000      -4.636462      -126.1645
  41   2.0000      -4.635173      -126.1295
  42   2.0000      -4.633555      -126.0855
  43   2.0000      -0.983879       -26.7727
  44   2.0000      -0.977893       -26.6098
  45   2.0000      -0.941319       -25.6146
  46   2.0000      -0.937794       -25.5187
  47   2.0000      -0.761654       -20.7256
  48   2.0000      -0.717836       -19.5333
  49   2.0000      -0.708155       -19.2699
  50   2.0000      -0.688457       -18.7339
  51   2.0000      -0.687578       -18.7099
  52   2.0000      -0.671981       -18.2855
  53   2.0000      -0.647081       -17.6080
  54   2.0000      -0.630709       -17.1625
  55   2.0000      -0.597893       -16.2695
  56   2.0000      -0.582198       -15.8424
  57   2.0000      -0.573068       -15.5940
  58   2.0000      -0.566106       -15.4045
  59   2.0000      -0.563572       -15.3356
  60   2.0000      -0.499643       -13.5960
  61   2.0000      -0.489370       -13.3164
  62   2.0000      -0.474784       -12.9195
  63   2.0000      -0.467802       -12.7295
  64   2.0000      -0.452275       -12.3070
  65   2.0000      -0.444205       -12.0874
  66   2.0000      -0.441426       -12.0118
  67   2.0000      -0.436123       -11.8675
  68   2.0000      -0.427599       -11.6356
  69   2.0000      -0.415913       -11.3176
  70   2.0000      -0.406487       -11.0611
  71   2.0000      -0.395079       -10.7506
  72   2.0000      -0.392223       -10.6729
  73   2.0000      -0.386959       -10.5297
  74   2.0000      -0.379981       -10.3398
  75   2.0000      -0.367575       -10.0022
  76   2.0000      -0.363859        -9.9011
  77   2.0000      -0.357112        -9.7175
  78   2.0000      -0.355143        -9.6639
  79   2.0000      -0.348796        -9.4912
  80   2.0000      -0.343991        -9.3605
  81   2.0000      -0.342273        -9.3137
  82   2.0000      -0.339656        -9.2425
  83   2.0000      -0.334439        -9.1005
  84   2.0000      -0.328660        -8.9433
  85   2.0000      -0.313495        -8.5306
  86   2.0000      -0.309483        -8.4215
  87   2.0000      -0.304355        -8.2819
  88   2.0000      -0.292289        -7.9536
  89   2.0000      -0.287747        -7.8300
  90   2.0000      -0.273981        -7.4554
  91   2.0000      -0.269144        -7.3238
  92   2.0000      -0.263732        -7.1765
  93   2.0000      -0.260979        -7.1016
  94   2.0000      -0.258089        -7.0230
  95   2.0000      -0.239022        -6.5041
  96   2.0000      -0.218651        -5.9498
  97   2.0000      -0.209252        -5.6940
  98   2.0000      -0.200938        -5.4678
  99   2.0000      -0.186332        -5.0704
 100   2.0000      -0.172935        -4.7058
 101   0.0000      -0.041371        -1.1258
 102   0.0000      -0.024755        -0.6736
 103   0.0000      -0.018397        -0.5006
 104   0.0000       0.004447         0.1210
 105   0.0000       0.024646         0.6706

MULLIKEN ATOMIC CHARGES
-----------------------
   0 C :   -0.282271
   1 C :   -0.022485
   2 O :   -0.372427
   3 P :    0.609582
   4 S :   -0.285746
   5 O :   -0.390274
   6 C :   -0.013206
   7 C :   -0.316615
   8 S :   -0.115322
   9 C :   -0.348483
  10 S :   -0.108217
  11 P :    0.605091
  12 S :   -0.313066
  13 O :   -0.371809
  14 C :   -0.001428
  15 C :   -0.317751
  16 O :   -0.337945
  17 C :   -0.003315
  18 C :   -0.305858
  19 H :    0.122350
  20 H :    0.118683
  21 H :    0.108598
  22 H :    0.101818
  23 H :    0.108071
  24 H :    0.131435
  25 H :    0.100437
  26 H :    0.113307
  27 H :    0.111105
  28 H :    0.135246
  29 H :    0.208045
  30 H :    0.181249
  31 H :    0.114936
  32 H :    0.105508
  33 H :    0.114064
  34 H :    0.115619
  35 H :    0.126470
  36 H :    0.113584
  37 H :    0.114344
  38 H :    0.121571
  39 H :    0.112057
  40 H :    0.113047
Sum of atomic charges:   -0.0000000

LOEWDIN ATOMIC CHARGES
----------------------
   0 C :   -0.351271
   1 C :   -0.124514
   2 O :   -0.248315
   3 P :    0.557516
   4 S :   -0.293289
   5 O :   -0.250202
   6 C :   -0.123432
   7 C :   -0.366803
   8 S :    0.071917
   9 C :   -0.476312
  10 S :    0.073100
  11 P :    0.574093
  12 S :   -0.297826
  13 O :   -0.239498
  14 C :   -0.117323
  15 C :   -0.371641
  16 O :   -0.221177
  17 C :   -0.115304
  18 C :   -0.366486
  19 H :    0.130585
  20 H :    0.126219
  21 H :    0.128899
  22 H :    0.105513
  23 H :    0.111587
  24 H :    0.111907
  25 H :    0.116009
  26 H :    0.131874
  27 H :    0.119654
  28 H :    0.126820
  29 H :    0.129998
  30 H :    0.137307
  31 H :    0.113409
  32 H :    0.119052
  33 H :    0.131680
  34 H :    0.122668
  35 H :    0.120794
  36 H :    0.124899
  37 H :    0.103133
  38 H :    0.128234
  39 H :    0.130667
  40 H :    0.115859

  Mayer bond orders larger than 0.100000
B(  0-C ,  1-C ) :   1.1617 B(  0-C , 19-H ) :   0.9483 B(  0-C , 20-H ) :   0.9475
B(  0-C , 21-H ) :   0.9415 B(  1-C ,  2-O ) :   0.8990 B(  1-C , 22-H ) :   0.9160
B(  1-C , 23-H ) :   0.9299 B(  2-O ,  3-P ) :   1.0983 B(  3-P ,  4-S ) :   1.6865
B(  3-P ,  5-O ) :   1.0646 B(  3-P ,  8-S ) :   0.9455 B(  4-S ,  8-S ) :   0.1026
B(  5-O ,  6-C ) :   0.8959 B(  6-C ,  7-C ) :   1.1610 B(  6-C , 24-H ) :   0.9070
B(  6-C , 25-H ) :   0.9355 B(  7-C , 26-H ) :   0.9388 B(  7-C , 27-H ) :   0.9421
B(  7-C , 28-H ) :   0.9318 B(  8-S ,  9-C ) :   0.9923 B(  9-C , 10-S ) :   1.0086
B(  9-C , 29-H ) :   0.8589 B(  9-C , 30-H ) :   0.9108 B( 10-S , 11-P ) :   0.9312
B( 10-S , 12-S ) :   0.1044 B( 11-P , 12-S ) :   1.6129 B( 11-P , 13-O ) :   1.0986
B( 11-P , 16-O ) :   1.1685 B( 13-O , 14-C ) :   0.9043 B( 14-C , 15-C ) :   1.1656
B( 14-C , 31-H ) :   0.9160 B( 14-C , 32-H ) :   0.9338 B( 15-C , 33-H ) :   0.9374
B( 15-C , 34-H ) :   0.9449 B( 15-C , 35-H ) :   0.9337 B( 16-O , 17-C ) :   0.8965
B( 17-C , 18-C ) :   1.1676 B( 17-C , 36-H ) :   0.9322 B( 17-C , 37-H ) :   0.9106
B( 18-C , 38-H ) :   0.9436 B( 18-C , 39-H ) :   0.9368 B( 18-C , 40-H ) :   0.9388

Dispersion correction           -0.068131773
FINAL SINGLE POINT ENERGY     -2929.511508921633

DIPOLE MOMENT
-------------

Method             : SCF
Type of density    : Electron Density
Multiplicity       :   1
Irrep              :   0
Energy             : -2929.6297776584729036 Eh
Relativity type    :
Basis              : AO
                                X                 Y                 Z
Electronic contribution:     -5.629687628       1.976558882      -3.963471942
Nuclear contribution   :      5.533655969      -3.246670545       4.679788435
                        -----------------------------------------
Total Dipole Moment    :     -0.096031659      -1.270111663       0.716316493
                        -----------------------------------------
Magnitude (a.u.)       :      1.461340150
Magnitude (Debye)      :      3.714431472

Rotational constants in cm-1:             0.013926             0.005094             0.004756
Rotational constants in MHz :           417.505581           152.703725           142.581759

                             ****ORCA TERMINATED NORMALLY****
TOTAL RUN TIME: 0 days 0 hours 0 minutes 21 seconds 615 msec
