                         Program Version 6.0.0  -   RELEASE  -
|  1> ! pbe def2-sv(p) def2/J RI DEFGRID1 loosescf d4 GCP(DFT/SV(P)) printgap
|  2> %output
|  3>     printlevel normal
|  4> end
|  5> * xyz 0 1
|  6> C -0.6930920641 -0.5954126306 -0.3110794099
|  7> C 0.7077997233 -0.5882970948 0.3078170909
|  8> O 1.4781865348 0.505326964 -0.1386045147
|  9> O -1.4468891691 0.5311729537 0.0843133602
| 10> H -1.207115992 -1.5267033936 -0.0488842252
| 11> H -0.6108422484 -0.5282503545 -1.3980490767
| 12> H 1.2494026891 -1.4879789367 0.0112886814
| 13> H 0.6299073511 -0.5661973913 1.4047681767
| 14> H 0.9247924437 1.3001029202 -0.0944985516
| 15> H -1.65819668 0.461511205 1.0260321178
| 16> *
| 17>
| 18>                          ****END OF INPUT****

CARTESIAN COORDINATES (ANGSTROEM)
---------------------------------
  C     -0.693092   -0.595413   -0.311079
  C      0.707800   -0.588297    0.307817
  O      1.478187    0.505327   -0.138605
  O     -1.446889    0.531173    0.084313
  H     -1.207116   -1.526703   -0.048884
  H     -0.610842   -0.528250   -1.398049
  H      1.249403   -1.487979    0.011289
  H      0.629907   -0.566197    1.404768
  H      0.924792    1.300103   -0.094499
  H     -1.658197    0.461511    1.026032

 Total Charge           Charge          ....    0
 Multiplicity           Mult            ....    1
 Number of Electrons    NEL             ....   34
 Basis Dimension        Dim             ....   68

ORBITAL ENERGIES
----------------

  NO   OCC          E(Eh)            E(eV)
   0   2.0000     -18.757864      -510.4274
   1   2.0000     -18.738710      -509.9062
   2   2.0000      -9.935052      -270.3465
   3   2.0000      -9.930762      -270.2298
   4   2.0000      -0.937135       -25.5007
   5   2.0000      -0.909653       -24.7529
   6   2.0000      -0.659040       -17.9334
   7   2.0000      -0.567036       -15.4298
   8   2.0000      -0.471831       -12.8392
   9   2.0000      -0.444783       -12.1032
  10   2.0000      -0.411069       -11.1858
  11   2.0000      -0.386981       -10.5303
  12   2.0000      -0.355095        -9.6626
  13   2.0000      -0.291776        -7.9396
  14   2.0000      -0.279126        -7.5954
  15   2.0000      -0.237356        -6.4588
  16   2.0000      -0.207098        -5.6354
  17   0.0000       0.015917         0.4331
  18   0.0000       0.064028         1.7423
  19   0.0000       0.070911         1.9296
  20   0.0000       0.083467         2.2713
  21   0.0000       0.107726         2.9314

MULLIKEN ATOMIC CHARGES
-----------------------
   0 C :   -0.036223
   1 C :    0.006004
   2 O :   -0.443508
   3 O :   -0.441118
   4 H :    0.076887
   5 H :    0.100233
   6 H :    0.088274
   7 H :    0.059790
   8 H :    0.293250
   9 H :    0.296412
Sum of atomic charges:    0.0000000

LOEWDIN ATOMIC CHARGES
----------------------
   0 C :   -0.150704
   1 C :   -0.145157
   2 O :   -0.346143
   3 O :   -0.341114
   4 H :    0.099268
   5 H :    0.118276
   6 H :    0.115348
   7 H :    0.089265
   8 H :    0.277520
   9 H :    0.283442

  Mayer bond orders larger than 0.100000
B(  0-C ,  1-C ) :   1.0909 B(  0-C ,  3-O ) :   1.0464 B(  0-C ,  4-H ) :   0.9180
B(  0-C ,  5-H ) :   0.9217 B(  1-C ,  2-O ) :   1.0667 B(  1-C ,  6-H ) :   0.9201
B(  1-C ,  7-H ) :   0.9130 B(  2-O ,  8-H ) :   0.8424 B(  3-O ,  9-H ) :   0.8535

Dispersion correction           -0.004868185
FINAL SINGLE POINT ENERGY      -229.727020884609

DIPOLE MOMENT
-------------

Method             : SCF
Type of density    : Electron Density
Multiplicity       :   1
Irrep              :   0
Energy             :  -229.7782160349521519 Eh
Relativity type    :
Basis              : AO
                                X                 Y                 Z
Electronic contribution:      0.122919765       1.868993586      -0.265206309
Nuclear contribution   :     -0.630036449      -2.186975551       0.844165553
                        -----------------------------------------
Total Dipole Moment    :     -0.507116684      -0.317981966       0.578959244
                        -----------------------------------------
Magnitude (a.u.)       :      0.832750664
Magnitude (Debye)      :      2.116683971

Rotational constants in cm-1:             0.528914             0.176622             0.150771
Rotational constants in MHz :         15856.454021          5294.996173          4519.989082

                             ****ORCA TERMINATED NORMALLY****
TOTAL RUN TIME: 0 days 0 hours 0 minutes 4 seconds 342 msec
