                         Program Version 6.0.0  -   RELEASE  -
|  1> ! pbe def2-sv(p) def2/J RI DEFGRID1 loosescf d4 GCP(DFT/SV(P)) printgap
|  2> %output
|  3>     printlevel normal
|  4> end
|  5> * xyz 0 1
|  6> C 4.0803281071 0.3625754714 -2.6426583071
|  7> C 2.6694221828 -0.0486493879 -2.2790550463
|  8> O 2.1843475283 0.7453723824 -1.1689468493
|  9> P 2.0795148273 0.2045810748 0.3010119236
| 10> S 1.3152410747 1.5681862662 1.4743292451
| 11> O 3.5925412836 -0.220694259 0.5714149035
| 12> C 4.0454891733 -1.0743351961 1.6375330155
| 13> C 3.7140966062 -0.5270927227 3.0104925133
| 14> S 1.0780773552 -1.6809997467 0.2632533835
| 15> C -0.2575391403 -1.3499108727 1.4513063942
| 16> S -1.9260351392 -1.5128052008 0.7701250801
| 17> P -2.0006875324 0.1954663655 -0.5038311809
| 18> S -0.8174781874 0.2570388928 -2.0598864142
| 19> O -1.7229784646 1.4491806418 0.4048192814
| 20> C -2.4470626034 1.7658533487 1.6194205007
| 21> C -3.5012901631 2.8183779124 1.3478742278
| 22> O -3.5589150242 0.3067594726 -0.7934895557
| 23> C -4.4020920786 -0.7773456467 -1.2283887262
| 24> C -3.8531573915 -1.5036220519 -2.4377964486
| 25> H 4.1068672454 1.421945347 -2.8822673756
| 26> H 4.7529225963 0.1739283008 -1.809804526
| 27> H 4.40348146 -0.2100452588 -3.5061358225
| 28> H 2.6176375012 -1.1076817365 -2.0103516871
| 29> H 1.9626668541 0.1493355196 -3.0881803207
| 30> H 3.6029181927 -2.064614484 1.4958501889
| 31> H 5.1244077875 -1.1261760464 1.4812867796
| 32> H 2.6358298128 -0.4999504447 3.1580107595
| 33> H 4.161296952 -1.1628849686 3.7676768109
| 34> H 4.0971165781 0.4849586575 3.1166877159
| 35> H -0.1135580871 -0.3413889247 1.8524589103
| 36> H -0.1988875976 -2.1031575806 2.2331579911
| 37> H -2.895168439 0.8511265535 2.0178206626
| 38> H -1.6777033763 2.1342597969 2.3026063808
| 39> H -4.237248153 2.4407775398 0.6426330798
| 40> H -3.9926936834 3.0760369175 2.2807544143
| 41> H -3.0378561699 3.7071003289 0.9282033996
| 42> H -4.5276036312 -1.46599748 -0.3882321805
| 43> H -5.3516063717 -0.2887016707 -1.4540929463
| 44> H -4.5654927805 -2.25597167 -2.7605467804
| 45> H -3.671646922 -0.8045264446 -3.2509994329
| 46> H -2.9107546214 -1.9899809749 -2.188283608
| 47> *
| 48>
| 49>                          ****END OF INPUT****

CARTESIAN COORDINATES (ANGSTROEM)
---------------------------------
  C      4.080328    0.362575   -2.642658
  C      2.669422   -0.048649   -2.279055
  O      2.184348    0.745372   -1.168947
  P      2.079515    0.204581    0.301012
  S      1.315241    1.568186    1.474329
  O      3.592541   -0.220694    0.571415
  C      4.045489   -1.074335    1.637533
  C      3.714097   -0.527093    3.010493
  S      1.078077   -1.681000    0.263253
  C     -0.257539   -1.349911    1.451306
  S     -1.926035   -1.512805    0.770125
  P     -2.000688    0.195466   -0.503831
  S     -0.817478    0.257039   -2.059886
  O     -1.722978    1.449181    0.404819
  C     -2.447063    1.765853    1.619421
  C     -3.501290    2.818378    1.347874
  O     -3.558915    0.306759   -0.793490
  C     -4.402092   -0.777346   -1.228389
  C     -3.853157   -1.503622   -2.437796
  H      4.106867    1.421945   -2.882267
  H      4.752923    0.173928   -1.809805
  H      4.403481   -0.210045   -3.506136
  H      2.617638   -1.107682   -2.010352
  H      1.962667    0.149336   -3.088180
  H      3.602918   -2.064614    1.495850
  H      5.124408   -1.126176    1.481287
  H      2.635830   -0.499950    3.158011
  H      4.161297   -1.162885    3.767677
  H      4.097117    0.484959    3.116688
  H     -0.113558   -0.341389    1.852459
  H     -0.198888   -2.103158    2.233158
  H     -2.895168    0.851127    2.017821
  H     -1.677703    2.134260    2.302606
  H     -4.237248    2.440778    0.642633
  H     -3.992694    3.076037    2.280754
  H     -3.037856    3.707100    0.928203
  H     -4.527604   -1.465997   -0.388232
  H     -5.351606   -0.288702   -1.454093
  H     -4.565493   -2.255972   -2.760547
  H     -3.671647   -0.804526   -3.250999
  H     -2.910755   -1.989981   -2.188284

 Total Charge           Charge          ....    0
 Multiplicity           Mult            ....    1
 Number of Electrons    NEL             ....  202
 Basis Dimension        Dim             ....  334

ORBITAL ENERGIES
----------------

  NO   OCC          E(Eh)            E(eV)
   0   2.0000     -88.043133     -2395.7754
   1   2.0000     -88.041269     -2395.7247
   2   2.0000     -87.981352     -2394.0943
   3   2.0000     -87.972323     -2393.8486
   4   2.0000     -76.421603     -2079.5375
   5   2.0000     -76.420061     -2079.4956
   6   2.0000     -18.789816      -511.2969
   7   2.0000     -18.788319      -511.2561
   8   2.0000     -18.782272      -511.0916
   9   2.0000     -18.781878      -511.0809
  10   2.0000      -9.958381      -270.9813
  11   2.0000      -9.957450      -270.9560
  12   2.0000      -9.953789      -270.8564
  13   2.0000      -9.948783      -270.7202
  14   2.0000      -9.947506      -270.6854
  15   2.0000      -9.882673      -268.9212
  16   2.0000      -9.881877      -268.8995
  17   2.0000      -9.880934      -268.8739
  18   2.0000      -9.880453      -268.8608
  19   2.0000      -7.688133      -209.2047
  20   2.0000      -7.685907      -209.1442
  21   2.0000      -7.626619      -207.5309
  22   2.0000      -7.617503      -207.2828
  23   2.0000      -6.418949      -174.6685
  24   2.0000      -6.417266      -174.6227
  25   2.0000      -5.715808      -155.5350
  26   2.0000      -5.713709      -155.4779
  27   2.0000      -5.712471      -155.4442
  28   2.0000      -5.710436      -155.3889
  29   2.0000      -5.705489      -155.2543
  30   2.0000      -5.703013      -155.1869
  31   2.0000      -5.655579      -153.8961
  32   2.0000      -5.647416      -153.6740
  33   2.0000      -5.646608      -153.6520
  34   2.0000      -5.646454      -153.6478
  35   2.0000      -5.637878      -153.4145
  36   2.0000      -5.637696      -153.4095
  37   2.0000      -4.641542      -126.3028
  38   2.0000      -4.640910      -126.2856
  39   2.0000      -4.640272      -126.2682
  40   2.0000      -4.639463      -126.2462
  41   2.0000      -4.639243      -126.2402
  42   2.0000      -4.636975      -126.1785
  43   2.0000      -0.983089       -26.7512
  44   2.0000      -0.982585       -26.7375
  45   2.0000      -0.940117       -25.5819
  46   2.0000      -0.938043       -25.5255
  47   2.0000      -0.760170       -20.6853
  48   2.0000      -0.716863       -19.5068
  49   2.0000      -0.708727       -19.2855
  50   2.0000      -0.688057       -18.7230
  51   2.0000      -0.686906       -18.6917
  52   2.0000      -0.674768       -18.3614
  53   2.0000      -0.646377       -17.5888
  54   2.0000      -0.635898       -17.3037
  55   2.0000      -0.588260       -16.0074
  56   2.0000      -0.583389       -15.8748
  57   2.0000      -0.570743       -15.5307
  58   2.0000      -0.569308       -15.4917
  59   2.0000      -0.567964       -15.4551
  60   2.0000      -0.503384       -13.6978
  61   2.0000      -0.495729       -13.4895
  62   2.0000      -0.470447       -12.8015
  63   2.0000      -0.469879       -12.7861
  64   2.0000      -0.452043       -12.3007
  65   2.0000      -0.448485       -12.2039
  66   2.0000      -0.436580       -11.8799
  67   2.0000      -0.432904       -11.7799
  68   2.0000      -0.429290       -11.6816
  69   2.0000      -0.417109       -11.3501
  70   2.0000      -0.408678       -11.1207
  71   2.0000      -0.404152       -10.9975
  72   2.0000      -0.394255       -10.7282
  73   2.0000      -0.383134       -10.4256
  74   2.0000      -0.379481       -10.3262
  75   2.0000      -0.357499        -9.7280
  76   2.0000      -0.356885        -9.7113
  77   2.0000      -0.352854        -9.6016
  78   2.0000      -0.351192        -9.5564
  79   2.0000      -0.347507        -9.4561
  80   2.0000      -0.345289        -9.3958
  81   2.0000      -0.343825        -9.3560
  82   2.0000      -0.336645        -9.1606
  83   2.0000      -0.336047        -9.1443
  84   2.0000      -0.334101        -9.0914
  85   2.0000      -0.317174        -8.6307
  86   2.0000      -0.313789        -8.5386
  87   2.0000      -0.293787        -7.9944
  88   2.0000      -0.293729        -7.9928
  89   2.0000      -0.283012        -7.7011
  90   2.0000      -0.281398        -7.6572
  91   2.0000      -0.272525        -7.4158
  92   2.0000      -0.271324        -7.3831
  93   2.0000      -0.259408        -7.0589
  94   2.0000      -0.255337        -6.9481
  95   2.0000      -0.241086        -6.5603
  96   2.0000      -0.219872        -5.9830
  97   2.0000      -0.200830        -5.4649
  98   2.0000      -0.193696        -5.2707
  99   2.0000      -0.187281        -5.0962
 100   2.0000      -0.183357        -4.9894
 101   0.0000      -0.039820        -1.0836
 102   0.0000      -0.029230        -0.7954
 103   0.0000      -0.014899        -0.4054
 104   0.0000      -0.000423        -0.0115
 105   0.0000       0.021884         0.5955

MULLIKEN ATOMIC CHARGES
-----------------------
   0 C :   -0.280114
   1 C :   -0.016501
   2 O :   -0.335114
   3 P :    0.601995
   4 S :   -0.296026
   5 O :   -0.380132
   6 C :   -0.003887
   7 C :   -0.306023
   8 S :   -0.105333
   9 C :   -0.339979
  10 S :   -0.128109
  11 P :    0.593220
  12 S :   -0.304542
  13 O :   -0.337171
  14 C :   -0.019796
  15 C :   -0.280494
  16 O :   -0.380147
  17 C :   -0.014337
  18 C :   -0.310795
  19 H :    0.121784
  20 H :    0.116252
  21 H :    0.107431
  22 H :    0.100036
  23 H :    0.120514
  24 H :    0.103977
  25 H :    0.104861
  26 H :    0.117472
  27 H :    0.108215
  28 H :    0.125412
  29 H :    0.195040
  30 H :    0.179526
  31 H :    0.092736
  32 H :    0.112771
  33 H :    0.116698
  34 H :    0.105923
  35 H :    0.123280
  36 H :    0.113669
  37 H :    0.110224
  38 H :    0.110056
  39 H :    0.129154
  40 H :    0.128256
Sum of atomic charges:   -0.0000000

LOEWDIN ATOMIC CHARGES
----------------------
   0 C :   -0.357041
   1 C :   -0.113021
   2 O :   -0.219636
   3 P :    0.569756
   4 S :   -0.284276
   5 O :   -0.249174
   6 C :   -0.119932
   7 C :   -0.368042
   8 S :    0.071082
   9 C :   -0.482983
  10 S :    0.057820
  11 P :    0.559713
  12 S :   -0.302730
  13 O :   -0.222641
  14 C :   -0.119022
  15 C :   -0.357198
  16 O :   -0.247443
  17 C :   -0.115528
  18 C :   -0.371097
  19 H :    0.129982
  20 H :    0.125118
  21 H :    0.128371
  22 H :    0.103209
  23 H :    0.119653
  24 H :    0.102677
  25 H :    0.118766
  26 H :    0.117572
  27 H :    0.128267
  28 H :    0.130447
  29 H :    0.119340
  30 H :    0.135816
  31 H :    0.099815
  32 H :    0.117506
  33 H :    0.124799
  34 H :    0.127833
  35 H :    0.130426
  36 H :    0.107389
  37 H :    0.121644
  38 H :    0.129372
  39 H :    0.131233
  40 H :    0.122158

  Mayer bond orders larger than 0.100000
B(  0-C ,  1-C ) :   1.1642 B(  0-C , 19-H ) :   0.9472 B(  0-C , 20-H ) :   0.9434
B(  0-C , 21-H ) :   0.9405 B(  1-C ,  2-O ) :   0.8902 B(  1-C , 22-H ) :   0.9175
B(  1-C , 23-H ) :   0.9269 B(  2-O ,  3-P ) :   1.1619 B(  3-P ,  4-S ) :   1.6306
B(  3-P ,  5-O ) :   1.0680 B(  3-P ,  8-S ) :   0.9412 B(  4-S ,  8-S ) :   0.1177
B(  4-S , 29-H ) :   0.1295 B(  5-O ,  6-C ) :   0.9209 B(  6-C ,  7-C ) :   1.1651
B(  6-C , 24-H ) :   0.9182 B(  6-C , 25-H ) :   0.9332 B(  7-C , 26-H ) :   0.9352
B(  7-C , 27-H ) :   0.9359 B(  7-C , 28-H ) :   0.9445 B(  8-S ,  9-C ) :   1.0077
B(  9-C , 10-S ) :   0.9991 B(  9-C , 29-H ) :   0.8413 B(  9-C , 30-H ) :   0.9112
B( 10-S , 11-P ) :   0.9346 B( 10-S , 12-S ) :   0.1127 B( 11-P , 12-S ) :   1.6840
B( 11-P , 13-O ) :   1.1448 B( 11-P , 16-O ) :   1.0720 B( 13-O , 14-C ) :   0.8953
B( 14-C , 15-C ) :   1.1675 B( 14-C , 31-H ) :   0.9100 B( 14-C , 32-H ) :   0.9256
B( 15-C , 33-H ) :   0.9436 B( 15-C , 34-H ) :   0.9403 B( 15-C , 35-H ) :   0.9472
B( 16-O , 17-C ) :   0.9160 B( 17-C , 18-C ) :   1.1673 B( 17-C , 36-H ) :   0.9258
B( 17-C , 37-H ) :   0.9333 B( 18-C , 38-H ) :   0.9339 B( 18-C , 39-H ) :   0.9414
B( 18-C , 40-H ) :   0.9316

Dispersion correction           -0.066949367
FINAL SINGLE POINT ENERGY     -2929.508266191555

DIPOLE MOMENT
-------------

Method             : SCF
Type of density    : Electron Density
Multiplicity       :   1
Irrep              :   0
Energy             : -2929.6267229302484338 Eh
Relativity type    :
Basis              : AO
                                X                 Y                 Z
Electronic contribution:     -0.478847298       0.016760429      -1.320253143
Nuclear contribution   :      0.214344229      -1.204969259       1.972064746
                        -----------------------------------------
Total Dipole Moment    :     -0.264503068      -1.188208831       0.651811603
                        -----------------------------------------
Magnitude (a.u.)       :      1.380818766
Magnitude (Debye)      :      3.509762377

Rotational constants in cm-1:             0.012194             0.005309             0.004833
Rotational constants in MHz :           365.561481           159.170872           144.892733

                             ****ORCA TERMINATED NORMALLY****
TOTAL RUN TIME: 0 days 0 hours 0 minutes 21 seconds 503 msec
