                         Program Version 6.0.0  -   RELEASE  -
|  1> ! wb97x-v def2-tzvp def2/J RIJCOSX DEFGRID2 scfconv7 GCP(DFT/TZ) printgap
|  2> %output
|  3>     printlevel normal
|  4> end
|  5> * xyz 0 1
|  6> C -0.002068174330602077 -1.8174915316619444 0.16880506960966438
|  7> C -0.0006132475118315031 -0.448426087122867 -0.4451453176433595
|  8> Cl 1.4824532587963462 0.48540900382223695 0.053142133090428666
|  9> Cl -1.4818331125795836 0.48853442483154813 0.05276294344968303
| 10> H -0.8905119394823198 -2.3586712342778156 -0.16902498274680178
| 11> H 0.8853576089673515 -2.3605030737484225 -0.16877542797145265
| 12> H -0.002161071981544733 -1.7666852605534158 1.259617996268116
| 13> H -0.0004557322251928718 -0.4566413412200494 -1.5346505570948563
| 14> *
| 15>
| 16>                          ****END OF INPUT****

CARTESIAN COORDINATES (ANGSTROEM)
---------------------------------
  C     -0.002068   -1.817492    0.168805
  C     -0.000613   -0.448426   -0.445145
  Cl     1.482453    0.485409    0.053142
  Cl    -1.481833    0.488534    0.052763
  H     -0.890512   -2.358671   -0.169025
  H      0.885358   -2.360503   -0.168775
  H     -0.002161   -1.766685    1.259618
  H     -0.000456   -0.456641   -1.534651

 Total Charge           Charge          ....    0
 Multiplicity           Mult            ....    1
 Number of Electrons    NEL             ....   50
 Basis Dimension        Dim             ....  160

ORBITAL ENERGIES
----------------

  NO   OCC          E(Eh)            E(eV)
   0   2.0000    -107.145128     -2915.5671
   1   2.0000    -107.145122     -2915.5670
   2   2.0000     -12.184624      -331.5605
   3   2.0000     -12.070138      -328.4452
   4   2.0000     -11.298559      -307.4494
   5   2.0000     -11.298351      -307.4438
   6   2.0000      -9.090568      -247.3669
   7   2.0000      -9.089428      -247.3359
   8   2.0000      -9.087348      -247.2793
   9   2.0000      -9.087144      -247.2738
  10   2.0000      -9.086888      -247.2668
  11   2.0000      -9.086543      -247.2574
  12   2.0000      -1.438396       -39.1407
  13   2.0000      -1.380448       -37.5639
  14   2.0000      -1.274971       -34.6937
  15   2.0000      -1.112418       -30.2704
  16   2.0000      -0.939370       -25.5616
  17   2.0000      -0.928478       -25.2652
  18   2.0000      -0.905411       -24.6375
  19   2.0000      -0.837995       -22.8030
  20   2.0000      -0.835176       -22.7263
  21   2.0000      -0.794122       -21.6091
  22   2.0000      -0.793099       -21.5813
  23   2.0000      -0.782579       -21.2951
  24   2.0000      -0.775279       -21.0964
  25   0.0000      -0.313456        -8.5296
  26   0.0000      -0.260857        -7.0983
  27   0.0000      -0.040669        -1.1067
  28   0.0000      -0.026659        -0.7254
  29   0.0000       0.017455         0.4750

MULLIKEN ATOMIC CHARGES
-----------------------
   0 C :   -0.323091
   1 C :    0.029183
   2 Cl:   -0.118376
   3 Cl:   -0.118367
   4 H :    0.127131
   5 H :    0.127142
   6 H :    0.134639
   7 H :    0.141739
Sum of atomic charges:   -0.0000000

LOEWDIN ATOMIC CHARGES
----------------------
   0 C :   -0.336238
   1 C :   -0.709285
   2 Cl:    0.267680
   3 Cl:    0.267686
   4 H :    0.129003
   5 H :    0.129005
   6 H :    0.127827
   7 H :    0.124321

  Mayer bond orders larger than 0.100000
B(  0-C ,  1-C ) :   1.0089 B(  0-C ,  4-H ) :   0.9596 B(  0-C ,  5-H ) :   0.9596
B(  0-C ,  6-H ) :   0.9649 B(  1-C ,  2-Cl) :   1.0902 B(  1-C ,  3-Cl) :   1.0903
B(  1-C ,  7-H ) :   0.9653

FINAL SINGLE POINT ENERGY      -998.914612545731

DIPOLE MOMENT
-------------

Method             : SCF
Type of density    : Electron Density
Multiplicity       :   1
Irrep              :   0
Energy             :  -998.9197113701304716 Eh
Relativity type    :
Basis              : AO
                                X                 Y                 Z
Electronic contribution:      0.007087268       6.995389387       0.410912946
Nuclear contribution   :     -0.007928166      -7.823927807      -0.715125081
                        -----------------------------------------
Total Dipole Moment    :     -0.000840898      -0.828538420      -0.304212135
                        -----------------------------------------
Magnitude (a.u.)       :      0.882622028
Magnitude (Debye)      :      2.243446905

Rotational constants in cm-1:             0.209576             0.102601             0.073028
Rotational constants in MHz :          6282.920167          3075.892821          2189.322706

                             ****ORCA TERMINATED NORMALLY****
TOTAL RUN TIME: 0 days 0 hours 0 minutes 34 seconds 864 msec
