                         Program Version 6.0.1  -  RELEASE   -
|  1> ! pbe def2-sv(p) def2/J RI DEFGRID1 loosescf d4 GCP(DFT/SV(P)) printgap
|  2> %output
|  3>     printlevel normal
|  4> end
|  5> * xyz 0 1
|  6> C 3.3716963622 -2.1431849354 1.1884647238
|  7> C 2.9283040716 -2.8658068075 -0.0729942352
|  8> O 2.6461947141 -1.9229280893 -1.1254533219
|  9> C 1.4604777685 -1.3744997636 -1.1816875283
| 10> O 0.534695924 -1.6624359041 -0.4376720285
| 11> C 1.3267564678 -0.3643122244 -2.295150031
| 12> C 0.5194141535 0.8259276303 -1.7926456897
| 13> H 0.4683961301 1.6127718686 -2.550040447
| 14> C 1.1370109721 1.4044010722 -0.5280635396
| 15> O 2.1879540806 1.0036986286 -0.0799126621
| 16> O 0.4314049962 2.3992800237 -0.0441128495
| 17> C 0.9430669663 3.0898690981 1.115007567
| 18> C 0.1843186806 4.3935030081 1.2589977102
| 19> S -1.2450493225 0.4329610027 -1.5139737199
| 20> P -1.4295417492 -0.4322513206 0.4292891427
| 21> S -0.1900149816 -0.1665395187 1.9263819376
| 22> O -2.8537526628 0.2494896489 0.7912430198
| 23> C -2.944502056 1.6244755729 1.1611307207
| 24> O -1.9379758171 -1.9206788031 0.2632176815
| 25> C -3.063091875 -2.2626009472 -0.5673936047
| 26> H 2.5655896709 -1.5159262354 1.5669830639
| 27> H 3.6373694767 -2.8700846502 1.9486506855
| 28> H 4.2266471515 -1.5078203447 0.9752967709
| 29> H 2.029179622 -3.4592518146 0.117577274
| 30> H 3.7246386234 -3.490980217 -0.4767897852
| 31> H 0.8092302437 -0.8284445766 -3.1363417969
| 32> H 2.3235925158 -0.0499788613 -2.6025131814
| 33> H 0.8078849055 2.4342923133 1.9818012475
| 34> H 2.0153361074 3.2490916783 0.9672346999
| 35> H 0.3109542857 5.0005264698 0.3674810802
| 36> H -0.8734996691 4.1969557236 1.4059675297
| 37> H 0.5696350267 4.9316405843 2.1183444276
| 38> H -3.976760332 1.7795375457 1.4641494405
| 39> H -2.6931765044 2.2586550347 0.3098255261
| 40> H -2.2665706487 1.8299379555 1.9919003922
| 41> H -2.9315415772 -1.8522568532 -1.5688783317
| 42> H -3.9792699687 -1.8764729973 -0.1239175449
| 43> H -3.0720364048 -3.3492967638 -0.5945907811
| 44> *
| 45>
| 46>                          ****END OF INPUT****

CARTESIAN COORDINATES (ANGSTROEM)
---------------------------------
  C      3.371696   -2.143185    1.188465
  C      2.928304   -2.865807   -0.072994
  O      2.646195   -1.922928   -1.125453
  C      1.460478   -1.374500   -1.181688
  O      0.534696   -1.662436   -0.437672
  C      1.326756   -0.364312   -2.295150
  C      0.519414    0.825928   -1.792646
  H      0.468396    1.612772   -2.550040
  C      1.137011    1.404401   -0.528064
  O      2.187954    1.003699   -0.079913
  O      0.431405    2.399280   -0.044113
  C      0.943067    3.089869    1.115008
  C      0.184319    4.393503    1.258998
  S     -1.245049    0.432961   -1.513974
  P     -1.429542   -0.432251    0.429289
  S     -0.190015   -0.166540    1.926382
  O     -2.853753    0.249490    0.791243
  C     -2.944502    1.624476    1.161131
  O     -1.937976   -1.920679    0.263218
  C     -3.063092   -2.262601   -0.567394
  H      2.565590   -1.515926    1.566983
  H      3.637369   -2.870085    1.948651
  H      4.226647   -1.507820    0.975297
  H      2.029180   -3.459252    0.117577
  H      3.724639   -3.490980   -0.476790
  H      0.809230   -0.828445   -3.136342
  H      2.323593   -0.049979   -2.602513
  H      0.807885    2.434292    1.981801
  H      2.015336    3.249092    0.967235
  H      0.310954    5.000526    0.367481
  H     -0.873500    4.196956    1.405968
  H      0.569635    4.931641    2.118344
  H     -3.976760    1.779538    1.464149
  H     -2.693177    2.258655    0.309826
  H     -2.266571    1.829938    1.991900
  H     -2.931542   -1.852257   -1.568878
  H     -3.979270   -1.876473   -0.123918
  H     -3.072036   -3.349297   -0.594591

 Total Charge           Charge          ....    0
 Multiplicity           Mult            ....    1
 Number of Electrons    NEL             ....  174
 Basis Dimension        Dim             ....  316

ORBITAL ENERGIES
----------------

  NO   OCC          E(Eh)            E(eV)
   0   2.0000     -88.035721     -2395.5737
   1   2.0000     -87.970933     -2393.8108
   2   2.0000     -76.419330     -2079.4757
   3   2.0000     -18.807593      -511.7806
   4   2.0000     -18.800132      -511.5776
   5   2.0000     -18.777612      -510.9648
   6   2.0000     -18.773893      -510.8636
   7   2.0000     -18.743497      -510.0365
   8   2.0000     -18.741119      -509.9718
   9   2.0000     -10.018749      -272.6240
  10   2.0000     -10.011697      -272.4321
  11   2.0000      -9.953072      -270.8369
  12   2.0000      -9.942897      -270.5600
  13   2.0000      -9.940539      -270.4958
  14   2.0000      -9.939836      -270.4767
  15   2.0000      -9.931276      -270.2438
  16   2.0000      -9.911830      -269.7146
  17   2.0000      -9.888328      -269.0751
  18   2.0000      -9.869939      -268.5747
  19   2.0000      -7.680252      -208.9903
  20   2.0000      -7.615778      -207.2359
  21   2.0000      -6.414302      -174.5420
  22   2.0000      -5.708431      -155.3343
  23   2.0000      -5.704705      -155.2329
  24   2.0000      -5.697021      -155.0238
  25   2.0000      -5.645079      -153.6104
  26   2.0000      -5.636508      -153.3772
  27   2.0000      -5.635344      -153.3455
  28   2.0000      -4.637383      -126.1896
  29   2.0000      -4.636377      -126.1622
  30   2.0000      -4.634556      -126.1127
  31   2.0000      -1.015801       -27.6413
  32   2.0000      -1.010532       -27.4980
  33   2.0000      -0.971813       -26.4444
  34   2.0000      -0.925673       -25.1888
  35   2.0000      -0.922246       -25.0956
  36   2.0000      -0.916035       -24.9266
  37   2.0000      -0.763565       -20.7777
  38   2.0000      -0.710311       -19.3286
  39   2.0000      -0.700876       -19.0718
  40   2.0000      -0.685162       -18.6442
  41   2.0000      -0.653031       -17.7699
  42   2.0000      -0.624874       -17.0037
  43   2.0000      -0.614900       -16.7323
  44   2.0000      -0.608759       -16.5652
  45   2.0000      -0.590306       -16.0631
  46   2.0000      -0.560119       -15.2416
  47   2.0000      -0.509900       -13.8751
  48   2.0000      -0.504755       -13.7351
  49   2.0000      -0.492980       -13.4147
  50   2.0000      -0.485985       -13.2243
  51   2.0000      -0.465522       -12.6675
  52   2.0000      -0.454497       -12.3675
  53   2.0000      -0.445457       -12.1215
  54   2.0000      -0.436099       -11.8669
  55   2.0000      -0.422097       -11.4858
  56   2.0000      -0.421427       -11.4676
  57   2.0000      -0.414543       -11.2803
  58   2.0000      -0.412425       -11.2227
  59   2.0000      -0.402049       -10.9403
  60   2.0000      -0.399159       -10.8617
  61   2.0000      -0.388280       -10.5656
  62   2.0000      -0.382104       -10.3976
  63   2.0000      -0.380762       -10.3611
  64   2.0000      -0.374568       -10.1925
  65   2.0000      -0.367676       -10.0050
  66   2.0000      -0.358379        -9.7520
  67   2.0000      -0.351968        -9.5775
  68   2.0000      -0.340927        -9.2771
  69   2.0000      -0.339413        -9.2359
  70   2.0000      -0.327318        -8.9068
  71   2.0000      -0.320038        -8.7087
  72   2.0000      -0.316234        -8.6052
  73   2.0000      -0.307642        -8.3714
  74   2.0000      -0.301547        -8.2055
  75   2.0000      -0.290369        -7.9013
  76   2.0000      -0.285857        -7.7786
  77   2.0000      -0.285052        -7.7567
  78   2.0000      -0.264033        -7.1847
  79   2.0000      -0.261674        -7.1205
  80   2.0000      -0.254578        -6.9274
  81   2.0000      -0.250344        -6.8122
  82   2.0000      -0.236582        -6.4377
  83   2.0000      -0.224312        -6.1038
  84   2.0000      -0.208439        -5.6719
  85   2.0000      -0.192033        -5.2255
  86   2.0000      -0.180062        -4.8997
  87   0.0000      -0.042684        -1.1615
  88   0.0000      -0.034856        -0.9485
  89   0.0000      -0.022946        -0.6244
  90   0.0000       0.005315         0.1446
  91   0.0000       0.026526         0.7218

MULLIKEN ATOMIC CHARGES
-----------------------
   0 C :   -0.309704
   1 C :   -0.017895
   2 O :   -0.213010
   3 C :    0.132385
   4 O :   -0.212922
   5 C :   -0.021589
   6 C :   -0.296739
   7 H :    0.148703
   8 C :    0.177511
   9 O :   -0.181980
  10 O :   -0.218882
  11 C :   -0.031110
  12 C :   -0.280719
  13 S :   -0.105896
  14 P :    0.624432
  15 S :   -0.304324
  16 O :   -0.400604
  17 C :   -0.107994
  18 O :   -0.358721
  19 C :   -0.102008
  20 H :    0.151449
  21 H :    0.105321
  22 H :    0.112282
  23 H :    0.110743
  24 H :    0.099081
  25 H :    0.118927
  26 H :    0.110791
  27 H :    0.123944
  28 H :    0.104061
  29 H :    0.110522
  30 H :    0.116539
  31 H :    0.112559
  32 H :    0.115964
  33 H :    0.113513
  34 H :    0.113659
  35 H :    0.112720
  36 H :    0.122802
  37 H :    0.126189
Sum of atomic charges:   -0.0000000

LOEWDIN ATOMIC CHARGES
----------------------
   0 C :   -0.357879
   1 C :   -0.108192
   2 O :   -0.039085
   3 C :    0.043669
   4 O :   -0.174119
   5 C :   -0.247763
   6 C :   -0.261745
   7 H :    0.149952
   8 C :    0.003868
   9 O :   -0.143432
  10 O :   -0.051693
  11 C :   -0.111707
  12 C :   -0.350281
  13 S :    0.096080
  14 P :    0.588955
  15 S :   -0.285377
  16 O :   -0.272378
  17 C :   -0.224939
  18 O :   -0.235756
  19 C :   -0.209864
  20 H :    0.133658
  21 H :    0.127348
  22 H :    0.125411
  23 H :    0.120941
  24 H :    0.115785
  25 H :    0.144867
  26 H :    0.142445
  27 H :    0.115006
  28 H :    0.115747
  29 H :    0.124519
  30 H :    0.125083
  31 H :    0.131866
  32 H :    0.117689
  33 H :    0.103173
  34 H :    0.103984
  35 H :    0.105548
  36 H :    0.115155
  37 H :    0.123461

  Mayer bond orders larger than 0.100000
B(  0-C ,  1-C ) :   1.1786 B(  0-C , 20-H ) :   0.9290 B(  0-C , 21-H ) :   0.9421
B(  0-C , 22-H ) :   0.9468 B(  1-C ,  2-O ) :   0.9081 B(  1-C , 23-H ) :   0.9144
B(  1-C , 24-H ) :   0.9374 B(  2-O ,  3-C ) :   1.2771 B(  3-C ,  4-O ) :   1.8942
B(  3-C ,  5-C ) :   1.0136 B(  4-O , 14-P ) :   0.1274 B(  5-C ,  6-C ) :   1.0254
B(  5-C , 25-H ) :   0.8832 B(  5-C , 26-H ) :   0.8874 B(  6-C ,  7-H ) :   0.8749
B(  6-C ,  8-C ) :   0.9002 B(  6-C , 13-S ) :   1.0123 B(  8-C ,  9-O ) :   2.0378
B(  8-C , 10-O ) :   1.2621 B( 10-O , 11-C ) :   0.8965 B( 11-C , 12-C ) :   1.1560
B( 11-C , 27-H ) :   0.9116 B( 11-C , 28-H ) :   0.9259 B( 12-C , 29-H ) :   0.9505
B( 12-C , 30-H ) :   0.9463 B( 12-C , 31-H ) :   0.9433 B( 13-S , 14-P ) :   0.9365
B( 13-S , 15-S ) :   0.1202 B( 14-P , 15-S ) :   1.5887 B( 14-P , 16-O ) :   1.0170
B( 14-P , 18-O ) :   1.1205 B( 16-O , 17-C ) :   0.9500 B( 17-C , 32-H ) :   0.9563
B( 17-C , 33-H ) :   0.9388 B( 17-C , 34-H ) :   0.9303 B( 18-O , 19-C ) :   0.9280
B( 19-C , 35-H ) :   0.9382 B( 19-C , 36-H ) :   0.9471 B( 19-C , 37-H ) :   0.9593

Dispersion correction           -0.056091980
FINAL SINGLE POINT ENERGY     -1979.010010726607

DIPOLE MOMENT
-------------

Method             : SCF
Type of density    : Electron Density
Multiplicity       :   1
Irrep              :   0
Energy             : -1979.1381491223046396 Eh
Relativity type    :
Basis              : AO
                                X                 Y                 Z
Electronic contribution:     -4.951849041      -5.930302934      -4.539536754
Nuclear contribution   :      4.800889004       6.442503814       3.499919016
                        -----------------------------------------
Total Dipole Moment    :     -0.150960037       0.512200880      -1.039617738
                        -----------------------------------------
Magnitude (a.u.)       :      1.168735948
Magnitude (Debye)      :      2.970690695

Rotational constants in cm-1:             0.011858             0.009662             0.007346
Rotational constants in MHz :           355.502423           289.652467           220.227497

                             ****ORCA TERMINATED NORMALLY****
TOTAL RUN TIME: 0 days 0 hours 0 minutes 41 seconds 50 msec
