                         Program Version 6.0.1  -  RELEASE   -
|  1> ! pbe def2-sv(p) def2/J RI DEFGRID1 loosescf d4 GCP(DFT/SV(P)) printgap
|  2> %output
|  3>     printlevel normal
|  4> end
|  5> * xyz 0 1
|  6> C 2.8183055684 -3.4853135614 0.7911700339
|  7> C 3.3235776165 -2.0528860819 0.8438572125
|  8> O 3.0438534943 -1.3635912768 -0.3913578391
|  9> C 1.90632202 -0.7349526679 -0.5312028306
| 10> O 1.0522496809 -0.6520477847 0.3388909631
| 11> C 1.7482143424 -0.0962390204 -1.8858175915
| 12> C 0.6085193023 0.9075002876 -1.8477647565
| 13> H 0.512042155 1.4225880712 -2.8080577962
| 14> C 0.801473316 1.9650118905 -0.7696849805
| 15> O 1.8181500249 2.0688756903 -0.1202750918
| 16> O -0.2314083546 2.7736102316 -0.6984872926
| 17> C -0.1413242644 3.9471895298 0.1364292468
| 18> C -0.4143211357 3.6474846106 1.6000556819
| 19> S -1.0415562614 0.1189310795 -1.7075945735
| 20> P -1.3823216365 -0.7543768181 0.1949243144
| 21> S -0.9642905991 -2.6127765735 0.6562689585
| 22> O -1.1868537856 0.383082215 1.3145184731
| 23> C -0.4334570188 0.1870688462 2.5095146577
| 24> O -2.9850140986 -0.7732167011 0.0604802136
| 25> C -3.7999501574 0.3945151915 -0.12722654
| 26> H 1.7320660857 -3.5033941701 0.7141828423
| 27> H 3.2419718875 -4.0006254894 -0.066010535
| 28> H 3.1102430598 -4.0006538553 1.6999971163
| 29> H 4.4096543432 -2.0161398533 0.9311671397
| 30> H 2.8549472098 -1.5055280785 1.6660416479
| 31> H 1.5395883855 -0.8753527625 -2.6214146693
| 32> H 2.687128356 0.3916349864 -2.1505557642
| 33> H 0.8578471321 4.3754767465 0.0149888007
| 34> H -0.8968964763 4.6139565868 -0.2793577061
| 35> H -1.3542494741 3.112554396 1.7063965961
| 36> H 0.3854430065 3.0401585502 2.0161877122
| 37> H -0.4690230372 4.5815759538 2.1494271232
| 38> H 0.5558731445 0.6263071133 2.3865526916
| 39> H -0.3310447343 -0.8786338713 2.7217496297
| 40> H -0.9839662509 0.6834419819 3.3057169097
| 41> H -3.3865388254 1.2401148089 0.42022961
| 42> H -4.7794367788 0.1294701396 0.2640138435
| 43> H -3.8621367947 0.627951639 -1.1891463588
| 44> *
| 45>
| 46>                          ****END OF INPUT****

CARTESIAN COORDINATES (ANGSTROEM)
---------------------------------
  C      2.818306   -3.485314    0.791170
  C      3.323578   -2.052886    0.843857
  O      3.043853   -1.363591   -0.391358
  C      1.906322   -0.734953   -0.531203
  O      1.052250   -0.652048    0.338891
  C      1.748214   -0.096239   -1.885818
  C      0.608519    0.907500   -1.847765
  H      0.512042    1.422588   -2.808058
  C      0.801473    1.965012   -0.769685
  O      1.818150    2.068876   -0.120275
  O     -0.231408    2.773610   -0.698487
  C     -0.141324    3.947190    0.136429
  C     -0.414321    3.647485    1.600056
  S     -1.041556    0.118931   -1.707595
  P     -1.382322   -0.754377    0.194924
  S     -0.964291   -2.612777    0.656269
  O     -1.186854    0.383082    1.314518
  C     -0.433457    0.187069    2.509515
  O     -2.985014   -0.773217    0.060480
  C     -3.799950    0.394515   -0.127227
  H      1.732066   -3.503394    0.714183
  H      3.241972   -4.000625   -0.066011
  H      3.110243   -4.000654    1.699997
  H      4.409654   -2.016140    0.931167
  H      2.854947   -1.505528    1.666042
  H      1.539588   -0.875353   -2.621415
  H      2.687128    0.391635   -2.150556
  H      0.857847    4.375477    0.014989
  H     -0.896896    4.613957   -0.279358
  H     -1.354249    3.112554    1.706397
  H      0.385443    3.040159    2.016188
  H     -0.469023    4.581576    2.149427
  H      0.555873    0.626307    2.386553
  H     -0.331045   -0.878634    2.721750
  H     -0.983966    0.683442    3.305717
  H     -3.386539    1.240115    0.420230
  H     -4.779437    0.129470    0.264014
  H     -3.862137    0.627952   -1.189146

 Total Charge           Charge          ....    0
 Multiplicity           Mult            ....    1
 Number of Electrons    NEL             ....  174
 Basis Dimension        Dim             ....  316

ORBITAL ENERGIES
----------------

  NO   OCC          E(Eh)            E(eV)
   0   2.0000     -88.035116     -2395.5573
   1   2.0000     -87.961163     -2393.5449
   2   2.0000     -76.416654     -2079.4029
   3   2.0000     -18.812850      -511.9237
   4   2.0000     -18.810877      -511.8700
   5   2.0000     -18.782691      -511.1030
   6   2.0000     -18.769970      -510.7568
   7   2.0000     -18.756312      -510.3852
   8   2.0000     -18.748637      -510.1764
   9   2.0000     -10.024393      -272.7776
  10   2.0000     -10.021248      -272.6920
  11   2.0000      -9.956550      -270.9315
  12   2.0000      -9.955427      -270.9009
  13   2.0000      -9.949309      -270.7344
  14   2.0000      -9.933085      -270.2930
  15   2.0000      -9.931088      -270.2386
  16   2.0000      -9.918034      -269.8834
  17   2.0000      -9.889452      -269.1057
  18   2.0000      -9.878501      -268.8077
  19   2.0000      -7.679788      -208.9777
  20   2.0000      -7.606636      -206.9871
  21   2.0000      -6.412051      -174.4808
  22   2.0000      -5.708439      -155.3345
  23   2.0000      -5.703760      -155.2072
  24   2.0000      -5.696547      -155.0109
  25   2.0000      -5.636088      -153.3657
  26   2.0000      -5.627284      -153.1262
  27   2.0000      -5.626101      -153.0940
  28   2.0000      -4.635315      -126.1333
  29   2.0000      -4.633865      -126.0939
  30   2.0000      -4.632324      -126.0520
  31   2.0000      -1.022994       -27.8371
  32   2.0000      -1.019863       -27.7519
  33   2.0000      -0.967465       -26.3261
  34   2.0000      -0.932848       -25.3841
  35   2.0000      -0.925991       -25.1975
  36   2.0000      -0.922744       -25.1091
  37   2.0000      -0.766251       -20.8508
  38   2.0000      -0.716977       -19.5099
  39   2.0000      -0.704877       -19.1807
  40   2.0000      -0.688297       -18.7295
  41   2.0000      -0.655596       -17.8397
  42   2.0000      -0.627440       -17.0735
  43   2.0000      -0.619631       -16.8610
  44   2.0000      -0.602286       -16.3890
  45   2.0000      -0.599654       -16.3174
  46   2.0000      -0.570371       -15.5206
  47   2.0000      -0.511142       -13.9089
  48   2.0000      -0.504102       -13.7173
  49   2.0000      -0.498049       -13.5526
  50   2.0000      -0.489680       -13.3249
  51   2.0000      -0.470043       -12.7905
  52   2.0000      -0.458438       -12.4747
  53   2.0000      -0.444361       -12.0917
  54   2.0000      -0.443663       -12.0727
  55   2.0000      -0.433451       -11.7948
  56   2.0000      -0.431429       -11.7398
  57   2.0000      -0.417034       -11.3481
  58   2.0000      -0.410551       -11.1717
  59   2.0000      -0.405981       -11.0473
  60   2.0000      -0.400217       -10.8904
  61   2.0000      -0.397320       -10.8116
  62   2.0000      -0.389130       -10.5888
  63   2.0000      -0.382985       -10.4216
  64   2.0000      -0.381855       -10.3908
  65   2.0000      -0.373595       -10.1660
  66   2.0000      -0.359811        -9.7910
  67   2.0000      -0.352578        -9.5941
  68   2.0000      -0.345753        -9.4084
  69   2.0000      -0.335511        -9.1297
  70   2.0000      -0.333543        -9.0762
  71   2.0000      -0.332113        -9.0372
  72   2.0000      -0.320053        -8.7091
  73   2.0000      -0.305712        -8.3188
  74   2.0000      -0.303096        -8.2477
  75   2.0000      -0.298052        -8.1104
  76   2.0000      -0.291966        -7.9448
  77   2.0000      -0.281573        -7.6620
  78   2.0000      -0.272157        -7.4058
  79   2.0000      -0.266584        -7.2541
  80   2.0000      -0.256536        -6.9807
  81   2.0000      -0.249015        -6.7760
  82   2.0000      -0.244327        -6.6485
  83   2.0000      -0.234249        -6.3743
  84   2.0000      -0.214688        -5.8420
  85   2.0000      -0.182176        -4.9572
  86   2.0000      -0.171437        -4.6650
  87   0.0000      -0.047437        -1.2908
  88   0.0000      -0.041523        -1.1299
  89   0.0000      -0.019574        -0.5326
  90   0.0000      -0.000745        -0.0203
  91   0.0000       0.030630         0.8335

MULLIKEN ATOMIC CHARGES
-----------------------
   0 C :   -0.318676
   1 C :   -0.015329
   2 O :   -0.217195
   3 C :    0.158396
   4 O :   -0.225443
   5 C :   -0.050862
   6 C :   -0.316586
   7 H :    0.151367
   8 C :    0.208676
   9 O :   -0.197409
  10 O :   -0.217580
  11 C :   -0.010077
  12 C :   -0.320795
  13 S :   -0.102918
  14 P :    0.648221
  15 S :   -0.320153
  16 O :   -0.403860
  17 C :   -0.107907
  18 O :   -0.381061
  19 C :   -0.116030
  20 H :    0.151336
  21 H :    0.109442
  22 H :    0.109454
  23 H :    0.104286
  24 H :    0.113544
  25 H :    0.133088
  26 H :    0.122910
  27 H :    0.104164
  28 H :    0.104309
  29 H :    0.134775
  30 H :    0.132012
  31 H :    0.110397
  32 H :    0.132051
  33 H :    0.120981
  34 H :    0.111395
  35 H :    0.119260
  36 H :    0.121908
  37 H :    0.119910
Sum of atomic charges:   -0.0000000

LOEWDIN ATOMIC CHARGES
----------------------
   0 C :   -0.362655
   1 C :   -0.105702
   2 O :   -0.038958
   3 C :    0.054190
   4 O :   -0.164855
   5 C :   -0.249709
   6 C :   -0.265475
   7 H :    0.153138
   8 C :    0.018881
   9 O :   -0.158660
  10 O :   -0.050748
  11 C :   -0.103690
  12 C :   -0.358750
  13 S :    0.108888
  14 P :    0.584895
  15 S :   -0.318645
  16 O :   -0.258941
  17 C :   -0.218125
  18 O :   -0.263154
  19 C :   -0.219238
  20 H :    0.128063
  21 H :    0.123569
  22 H :    0.130434
  23 H :    0.118621
  24 H :    0.121256
  25 H :    0.151333
  26 H :    0.149074
  27 H :    0.117963
  28 H :    0.119283
  29 H :    0.128290
  30 H :    0.129783
  31 H :    0.130042
  32 H :    0.110956
  33 H :    0.109097
  34 H :    0.112924
  35 H :    0.107521
  36 H :    0.120361
  37 H :    0.108744

  Mayer bond orders larger than 0.100000
B(  0-C ,  1-C ) :   1.1770 B(  0-C , 20-H ) :   0.9217 B(  0-C , 21-H ) :   0.9471
B(  0-C , 22-H ) :   0.9414 B(  1-C ,  2-O ) :   0.9006 B(  1-C , 23-H ) :   0.9368
B(  1-C , 24-H ) :   0.9145 B(  2-O ,  3-C ) :   1.2824 B(  3-C ,  4-O ) :   1.8485
B(  3-C ,  5-C ) :   1.0196 B(  4-O , 14-P ) :   0.1350 B(  5-C ,  6-C ) :   1.0296
B(  5-C , 25-H ) :   0.8799 B(  5-C , 26-H ) :   0.8807 B(  6-C ,  7-H ) :   0.8723
B(  6-C ,  8-C ) :   0.8892 B(  6-C , 13-S ) :   1.0202 B(  8-C ,  9-O ) :   2.0397
B(  8-C , 10-O ) :   1.2638 B( 10-O , 11-C ) :   0.9169 B( 11-C , 12-C ) :   1.1774
B( 11-C , 27-H ) :   0.9211 B( 11-C , 28-H ) :   0.9379 B( 12-C , 29-H ) :   0.9381
B( 12-C , 30-H ) :   0.9368 B( 12-C , 31-H ) :   0.9386 B( 13-S , 14-P ) :   0.9575
B( 14-P , 15-S ) :   1.5931 B( 14-P , 16-O ) :   1.0488 B( 14-P , 18-O ) :   1.0700
B( 16-O , 17-C ) :   0.9238 B( 17-C , 32-H ) :   0.9374 B( 17-C , 33-H ) :   0.9265
B( 17-C , 34-H ) :   0.9525 B( 18-O , 19-C ) :   0.9323 B( 19-C , 35-H ) :   0.9412
B( 19-C , 36-H ) :   0.9580 B( 19-C , 37-H ) :   0.9494

Dispersion correction           -0.055261688
FINAL SINGLE POINT ENERGY     -1979.005508382649

DIPOLE MOMENT
-------------

Method             : SCF
Type of density    : Electron Density
Multiplicity       :   1
Irrep              :   0
Energy             : -1979.1364060497562605 Eh
Relativity type    :
Basis              : AO
                                X                 Y                 Z
Electronic contribution:     -6.082462417      -6.675760254     -10.137262330
Nuclear contribution   :      6.779010123       8.348582936      10.073011756
                        -----------------------------------------
Total Dipole Moment    :      0.696547706       1.672822683      -0.064250574
                        -----------------------------------------
Magnitude (a.u.)       :      1.813185752
Magnitude (Debye)      :      4.608751918

Rotational constants in cm-1:             0.011946             0.009465             0.007137
Rotational constants in MHz :           358.125617           283.760263           213.954313

                             ****ORCA TERMINATED NORMALLY****
TOTAL RUN TIME: 0 days 0 hours 0 minutes 40 seconds 709 msec
