                         Program Version 6.0.1  -  RELEASE   -
|  1> ! pbe def2-sv(p) def2/J RI DEFGRID1 loosescf d4 GCP(DFT/SV(P)) printgap
|  2> %output
|  3>     printlevel normal
|  4> end
|  5> * xyz 0 1
|  6> C 5.4244649319 -2.0207805221 -2.0413953952
|  7> C 4.9448510362 -1.2316654674 -0.8334674541
|  8> O 3.6385931832 -1.6722588341 -0.413906777
|  9> C 2.5818284383 -1.1461247885 -0.9984332742
| 10> O 2.6179966493 -0.2888128772 -1.852389507
| 11> C 1.2983760191 -1.7612127935 -0.4675336245
| 12> C 0.2586913387 -0.6667369208 -0.2766101876
| 13> H 0.1988600252 -0.0549119418 -1.1877504668
| 14> C 0.5836117845 0.281675322 0.8592641424
| 15> O -0.2817291588 0.7704235865 1.5581016034
| 16> O 1.8652655294 0.5042822949 0.9790459956
| 17> C 2.3000192593 1.4893551414 1.9434612258
| 18> C 2.2591628098 2.88138236 1.3363806163
| 19> S -1.397494396 -1.3565120837 0.0379797495
| 20> P -2.4867282996 0.4699209557 0.1212991454
| 21> S -1.7472556163 2.0074494672 -0.8401372425
| 22> O -3.8883459109 -0.017398601 -0.5024072475
| 23> C -4.0141987195 -0.3498248093 -1.8869931705
| 24> O -2.9728118204 0.7670042417 1.5930962477
| 25> C -3.6356784157 -0.2259959171 2.4003197149
| 26> H 4.7794221345 -1.8258394775 -2.8950673628
| 27> H 6.4364092375 -1.7179471697 -2.2893123801
| 28> H 5.4117993775 -3.0848711216 -1.8225485085
| 29> H 4.8941925211 -0.1638528021 -1.0638783515
| 30> H 5.5822045855 -1.4061718381 0.0333044933
| 31> H 1.503880909 -2.2892325483 0.4621199616
| 32> H 0.929019183 -2.4736943962 -1.2077695361
| 33> H 1.6500111226 1.4266614344 2.8202825277
| 34> H 3.3171686636 1.1892809315 2.1944511144
| 35> H 2.8646394455 2.9158383933 0.4344828304
| 36> H 1.235959661 3.1482290472 1.0765383513
| 37> H 2.6396552498 3.599734278 2.0546861564
| 38> H -3.5246297798 -1.3032890267 -2.0853705868
| 39> H -3.5688675145 0.4338744879 -2.5024437258
| 40> H -5.0822049516 -0.4196754322 -2.0763067368
| 41> H -3.0209356075 -1.1239192385 2.46631942
| 42> H -4.6055405405 -0.4659853521 1.9682416315
| 43> H -3.7468592193 0.2357931161 3.3778884684
| 44> *
| 45>
| 46>                          ****END OF INPUT****

CARTESIAN COORDINATES (ANGSTROEM)
---------------------------------
  C      5.424465   -2.020781   -2.041395
  C      4.944851   -1.231665   -0.833467
  O      3.638593   -1.672259   -0.413907
  C      2.581828   -1.146125   -0.998433
  O      2.617997   -0.288813   -1.852390
  C      1.298376   -1.761213   -0.467534
  C      0.258691   -0.666737   -0.276610
  H      0.198860   -0.054912   -1.187750
  C      0.583612    0.281675    0.859264
  O     -0.281729    0.770424    1.558102
  O      1.865266    0.504282    0.979046
  C      2.300019    1.489355    1.943461
  C      2.259163    2.881382    1.336381
  S     -1.397494   -1.356512    0.037980
  P     -2.486728    0.469921    0.121299
  S     -1.747256    2.007449   -0.840137
  O     -3.888346   -0.017399   -0.502407
  C     -4.014199   -0.349825   -1.886993
  O     -2.972812    0.767004    1.593096
  C     -3.635678   -0.225996    2.400320
  H      4.779422   -1.825839   -2.895067
  H      6.436409   -1.717947   -2.289312
  H      5.411799   -3.084871   -1.822549
  H      4.894193   -0.163853   -1.063878
  H      5.582205   -1.406172    0.033304
  H      1.503881   -2.289233    0.462120
  H      0.929019   -2.473694   -1.207770
  H      1.650011    1.426661    2.820283
  H      3.317169    1.189281    2.194451
  H      2.864639    2.915838    0.434483
  H      1.235960    3.148229    1.076538
  H      2.639655    3.599734    2.054686
  H     -3.524630   -1.303289   -2.085371
  H     -3.568868    0.433874   -2.502444
  H     -5.082205   -0.419675   -2.076307
  H     -3.020936   -1.123919    2.466319
  H     -4.605541   -0.465985    1.968242
  H     -3.746859    0.235793    3.377888

 Total Charge           Charge          ....    0
 Multiplicity           Mult            ....    1
 Number of Electrons    NEL             ....  174
 Basis Dimension        Dim             ....  316

ORBITAL ENERGIES
----------------

  NO   OCC          E(Eh)            E(eV)
   0   2.0000     -88.036298     -2395.5895
   1   2.0000     -87.971381     -2393.8230
   2   2.0000     -76.417224     -2079.4184
   3   2.0000     -18.818509      -512.0777
   4   2.0000     -18.806589      -511.7533
   5   2.0000     -18.780705      -511.0490
   6   2.0000     -18.778830      -510.9979
   7   2.0000     -18.745850      -510.1005
   8   2.0000     -18.742607      -510.0123
   9   2.0000     -10.019617      -272.6476
  10   2.0000     -10.015582      -272.5379
  11   2.0000      -9.954997      -270.8892
  12   2.0000      -9.953117      -270.8381
  13   2.0000      -9.944712      -270.6094
  14   2.0000      -9.941759      -270.5290
  15   2.0000      -9.934203      -270.3234
  16   2.0000      -9.917231      -269.8616
  17   2.0000      -9.891693      -269.1667
  18   2.0000      -9.885842      -269.0074
  19   2.0000      -7.681116      -209.0138
  20   2.0000      -7.616589      -207.2579
  21   2.0000      -6.413422      -174.5181
  22   2.0000      -5.708830      -155.3452
  23   2.0000      -5.705758      -155.2616
  24   2.0000      -5.698185      -155.0555
  25   2.0000      -5.645857      -153.6316
  26   2.0000      -5.637212      -153.3963
  27   2.0000      -5.636357      -153.3731
  28   2.0000      -4.636181      -126.1569
  29   2.0000      -4.635471      -126.1376
  30   2.0000      -4.633732      -126.0903
  31   2.0000      -1.026479       -27.9319
  32   2.0000      -1.014347       -27.6018
  33   2.0000      -0.975357       -26.5408
  34   2.0000      -0.930540       -25.3213
  35   2.0000      -0.926523       -25.2120
  36   2.0000      -0.920050       -25.0358
  37   2.0000      -0.765799       -20.8384
  38   2.0000      -0.714689       -19.4477
  39   2.0000      -0.709584       -19.3088
  40   2.0000      -0.688375       -18.7316
  41   2.0000      -0.658691       -17.9239
  42   2.0000      -0.626810       -17.0564
  43   2.0000      -0.622305       -16.9338
  44   2.0000      -0.611073       -16.6281
  45   2.0000      -0.599441       -16.3116
  46   2.0000      -0.565384       -15.3849
  47   2.0000      -0.511373       -13.9152
  48   2.0000      -0.505459       -13.7542
  49   2.0000      -0.501188       -13.6380
  50   2.0000      -0.474445       -12.9103
  51   2.0000      -0.473397       -12.8818
  52   2.0000      -0.463981       -12.6256
  53   2.0000      -0.442517       -12.0415
  54   2.0000      -0.441454       -12.0126
  55   2.0000      -0.430082       -11.7031
  56   2.0000      -0.423157       -11.5147
  57   2.0000      -0.419940       -11.4272
  58   2.0000      -0.413750       -11.2587
  59   2.0000      -0.405700       -11.0397
  60   2.0000      -0.403166       -10.9707
  61   2.0000      -0.400099       -10.8873
  62   2.0000      -0.391713       -10.6590
  63   2.0000      -0.387812       -10.5529
  64   2.0000      -0.378396       -10.2967
  65   2.0000      -0.369584       -10.0569
  66   2.0000      -0.357564        -9.7298
  67   2.0000      -0.354359        -9.6426
  68   2.0000      -0.349739        -9.5169
  69   2.0000      -0.339206        -9.2303
  70   2.0000      -0.335984        -9.1426
  71   2.0000      -0.329972        -8.9790
  72   2.0000      -0.325743        -8.8639
  73   2.0000      -0.313911        -8.5420
  74   2.0000      -0.301712        -8.2100
  75   2.0000      -0.299274        -8.1437
  76   2.0000      -0.291127        -7.9220
  77   2.0000      -0.287353        -7.8193
  78   2.0000      -0.273254        -7.4356
  79   2.0000      -0.263426        -7.1682
  80   2.0000      -0.261337        -7.1113
  81   2.0000      -0.250557        -6.8180
  82   2.0000      -0.235262        -6.4018
  83   2.0000      -0.228423        -6.2157
  84   2.0000      -0.218856        -5.9554
  85   2.0000      -0.192676        -5.2430
  86   2.0000      -0.185195        -5.0394
  87   0.0000      -0.043048        -1.1714
  88   0.0000      -0.028974        -0.7884
  89   0.0000      -0.020110        -0.5472
  90   0.0000       0.013351         0.3633
  91   0.0000       0.030123         0.8197

MULLIKEN ATOMIC CHARGES
-----------------------
   0 C :   -0.306255
   1 C :   -0.013757
   2 O :   -0.229832
   3 C :    0.117999
   4 O :   -0.202539
   5 C :   -0.061471
   6 C :   -0.338652
   7 H :    0.175514
   8 C :    0.227358
   9 O :   -0.182197
  10 O :   -0.221684
  11 C :   -0.010046
  12 C :   -0.309885
  13 S :   -0.107719
  14 P :    0.625378
  15 S :   -0.324121
  16 O :   -0.396896
  17 C :   -0.098037
  18 O :   -0.353266
  19 C :   -0.101788
  20 H :    0.129100
  21 H :    0.114754
  22 H :    0.114837
  23 H :    0.110348
  24 H :    0.102631
  25 H :    0.107528
  26 H :    0.126422
  27 H :    0.113950
  28 H :    0.103304
  29 H :    0.122003
  30 H :    0.142446
  31 H :    0.113606
  32 H :    0.108291
  33 H :    0.115680
  34 H :    0.120094
  35 H :    0.115027
  36 H :    0.122155
  37 H :    0.129717
Sum of atomic charges:   -0.0000000

LOEWDIN ATOMIC CHARGES
----------------------
   0 C :   -0.356011
   1 C :   -0.110607
   2 O :   -0.056438
   3 C :    0.029744
   4 O :   -0.166755
   5 C :   -0.247520
   6 C :   -0.274631
   7 H :    0.151244
   8 C :    0.022687
   9 O :   -0.154551
  10 O :   -0.034871
  11 C :   -0.105819
  12 C :   -0.356076
  13 S :    0.087742
  14 P :    0.587874
  15 S :   -0.320916
  16 O :   -0.268101
  17 C :   -0.219966
  18 O :   -0.231282
  19 C :   -0.208013
  20 H :    0.131435
  21 H :    0.131568
  22 H :    0.125196
  23 H :    0.120555
  24 H :    0.117753
  25 H :    0.135181
  26 H :    0.148921
  27 H :    0.123230
  28 H :    0.117948
  29 H :    0.128976
  30 H :    0.137361
  31 H :    0.131355
  32 H :    0.104629
  33 H :    0.109650
  34 H :    0.119699
  35 H :    0.108534
  36 H :    0.114707
  37 H :    0.125569

  Mayer bond orders larger than 0.100000
B(  0-C ,  1-C ) :   1.1744 B(  0-C , 20-H ) :   0.9458 B(  0-C , 21-H ) :   0.9440
B(  0-C , 22-H ) :   0.9488 B(  1-C ,  2-O ) :   0.9161 B(  1-C , 23-H ) :   0.9139
B(  1-C , 24-H ) :   0.9369 B(  2-O ,  3-C ) :   1.2392 B(  3-C ,  4-O ) :   2.0379
B(  3-C ,  5-C ) :   1.0026 B(  5-C ,  6-C ) :   1.0484 B(  5-C , 25-H ) :   0.9063
B(  5-C , 26-H ) :   0.8796 B(  6-C ,  7-H ) :   0.8294 B(  6-C ,  8-C ) :   0.8977
B(  6-C , 13-S ) :   1.0323 B(  8-C ,  9-O ) :   2.0025 B(  8-C , 10-O ) :   1.2658
B( 10-O , 11-C ) :   0.8968 B( 11-C , 12-C ) :   1.1791 B( 11-C , 27-H ) :   0.9133
B( 11-C , 28-H ) :   0.9364 B( 12-C , 29-H ) :   0.9474 B( 12-C , 30-H ) :   0.9383
B( 12-C , 31-H ) :   0.9422 B( 13-S , 14-P ) :   0.9337 B( 13-S , 15-S ) :   0.1125
B( 14-P , 15-S ) :   1.6227 B( 14-P , 16-O ) :   1.0472 B( 14-P , 18-O ) :   1.1320
B( 16-O , 17-C ) :   0.9401 B( 17-C , 32-H ) :   0.9460 B( 17-C , 33-H ) :   0.9333
B( 17-C , 34-H ) :   0.9589 B( 18-O , 19-C ) :   0.9233 B( 19-C , 35-H ) :   0.9393
B( 19-C , 36-H ) :   0.9472 B( 19-C , 37-H ) :   0.9600

Dispersion correction           -0.050486436
FINAL SINGLE POINT ENERGY     -1979.016196071552

DIPOLE MOMENT
-------------

Method             : SCF
Type of density    : Electron Density
Multiplicity       :   1
Irrep              :   0
Energy             : -1979.1478132981183080 Eh
Relativity type    :
Basis              : AO
                                X                 Y                 Z
Electronic contribution:    -17.995013212       2.271956357       0.984393595
Nuclear contribution   :     19.115253673      -3.608783773      -0.292157423
                        -----------------------------------------
Total Dipole Moment    :      1.120240461      -1.336827416       0.692236173
                        -----------------------------------------
Magnitude (a.u.)       :      1.876495976
Magnitude (Debye)      :      4.769673719

Rotational constants in cm-1:             0.016748             0.005529             0.004958
Rotational constants in MHz :           502.097268           165.745690           148.640225

                             ****ORCA TERMINATED NORMALLY****
TOTAL RUN TIME: 0 days 0 hours 0 minutes 27 seconds 548 msec
