                         Program Version 6.0.0  -   RELEASE  -
|  1> ! r2scan-3c def2/J RI DEFGRID2 scfconv6 printgap
|  2> %output
|  3>     printlevel normal
|  4> end
|  5> * xyz 0 1
|  6> C -0.6678461257 1.2508647728 3.20375e-05
|  7> C 0.6680565911 1.2507907461 0.0002780242
|  8> C 1.4470558586 -3.90482e-05 -0.0001207701
|  9> O 2.6688847629 3.78679e-05 -0.0001419988
| 10> C 0.6679992566 -1.250921097 5.4325e-05
| 11> C -0.6681249376 -1.2509633382 0.0001776538
| 12> C -1.4470386802 3.72783e-05 -0.0001923269
| 13> O -2.6689764998 0.0001435422 -0.0001159678
| 14> H -1.2421366976 2.165893287 0.0004116637
| 15> H 1.2425214244 2.1656963748 3.1979e-06
| 16> H 1.2424579028 -2.1658054182 0.0002344198
| 17> H -1.2426014578 -2.1659149482 0.0007174004
| 18> *
| 19>
| 20>                          ****END OF INPUT****

CARTESIAN COORDINATES (ANGSTROEM)
---------------------------------
  C     -0.667846    1.250865    0.000032
  C      0.668057    1.250791    0.000278
  C      1.447056   -0.000039   -0.000121
  O      2.668885    0.000038   -0.000142
  C      0.667999   -1.250921    0.000054
  C     -0.668125   -1.250963    0.000178
  C     -1.447039    0.000037   -0.000192
  O     -2.668976    0.000144   -0.000116
  H     -1.242137    2.165893    0.000412
  H      1.242521    2.165696    0.000003
  H      1.242458   -2.165805    0.000234
  H     -1.242601   -2.165915    0.000717

 Total Charge           Charge          ....    0
 Multiplicity           Mult            ....    1
 Number of Electrons    NEL             ....   56
 Basis Dimension        Dim             ....  182

ORBITAL ENERGIES
----------------

  NO   OCC          E(Eh)            E(eV)
   0   2.0000     -18.971121      -516.2305
   1   2.0000     -18.971118      -516.2304
   2   2.0000     -10.147842      -276.1368
   3   2.0000     -10.147818      -276.1362
   4   2.0000     -10.081027      -274.3187
   5   2.0000     -10.080984      -274.3175
   6   2.0000     -10.080312      -274.2992
   7   2.0000     -10.080270      -274.2981
   8   2.0000      -1.033854       -28.1326
   9   2.0000      -1.031786       -28.0763
  10   2.0000      -0.839537       -22.8450
  11   2.0000      -0.768870       -20.9220
  12   2.0000      -0.687807       -18.7162
  13   2.0000      -0.616710       -16.7815
  14   2.0000      -0.584539       -15.9061
  15   2.0000      -0.490516       -13.3476
  16   2.0000      -0.483746       -13.1634
  17   2.0000      -0.459189       -12.4952
  18   2.0000      -0.437588       -11.9074
  19   2.0000      -0.426700       -11.6111
  20   2.0000      -0.414987       -11.2924
  21   2.0000      -0.394665       -10.7394
  22   2.0000      -0.393998       -10.7212
  23   2.0000      -0.373567       -10.1653
  24   2.0000      -0.297802        -8.1036
  25   2.0000      -0.292182        -7.9507
  26   2.0000      -0.252996        -6.8844
  27   2.0000      -0.244440        -6.6516
  28   0.0000      -0.168220        -4.5775
  29   0.0000      -0.064465        -1.7542
  30   0.0000      -0.026608        -0.7240
  31   0.0000       0.079316         2.1583
  32   0.0000       0.092444         2.5155

MULLIKEN ATOMIC CHARGES
-----------------------
   0 C :   -0.174771
   1 C :   -0.174760
   2 C :    0.320251
   3 O :   -0.327476
   4 C :   -0.174822
   5 C :   -0.174783
   6 C :    0.320197
   7 O :   -0.327477
   8 H :    0.178405
   9 H :    0.178403
  10 H :    0.178411
  11 H :    0.178423
Sum of atomic charges:    0.0000000

LOEWDIN ATOMIC CHARGES
----------------------
   0 C :   -0.097200
   1 C :   -0.097193
   2 C :    0.229973
   3 O :   -0.411444
   4 C :   -0.097187
   5 C :   -0.097179
   6 C :    0.230038
   7 O :   -0.411492
   8 H :    0.187920
   9 H :    0.187922
  10 H :    0.187911
  11 H :    0.187930

  Mayer bond orders larger than 0.100000
B(  0-C ,  1-C ) :   1.6345 B(  0-C ,  6-C ) :   1.0642 B(  0-C ,  8-H ) :   0.9335
B(  1-C ,  2-C ) :   1.0643 B(  1-C ,  9-H ) :   0.9335 B(  2-C ,  3-O ) :   1.7964
B(  2-C ,  4-C ) :   1.0642 B(  4-C ,  5-C ) :   1.6345 B(  4-C , 10-H ) :   0.9335
B(  5-C ,  6-C ) :   1.0643 B(  5-C , 11-H ) :   0.9335 B(  6-C ,  7-O ) :   1.7963

Dispersion correction           -0.003755483
FINAL SINGLE POINT ENERGY      -381.378308543986

DIPOLE MOMENT
-------------

Method             : SCF
Type of density    : Electron Density
Multiplicity       :   1
Irrep              :   0
Energy             :  -381.3776389203607096 Eh
Relativity type    :
Basis              : AO
                                X                 Y                 Z
Electronic contribution:     -0.000044510      -0.000033899      -0.001032436
Nuclear contribution   :      0.000224902      -0.000119936       0.001278365
                        -----------------------------------------
Total Dipole Moment    :      0.000180393      -0.000153835       0.000245929
                        -----------------------------------------
Magnitude (a.u.)       :      0.000341596
Magnitude (Debye)      :      0.000868268

Rotational constants in cm-1:             0.179168             0.055110             0.042146
Rotational constants in MHz :          5371.324483          1652.153478          1263.512553

                             ****ORCA TERMINATED NORMALLY****
TOTAL RUN TIME: 0 days 0 hours 0 minutes 24 seconds 995 msec
