                         Program Version 6.0.0  -   RELEASE  -
|  1> ! r2scan-3c def2/J RI DEFGRID2 scfconv6 printgap
|  2> %output
|  3>     printlevel normal
|  4> end
|  5> %cpcm
|  6>     smd true
|  7>     smdsolvent "water"
|  8> end
|  9> * xyz 0 1
| 10> C -0.6678461257 1.2508647728 3.20375e-05
| 11> C 0.6680565911 1.2507907461 0.0002780242
| 12> C 1.4470558586 -3.90482e-05 -0.0001207701
| 13> O 2.6688847629 3.78679e-05 -0.0001419988
| 14> C 0.6679992566 -1.250921097 5.4325e-05
| 15> C -0.6681249376 -1.2509633382 0.0001776538
| 16> C -1.4470386802 3.72783e-05 -0.0001923269
| 17> O -2.6689764998 0.0001435422 -0.0001159678
| 18> H -1.2421366976 2.165893287 0.0004116637
| 19> H 1.2425214244 2.1656963748 3.1979e-06
| 20> H 1.2424579028 -2.1658054182 0.0002344198
| 21> H -1.2426014578 -2.1659149482 0.0007174004
| 22> *
| 23>
| 24>                          ****END OF INPUT****

CARTESIAN COORDINATES (ANGSTROEM)
---------------------------------
  C     -0.667846    1.250865    0.000032
  C      0.668057    1.250791    0.000278
  C      1.447056   -0.000039   -0.000121
  O      2.668885    0.000038   -0.000142
  C      0.667999   -1.250921    0.000054
  C     -0.668125   -1.250963    0.000178
  C     -1.447039    0.000037   -0.000192
  O     -2.668976    0.000144   -0.000116
  H     -1.242137    2.165893    0.000412
  H      1.242521    2.165696    0.000003
  H      1.242458   -2.165805    0.000234
  H     -1.242601   -2.165915    0.000717

 Total Charge           Charge          ....    0
 Multiplicity           Mult            ....    1
 Number of Electrons    NEL             ....   56
 Basis Dimension        Dim             ....  182

ORBITAL ENERGIES
----------------

  NO   OCC          E(Eh)            E(eV)
   0   2.0000     -18.971072      -516.2291
   1   2.0000     -18.971067      -516.2290
   2   2.0000     -10.144125      -276.0357
   3   2.0000     -10.144098      -276.0349
   4   2.0000     -10.066656      -273.9276
   5   2.0000     -10.066613      -273.9265
   6   2.0000     -10.065941      -273.9082
   7   2.0000     -10.065899      -273.9070
   8   2.0000      -1.034484       -28.1497
   9   2.0000      -1.032749       -28.1025
  10   2.0000      -0.827199       -22.5092
  11   2.0000      -0.753789       -20.5117
  12   2.0000      -0.678773       -18.4704
  13   2.0000      -0.604258       -16.4427
  14   2.0000      -0.571340       -15.5470
  15   2.0000      -0.481986       -13.1155
  16   2.0000      -0.478706       -13.0263
  17   2.0000      -0.452181       -12.3045
  18   2.0000      -0.420129       -11.4323
  19   2.0000      -0.419509       -11.4154
  20   2.0000      -0.411978       -11.2105
  21   2.0000      -0.392939       -10.6924
  22   2.0000      -0.391398       -10.6505
  23   2.0000      -0.362438        -9.8624
  24   2.0000      -0.292349        -7.9552
  25   2.0000      -0.276709        -7.5296
  26   2.0000      -0.255626        -6.9559
  27   2.0000      -0.243945        -6.6381
  28   0.0000      -0.162696        -4.4272
  29   0.0000      -0.049363        -1.3432
  30   0.0000      -0.019856        -0.5403
  31   0.0000       0.103708         2.8220
  32   0.0000       0.103830         2.8253

MULLIKEN ATOMIC CHARGES
-----------------------
   0 C :   -0.196847
   1 C :   -0.196830
   2 C :    0.380376
   3 O :   -0.408346
   4 C :   -0.196891
   5 C :   -0.196852
   6 C :    0.380309
   7 O :   -0.408377
   8 H :    0.210859
   9 H :    0.210853
  10 H :    0.210863
  11 H :    0.210884
Sum of atomic charges:    0.0000000

LOEWDIN ATOMIC CHARGES
----------------------
   0 C :   -0.086503
   1 C :   -0.086487
   2 C :    0.244712
   3 O :   -0.470319
   4 C :   -0.086475
   5 C :   -0.086484
   6 C :    0.244777
   7 O :   -0.470395
   8 H :    0.199292
   9 H :    0.199293
  10 H :    0.199283
  11 H :    0.199305

  Mayer bond orders larger than 0.100000
B(  0-C ,  1-C ) :   1.6689 B(  0-C ,  6-C ) :   1.0456 B(  0-C ,  8-H ) :   0.9212
B(  1-C ,  2-C ) :   1.0456 B(  1-C ,  9-H ) :   0.9212 B(  2-C ,  3-O ) :   1.7590
B(  2-C ,  4-C ) :   1.0456 B(  4-C ,  5-C ) :   1.6688 B(  4-C , 10-H ) :   0.9212
B(  5-C ,  6-C ) :   1.0456 B(  5-C , 11-H ) :   0.9212 B(  6-C ,  7-O ) :   1.7589

Dispersion correction           -0.003755483
FINAL SINGLE POINT ENERGY      -381.388088597286

DIPOLE MOMENT
-------------

Method             : SCF
Type of density    : Electron Density
Multiplicity       :   1
Irrep              :   0
Energy             :  -381.3874189736614539 Eh
Relativity type    :
Basis              : AO
                                X                 Y                 Z
Electronic contribution:      0.000155512      -0.000104291      -0.000956280
Nuclear contribution   :      0.000224902      -0.000119936       0.001278365
                        -----------------------------------------
Total Dipole Moment    :      0.000380414      -0.000224227       0.000322085
                        -----------------------------------------
Magnitude (a.u.)       :      0.000546563
Magnitude (Debye)      :      0.001389253

Rotational constants in cm-1:             0.179168             0.055110             0.042146
Rotational constants in MHz :          5371.324483          1652.153478          1263.512553

                             ****ORCA TERMINATED NORMALLY****
TOTAL RUN TIME: 0 days 0 hours 0 minutes 30 seconds 311 msec
