                         Program Version 6.0.0  -   RELEASE  -
|  1> ! pbe def2-sv(p) def2/J RI DEFGRID1 loosescf d4 GCP(DFT/SV(P)) printgap
|  2> %output
|  3>     printlevel normal
|  4> end
|  5> * xyz 0 1
|  6> C 0.7229840139 -3.0876156433 0.5701306013
|  7> C 1.8091990643 -2.2571805693 1.2230189059
|  8> O 1.5987473057 -0.851017543 0.9774552483
|  9> P 2.3739642398 -0.0412799824 -0.1618611154
| 10> S 3.0128202398 -1.1165929203 -1.662656817
| 11> O 3.6039033343 0.68127167 0.5343704977
| 12> C 3.5398659566 1.8292376531 1.4111078509
| 13> C 2.7395624609 1.5578929527 2.6676737402
| 14> S 1.0088710923 1.5258377437 -0.5520587772
| 15> C 0.2065601209 0.7668404467 -1.9844873754
| 16> S -0.7943400015 -0.6825868951 -1.5738302842
| 17> P -2.1598161062 0.3171576133 -0.3011756352
| 18> S -2.645779137 2.1415291848 -0.8026704752
| 19> O -1.415560301 0.1386568911 1.1044580295
| 20> C -1.5043236996 1.1244878278 2.1486122348
| 21> C -2.8734386448 1.1212714101 2.7978462943
| 22> O -3.4380450666 -0.6171957342 -0.2418373406
| 23> C -3.4518192117 -1.9578073692 0.3060794178
| 24> C -3.2177820309 -2.9971669793 -0.7713921198
| 25> H 0.7951313225 -3.0145564375 -0.512931207
| 26> H 0.837983589 -4.1252592725 0.8658244867
| 27> H -0.2543033607 -2.7280507651 0.8803804917
| 28> H 2.7959050877 -2.5453132988 0.8485430466
| 29> H 1.7850257987 -2.35383917 2.3099668631
| 30> H 4.588414575 2.0327015966 1.6346270424
| 31> H 3.1119105822 2.6646343703 0.8506409421
| 32> H 1.7029259609 1.3520212533 2.4089674388
| 33> H 3.1501936867 0.7040835366 3.2005426972
| 34> H 2.777413723 2.4333884158 3.3082385623
| 35> H 0.9645694982 0.4267825659 -2.690227934
| 36> H -0.4301656381 1.5371612283 -2.4189429627
| 37> H -0.7216094917 0.8370210577 2.8525237469
| 38> H -1.2801119333 2.107024651 1.7214210661
| 39> H -2.8965660726 1.8600259153 3.5926550733
| 40> H -3.6303150666 1.3766497782 2.0563389486
| 41> H -3.0987149926 0.1411215275 3.2101861733
| 42> H -2.6994357804 -2.0253646688 1.0953761054
| 43> H -4.4497687254 -2.0551937556 0.7372381448
| 44> H -3.9440719975 -2.8746048839 -1.5700051389
| 45> H -2.2189189804 -2.8991101276 -1.1919272134
| 46> H -3.3246897152 -3.9868490636 -0.3384212902
| 47> *
| 48>
| 49>                          ****END OF INPUT****

CARTESIAN COORDINATES (ANGSTROEM)
---------------------------------
  C      0.722984   -3.087616    0.570131
  C      1.809199   -2.257181    1.223019
  O      1.598747   -0.851018    0.977455
  P      2.373964   -0.041280   -0.161861
  S      3.012820   -1.116593   -1.662657
  O      3.603903    0.681272    0.534370
  C      3.539866    1.829238    1.411108
  C      2.739562    1.557893    2.667674
  S      1.008871    1.525838   -0.552059
  C      0.206560    0.766840   -1.984487
  S     -0.794340   -0.682587   -1.573830
  P     -2.159816    0.317158   -0.301176
  S     -2.645779    2.141529   -0.802670
  O     -1.415560    0.138657    1.104458
  C     -1.504324    1.124488    2.148612
  C     -2.873439    1.121271    2.797846
  O     -3.438045   -0.617196   -0.241837
  C     -3.451819   -1.957807    0.306079
  C     -3.217782   -2.997167   -0.771392
  H      0.795131   -3.014556   -0.512931
  H      0.837984   -4.125259    0.865824
  H     -0.254303   -2.728051    0.880380
  H      2.795905   -2.545313    0.848543
  H      1.785026   -2.353839    2.309967
  H      4.588415    2.032702    1.634627
  H      3.111911    2.664634    0.850641
  H      1.702926    1.352021    2.408967
  H      3.150194    0.704084    3.200543
  H      2.777414    2.433388    3.308239
  H      0.964569    0.426783   -2.690228
  H     -0.430166    1.537161   -2.418943
  H     -0.721609    0.837021    2.852524
  H     -1.280112    2.107025    1.721421
  H     -2.896566    1.860026    3.592655
  H     -3.630315    1.376650    2.056339
  H     -3.098715    0.141122    3.210186
  H     -2.699436   -2.025365    1.095376
  H     -4.449769   -2.055194    0.737238
  H     -3.944072   -2.874605   -1.570005
  H     -2.218919   -2.899110   -1.191927
  H     -3.324690   -3.986849   -0.338421

 Total Charge           Charge          ....    0
 Multiplicity           Mult            ....    1
 Number of Electrons    NEL             ....  202
 Basis Dimension        Dim             ....  334

ORBITAL ENERGIES
----------------

  NO   OCC          E(Eh)            E(eV)
   0   2.0000     -88.045346     -2395.8357
   1   2.0000     -88.042127     -2395.7481
   2   2.0000     -87.987965     -2394.2743
   3   2.0000     -87.984721     -2394.1860
   4   2.0000     -76.427490     -2079.6977
   5   2.0000     -76.425363     -2079.6399
   6   2.0000     -18.796966      -511.4915
   7   2.0000     -18.792089      -511.3587
   8   2.0000     -18.790699      -511.3209
   9   2.0000     -18.787150      -511.2243
  10   2.0000      -9.962846      -271.1028
  11   2.0000      -9.961287      -271.0604
  12   2.0000      -9.955696      -270.9083
  13   2.0000      -9.952640      -270.8251
  14   2.0000      -9.951904      -270.8051
  15   2.0000      -9.894370      -269.2395
  16   2.0000      -9.893101      -269.2050
  17   2.0000      -9.887165      -269.0434
  18   2.0000      -9.880458      -268.8609
  19   2.0000      -7.690228      -209.2617
  20   2.0000      -7.687014      -209.1743
  21   2.0000      -7.633198      -207.7099
  22   2.0000      -7.630006      -207.6230
  23   2.0000      -6.425154      -174.8373
  24   2.0000      -6.423168      -174.7833
  25   2.0000      -5.718072      -155.5967
  26   2.0000      -5.714905      -155.5105
  27   2.0000      -5.714847      -155.5089
  28   2.0000      -5.711661      -155.4222
  29   2.0000      -5.707119      -155.2986
  30   2.0000      -5.703814      -155.2087
  31   2.0000      -5.662275      -154.0783
  32   2.0000      -5.659040      -153.9903
  33   2.0000      -5.653726      -153.8457
  34   2.0000      -5.653245      -153.8326
  35   2.0000      -5.650939      -153.7699
  36   2.0000      -5.649667      -153.7353
  37   2.0000      -4.648110      -126.4815
  38   2.0000      -4.646475      -126.4370
  39   2.0000      -4.645993      -126.4239
  40   2.0000      -4.645712      -126.4163
  41   2.0000      -4.644697      -126.3886
  42   2.0000      -4.643631      -126.3596
  43   2.0000      -0.987352       -26.8672
  44   2.0000      -0.981740       -26.7145
  45   2.0000      -0.945886       -25.7389
  46   2.0000      -0.942794       -25.6547
  47   2.0000      -0.767336       -20.8803
  48   2.0000      -0.724422       -19.7125
  49   2.0000      -0.713530       -19.4161
  50   2.0000      -0.696102       -18.9419
  51   2.0000      -0.691740       -18.8232
  52   2.0000      -0.674939       -18.3660
  53   2.0000      -0.652356       -17.7515
  54   2.0000      -0.640701       -17.4343
  55   2.0000      -0.598422       -16.2839
  56   2.0000      -0.591071       -16.0839
  57   2.0000      -0.583014       -15.8646
  58   2.0000      -0.579467       -15.7681
  59   2.0000      -0.559736       -15.2312
  60   2.0000      -0.504699       -13.7336
  61   2.0000      -0.497670       -13.5423
  62   2.0000      -0.481181       -13.0936
  63   2.0000      -0.477427       -12.9915
  64   2.0000      -0.459076       -12.4921
  65   2.0000      -0.450914       -12.2700
  66   2.0000      -0.445115       -12.1122
  67   2.0000      -0.436043       -11.8653
  68   2.0000      -0.432605       -11.7718
  69   2.0000      -0.414925       -11.2907
  70   2.0000      -0.407025       -11.0757
  71   2.0000      -0.401875       -10.9356
  72   2.0000      -0.397931       -10.8283
  73   2.0000      -0.385395       -10.4871
  74   2.0000      -0.378383       -10.2963
  75   2.0000      -0.375370       -10.2143
  76   2.0000      -0.369077       -10.0431
  77   2.0000      -0.361831        -9.8459
  78   2.0000      -0.360625        -9.8131
  79   2.0000      -0.356615        -9.7040
  80   2.0000      -0.353442        -9.6177
  81   2.0000      -0.349053        -9.4982
  82   2.0000      -0.346968        -9.4415
  83   2.0000      -0.344969        -9.3871
  84   2.0000      -0.337624        -9.1872
  85   2.0000      -0.322373        -8.7722
  86   2.0000      -0.312894        -8.5143
  87   2.0000      -0.305347        -8.3089
  88   2.0000      -0.304950        -8.2981
  89   2.0000      -0.283645        -7.7184
  90   2.0000      -0.280681        -7.6377
  91   2.0000      -0.276954        -7.5363
  92   2.0000      -0.274969        -7.4823
  93   2.0000      -0.271177        -7.3791
  94   2.0000      -0.258713        -7.0399
  95   2.0000      -0.229467        -6.2441
  96   2.0000      -0.216651        -5.8954
  97   2.0000      -0.214777        -5.8444
  98   2.0000      -0.204892        -5.5754
  99   2.0000      -0.201186        -5.4746
 100   2.0000      -0.197141        -5.3645
 101   0.0000      -0.046938        -1.2773
 102   0.0000      -0.025514        -0.6943
 103   0.0000      -0.001863        -0.0507
 104   0.0000      -0.001086        -0.0295
 105   0.0000       0.005091         0.1385

MULLIKEN ATOMIC CHARGES
-----------------------
   0 C :   -0.308133
   1 C :   -0.005745
   2 O :   -0.377265
   3 P :    0.618047
   4 S :   -0.318559
   5 O :   -0.369416
   6 C :   -0.017171
   7 C :   -0.335537
   8 S :   -0.101132
   9 C :   -0.339436
  10 S :   -0.098487
  11 P :    0.627980
  12 S :   -0.316413
  13 O :   -0.380379
  14 C :   -0.029635
  15 C :   -0.300011
  16 O :   -0.365891
  17 C :   -0.043047
  18 C :   -0.306440
  19 H :    0.133705
  20 H :    0.103276
  21 H :    0.117939
  22 H :    0.107399
  23 H :    0.096887
  24 H :    0.115421
  25 H :    0.120043
  26 H :    0.148655
  27 H :    0.118291
  28 H :    0.115039
  29 H :    0.194520
  30 H :    0.194473
  31 H :    0.117910
  32 H :    0.114229
  33 H :    0.112013
  34 H :    0.129780
  35 H :    0.108296
  36 H :    0.124421
  37 H :    0.112055
  38 H :    0.126110
  39 H :    0.143123
  40 H :    0.113088
Sum of atomic charges:   -0.0000000

LOEWDIN ATOMIC CHARGES
----------------------
   0 C :   -0.365760
   1 C :   -0.114391
   2 O :   -0.251736
   3 P :    0.571774
   4 S :   -0.313276
   5 O :   -0.246678
   6 C :   -0.115995
   7 C :   -0.368944
   8 S :    0.090745
   9 C :   -0.478426
  10 S :    0.097638
  11 P :    0.572547
  12 S :   -0.310024
  13 O :   -0.247879
  14 C :   -0.123757
  15 C :   -0.365774
  16 O :   -0.242030
  17 C :   -0.117167
  18 C :   -0.361883
  19 H :    0.122649
  20 H :    0.126038
  21 H :    0.117676
  22 H :    0.109556
  23 H :    0.113788
  24 H :    0.124531
  25 H :    0.110098
  26 H :    0.122984
  27 H :    0.127694
  28 H :    0.131985
  29 H :    0.132265
  30 H :    0.132592
  31 H :    0.116237
  32 H :    0.108767
  33 H :    0.131061
  34 H :    0.125509
  35 H :    0.121026
  36 H :    0.109246
  37 H :    0.122539
  38 H :    0.132366
  39 H :    0.120236
  40 H :    0.132174

  Mayer bond orders larger than 0.100000
B(  0-C ,  1-C ) :   1.1729 B(  0-C , 19-H ) :   0.9332 B(  0-C , 20-H ) :   0.9368
B(  0-C , 21-H ) :   0.9364 B(  1-C ,  2-O ) :   0.9059 B(  1-C , 22-H ) :   0.9126
B(  1-C , 23-H ) :   0.9328 B(  2-O ,  3-P ) :   1.0871 B(  3-P ,  4-S ) :   1.6213
B(  3-P ,  5-O ) :   1.1218 B(  3-P ,  8-S ) :   0.9521 B(  5-O ,  6-C ) :   0.9132
B(  6-C ,  7-C ) :   1.1620 B(  6-C , 24-H ) :   0.9347 B(  6-C , 25-H ) :   0.9181
B(  7-C , 26-H ) :   0.9286 B(  7-C , 27-H ) :   0.9450 B(  7-C , 28-H ) :   0.9358
B(  8-S ,  9-C ) :   1.0124 B(  9-C , 10-S ) :   1.0083 B(  9-C , 29-H ) :   0.8790
B(  9-C , 30-H ) :   0.8829 B( 10-S , 11-P ) :   0.9583 B( 10-S , 12-S ) :   0.1025
B( 11-P , 12-S ) :   1.6257 B( 11-P , 13-O ) :   1.0696 B( 11-P , 16-O ) :   1.1255
B( 13-O , 14-C ) :   0.9065 B( 14-C , 15-C ) :   1.1584 B( 14-C , 31-H ) :   0.9220
B( 14-C , 32-H ) :   0.9137 B( 15-C , 33-H ) :   0.9402 B( 15-C , 34-H ) :   0.9324
B( 15-C , 35-H ) :   0.9463 B( 16-O , 17-C ) :   0.9036 B( 17-C , 18-C ) :   1.1707
B( 17-C , 36-H ) :   0.9088 B( 17-C , 37-H ) :   0.9321 B( 18-C , 38-H ) :   0.9451
B( 18-C , 39-H ) :   0.9292 B( 18-C , 40-H ) :   0.9380

Dispersion correction           -0.068104036
FINAL SINGLE POINT ENERGY     -2929.517803219449

DIPOLE MOMENT
-------------

Method             : SCF
Type of density    : Electron Density
Multiplicity       :   1
Irrep              :   0
Energy             : -2929.6361913202995311 Eh
Relativity type    :
Basis              : AO
                                X                 Y                 Z
Electronic contribution:      6.036899590      10.138531828     -20.026637634
Nuclear contribution   :     -6.244081838     -10.757214211      22.019972811
                        -----------------------------------------
Total Dipole Moment    :     -0.207182249      -0.618682383       1.993335177
                        -----------------------------------------
Magnitude (a.u.)       :      2.097397793
Magnitude (Debye)      :      5.331161516

Rotational constants in cm-1:             0.010992             0.006000             0.005401
Rotational constants in MHz :           329.536549           179.867656           161.916200

                             ****ORCA TERMINATED NORMALLY****
TOTAL RUN TIME: 0 days 0 hours 0 minutes 22 seconds 320 msec
