                         Program Version 6.0.0  -   RELEASE  -
|  1> ! pbe def2-sv(p) def2/J RI DEFGRID1 loosescf d4 GCP(DFT/SV(P)) printgap
|  2> %output
|  3>     printlevel normal
|  4> end
|  5> * xyz 0 1
|  6> C 1.8116723718 -3.2019237162 0.2010451557
|  7> C 2.7856290434 -2.2623966836 0.8832875705
|  8> O 2.1774335023 -0.9727024963 1.1050576848
|  9> P 2.545632925 0.3434894013 0.3043063619
| 10> S 3.534584757 0.0183773561 -1.3633120783
| 11> O 3.2920315272 1.1432509829 1.4545436753
| 12> C 3.4709169216 2.5708054597 1.5037127607
| 13> C 4.0841538251 3.1319059677 0.2373657751
| 14> S 0.6984360541 1.3643188999 0.1304976372
| 15> C 0.1770808941 0.6128959719 -1.4314139793
| 16> S -0.617787898 -1.0036800694 -1.2077390125
| 17> P -2.4792012774 -0.3093775607 -0.4745767062
| 18> S -2.893848993 1.5936026994 -0.7335005855
| 19> O -2.6109528972 -0.8159620559 1.0294795892
| 20> C -2.1392948196 -0.084968465 2.1753671544
| 21> C -0.9312657542 -0.7716925577 2.7817003629
| 22> O -3.3982449331 -1.345032916 -1.2348175796
| 23> C -4.8076143864 -1.1150291468 -1.4449930174
| 24> C -5.5899690305 -1.1449523851 -0.1487617609
| 25> H 2.2596267758 -4.1879224666 0.132912596
| 26> H 0.8865504062 -3.26474075 0.7670060949
| 27> H 1.5808248893 -2.845181889 -0.8006795083
| 28> H 3.6877439084 -2.1341188531 0.2775985926
| 29> H 3.0574986733 -2.6205638153 1.8774126454
| 30> H 2.4972450895 3.0289265183 1.6984934626
| 31> H 4.1273935711 2.7168018177 2.3633677237
| 32> H 3.4018822395 3.0016430016 -0.6017569308
| 33> H 4.2804920285 4.1909304794 0.3704948225
| 34> H 5.0153678045 2.6194907579 0.0070367815
| 35> H 1.0533136869 0.4531232797 -2.0618373445
| 36> H -0.5268252662 1.3047701973 -1.892062733
| 37> H -1.9106741778 0.9445771175 1.8796304057
| 38> H -2.9763684144 -0.0796008313 2.8769663178
| 39> H -0.0907312892 -0.7601836802 2.0918678909
| 40> H -0.6445027642 -0.2503753742 3.6892919182
| 41> H -1.1742441462 -1.8034410733 3.0202672132
| 42> H -4.9285461986 -0.1498172952 -1.9468267619
| 43> H -5.1035066221 -1.9222357118 -2.1162389373
| 44> H -6.6511595964 -1.0806170506 -0.3683354766
| 45> H -5.3859022021 -2.0654343857 0.3917594497
| 46> H -5.3059482789 -0.2985286317 0.4750269975
| 47> *
| 48>
| 49>                          ****END OF INPUT****

CARTESIAN COORDINATES (ANGSTROEM)
---------------------------------
  C      1.811672   -3.201924    0.201045
  C      2.785629   -2.262397    0.883288
  O      2.177434   -0.972702    1.105058
  P      2.545633    0.343489    0.304306
  S      3.534585    0.018377   -1.363312
  O      3.292032    1.143251    1.454544
  C      3.470917    2.570805    1.503713
  C      4.084154    3.131906    0.237366
  S      0.698436    1.364319    0.130498
  C      0.177081    0.612896   -1.431414
  S     -0.617788   -1.003680   -1.207739
  P     -2.479201   -0.309378   -0.474577
  S     -2.893849    1.593603   -0.733501
  O     -2.610953   -0.815962    1.029480
  C     -2.139295   -0.084968    2.175367
  C     -0.931266   -0.771693    2.781700
  O     -3.398245   -1.345033   -1.234818
  C     -4.807614   -1.115029   -1.444993
  C     -5.589969   -1.144952   -0.148762
  H      2.259627   -4.187922    0.132913
  H      0.886550   -3.264741    0.767006
  H      1.580825   -2.845182   -0.800680
  H      3.687744   -2.134119    0.277599
  H      3.057499   -2.620564    1.877413
  H      2.497245    3.028927    1.698493
  H      4.127394    2.716802    2.363368
  H      3.401882    3.001643   -0.601757
  H      4.280492    4.190930    0.370495
  H      5.015368    2.619491    0.007037
  H      1.053314    0.453123   -2.061837
  H     -0.526825    1.304770   -1.892063
  H     -1.910674    0.944577    1.879630
  H     -2.976368   -0.079601    2.876966
  H     -0.090731   -0.760184    2.091868
  H     -0.644503   -0.250375    3.689292
  H     -1.174244   -1.803441    3.020267
  H     -4.928546   -0.149817   -1.946827
  H     -5.103507   -1.922236   -2.116239
  H     -6.651160   -1.080617   -0.368335
  H     -5.385902   -2.065434    0.391759
  H     -5.305948   -0.298529    0.475027

 Total Charge           Charge          ....    0
 Multiplicity           Mult            ....    1
 Number of Electrons    NEL             ....  202
 Basis Dimension        Dim             ....  334

ORBITAL ENERGIES
----------------

  NO   OCC          E(Eh)            E(eV)
   0   2.0000     -88.047948     -2395.9065
   1   2.0000     -88.041996     -2395.7445
   2   2.0000     -87.993696     -2394.4302
   3   2.0000     -87.990460     -2394.3421
   4   2.0000     -76.430127     -2079.7695
   5   2.0000     -76.428410     -2079.7228
   6   2.0000     -18.794363      -511.4206
   7   2.0000     -18.792661      -511.3743
   8   2.0000     -18.790953      -511.3278
   9   2.0000     -18.790507      -511.3157
  10   2.0000      -9.959506      -271.0119
  11   2.0000      -9.954845      -270.8851
  12   2.0000      -9.954087      -270.8645
  13   2.0000      -9.950554      -270.7683
  14   2.0000      -9.948760      -270.7195
  15   2.0000      -9.885608      -269.0011
  16   2.0000      -9.884410      -268.9685
  17   2.0000      -9.879887      -268.8454
  18   2.0000      -9.876883      -268.7636
  19   2.0000      -7.692692      -209.3288
  20   2.0000      -7.687247      -209.1806
  21   2.0000      -7.638609      -207.8571
  22   2.0000      -7.635369      -207.7689
  23   2.0000      -6.427442      -174.8996
  24   2.0000      -6.426241      -174.8669
  25   2.0000      -5.720410      -155.6603
  26   2.0000      -5.717212      -155.5732
  27   2.0000      -5.715114      -155.5162
  28   2.0000      -5.711909      -155.4289
  29   2.0000      -5.709856      -155.3731
  30   2.0000      -5.704015      -155.2141
  31   2.0000      -5.667393      -154.2176
  32   2.0000      -5.664231      -154.1316
  33   2.0000      -5.659409      -154.0003
  34   2.0000      -5.658745      -153.9823
  35   2.0000      -5.656125      -153.9110
  36   2.0000      -5.655469      -153.8931
  37   2.0000      -4.649882      -126.5297
  38   2.0000      -4.649376      -126.5160
  39   2.0000      -4.648512      -126.4925
  40   2.0000      -4.647919      -126.4763
  41   2.0000      -4.647882      -126.4753
  42   2.0000      -4.647019      -126.4518
  43   2.0000      -0.988191       -26.8900
  44   2.0000      -0.987192       -26.8629
  45   2.0000      -0.946181       -25.7469
  46   2.0000      -0.945105       -25.7176
  47   2.0000      -0.766082       -20.8462
  48   2.0000      -0.724451       -19.7133
  49   2.0000      -0.710654       -19.3379
  50   2.0000      -0.686789       -18.6885
  51   2.0000      -0.686426       -18.6786
  52   2.0000      -0.675253       -18.3746
  53   2.0000      -0.652628       -17.7589
  54   2.0000      -0.642132       -17.4733
  55   2.0000      -0.604223       -16.4418
  56   2.0000      -0.595291       -16.1987
  57   2.0000      -0.575809       -15.6686
  58   2.0000      -0.567623       -15.4458
  59   2.0000      -0.559717       -15.2307
  60   2.0000      -0.502300       -13.6683
  61   2.0000      -0.496441       -13.5088
  62   2.0000      -0.477454       -12.9922
  63   2.0000      -0.471464       -12.8292
  64   2.0000      -0.462108       -12.5746
  65   2.0000      -0.445703       -12.1282
  66   2.0000      -0.437378       -11.9017
  67   2.0000      -0.436228       -11.8704
  68   2.0000      -0.431293       -11.7361
  69   2.0000      -0.418385       -11.3848
  70   2.0000      -0.402649       -10.9566
  71   2.0000      -0.397274       -10.8104
  72   2.0000      -0.393649       -10.7117
  73   2.0000      -0.392514       -10.6808
  74   2.0000      -0.383739       -10.4421
  75   2.0000      -0.374860       -10.2005
  76   2.0000      -0.370265       -10.0754
  77   2.0000      -0.357271        -9.7218
  78   2.0000      -0.353677        -9.6240
  79   2.0000      -0.348216        -9.4754
  80   2.0000      -0.346540        -9.4298
  81   2.0000      -0.344082        -9.3629
  82   2.0000      -0.340550        -9.2668
  83   2.0000      -0.338309        -9.2058
  84   2.0000      -0.332089        -9.0366
  85   2.0000      -0.323625        -8.8063
  86   2.0000      -0.309222        -8.4144
  87   2.0000      -0.299708        -8.1555
  88   2.0000      -0.293294        -7.9809
  89   2.0000      -0.289041        -7.8652
  90   2.0000      -0.286120        -7.7857
  91   2.0000      -0.279031        -7.5928
  92   2.0000      -0.276622        -7.5273
  93   2.0000      -0.267252        -7.2723
  94   2.0000      -0.258534        -7.0351
  95   2.0000      -0.235460        -6.4072
  96   2.0000      -0.220472        -5.9993
  97   2.0000      -0.215907        -5.8751
  98   2.0000      -0.207696        -5.6517
  99   2.0000      -0.205478        -5.5913
 100   2.0000      -0.203922        -5.5490
 101   0.0000      -0.048637        -1.3235
 102   0.0000      -0.032318        -0.8794
 103   0.0000      -0.008513        -0.2317
 104   0.0000       0.000435         0.0118
 105   0.0000       0.012150         0.3306

MULLIKEN ATOMIC CHARGES
-----------------------
   0 C :   -0.291177
   1 C :   -0.006869
   2 O :   -0.359014
   3 P :    0.611631
   4 S :   -0.329590
   5 O :   -0.369258
   6 C :   -0.011762
   7 C :   -0.310366
   8 S :   -0.092137
   9 C :   -0.368175
  10 S :   -0.079739
  11 P :    0.624926
  12 S :   -0.333709
  13 O :   -0.371708
  14 C :   -0.008150
  15 C :   -0.321142
  16 O :   -0.371256
  17 C :   -0.001532
  18 C :   -0.308229
  19 H :    0.107285
  20 H :    0.119626
  21 H :    0.124252
  22 H :    0.111124
  23 H :    0.104193
  24 H :    0.115018
  25 H :    0.110181
  26 H :    0.125186
  27 H :    0.112504
  28 H :    0.127202
  29 H :    0.192970
  30 H :    0.198450
  31 H :    0.106389
  32 H :    0.101374
  33 H :    0.152702
  34 H :    0.104075
  35 H :    0.108077
  36 H :    0.112928
  37 H :    0.108206
  38 H :    0.112730
  39 H :    0.118921
  40 H :    0.123865
Sum of atomic charges:    0.0000000

LOEWDIN ATOMIC CHARGES
----------------------
   0 C :   -0.359288
   1 C :   -0.116382
   2 O :   -0.235967
   3 P :    0.573034
   4 S :   -0.314288
   5 O :   -0.243843
   6 C :   -0.114353
   7 C :   -0.369406
   8 S :    0.090947
   9 C :   -0.486148
  10 S :    0.097975
  11 P :    0.572744
  12 S :   -0.315700
  13 O :   -0.245703
  14 C :   -0.118551
  15 C :   -0.367922
  16 O :   -0.243047
  17 C :   -0.112831
  18 C :   -0.364671
  19 H :    0.128485
  20 H :    0.125261
  21 H :    0.119150
  22 H :    0.107993
  23 H :    0.117352
  24 H :    0.109528
  25 H :    0.122009
  26 H :    0.121137
  27 H :    0.130614
  28 H :    0.130013
  29 H :    0.127615
  30 H :    0.130053
  31 H :    0.103259
  32 H :    0.115275
  33 H :    0.119913
  34 H :    0.128294
  35 H :    0.122635
  36 H :    0.112396
  37 H :    0.120610
  38 H :    0.130744
  39 H :    0.127553
  40 H :    0.123510

  Mayer bond orders larger than 0.100000
B(  0-C ,  1-C ) :   1.1698 B(  0-C , 19-H ) :   0.9383 B(  0-C , 20-H ) :   0.9484
B(  0-C , 21-H ) :   0.9382 B(  1-C ,  2-O ) :   0.8919 B(  1-C , 22-H ) :   0.9046
B(  1-C , 23-H ) :   0.9324 B(  2-O ,  3-P ) :   1.1233 B(  3-P ,  4-S ) :   1.5908
B(  3-P ,  5-O ) :   1.1265 B(  3-P ,  8-S ) :   0.9501 B(  4-S ,  8-S ) :   0.1065
B(  5-O ,  6-C ) :   0.9132 B(  6-C ,  7-C ) :   1.1640 B(  6-C , 24-H ) :   0.9274
B(  6-C , 25-H ) :   0.9339 B(  7-C , 26-H ) :   0.9334 B(  7-C , 27-H ) :   0.9352
B(  7-C , 28-H ) :   0.9427 B(  8-S ,  9-C ) :   1.0019 B(  9-C , 10-S ) :   1.0136
B(  9-C , 29-H ) :   0.8631 B(  9-C , 30-H ) :   0.8741 B( 10-S , 11-P ) :   0.9472
B( 10-S , 12-S ) :   0.1122 B( 11-P , 12-S ) :   1.5979 B( 11-P , 13-O ) :   1.1086
B( 11-P , 16-O ) :   1.1403 B( 13-O , 14-C ) :   0.9032 B( 14-C , 15-C ) :   1.1659
B( 14-C , 31-H ) :   0.9047 B( 14-C , 32-H ) :   0.9344 B( 15-C , 33-H ) :   0.9199
B( 15-C , 34-H ) :   0.9395 B( 15-C , 35-H ) :   0.9460 B( 16-O , 17-C ) :   0.9075
B( 17-C , 18-C ) :   1.1634 B( 17-C , 36-H ) :   0.9196 B( 17-C , 37-H ) :   0.9353
B( 18-C , 38-H ) :   0.9380 B( 18-C , 39-H ) :   0.9458 B( 18-C , 40-H ) :   0.9374

Dispersion correction           -0.065029212
FINAL SINGLE POINT ENERGY     -2929.523983643974

DIPOLE MOMENT
-------------

Method             : SCF
Type of density    : Electron Density
Multiplicity       :   1
Irrep              :   0
Energy             : -2929.6435755676134249 Eh
Relativity type    :
Basis              : AO
                                X                 Y                 Z
Electronic contribution:      2.459664161       4.767798513     -10.653033089
Nuclear contribution   :     -2.762463090      -4.997897310      11.660217557
                        -----------------------------------------
Total Dipole Moment    :     -0.302798929      -0.230098796       1.007184468
                        -----------------------------------------
Magnitude (a.u.)       :      1.076593331
Magnitude (Debye)      :      2.736482774

Rotational constants in cm-1:             0.013709             0.004537             0.004290
Rotational constants in MHz :           410.995320           136.020581           128.615128

                             ****ORCA TERMINATED NORMALLY****
TOTAL RUN TIME: 0 days 0 hours 0 minutes 21 seconds 27 msec
