                         Program Version 6.0.0  -   RELEASE  -
|  1> ! r2scan-3c def2/J RI DEFGRID2 scfconv6 printgap
|  2> %output
|  3>     printlevel normal
|  4> end
|  5> * xyz 0 1
|  6> C 4.6259260972 -1.2859498838 -1.0572180306
|  7> C 4.6473071037 0.1458172851 -0.5626323677
|  8> O 3.5328959148 0.4400165305 0.2963895135
|  9> P 2.0276848355 0.4652901749 -0.2293781596
| 10> S 1.8516542168 1.2369323911 -2.0284004755
| 11> O 1.3332777508 1.2318877391 0.9713221604
| 12> C 1.5800655818 2.6475826213 1.1483997003
| 13> C 0.4919316394 3.2184112261 2.0323668045
| 14> S 1.3151878921 -1.4904907506 0.0848209158
| 15> C 0.2860235391 -1.6952768654 -1.408179317
| 16> S -1.4006330687 -2.2380535065 -1.0319022948
| 17> P -2.0486675535 -0.5749714945 0.0738519226
| 18> S -1.5185219939 1.2046560084 -0.5741761679
| 19> O -1.5690853822 -0.9729358757 1.5233673511
| 20> C -1.6164415865 -0.0659278952 2.6488606752
| 21> C -0.4374196847 -0.3695464619 3.5501641831
| 22> O -3.6187047247 -0.8035910001 0.1881606905
| 23> C -4.5298540291 -0.4604239977 -0.8770897822
| 24> C -5.2133552192 0.8606994264 -0.5820631736
| 25> H 4.531271052 -1.974128713 -0.22115067
| 26> H 3.7824889873 -1.4306146689 -1.7312420841
| 27> H 5.5452947659 -1.4932138571 -1.5952244126
| 28> H 4.6241305054 0.8431836964 -1.4061095164
| 29> H 5.5185093872 0.3451206352 0.0626983919
| 30> H 2.5687070786 2.7594882327 1.6003432059
| 31> H 1.577188577 3.1250464831 0.1620880781
| 32> H -0.4739131274 3.1048746017 1.5460575158
| 33> H 0.4762685248 2.7027695936 2.9879342291
| 34> H 0.685223022 4.2741189645 2.1924015868
| 35> H 0.7147711338 -2.4857840215 -2.0190276588
| 36> H 0.2660001874 -0.7456085427 -1.9509626326
| 37> H -1.5804783878 0.9619013539 2.2737034229
| 38> H -2.5675810551 -0.2331411643 3.1587635451
| 39> H -0.4527029533 -1.4169520769 3.837192211
| 40> H 0.4941108378 -0.1642841499 3.028113837
| 41> H -0.4983147462 0.2501964354 4.4390617779
| 42> H -3.9820362473 -0.4138645567 -1.8222472602
| 43> H -5.2452049872 -1.2838609178 -0.910757681
| 44> H -4.4790598997 1.6632294402 -0.5570343121
| 45> H -5.9394561585 1.0697490944 -1.3609402186
| 46> H -5.7176525162 0.8139954846 0.3789050069
| 47> *
| 48>
| 49>                          ****END OF INPUT****

CARTESIAN COORDINATES (ANGSTROEM)
---------------------------------
  C      4.625926   -1.285950   -1.057218
  C      4.647307    0.145817   -0.562632
  O      3.532896    0.440017    0.296390
  P      2.027685    0.465290   -0.229378
  S      1.851654    1.236932   -2.028400
  O      1.333278    1.231888    0.971322
  C      1.580066    2.647583    1.148400
  C      0.491932    3.218411    2.032367
  S      1.315188   -1.490491    0.084821
  C      0.286024   -1.695277   -1.408179
  S     -1.400633   -2.238054   -1.031902
  P     -2.048668   -0.574971    0.073852
  S     -1.518522    1.204656   -0.574176
  O     -1.569085   -0.972936    1.523367
  C     -1.616442   -0.065928    2.648861
  C     -0.437420   -0.369546    3.550164
  O     -3.618705   -0.803591    0.188161
  C     -4.529854   -0.460424   -0.877090
  C     -5.213355    0.860699   -0.582063
  H      4.531271   -1.974129   -0.221151
  H      3.782489   -1.430615   -1.731242
  H      5.545295   -1.493214   -1.595224
  H      4.624131    0.843184   -1.406110
  H      5.518509    0.345121    0.062698
  H      2.568707    2.759488    1.600343
  H      1.577189    3.125046    0.162088
  H     -0.473913    3.104875    1.546058
  H      0.476269    2.702770    2.987934
  H      0.685223    4.274119    2.192402
  H      0.714771   -2.485784   -2.019028
  H      0.266000   -0.745609   -1.950963
  H     -1.580478    0.961901    2.273703
  H     -2.567581   -0.233141    3.158764
  H     -0.452703   -1.416952    3.837192
  H      0.494111   -0.164284    3.028114
  H     -0.498315    0.250196    4.439062
  H     -3.982036   -0.413865   -1.822247
  H     -5.245205   -1.283861   -0.910758
  H     -4.479060    1.663229   -0.557034
  H     -5.939456    1.069749   -1.360940
  H     -5.717653    0.813995    0.378905

 Total Charge           Charge          ....    0
 Multiplicity           Mult            ....    1
 Number of Electrons    NEL             ....  202
 Basis Dimension        Dim             ....  539

ORBITAL ENERGIES
----------------

  NO   OCC          E(Eh)            E(eV)
   0   2.0000     -88.576752     -2410.2960
   1   2.0000     -88.575128     -2410.2518
   2   2.0000     -88.516430     -2408.6545
   3   2.0000     -88.513230     -2408.5674
   4   2.0000     -76.910494     -2092.8409
   5   2.0000     -76.910204     -2092.8330
   6   2.0000     -18.988088      -516.6921
   7   2.0000     -18.987246      -516.6692
   8   2.0000     -18.984982      -516.6076
   9   2.0000     -18.984432      -516.5926
  10   2.0000     -10.105870      -274.9947
  11   2.0000     -10.097636      -274.7706
  12   2.0000     -10.094749      -274.6921
  13   2.0000     -10.093962      -274.6707
  14   2.0000     -10.093738      -274.6646
  15   2.0000     -10.027736      -272.8686
  16   2.0000     -10.026547      -272.8362
  17   2.0000     -10.024533      -272.7814
  18   2.0000     -10.024385      -272.7774
  19   2.0000      -7.871223      -214.1869
  20   2.0000      -7.869554      -214.1415
  21   2.0000      -7.811168      -212.5527
  22   2.0000      -7.808036      -212.4675
  23   2.0000      -6.588793      -179.2902
  24   2.0000      -6.588775      -179.2897
  25   2.0000      -5.818283      -158.3235
  26   2.0000      -5.816430      -158.2731
  27   2.0000      -5.814818      -158.2292
  28   2.0000      -5.813501      -158.1934
  29   2.0000      -5.808374      -158.0539
  30   2.0000      -5.806531      -158.0038
  31   2.0000      -5.758812      -156.7052
  32   2.0000      -5.755675      -156.6199
  33   2.0000      -5.751684      -156.5113
  34   2.0000      -5.750935      -156.4909
  35   2.0000      -5.748355      -156.4207
  36   2.0000      -5.748010      -156.4113
  37   2.0000      -4.734329      -128.8276
  38   2.0000      -4.734199      -128.8241
  39   2.0000      -4.733792      -128.8130
  40   2.0000      -4.733594      -128.8076
  41   2.0000      -4.732654      -128.7821
  42   2.0000      -4.732445      -128.7764
  43   2.0000      -1.046045       -28.4643
  44   2.0000      -1.045252       -28.4428
  45   2.0000      -1.005624       -27.3644
  46   2.0000      -1.004313       -27.3287
  47   2.0000      -0.800069       -21.7710
  48   2.0000      -0.757164       -20.6035
  49   2.0000      -0.747111       -20.3299
  50   2.0000      -0.728734       -19.8299
  51   2.0000      -0.727834       -19.8054
  52   2.0000      -0.709901       -19.3174
  53   2.0000      -0.682046       -18.5594
  54   2.0000      -0.662681       -18.0325
  55   2.0000      -0.628189       -17.0939
  56   2.0000      -0.616461       -16.7747
  57   2.0000      -0.604146       -16.4396
  58   2.0000      -0.600124       -16.3302
  59   2.0000      -0.585645       -15.9362
  60   2.0000      -0.529420       -14.4063
  61   2.0000      -0.523547       -14.2464
  62   2.0000      -0.496346       -13.5063
  63   2.0000      -0.488137       -13.2829
  64   2.0000      -0.462346       -12.5811
  65   2.0000      -0.459119       -12.4933
  66   2.0000      -0.455396       -12.3919
  67   2.0000      -0.451564       -12.2877
  68   2.0000      -0.443451       -12.0669
  69   2.0000      -0.441122       -12.0035
  70   2.0000      -0.421899       -11.4805
  71   2.0000      -0.410307       -11.1650
  72   2.0000      -0.406786       -11.0692
  73   2.0000      -0.402251       -10.9458
  74   2.0000      -0.393944       -10.7198
  75   2.0000      -0.387580       -10.5466
  76   2.0000      -0.377483       -10.2718
  77   2.0000      -0.369726       -10.0608
  78   2.0000      -0.366950        -9.9852
  79   2.0000      -0.363944        -9.9034
  80   2.0000      -0.361148        -9.8273
  81   2.0000      -0.353178        -9.6105
  82   2.0000      -0.349299        -9.5049
  83   2.0000      -0.347914        -9.4672
  84   2.0000      -0.344037        -9.3617
  85   2.0000      -0.325075        -8.8457
  86   2.0000      -0.322970        -8.7884
  87   2.0000      -0.309893        -8.4326
  88   2.0000      -0.306949        -8.3525
  89   2.0000      -0.305654        -8.3173
  90   2.0000      -0.302115        -8.2210
  91   2.0000      -0.285496        -7.7687
  92   2.0000      -0.283544        -7.7156
  93   2.0000      -0.276483        -7.5235
  94   2.0000      -0.274071        -7.4578
  95   2.0000      -0.246846        -6.7170
  96   2.0000      -0.232113        -6.3161
  97   2.0000      -0.225673        -6.1409
  98   2.0000      -0.215380        -5.8608
  99   2.0000      -0.207075        -5.6348
 100   2.0000      -0.198568        -5.4033
 101   0.0000      -0.043573        -1.1857
 102   0.0000      -0.034420        -0.9366
 103   0.0000      -0.008088        -0.2201
 104   0.0000       0.014294         0.3889
 105   0.0000       0.020526         0.5585

MULLIKEN ATOMIC CHARGES
-----------------------
   0 C :   -0.441068
   1 C :   -0.156685
   2 O :   -0.306300
   3 P :    0.688651
   4 S :   -0.473511
   5 O :   -0.274690
   6 C :   -0.134168
   7 C :   -0.485111
   8 S :   -0.113978
   9 C :   -0.234558
  10 S :   -0.115072
  11 P :    0.696662
  12 S :   -0.449602
  13 O :   -0.283193
  14 C :   -0.117986
  15 C :   -0.474795
  16 O :   -0.309378
  17 C :   -0.124010
  18 C :   -0.459397
  19 H :    0.156350
  20 H :    0.168046
  21 H :    0.146884
  22 H :    0.173260
  23 H :    0.145768
  24 H :    0.152726
  25 H :    0.169563
  26 H :    0.180784
  27 H :    0.153543
  28 H :    0.145460
  29 H :    0.187457
  30 H :    0.221044
  31 H :    0.165412
  32 H :    0.149017
  33 H :    0.152563
  34 H :    0.179046
  35 H :    0.141663
  36 H :    0.154587
  37 H :    0.149353
  38 H :    0.180703
  39 H :    0.144742
  40 H :    0.150222
Sum of atomic charges:    0.0000000

LOEWDIN ATOMIC CHARGES
----------------------
   0 C :   -0.407146
   1 C :    0.017668
   2 O :   -0.669919
   3 P :    0.372819
   4 S :   -0.130498
   5 O :   -0.681895
   6 C :    0.020012
   7 C :   -0.395186
   8 S :    0.185689
   9 C :   -0.412854
  10 S :    0.166172
  11 P :    0.366528
  12 S :   -0.093766
  13 O :   -0.666525
  14 C :    0.026379
  15 C :   -0.395189
  16 O :   -0.662508
  17 C :    0.020863
  18 C :   -0.400114
  19 H :    0.160848
  20 H :    0.162608
  21 H :    0.158220
  22 H :    0.179753
  23 H :    0.178402
  24 H :    0.172635
  25 H :    0.182975
  26 H :    0.166868
  27 H :    0.157914
  28 H :    0.159400
  29 H :    0.178793
  30 H :    0.201398
  31 H :    0.181409
  32 H :    0.171710
  33 H :    0.160894
  34 H :    0.170340
  35 H :    0.157607
  36 H :    0.177025
  37 H :    0.176954
  38 H :    0.168225
  39 H :    0.158100
  40 H :    0.157391

  Mayer bond orders larger than 0.100000
B(  0-C ,  1-C ) :   0.9208 B(  0-C , 19-H ) :   0.9668 B(  0-C , 20-H ) :   0.9665
B(  0-C , 21-H ) :   0.9602 B(  1-C ,  2-O ) :   0.8266 B(  1-C , 22-H ) :   0.9675
B(  1-C , 23-H ) :   0.9586 B(  2-O ,  3-P ) :   1.0412 B(  3-P ,  4-S ) :   1.7276
B(  3-P ,  5-O ) :   1.1706 B(  3-P ,  8-S ) :   1.1333 B(  5-O ,  6-C ) :   0.7817
B(  6-C ,  7-C ) :   0.9457 B(  6-C , 24-H ) :   0.9453 B(  6-C , 25-H ) :   0.9525
B(  7-C , 26-H ) :   0.9665 B(  7-C , 27-H ) :   0.9719 B(  7-C , 28-H ) :   0.9613
B(  8-S ,  9-C ) :   0.8887 B(  9-C , 10-S ) :   0.9254 B(  9-C , 29-H ) :   0.9133
B(  9-C , 30-H ) :   0.9012 B( 10-S , 11-P ) :   1.1126 B( 11-P , 12-S ) :   1.7531
B( 11-P , 13-O ) :   1.1980 B( 11-P , 16-O ) :   1.0477 B( 13-O , 14-C ) :   0.7466
B( 14-C , 15-C ) :   0.9391 B( 14-C , 31-H ) :   0.9559 B( 14-C , 32-H ) :   0.9482
B( 15-C , 33-H ) :   0.9663 B( 15-C , 34-H ) :   0.9683 B( 15-C , 35-H ) :   0.9686
B( 16-O , 17-C ) :   0.7706 B( 17-C , 18-C ) :   0.9588 B( 17-C , 36-H ) :   0.9621
B( 17-C , 37-H ) :   0.9639 B( 18-C , 38-H ) :   0.9596 B( 18-C , 39-H ) :   0.9653
B( 18-C , 40-H ) :   0.9750

Dispersion correction           -0.022170185
FINAL SINGLE POINT ENERGY     -2932.460650080738

DIPOLE MOMENT
-------------

Method             : SCF
Type of density    : Electron Density
Multiplicity       :   1
Irrep              :   0
Energy             : -2932.4850587847622592 Eh
Relativity type    :
Basis              : AO
                                X                 Y                 Z
Electronic contribution:      0.243247127      -9.871095426     -10.816452448
Nuclear contribution   :     -0.136196086       9.770813546      11.630744128
                        -----------------------------------------
Total Dipole Moment    :      0.107051042      -0.100281880       0.814291679
                        -----------------------------------------
Magnitude (a.u.)       :      0.827397921
Magnitude (Debye)      :      2.103078381

Rotational constants in cm-1:             0.011957             0.005524             0.005034
Rotational constants in MHz :           358.452497           165.590479           150.918651

                             ****ORCA TERMINATED NORMALLY****
TOTAL RUN TIME: 0 days 0 hours 1 minutes 22 seconds 176 msec
