                         Program Version 6.0.0  -   RELEASE  -
|  1> ! r2scan-3c def2/J RI DEFGRID2 scfconv6 printgap
|  2> %output
|  3>     printlevel normal
|  4> end
|  5> %cpcm
|  6>     smd true
|  7>     smdsolvent "water"
|  8> end
|  9> * xyz 0 1
| 10> C 4.6259260972 -1.2859498838 -1.0572180306
| 11> C 4.6473071037 0.1458172851 -0.5626323677
| 12> O 3.5328959148 0.4400165305 0.2963895135
| 13> P 2.0276848355 0.4652901749 -0.2293781596
| 14> S 1.8516542168 1.2369323911 -2.0284004755
| 15> O 1.3332777508 1.2318877391 0.9713221604
| 16> C 1.5800655818 2.6475826213 1.1483997003
| 17> C 0.4919316394 3.2184112261 2.0323668045
| 18> S 1.3151878921 -1.4904907506 0.0848209158
| 19> C 0.2860235391 -1.6952768654 -1.408179317
| 20> S -1.4006330687 -2.2380535065 -1.0319022948
| 21> P -2.0486675535 -0.5749714945 0.0738519226
| 22> S -1.5185219939 1.2046560084 -0.5741761679
| 23> O -1.5690853822 -0.9729358757 1.5233673511
| 24> C -1.6164415865 -0.0659278952 2.6488606752
| 25> C -0.4374196847 -0.3695464619 3.5501641831
| 26> O -3.6187047247 -0.8035910001 0.1881606905
| 27> C -4.5298540291 -0.4604239977 -0.8770897822
| 28> C -5.2133552192 0.8606994264 -0.5820631736
| 29> H 4.531271052 -1.974128713 -0.22115067
| 30> H 3.7824889873 -1.4306146689 -1.7312420841
| 31> H 5.5452947659 -1.4932138571 -1.5952244126
| 32> H 4.6241305054 0.8431836964 -1.4061095164
| 33> H 5.5185093872 0.3451206352 0.0626983919
| 34> H 2.5687070786 2.7594882327 1.6003432059
| 35> H 1.577188577 3.1250464831 0.1620880781
| 36> H -0.4739131274 3.1048746017 1.5460575158
| 37> H 0.4762685248 2.7027695936 2.9879342291
| 38> H 0.685223022 4.2741189645 2.1924015868
| 39> H 0.7147711338 -2.4857840215 -2.0190276588
| 40> H 0.2660001874 -0.7456085427 -1.9509626326
| 41> H -1.5804783878 0.9619013539 2.2737034229
| 42> H -2.5675810551 -0.2331411643 3.1587635451
| 43> H -0.4527029533 -1.4169520769 3.837192211
| 44> H 0.4941108378 -0.1642841499 3.028113837
| 45> H -0.4983147462 0.2501964354 4.4390617779
| 46> H -3.9820362473 -0.4138645567 -1.8222472602
| 47> H -5.2452049872 -1.2838609178 -0.910757681
| 48> H -4.4790598997 1.6632294402 -0.5570343121
| 49> H -5.9394561585 1.0697490944 -1.3609402186
| 50> H -5.7176525162 0.8139954846 0.3789050069
| 51> *
| 52>
| 53>                          ****END OF INPUT****

CARTESIAN COORDINATES (ANGSTROEM)
---------------------------------
  C      4.625926   -1.285950   -1.057218
  C      4.647307    0.145817   -0.562632
  O      3.532896    0.440017    0.296390
  P      2.027685    0.465290   -0.229378
  S      1.851654    1.236932   -2.028400
  O      1.333278    1.231888    0.971322
  C      1.580066    2.647583    1.148400
  C      0.491932    3.218411    2.032367
  S      1.315188   -1.490491    0.084821
  C      0.286024   -1.695277   -1.408179
  S     -1.400633   -2.238054   -1.031902
  P     -2.048668   -0.574971    0.073852
  S     -1.518522    1.204656   -0.574176
  O     -1.569085   -0.972936    1.523367
  C     -1.616442   -0.065928    2.648861
  C     -0.437420   -0.369546    3.550164
  O     -3.618705   -0.803591    0.188161
  C     -4.529854   -0.460424   -0.877090
  C     -5.213355    0.860699   -0.582063
  H      4.531271   -1.974129   -0.221151
  H      3.782489   -1.430615   -1.731242
  H      5.545295   -1.493214   -1.595224
  H      4.624131    0.843184   -1.406110
  H      5.518509    0.345121    0.062698
  H      2.568707    2.759488    1.600343
  H      1.577189    3.125046    0.162088
  H     -0.473913    3.104875    1.546058
  H      0.476269    2.702770    2.987934
  H      0.685223    4.274119    2.192402
  H      0.714771   -2.485784   -2.019028
  H      0.266000   -0.745609   -1.950963
  H     -1.580478    0.961901    2.273703
  H     -2.567581   -0.233141    3.158764
  H     -0.452703   -1.416952    3.837192
  H      0.494111   -0.164284    3.028114
  H     -0.498315    0.250196    4.439062
  H     -3.982036   -0.413865   -1.822247
  H     -5.245205   -1.283861   -0.910758
  H     -4.479060    1.663229   -0.557034
  H     -5.939456    1.069749   -1.360940
  H     -5.717653    0.813995    0.378905

 Total Charge           Charge          ....    0
 Multiplicity           Mult            ....    1
 Number of Electrons    NEL             ....  202
 Basis Dimension        Dim             ....  539

ORBITAL ENERGIES
----------------

  NO   OCC          E(Eh)            E(eV)
   0   2.0000     -88.582355     -2410.4484
   1   2.0000     -88.579674     -2410.3755
   2   2.0000     -88.525219     -2408.8937
   3   2.0000     -88.521376     -2408.7891
   4   2.0000     -76.917138     -2093.0217
   5   2.0000     -76.916525     -2093.0050
   6   2.0000     -18.992458      -516.8111
   7   2.0000     -18.990990      -516.7711
   8   2.0000     -18.990491      -516.7575
   9   2.0000     -18.988369      -516.6998
  10   2.0000     -10.105920      -274.9961
  11   2.0000     -10.090360      -274.5727
  12   2.0000     -10.088616      -274.5252
  13   2.0000     -10.087411      -274.4924
  14   2.0000     -10.087179      -274.4861
  15   2.0000     -10.017366      -272.5864
  16   2.0000     -10.017319      -272.5851
  17   2.0000     -10.017296      -272.5845
  18   2.0000     -10.016614      -272.5659
  19   2.0000      -7.876810      -214.3389
  20   2.0000      -7.874107      -214.2653
  21   2.0000      -7.820292      -212.8010
  22   2.0000      -7.816415      -212.6955
  23   2.0000      -6.595497      -179.4726
  24   2.0000      -6.595111      -179.4621
  25   2.0000      -5.823827      -158.4744
  26   2.0000      -5.820992      -158.3973
  27   2.0000      -5.820369      -158.3803
  28   2.0000      -5.818070      -158.3177
  29   2.0000      -5.814056      -158.2085
  30   2.0000      -5.811071      -158.1273
  31   2.0000      -5.767860      -156.9514
  32   2.0000      -5.764016      -156.8469
  33   2.0000      -5.760799      -156.7593
  34   2.0000      -5.760083      -156.7398
  35   2.0000      -5.756743      -156.6489
  36   2.0000      -5.756375      -156.6389
  37   2.0000      -4.741000      -129.0092
  38   2.0000      -4.740489      -128.9953
  39   2.0000      -4.740487      -128.9952
  40   2.0000      -4.739925      -128.9799
  41   2.0000      -4.739204      -128.9603
  42   2.0000      -4.739082      -128.9570
  43   2.0000      -1.050406       -28.5830
  44   2.0000      -1.049241       -28.5513
  45   2.0000      -1.010020       -27.4840
  46   2.0000      -1.006993       -27.4017
  47   2.0000      -0.803071       -21.8527
  48   2.0000      -0.756508       -20.5856
  49   2.0000      -0.743389       -20.2286
  50   2.0000      -0.722278       -19.6542
  51   2.0000      -0.721632       -19.6366
  52   2.0000      -0.710128       -19.3236
  53   2.0000      -0.687025       -18.6949
  54   2.0000      -0.669973       -18.2309
  55   2.0000      -0.628649       -17.1064
  56   2.0000      -0.614414       -16.7191
  57   2.0000      -0.600286       -16.3346
  58   2.0000      -0.595156       -16.1950
  59   2.0000      -0.583905       -15.8889
  60   2.0000      -0.527765       -14.3612
  61   2.0000      -0.521976       -14.2037
  62   2.0000      -0.496094       -13.4994
  63   2.0000      -0.486349       -13.2342
  64   2.0000      -0.464713       -12.6455
  65   2.0000      -0.457944       -12.4613
  66   2.0000      -0.454144       -12.3579
  67   2.0000      -0.451787       -12.2938
  68   2.0000      -0.439603       -11.9622
  69   2.0000      -0.436053       -11.8656
  70   2.0000      -0.421010       -11.4563
  71   2.0000      -0.409690       -11.1482
  72   2.0000      -0.407220       -11.0810
  73   2.0000      -0.400336       -10.8937
  74   2.0000      -0.392504       -10.6806
  75   2.0000      -0.386443       -10.5156
  76   2.0000      -0.377175       -10.2635
  77   2.0000      -0.364471        -9.9178
  78   2.0000      -0.360798        -9.8178
  79   2.0000      -0.356335        -9.6964
  80   2.0000      -0.354370        -9.6429
  81   2.0000      -0.349223        -9.5028
  82   2.0000      -0.345102        -9.3907
  83   2.0000      -0.344216        -9.3666
  84   2.0000      -0.341379        -9.2894
  85   2.0000      -0.325384        -8.8542
  86   2.0000      -0.321670        -8.7531
  87   2.0000      -0.307724        -8.3736
  88   2.0000      -0.307352        -8.3635
  89   2.0000      -0.303927        -8.2703
  90   2.0000      -0.303723        -8.2647
  91   2.0000      -0.286578        -7.7982
  92   2.0000      -0.282643        -7.6911
  93   2.0000      -0.279527        -7.6063
  94   2.0000      -0.276713        -7.5298
  95   2.0000      -0.252454        -6.8696
  96   2.0000      -0.238563        -6.4916
  97   2.0000      -0.234552        -6.3825
  98   2.0000      -0.223373        -6.0783
  99   2.0000      -0.215257        -5.8574
 100   2.0000      -0.207599        -5.6491
 101   0.0000      -0.048563        -1.3215
 102   0.0000      -0.041010        -1.1159
 103   0.0000      -0.012545        -0.3414
 104   0.0000       0.008570         0.2332
 105   0.0000       0.016446         0.4475

MULLIKEN ATOMIC CHARGES
-----------------------
   0 C :   -0.475223
   1 C :   -0.156687
   2 O :   -0.333797
   3 P :    0.730625
   4 S :   -0.530104
   5 O :   -0.296771
   6 C :   -0.136088
   7 C :   -0.509700
   8 S :   -0.124955
   9 C :   -0.230933
  10 S :   -0.130941
  11 P :    0.709642
  12 S :   -0.487361
  13 O :   -0.311357
  14 C :   -0.124233
  15 C :   -0.503188
  16 O :   -0.334340
  17 C :   -0.119830
  18 C :   -0.496931
  19 H :    0.166547
  20 H :    0.169506
  21 H :    0.171282
  22 H :    0.176272
  23 H :    0.172398
  24 H :    0.173095
  25 H :    0.170895
  26 H :    0.173864
  27 H :    0.170780
  28 H :    0.168543
  29 H :    0.231131
  30 H :    0.216516
  31 H :    0.174980
  32 H :    0.172970
  33 H :    0.165316
  34 H :    0.171390
  35 H :    0.169515
  36 H :    0.164229
  37 H :    0.175414
  38 H :    0.171575
  39 H :    0.169621
  40 H :    0.166332
Sum of atomic charges:   -0.0000000

LOEWDIN ATOMIC CHARGES
----------------------
   0 C :   -0.409755
   1 C :    0.022433
   2 O :   -0.680357
   3 P :    0.379160
   4 S :   -0.165804
   5 O :   -0.693005
   6 C :    0.023634
   7 C :   -0.396436
   8 S :    0.182400
   9 C :   -0.405540
  10 S :    0.160469
  11 P :    0.367080
  12 S :   -0.117173
  13 O :   -0.684885
  14 C :    0.030302
  15 C :   -0.397860
  16 O :   -0.676477
  17 C :    0.025607
  18 C :   -0.404496
  19 H :    0.163301
  20 H :    0.160744
  21 H :    0.167118
  22 H :    0.180634
  23 H :    0.189550
  24 H :    0.181013
  25 H :    0.182834
  26 H :    0.163714
  27 H :    0.163897
  28 H :    0.167863
  29 H :    0.195928
  30 H :    0.199474
  31 H :    0.184461
  32 H :    0.181857
  33 H :    0.163275
  34 H :    0.165996
  35 H :    0.168877
  36 H :    0.180066
  37 H :    0.188094
  38 H :    0.162441
  39 H :    0.167336
  40 H :    0.162231

  Mayer bond orders larger than 0.100000
B(  0-C ,  1-C ) :   0.9100 B(  0-C , 19-H ) :   0.9651 B(  0-C , 20-H ) :   0.9655
B(  0-C , 21-H ) :   0.9550 B(  1-C ,  2-O ) :   0.8145 B(  1-C , 22-H ) :   0.9655
B(  1-C , 23-H ) :   0.9490 B(  2-O ,  3-P ) :   1.0521 B(  3-P ,  4-S ) :   1.6741
B(  3-P ,  5-O ) :   1.1809 B(  3-P ,  8-S ) :   1.1457 B(  5-O ,  6-C ) :   0.7728
B(  6-C ,  7-C ) :   0.9439 B(  6-C , 24-H ) :   0.9365 B(  6-C , 25-H ) :   0.9510
B(  7-C , 26-H ) :   0.9670 B(  7-C , 27-H ) :   0.9672 B(  7-C , 28-H ) :   0.9565
B(  8-S ,  9-C ) :   0.8821 B(  9-C , 10-S ) :   0.9178 B(  9-C , 29-H ) :   0.8976
B(  9-C , 30-H ) :   0.9054 B( 10-S , 11-P ) :   1.1250 B( 11-P , 12-S ) :   1.7297
B( 11-P , 13-O ) :   1.1976 B( 11-P , 16-O ) :   1.0504 B( 13-O , 14-C ) :   0.7357
B( 14-C , 15-C ) :   0.9335 B( 14-C , 31-H ) :   0.9525 B( 14-C , 32-H ) :   0.9377
B( 15-C , 33-H ) :   0.9662 B( 15-C , 34-H ) :   0.9672 B( 15-C , 35-H ) :   0.9614
B( 16-O , 17-C ) :   0.7569 B( 17-C , 18-C ) :   0.9476 B( 17-C , 36-H ) :   0.9566
B( 17-C , 37-H ) :   0.9536 B( 18-C , 38-H ) :   0.9638 B( 18-C , 39-H ) :   0.9602
B( 18-C , 40-H ) :   0.9713

Dispersion correction           -0.022170185
FINAL SINGLE POINT ENERGY     -2932.468457724072

DIPOLE MOMENT
-------------

Method             : SCF
Type of density    : Electron Density
Multiplicity       :   1
Irrep              :   0
Energy             : -2932.4928664280960220 Eh
Relativity type    :
Basis              : AO
                                X                 Y                 Z
Electronic contribution:      0.346100157      -9.961130497     -10.599922002
Nuclear contribution   :     -0.136196086       9.770813546      11.630744128
                        -----------------------------------------
Total Dipole Moment    :      0.209904071      -0.190316951       1.030822126
                        -----------------------------------------
Magnitude (a.u.)       :      1.069053093
Magnitude (Debye)      :      2.717317015

Rotational constants in cm-1:             0.011957             0.005524             0.005034
Rotational constants in MHz :           358.452497           165.590479           150.918651

                             ****ORCA TERMINATED NORMALLY****
TOTAL RUN TIME: 0 days 0 hours 1 minutes 57 seconds 808 msec
