                         Program Version 6.0.0  -   RELEASE  -
|  1> ! pbe def2-sv(p) def2/J RI DEFGRID1 loosescf d4 GCP(DFT/SV(P)) printgap
|  2> %output
|  3>     printlevel normal
|  4> end
|  5> * xyz 0 1
|  6> C 5.212769763 -1.2278148967 -1.2859016366
|  7> C 3.8036627577 -1.6523916982 -1.6519453034
|  8> O 2.9292818178 -1.5992236747 -0.5064130467
|  9> P 2.0921154348 -0.307528847 -0.1184620962
| 10> S 3.0808677428 1.3550878055 0.2160604292
| 11> O 1.2540401702 -0.8806655689 1.0924561571
| 12> C 1.494609657 -0.4931201717 2.4585079176
| 13> C 2.7246616633 -1.1850175336 3.0064148272
| 14> S 0.6538583574 -0.2210768198 -1.6734936108
| 15> C 0.0980830005 1.4762759847 -1.3559761197
| 16> S -0.5993359444 1.6973175643 0.3002852169
| 17> P -2.2046084085 0.3236163295 0.0743720619
| 18> S -3.026529767 0.2388536119 -1.7067856865
| 19> O -3.1353432485 0.6629686828 1.3118054704
| 20> C -3.6080006618 1.9741020861 1.6731106203
| 21> C -4.3003655593 2.6866376847 0.5296353954
| 22> O -1.6025739642 -1.0436410723 0.5986214154
| 23> C -1.7814238474 -2.3040951256 -0.0691726545
| 24> C -3.0792152736 -2.9529160927 0.3650561184
| 25> H 5.2234160991 -0.1897572829 -0.9611150511
| 26> H 5.5933590329 -1.8505588662 -0.4811173258
| 27> H 5.8540953373 -1.3328677055 -2.1549980406
| 28> H 3.772786147 -2.6970260298 -1.9671965891
| 29> H 3.3952694974 -1.0213777355 -2.4467913096
| 30> H 1.6071057087 0.5956159716 2.5020042997
| 31> H 0.5848864062 -0.7897312646 2.9828918388
| 32> H 3.6031456258 -0.8588086677 2.4506481097
| 33> H 2.8503692109 -0.9263085807 4.0529208228
| 34> H 2.6261521692 -2.2624754413 2.906091411
| 35> H -0.6604857084 1.6943393346 -2.1072021084
| 36> H 0.9436435092 2.1595779909 -1.4278455699
| 37> H -4.2968800438 1.7785353736 2.4969104923
| 38> H -2.7554473535 2.5569093428 2.0334772626
| 39> H -5.0983230109 2.0684248333 0.1250071452
| 40> H -4.7170216084 3.622447531 0.8880699202
| 41> H -3.589454035 2.8977418711 -0.2681081406
| 42> H -1.7708636712 -2.1418266444 -1.1526258588
| 43> H -0.9088842485 -2.8925935153 0.2201717322
| 44> H -3.9176974852 -2.3265583329 0.0635100478
| 45> H -3.1732019501 -3.925383677 -0.1074459476
| 46> H -3.0984365869 -3.0684497196 1.4451210174
| 47> *
| 48>
| 49>                          ****END OF INPUT****

CARTESIAN COORDINATES (ANGSTROEM)
---------------------------------
  C      5.212770   -1.227815   -1.285902
  C      3.803663   -1.652392   -1.651945
  O      2.929282   -1.599224   -0.506413
  P      2.092115   -0.307529   -0.118462
  S      3.080868    1.355088    0.216060
  O      1.254040   -0.880666    1.092456
  C      1.494610   -0.493120    2.458508
  C      2.724662   -1.185018    3.006415
  S      0.653858   -0.221077   -1.673494
  C      0.098083    1.476276   -1.355976
  S     -0.599336    1.697318    0.300285
  P     -2.204608    0.323616    0.074372
  S     -3.026530    0.238854   -1.706786
  O     -3.135343    0.662969    1.311805
  C     -3.608001    1.974102    1.673111
  C     -4.300366    2.686638    0.529635
  O     -1.602574   -1.043641    0.598621
  C     -1.781424   -2.304095   -0.069173
  C     -3.079215   -2.952916    0.365056
  H      5.223416   -0.189757   -0.961115
  H      5.593359   -1.850559   -0.481117
  H      5.854095   -1.332868   -2.154998
  H      3.772786   -2.697026   -1.967197
  H      3.395269   -1.021378   -2.446791
  H      1.607106    0.595616    2.502004
  H      0.584886   -0.789731    2.982892
  H      3.603146   -0.858809    2.450648
  H      2.850369   -0.926309    4.052921
  H      2.626152   -2.262475    2.906091
  H     -0.660486    1.694339   -2.107202
  H      0.943644    2.159578   -1.427846
  H     -4.296880    1.778535    2.496910
  H     -2.755447    2.556909    2.033477
  H     -5.098323    2.068425    0.125007
  H     -4.717022    3.622448    0.888070
  H     -3.589454    2.897742   -0.268108
  H     -1.770864   -2.141827   -1.152626
  H     -0.908884   -2.892594    0.220172
  H     -3.917697   -2.326558    0.063510
  H     -3.173202   -3.925384   -0.107446
  H     -3.098437   -3.068450    1.445121

 Total Charge           Charge          ....    0
 Multiplicity           Mult            ....    1
 Number of Electrons    NEL             ....  202
 Basis Dimension        Dim             ....  334

ORBITAL ENERGIES
----------------

  NO   OCC          E(Eh)            E(eV)
   0   2.0000     -88.043790     -2395.7933
   1   2.0000     -88.043669     -2395.7900
   2   2.0000     -87.990432     -2394.3414
   3   2.0000     -87.987094     -2394.2505
   4   2.0000     -76.427754     -2079.7049
   5   2.0000     -76.426371     -2079.6673
   6   2.0000     -18.795728      -511.4578
   7   2.0000     -18.793503      -511.3972
   8   2.0000     -18.788096      -511.2501
   9   2.0000     -18.783755      -511.1319
  10   2.0000      -9.958531      -270.9854
  11   2.0000      -9.956912      -270.9413
  12   2.0000      -9.955567      -270.9048
  13   2.0000      -9.947553      -270.6867
  14   2.0000      -9.942739      -270.5557
  15   2.0000      -9.883713      -268.9495
  16   2.0000      -9.882630      -268.9200
  17   2.0000      -9.881559      -268.8909
  18   2.0000      -9.877823      -268.7892
  19   2.0000      -7.688471      -209.2139
  20   2.0000      -7.688432      -209.2129
  21   2.0000      -7.635319      -207.7676
  22   2.0000      -7.632032      -207.6781
  23   2.0000      -6.425179      -174.8380
  24   2.0000      -6.423450      -174.7909
  25   2.0000      -5.716252      -155.5471
  26   2.0000      -5.716226      -155.5464
  27   2.0000      -5.713028      -155.4594
  28   2.0000      -5.712963      -155.4576
  29   2.0000      -5.705570      -155.2565
  30   2.0000      -5.705457      -155.2534
  31   2.0000      -5.664124      -154.1286
  32   2.0000      -5.660878      -154.0403
  33   2.0000      -5.655879      -153.9043
  34   2.0000      -5.655674      -153.8987
  35   2.0000      -5.652687      -153.8174
  36   2.0000      -5.652252      -153.8056
  37   2.0000      -4.647504      -126.4650
  38   2.0000      -4.647035      -126.4522
  39   2.0000      -4.645798      -126.4186
  40   2.0000      -4.645789      -126.4184
  41   2.0000      -4.645412      -126.4081
  42   2.0000      -4.644002      -126.3697
  43   2.0000      -0.988243       -26.8914
  44   2.0000      -0.985233       -26.8096
  45   2.0000      -0.946172       -25.7467
  46   2.0000      -0.942140       -25.6369
  47   2.0000      -0.766018       -20.8444
  48   2.0000      -0.720606       -19.6087
  49   2.0000      -0.708757       -19.2863
  50   2.0000      -0.685730       -18.6597
  51   2.0000      -0.683700       -18.6044
  52   2.0000      -0.672950       -18.3119
  53   2.0000      -0.652719       -17.7614
  54   2.0000      -0.641118       -17.4457
  55   2.0000      -0.598659       -16.2904
  56   2.0000      -0.595029       -16.1915
  57   2.0000      -0.573208       -15.5978
  58   2.0000      -0.568010       -15.4563
  59   2.0000      -0.562448       -15.3050
  60   2.0000      -0.503098       -13.6900
  61   2.0000      -0.491783       -13.3821
  62   2.0000      -0.475643       -12.9429
  63   2.0000      -0.468296       -12.7430
  64   2.0000      -0.457138       -12.4394
  65   2.0000      -0.441068       -12.0021
  66   2.0000      -0.440072       -11.9750
  67   2.0000      -0.434400       -11.8206
  68   2.0000      -0.426623       -11.6090
  69   2.0000      -0.416211       -11.3257
  70   2.0000      -0.405328       -11.0295
  71   2.0000      -0.398064       -10.8319
  72   2.0000      -0.388501       -10.5717
  73   2.0000      -0.387772       -10.5518
  74   2.0000      -0.383157       -10.4262
  75   2.0000      -0.378921       -10.3110
  76   2.0000      -0.370267       -10.0755
  77   2.0000      -0.354546        -9.6477
  78   2.0000      -0.351166        -9.5557
  79   2.0000      -0.347828        -9.4649
  80   2.0000      -0.346726        -9.4349
  81   2.0000      -0.344762        -9.3814
  82   2.0000      -0.340088        -9.2543
  83   2.0000      -0.336622        -9.1599
  84   2.0000      -0.331735        -9.0270
  85   2.0000      -0.321872        -8.7586
  86   2.0000      -0.310557        -8.4507
  87   2.0000      -0.298884        -8.1330
  88   2.0000      -0.296340        -8.0638
  89   2.0000      -0.285873        -7.7790
  90   2.0000      -0.282020        -7.6742
  91   2.0000      -0.277398        -7.5484
  92   2.0000      -0.270285        -7.3548
  93   2.0000      -0.267259        -7.2725
  94   2.0000      -0.253411        -6.8957
  95   2.0000      -0.233557        -6.3554
  96   2.0000      -0.220243        -5.9931
  97   2.0000      -0.213906        -5.8207
  98   2.0000      -0.208573        -5.6756
  99   2.0000      -0.199706        -5.4343
 100   2.0000      -0.198736        -5.4079
 101   0.0000      -0.046748        -1.2721
 102   0.0000      -0.024473        -0.6659
 103   0.0000      -0.003026        -0.0823
 104   0.0000      -0.000864        -0.0235
 105   0.0000       0.010929         0.2974

MULLIKEN ATOMIC CHARGES
-----------------------
   0 C :   -0.294936
   1 C :   -0.013091
   2 O :   -0.368360
   3 P :    0.614340
   4 S :   -0.336577
   5 O :   -0.351324
   6 C :   -0.005641
   7 C :   -0.299390
   8 S :   -0.084673
   9 C :   -0.350383
  10 S :   -0.100352
  11 P :    0.614431
  12 S :   -0.334778
  13 O :   -0.367131
  14 C :   -0.012464
  15 C :   -0.309321
  16 O :   -0.351286
  17 C :   -0.010319
  18 C :   -0.289292
  19 H :    0.130509
  20 H :    0.113947
  21 H :    0.108300
  22 H :    0.108559
  23 H :    0.104135
  24 H :    0.113276
  25 H :    0.105402
  26 H :    0.120230
  27 H :    0.110347
  28 H :    0.113713
  29 H :    0.191411
  30 H :    0.191275
  31 H :    0.109824
  32 H :    0.114835
  33 H :    0.126433
  34 H :    0.111503
  35 H :    0.124797
  36 H :    0.114017
  37 H :    0.101696
  38 H :    0.117699
  39 H :    0.107689
  40 H :    0.110951
Sum of atomic charges:   -0.0000000

LOEWDIN ATOMIC CHARGES
----------------------
   0 C :   -0.364038
   1 C :   -0.116314
   2 O :   -0.244012
   3 P :    0.569345
   4 S :   -0.319806
   5 O :   -0.227553
   6 C :   -0.118999
   7 C :   -0.363058
   8 S :    0.090831
   9 C :   -0.479311
  10 S :    0.081391
  11 P :    0.571831
  12 S :   -0.318396
  13 O :   -0.241825
  14 C :   -0.114446
  15 C :   -0.369238
  16 O :   -0.229356
  17 C :   -0.123512
  18 C :   -0.360405
  19 H :    0.124459
  20 H :    0.125777
  21 H :    0.129162
  22 H :    0.119507
  23 H :    0.106769
  24 H :    0.107830
  25 H :    0.118413
  26 H :    0.122015
  27 H :    0.129575
  28 H :    0.124986
  29 H :    0.130599
  30 H :    0.130756
  31 H :    0.121749
  32 H :    0.109266
  33 H :    0.129879
  34 H :    0.130009
  35 H :    0.120907
  36 H :    0.104695
  37 H :    0.115460
  38 H :    0.123071
  39 H :    0.128334
  40 H :    0.123650

  Mayer bond orders larger than 0.100000
B(  0-C ,  1-C ) :   1.1670 B(  0-C , 19-H ) :   0.9316 B(  0-C , 20-H ) :   0.9472
B(  0-C , 21-H ) :   0.9392 B(  1-C ,  2-O ) :   0.9053 B(  1-C , 22-H ) :   0.9360
B(  1-C , 23-H ) :   0.9156 B(  2-O ,  3-P ) :   1.1205 B(  3-P ,  4-S ) :   1.5899
B(  3-P ,  5-O ) :   1.1361 B(  3-P ,  8-S ) :   0.9507 B(  4-S ,  8-S ) :   0.1090
B(  5-O ,  6-C ) :   0.8994 B(  6-C ,  7-C ) :   1.1631 B(  6-C , 24-H ) :   0.9122
B(  6-C , 25-H ) :   0.9322 B(  7-C , 26-H ) :   0.9371 B(  7-C , 27-H ) :   0.9406
B(  7-C , 28-H ) :   0.9471 B(  8-S ,  9-C ) :   1.0036 B(  9-C , 10-S ) :   1.0079
B(  9-C , 29-H ) :   0.8835 B(  9-C , 30-H ) :   0.8845 B( 10-S , 11-P ) :   0.9331
B( 10-S , 12-S ) :   0.1082 B( 11-P , 12-S ) :   1.5890 B( 11-P , 13-O ) :   1.1274
B( 11-P , 16-O ) :   1.1350 B( 13-O , 14-C ) :   0.9149 B( 14-C , 15-C ) :   1.1639
B( 14-C , 31-H ) :   0.9342 B( 14-C , 32-H ) :   0.9268 B( 15-C , 33-H ) :   0.9429
B( 15-C , 34-H ) :   0.9352 B( 15-C , 35-H ) :   0.9337 B( 16-O , 17-C ) :   0.9002
B( 17-C , 18-C ) :   1.1618 B( 17-C , 36-H ) :   0.9064 B( 17-C , 37-H ) :   0.9313
B( 18-C , 38-H ) :   0.9408 B( 18-C , 39-H ) :   0.9417 B( 18-C , 40-H ) :   0.9480

Dispersion correction           -0.067058608
FINAL SINGLE POINT ENERGY     -2929.525730072654

DIPOLE MOMENT
-------------

Method             : SCF
Type of density    : Electron Density
Multiplicity       :   1
Irrep              :   0
Energy             : -2929.6430435360871343 Eh
Relativity type    :
Basis              : AO
                                X                 Y                 Z
Electronic contribution:     -1.910175701       8.056968770      -8.088904840
Nuclear contribution   :      2.028849385      -8.504846818       8.689483626
                        -----------------------------------------
Total Dipole Moment    :      0.118673684      -0.447878048       0.600578787
                        -----------------------------------------
Magnitude (a.u.)       :      0.758533498
Magnitude (Debye)      :      1.928038929

Rotational constants in cm-1:             0.013091             0.004982             0.004875
Rotational constants in MHz :           392.452239           149.354620           146.160652

                             ****ORCA TERMINATED NORMALLY****
TOTAL RUN TIME: 0 days 0 hours 0 minutes 21 seconds 594 msec
