                         Program Version 6.0.0  -   RELEASE  -
|  1> ! pbe def2-sv(p) def2/J RI DEFGRID1 loosescf d4 GCP(DFT/SV(P)) printgap
|  2> %output
|  3>     printlevel normal
|  4> end
|  5> * xyz 0 1
|  6> C 2.2607649131 -3.2805514129 -1.9511535225
|  7> C 1.6496671694 -2.1775007872 -1.1117925687
|  8> O 2.7035412577 -1.2652232502 -0.7481468342
|  9> P 2.3956456371 0.15264186 -0.0952783395
| 10> S 1.1345520601 1.2801264688 -1.0931155914
| 11> O 3.823560664 0.8022234234 -0.0279133142
| 12> C 5.0599114068 0.0875811916 0.2348365487
| 13> C 5.077321515 -0.5565265762 1.6038506449
| 14> S 1.8179843923 -0.277398257 1.9147056612
| 15> C 0.1056854681 0.2777524749 1.8980459534
| 16> S -0.9799767231 -0.8053227529 0.9101084328
| 17> P -2.1758913793 0.6573525152 -0.0843353122
| 18> S -1.9896002473 2.4950148942 0.5537555076
| 19> O -3.6357752176 0.0442219523 0.0893683649
| 20> C -4.2914174401 0.0366070235 1.373035734
| 21> C -5.7564670314 -0.2761754922 1.1454706768
| 22> O -1.9457919034 0.495875053 -1.6287892425
| 23> C -2.0424423057 -0.7726417804 -2.3252686176
| 24> C -3.40624287 -0.9349904596 -2.963703597
| 25> H 1.4842236631 -3.9842741925 -2.2315778874
| 26> H 2.7084416358 -2.8628012332 -2.8484602098
| 27> H 3.026916873 -3.7985703659 -1.3822499241
| 28> H 1.1999130673 -2.5718486486 -0.1953246837
| 29> H 0.8882583807 -1.6215140495 -1.6688149373
| 30> H 5.1950979489 -0.655718382 -0.5522620461
| 31> H 5.8170487996 0.8679979237 0.1460300945
| 32> H 4.3189993227 -1.3349417032 1.6671422444
| 33> H 6.0537848518 -0.9996029488 1.7735055867
| 34> H 4.8806417484 0.1832155992 2.3754824611
| 35> H 0.0354320997 1.2898038031 1.4918350956
| 36> H -0.2246684245 0.2467755562 2.9334130614
| 37> H -3.8123192077 -0.7243085651 1.9957314826
| 38> H -4.1566262359 1.0193501742 1.8370534437
| 39> H -5.8610502535 -1.2480963663 0.6721995459
| 40> H -6.2702288261 -0.2846351783 2.1010101858
| 41> H -6.2033145234 0.4792778845 0.5052587644
| 42> H -1.2521668957 -0.7253039511 -3.0776488835
| 43> H -1.8362522207 -1.5815005619 -1.6176908495
| 44> H -3.6059452378 -0.0995945865 -3.6290899296
| 45> H -3.4221185152 -1.8596889568 -3.5319674211
| 46> H -4.1777604921 -0.9664508297 -2.1994615487
| 47> *
| 48>
| 49>                          ****END OF INPUT****

CARTESIAN COORDINATES (ANGSTROEM)
---------------------------------
  C      2.260765   -3.280551   -1.951154
  C      1.649667   -2.177501   -1.111793
  O      2.703541   -1.265223   -0.748147
  P      2.395646    0.152642   -0.095278
  S      1.134552    1.280126   -1.093116
  O      3.823561    0.802223   -0.027913
  C      5.059911    0.087581    0.234837
  C      5.077322   -0.556527    1.603851
  S      1.817984   -0.277398    1.914706
  C      0.105685    0.277752    1.898046
  S     -0.979977   -0.805323    0.910108
  P     -2.175891    0.657353   -0.084335
  S     -1.989600    2.495015    0.553756
  O     -3.635775    0.044222    0.089368
  C     -4.291417    0.036607    1.373036
  C     -5.756467   -0.276175    1.145471
  O     -1.945792    0.495875   -1.628789
  C     -2.042442   -0.772642   -2.325269
  C     -3.406243   -0.934990   -2.963704
  H      1.484224   -3.984274   -2.231578
  H      2.708442   -2.862801   -2.848460
  H      3.026917   -3.798570   -1.382250
  H      1.199913   -2.571849   -0.195325
  H      0.888258   -1.621514   -1.668815
  H      5.195098   -0.655718   -0.552262
  H      5.817049    0.867998    0.146030
  H      4.318999   -1.334942    1.667142
  H      6.053785   -0.999603    1.773506
  H      4.880642    0.183216    2.375482
  H      0.035432    1.289804    1.491835
  H     -0.224668    0.246776    2.933413
  H     -3.812319   -0.724309    1.995731
  H     -4.156626    1.019350    1.837053
  H     -5.861050   -1.248096    0.672200
  H     -6.270229   -0.284635    2.101010
  H     -6.203315    0.479278    0.505259
  H     -1.252167   -0.725304   -3.077649
  H     -1.836252   -1.581501   -1.617691
  H     -3.605945   -0.099595   -3.629090
  H     -3.422119   -1.859689   -3.531967
  H     -4.177760   -0.966451   -2.199462

 Total Charge           Charge          ....    0
 Multiplicity           Mult            ....    1
 Number of Electrons    NEL             ....  202
 Basis Dimension        Dim             ....  334

ORBITAL ENERGIES
----------------

  NO   OCC          E(Eh)            E(eV)
   0   2.0000     -88.042351     -2395.7542
   1   2.0000     -88.038018     -2395.6363
   2   2.0000     -87.979144     -2394.0342
   3   2.0000     -87.977278     -2393.9834
   4   2.0000     -76.422481     -2079.5614
   5   2.0000     -76.421507     -2079.5349
   6   2.0000     -18.791757      -511.3497
   7   2.0000     -18.791615      -511.3458
   8   2.0000     -18.788834      -511.2702
   9   2.0000     -18.788000      -511.2475
  10   2.0000      -9.959235      -271.0046
  11   2.0000      -9.957709      -270.9630
  12   2.0000      -9.953136      -270.8386
  13   2.0000      -9.949918      -270.7510
  14   2.0000      -9.949694      -270.7449
  15   2.0000      -9.893265      -269.2094
  16   2.0000      -9.891235      -269.1542
  17   2.0000      -9.887854      -269.0622
  18   2.0000      -9.886286      -269.0195
  19   2.0000      -7.687221      -209.1799
  20   2.0000      -7.682613      -209.0545
  21   2.0000      -7.624425      -207.4712
  22   2.0000      -7.622027      -207.4059
  23   2.0000      -6.420044      -174.6983
  24   2.0000      -6.418818      -174.6649
  25   2.0000      -5.715219      -155.5190
  26   2.0000      -5.711424      -155.4157
  27   2.0000      -5.710431      -155.3887
  28   2.0000      -5.707173      -155.3001
  29   2.0000      -5.704461      -155.2263
  30   2.0000      -5.699688      -155.0964
  31   2.0000      -5.653489      -153.8393
  32   2.0000      -5.651193      -153.7768
  33   2.0000      -5.644875      -153.6049
  34   2.0000      -5.644552      -153.5961
  35   2.0000      -5.642385      -153.5371
  36   2.0000      -5.642253      -153.5335
  37   2.0000      -4.642977      -126.3418
  38   2.0000      -4.641712      -126.3074
  39   2.0000      -4.641587      -126.3040
  40   2.0000      -4.640589      -126.2768
  41   2.0000      -4.640202      -126.2663
  42   2.0000      -4.639104      -126.2364
  43   2.0000      -0.988510       -26.8987
  44   2.0000      -0.985635       -26.8205
  45   2.0000      -0.944317       -25.6962
  46   2.0000      -0.941715       -25.6254
  47   2.0000      -0.758015       -20.6266
  48   2.0000      -0.721069       -19.6213
  49   2.0000      -0.713265       -19.4089
  50   2.0000      -0.695948       -18.9377
  51   2.0000      -0.691254       -18.8100
  52   2.0000      -0.674177       -18.3453
  53   2.0000      -0.645967       -17.5777
  54   2.0000      -0.630921       -17.1682
  55   2.0000      -0.592923       -16.1343
  56   2.0000      -0.586605       -15.9623
  57   2.0000      -0.575305       -15.6549
  58   2.0000      -0.569231       -15.4896
  59   2.0000      -0.562387       -15.3033
  60   2.0000      -0.509655       -13.8684
  61   2.0000      -0.502429       -13.6718
  62   2.0000      -0.481000       -13.0887
  63   2.0000      -0.475771       -12.9464
  64   2.0000      -0.447525       -12.1778
  65   2.0000      -0.446210       -12.1420
  66   2.0000      -0.445157       -12.1133
  67   2.0000      -0.440302       -11.9812
  68   2.0000      -0.432216       -11.7612
  69   2.0000      -0.424021       -11.5382
  70   2.0000      -0.411601       -11.2002
  71   2.0000      -0.396275       -10.7832
  72   2.0000      -0.389912       -10.6101
  73   2.0000      -0.384441       -10.4612
  74   2.0000      -0.380858       -10.3637
  75   2.0000      -0.368302       -10.0220
  76   2.0000      -0.362623        -9.8675
  77   2.0000      -0.359516        -9.7829
  78   2.0000      -0.356413        -9.6985
  79   2.0000      -0.353881        -9.6296
  80   2.0000      -0.351341        -9.5605
  81   2.0000      -0.345763        -9.4087
  82   2.0000      -0.344260        -9.3678
  83   2.0000      -0.339511        -9.2386
  84   2.0000      -0.337015        -9.1707
  85   2.0000      -0.316535        -8.6134
  86   2.0000      -0.312025        -8.4906
  87   2.0000      -0.302853        -8.2411
  88   2.0000      -0.297128        -8.0853
  89   2.0000      -0.295018        -8.0278
  90   2.0000      -0.287823        -7.8321
  91   2.0000      -0.275843        -7.5061
  92   2.0000      -0.273091        -7.4312
  93   2.0000      -0.260304        -7.0832
  94   2.0000      -0.252525        -6.8716
  95   2.0000      -0.236416        -6.4332
  96   2.0000      -0.217240        -5.9114
  97   2.0000      -0.207473        -5.6456
  98   2.0000      -0.195785        -5.3276
  99   2.0000      -0.191603        -5.2138
 100   2.0000      -0.184239        -5.0134
 101   0.0000      -0.039484        -1.0744
 102   0.0000      -0.030815        -0.8385
 103   0.0000      -0.010789        -0.2936
 104   0.0000       0.006782         0.1846
 105   0.0000       0.014181         0.3859

MULLIKEN ATOMIC CHARGES
-----------------------
   0 C :   -0.272277
   1 C :   -0.035320
   2 O :   -0.388685
   3 P :    0.602383
   4 S :   -0.293682
   5 O :   -0.356486
   6 C :    0.004996
   7 C :   -0.335243
   8 S :   -0.135908
   9 C :   -0.316007
  10 S :   -0.144500
  11 P :    0.610733
  12 S :   -0.294077
  13 O :   -0.385109
  14 C :   -0.007081
  15 C :   -0.282232
  16 O :   -0.345440
  17 C :   -0.037666
  18 C :   -0.274573
  19 H :    0.109128
  20 H :    0.118717
  21 H :    0.113223
  22 H :    0.106598
  23 H :    0.119029
  24 H :    0.112159
  25 H :    0.113796
  26 H :    0.130664
  27 H :    0.118710
  28 H :    0.131864
  29 H :    0.210089
  30 H :    0.175412
  31 H :    0.096926
  32 H :    0.102615
  33 H :    0.114130
  34 H :    0.111632
  35 H :    0.122113
  36 H :    0.123677
  37 H :    0.104087
  38 H :    0.121967
  39 H :    0.106271
  40 H :    0.123364
Sum of atomic charges:    0.0000000

LOEWDIN ATOMIC CHARGES
----------------------
   0 C :   -0.350457
   1 C :   -0.125014
   2 O :   -0.252718
   3 P :    0.562202
   4 S :   -0.291754
   5 O :   -0.234034
   6 C :   -0.107814
   7 C :   -0.372131
   8 S :    0.067419
   9 C :   -0.479390
  10 S :    0.046832
  11 P :    0.570080
  12 S :   -0.292332
  13 O :   -0.253408
  14 C :   -0.123860
  15 C :   -0.350720
  16 O :   -0.224578
  17 C :   -0.112643
  18 C :   -0.358985
  19 H :    0.129740
  20 H :    0.128034
  21 H :    0.125266
  22 H :    0.103524
  23 H :    0.107519
  24 H :    0.115544
  25 H :    0.124345
  26 H :    0.117524
  27 H :    0.134344
  28 H :    0.130245
  29 H :    0.126139
  30 H :    0.134305
  31 H :    0.104640
  32 H :    0.107955
  33 H :    0.124440
  34 H :    0.130600
  35 H :    0.129275
  36 H :    0.122177
  37 H :    0.102253
  38 H :    0.130735
  39 H :    0.128181
  40 H :    0.126519

  Mayer bond orders larger than 0.100000
B(  0-C ,  1-C ) :   1.1554 B(  0-C , 19-H ) :   0.9423 B(  0-C , 20-H ) :   0.9501
B(  0-C , 21-H ) :   0.9508 B(  1-C ,  2-O ) :   0.9068 B(  1-C , 22-H ) :   0.9195
B(  1-C , 23-H ) :   0.9086 B(  2-O ,  3-P ) :   1.0606 B(  3-P ,  4-S ) :   1.6730
B(  3-P ,  5-O ) :   1.1493 B(  3-P ,  8-S ) :   0.9281 B(  4-S ,  8-S ) :   0.1132
B(  5-O ,  6-C ) :   0.8974 B(  6-C ,  7-C ) :   1.1698 B(  6-C , 24-H ) :   0.9270
B(  6-C , 25-H ) :   0.9336 B(  7-C , 26-H ) :   0.9308 B(  7-C , 27-H ) :   0.9351
B(  7-C , 28-H ) :   0.9421 B(  8-S ,  9-C ) :   1.0103 B(  9-C , 10-S ) :   0.9830
B(  9-C , 29-H ) :   0.8473 B(  9-C , 30-H ) :   0.9088 B( 10-S , 11-P ) :   0.9390
B( 10-S , 12-S ) :   0.1169 B( 11-P , 12-S ) :   1.6535 B( 11-P , 13-O ) :   1.0655
B( 11-P , 16-O ) :   1.1449 B( 13-O , 14-C ) :   0.9102 B( 14-C , 15-C ) :   1.1590
B( 14-C , 31-H ) :   0.9227 B( 14-C , 32-H ) :   0.9099 B( 15-C , 33-H ) :   0.9510
B( 15-C , 34-H ) :   0.9424 B( 15-C , 35-H ) :   0.9511 B( 16-O , 17-C ) :   0.8958
B( 17-C , 18-C ) :   1.1589 B( 17-C , 36-H ) :   0.9281 B( 17-C , 37-H ) :   0.9123
B( 18-C , 38-H ) :   0.9455 B( 18-C , 39-H ) :   0.9396 B( 18-C , 40-H ) :   0.9387

Dispersion correction           -0.064219121
FINAL SINGLE POINT ENERGY     -2929.514035222501

DIPOLE MOMENT
-------------

Method             : SCF
Type of density    : Electron Density
Multiplicity       :   1
Irrep              :   0
Energy             : -2929.6343022452138030 Eh
Relativity type    :
Basis              : AO
                                X                 Y                 Z
Electronic contribution:      5.295604953      18.455177780       5.252965067
Nuclear contribution   :     -5.073193862     -20.720197255      -5.039759833
                        -----------------------------------------
Total Dipole Moment    :      0.222411091      -2.265019475       0.213205234
                        -----------------------------------------
Magnitude (a.u.)       :      2.285877597
Magnitude (Debye)      :      5.810239103

Rotational constants in cm-1:             0.013401             0.004659             0.004262
Rotational constants in MHz :           401.758204           139.685492           127.765632

                             ****ORCA TERMINATED NORMALLY****
TOTAL RUN TIME: 0 days 0 hours 0 minutes 20 seconds 692 msec
