                         Program Version 6.0.0  -   RELEASE  -
|  1> ! pbe def2-sv(p) def2/J RI DEFGRID1 loosescf d4 GCP(DFT/SV(P)) printgap
|  2> %output
|  3>     printlevel normal
|  4> end
|  5> * xyz 0 1
|  6> C 1.155930776 3.1492886814 1.471226962
|  7> C 1.909374462 1.9160745249 1.0207850668
|  8> O 1.1590678274 0.7596114524 1.4698369269
|  9> P 1.4704879446 -0.7002639542 0.9749433739
| 10> S 0.5038926558 -2.0993395412 1.939961695
| 11> O 3.0522052204 -0.741866295 1.1829203075
| 12> C 3.8055995817 -1.9465510732 0.9431500938
| 13> C 5.2061767254 -1.7340704162 1.480654825
| 14> S 1.3551019497 -0.7962048486 -1.1551255383
| 15> C -0.1112168549 -1.836636571 -1.3583921504
| 16> S -1.5548814505 -1.0125962781 -2.1071836661
| 17> P -1.8145120352 0.6230372322 -0.781084589
| 18> S -3.5415838537 1.5305611255 -0.922394978
| 19> O -0.5284126916 1.5277367282 -1.0161816053
| 20> C -0.3388783059 2.192505633 -2.2845146988
| 21> C -0.734452116 3.6522676013 -2.187927951
| 22> O -1.4114379458 0.0843490727 0.6571732187
| 23> C -2.4301667929 -0.2578892477 1.6155099706
| 24> C -3.1118160938 -1.566135974 1.2695288153
| 25> H 0.1574391309 3.1495122276 1.0411346385
| 26> H 1.0671698745 3.1581481103 2.5538517798
| 27> H 1.6922418368 4.0351270675 1.145975114
| 28> H 2.9056566945 1.8649930514 1.4641689404
| 29> H 1.9927225294 1.871900939 -0.0683884912
| 30> H 3.3025859182 -2.777117519 1.4490903292
| 31> H 3.8157379851 -2.1368099075 -0.1337358877
| 32> H 5.791738615 -2.6314177038 1.310554395
| 33> H 5.6761358266 -0.8962380446 0.9740029447
| 34> H 5.1694846802 -1.5266908354 2.5464561012
| 35> H -0.3780221476 -2.2450488403 -0.3803095727
| 36> H 0.1401658454 -2.6301719861 -2.0578354245
| 37> H 0.7233688806 2.0764411699 -2.5123131873
| 38> H -0.9280991056 1.6791562543 -3.0527304337
| 39> H -1.7899372436 3.7368515358 -1.9376748868
| 40> H -0.1500179352 4.151777166 -1.4207267662
| 41> H -0.5578584409 4.1322313595 -3.1450182788
| 42> H -1.8926578818 -0.3245288406 2.5626871941
| 43> H -3.1569014366 0.559413142 1.6526462781
| 44> H -2.3891793203 -2.379023592 1.2598798158
| 45> H -3.8714774341 -1.7790489019 2.0145779396
| 46> H -3.5866309731 -1.4899029547 0.2911853037
| 47> *
| 48>
| 49>                          ****END OF INPUT****

CARTESIAN COORDINATES (ANGSTROEM)
---------------------------------
  C      1.155931    3.149289    1.471227
  C      1.909374    1.916075    1.020785
  O      1.159068    0.759611    1.469837
  P      1.470488   -0.700264    0.974943
  S      0.503893   -2.099340    1.939962
  O      3.052205   -0.741866    1.182920
  C      3.805600   -1.946551    0.943150
  C      5.206177   -1.734070    1.480655
  S      1.355102   -0.796205   -1.155126
  C     -0.111217   -1.836637   -1.358392
  S     -1.554881   -1.012596   -2.107184
  P     -1.814512    0.623037   -0.781085
  S     -3.541584    1.530561   -0.922395
  O     -0.528413    1.527737   -1.016182
  C     -0.338878    2.192506   -2.284515
  C     -0.734452    3.652268   -2.187928
  O     -1.411438    0.084349    0.657173
  C     -2.430167   -0.257889    1.615510
  C     -3.111816   -1.566136    1.269529
  H      0.157439    3.149512    1.041135
  H      1.067170    3.158148    2.553852
  H      1.692242    4.035127    1.145975
  H      2.905657    1.864993    1.464169
  H      1.992723    1.871901   -0.068388
  H      3.302586   -2.777118    1.449090
  H      3.815738   -2.136810   -0.133736
  H      5.791739   -2.631418    1.310554
  H      5.676136   -0.896238    0.974003
  H      5.169485   -1.526691    2.546456
  H     -0.378022   -2.245049   -0.380310
  H      0.140166   -2.630172   -2.057835
  H      0.723369    2.076441   -2.512313
  H     -0.928099    1.679156   -3.052730
  H     -1.789937    3.736852   -1.937675
  H     -0.150018    4.151777   -1.420727
  H     -0.557858    4.132231   -3.145018
  H     -1.892658   -0.324529    2.562687
  H     -3.156901    0.559413    1.652646
  H     -2.389179   -2.379024    1.259880
  H     -3.871477   -1.779049    2.014578
  H     -3.586631   -1.489903    0.291185

 Total Charge           Charge          ....    0
 Multiplicity           Mult            ....    1
 Number of Electrons    NEL             ....  202
 Basis Dimension        Dim             ....  334

ORBITAL ENERGIES
----------------

  NO   OCC          E(Eh)            E(eV)
   0   2.0000     -88.047842     -2395.9036
   1   2.0000     -88.043700     -2395.7909
   2   2.0000     -87.990458     -2394.3421
   3   2.0000     -87.987178     -2394.2528
   4   2.0000     -76.429643     -2079.7563
   5   2.0000     -76.425809     -2079.6520
   6   2.0000     -18.796312      -511.4736
   7   2.0000     -18.793945      -511.4092
   8   2.0000     -18.790847      -511.3249
   9   2.0000     -18.789680      -511.2932
  10   2.0000      -9.957977      -270.9703
  11   2.0000      -9.957150      -270.9478
  12   2.0000      -9.954829      -270.8847
  13   2.0000      -9.954076      -270.8642
  14   2.0000      -9.941664      -270.5264
  15   2.0000      -9.891298      -269.1559
  16   2.0000      -9.886721      -269.0313
  17   2.0000      -9.883607      -268.9466
  18   2.0000      -9.873317      -268.6666
  19   2.0000      -7.692412      -209.3212
  20   2.0000      -7.688790      -209.2226
  21   2.0000      -7.635526      -207.7732
  22   2.0000      -7.632362      -207.6871
  23   2.0000      -6.426930      -174.8857
  24   2.0000      -6.423433      -174.7905
  25   2.0000      -5.720236      -155.6555
  26   2.0000      -5.716967      -155.5666
  27   2.0000      -5.716941      -155.5659
  28   2.0000      -5.712913      -155.4563
  29   2.0000      -5.709462      -155.3624
  30   2.0000      -5.705890      -155.2652
  31   2.0000      -5.664484      -154.1384
  32   2.0000      -5.661304      -154.0519
  33   2.0000      -5.656094      -153.9101
  34   2.0000      -5.655593      -153.8965
  35   2.0000      -5.653058      -153.8275
  36   2.0000      -5.652417      -153.8101
  37   2.0000      -4.649688      -126.5244
  38   2.0000      -4.648619      -126.4954
  39   2.0000      -4.647336      -126.4605
  40   2.0000      -4.645814      -126.4190
  41   2.0000      -4.645651      -126.4146
  42   2.0000      -4.643617      -126.3592
  43   2.0000      -0.992171       -26.9983
  44   2.0000      -0.987013       -26.8580
  45   2.0000      -0.946069       -25.7439
  46   2.0000      -0.944652       -25.7053
  47   2.0000      -0.762659       -20.7530
  48   2.0000      -0.723345       -19.6832
  49   2.0000      -0.710569       -19.3356
  50   2.0000      -0.693338       -18.8667
  51   2.0000      -0.681549       -18.5459
  52   2.0000      -0.676870       -18.4186
  53   2.0000      -0.653334       -17.7781
  54   2.0000      -0.640003       -17.4154
  55   2.0000      -0.593332       -16.1454
  56   2.0000      -0.586858       -15.9692
  57   2.0000      -0.573181       -15.5971
  58   2.0000      -0.571021       -15.5383
  59   2.0000      -0.560032       -15.2393
  60   2.0000      -0.515187       -14.0190
  61   2.0000      -0.498859       -13.5747
  62   2.0000      -0.486055       -13.2262
  63   2.0000      -0.469113       -12.7652
  64   2.0000      -0.457707       -12.4548
  65   2.0000      -0.448623       -12.2077
  66   2.0000      -0.441929       -12.0255
  67   2.0000      -0.436050       -11.8655
  68   2.0000      -0.426337       -11.6012
  69   2.0000      -0.419619       -11.4184
  70   2.0000      -0.407910       -11.0998
  71   2.0000      -0.402193       -10.9442
  72   2.0000      -0.395701       -10.7676
  73   2.0000      -0.385819       -10.4987
  74   2.0000      -0.379031       -10.3140
  75   2.0000      -0.370078       -10.0703
  76   2.0000      -0.361578        -9.8390
  77   2.0000      -0.360320        -9.8048
  78   2.0000      -0.356553        -9.7023
  79   2.0000      -0.352428        -9.5900
  80   2.0000      -0.347343        -9.4517
  81   2.0000      -0.342389        -9.3169
  82   2.0000      -0.339396        -9.2354
  83   2.0000      -0.332722        -9.0538
  84   2.0000      -0.330560        -8.9950
  85   2.0000      -0.323088        -8.7917
  86   2.0000      -0.318276        -8.6607
  87   2.0000      -0.304618        -8.2891
  88   2.0000      -0.301049        -8.1920
  89   2.0000      -0.299304        -8.1445
  90   2.0000      -0.287660        -7.8276
  91   2.0000      -0.272336        -7.4106
  92   2.0000      -0.267888        -7.2896
  93   2.0000      -0.264243        -7.1904
  94   2.0000      -0.258078        -7.0227
  95   2.0000      -0.234645        -6.3850
  96   2.0000      -0.225068        -6.1244
  97   2.0000      -0.212999        -5.7960
  98   2.0000      -0.206958        -5.6316
  99   2.0000      -0.202448        -5.5089
 100   2.0000      -0.199261        -5.4222
 101   0.0000      -0.040682        -1.1070
 102   0.0000      -0.030301        -0.8245
 103   0.0000      -0.021012        -0.5718
 104   0.0000      -0.002127        -0.0579
 105   0.0000       0.014940         0.4065

MULLIKEN ATOMIC CHARGES
-----------------------
   0 C :   -0.294980
   1 C :   -0.013952
   2 O :   -0.353918
   3 P :    0.631978
   4 S :   -0.312753
   5 O :   -0.391143
   6 C :   -0.009401
   7 C :   -0.280235
   8 S :   -0.118106
   9 C :   -0.350657
  10 S :   -0.089148
  11 P :    0.587499
  12 S :   -0.315223
  13 O :   -0.358156
  14 C :   -0.018486
  15 C :   -0.286912
  16 O :   -0.366914
  17 C :    0.004975
  18 C :   -0.325559
  19 H :    0.139640
  20 H :    0.118795
  21 H :    0.107452
  22 H :    0.109385
  23 H :    0.104334
  24 H :    0.104968
  25 H :    0.099089
  26 H :    0.112836
  27 H :    0.113534
  28 H :    0.120928
  29 H :    0.207283
  30 H :    0.180398
  31 H :    0.104785
  32 H :    0.103691
  33 H :    0.127852
  34 H :    0.113592
  35 H :    0.108190
  36 H :    0.111312
  37 H :    0.112304
  38 H :    0.129944
  39 H :    0.109389
  40 H :    0.121384
Sum of atomic charges:   -0.0000000

LOEWDIN ATOMIC CHARGES
----------------------
   0 C :   -0.353947
   1 C :   -0.112496
   2 O :   -0.224539
   3 P :    0.581357
   4 S :   -0.290743
   5 O :   -0.254252
   6 C :   -0.123702
   7 C :   -0.350501
   8 S :    0.075557
   9 C :   -0.482702
  10 S :    0.072478
  11 P :    0.562832
  12 S :   -0.313972
  13 O :   -0.238794
  14 C :   -0.123110
  15 C :   -0.360949
  16 O :   -0.230808
  17 C :   -0.124491
  18 C :   -0.369727
  19 H :    0.130291
  20 H :    0.129263
  21 H :    0.128364
  22 H :    0.113412
  23 H :    0.105916
  24 H :    0.108740
  25 H :    0.104610
  26 H :    0.131346
  27 H :    0.125286
  28 H :    0.128914
  29 H :    0.122889
  30 H :    0.139261
  31 H :    0.110324
  32 H :    0.106256
  33 H :    0.127089
  34 H :    0.123147
  35 H :    0.129192
  36 H :    0.118313
  37 H :    0.108436
  38 H :    0.121293
  39 H :    0.130716
  40 H :    0.119449

  Mayer bond orders larger than 0.100000
B(  0-C ,  1-C ) :   1.1687 B(  0-C , 19-H ) :   0.9368 B(  0-C , 20-H ) :   0.9471
B(  0-C , 21-H ) :   0.9391 B(  1-C ,  2-O ) :   0.8860 B(  1-C , 22-H ) :   0.9275
B(  1-C , 23-H ) :   0.9141 B(  2-O ,  3-P ) :   1.1483 B(  3-P ,  4-S ) :   1.6180
B(  3-P ,  5-O ) :   1.0687 B(  3-P ,  8-S ) :   0.9508 B(  4-S ,  8-S ) :   0.1151
B(  4-S , 29-H ) :   0.1084 B(  5-O ,  6-C ) :   0.9086 B(  6-C ,  7-C ) :   1.1592
B(  6-C , 24-H ) :   0.9130 B(  6-C , 25-H ) :   0.9224 B(  7-C , 26-H ) :   0.9422
B(  7-C , 27-H ) :   0.9513 B(  7-C , 28-H ) :   0.9511 B(  8-S ,  9-C ) :   1.0133
B(  9-C , 10-S ) :   0.9734 B(  9-C , 29-H ) :   0.8465 B(  9-C , 30-H ) :   0.9098
B( 10-S , 11-P ) :   0.9701 B( 11-P , 12-S ) :   1.6498 B( 11-P , 13-O ) :   1.0835
B( 11-P , 16-O ) :   1.1044 B( 13-O , 14-C ) :   0.9007 B( 14-C , 15-C ) :   1.1693
B( 14-C , 31-H ) :   0.9258 B( 14-C , 32-H ) :   0.9089 B( 15-C , 33-H ) :   0.9325
B( 15-C , 34-H ) :   0.9453 B( 15-C , 35-H ) :   0.9400 B( 16-O , 17-C ) :   0.8894
B( 17-C , 18-C ) :   1.1696 B( 17-C , 36-H ) :   0.9188 B( 17-C , 37-H ) :   0.9144
B( 18-C , 38-H ) :   0.9346 B( 18-C , 39-H ) :   0.9392 B( 18-C , 40-H ) :   0.9357

Dispersion correction           -0.068866788
FINAL SINGLE POINT ENERGY     -2929.521138342346

DIPOLE MOMENT
-------------

Method             : SCF
Type of density    : Electron Density
Multiplicity       :   1
Irrep              :   0
Energy             : -2929.6412065069562232 Eh
Relativity type    :
Basis              : AO
                                X                 Y                 Z
Electronic contribution:    -11.547227752      -8.959935803      -5.443862367
Nuclear contribution   :     13.319281316       9.167994817       5.139605004
                        -----------------------------------------
Total Dipole Moment    :      1.772053564       0.208059014      -0.304257362
                        -----------------------------------------
Magnitude (a.u.)       :      1.809982024
Magnitude (Debye)      :      4.600608689

Rotational constants in cm-1:             0.011621             0.006006             0.005363
Rotational constants in MHz :           348.375813           180.053714           160.770320

                             ****ORCA TERMINATED NORMALLY****
TOTAL RUN TIME: 0 days 0 hours 0 minutes 22 seconds 787 msec
