                         Program Version 6.0.0  -   RELEASE  -
|  1> ! pbe def2-sv(p) def2/J RI DEFGRID1 loosescf d4 GCP(DFT/SV(P)) printgap
|  2> %output
|  3>     printlevel normal
|  4> end
|  5> * xyz 0 1
|  6> C 4.1058046777 -0.6456809209 -2.2754749828
|  7> C 4.3631470824 -0.8319123002 -0.7934380218
|  8> O 3.144730242 -0.8389242273 -0.0326978889
|  9> P 2.2854085517 0.4888403413 0.1887042681
| 10> S 3.3316274787 2.1305186612 0.397913097
| 11> O 1.3673121283 0.0881749725 1.4167670668
| 12> C 1.7983022374 0.2691503548 2.7832596781
| 13> C 2.9339070331 -0.6621608312 3.1502215357
| 14> S 0.825069451 0.4764857254 -1.3415952828
| 15> C 0.2399716577 -1.2381806195 -1.1593966957
| 16> S -0.9332287231 -1.4797610466 0.1969169479
| 17> P -2.3748730962 -0.0602016569 -0.4642104981
| 18> S -2.6381104475 0.0832620714 -2.3945116788
| 19> O -1.9282813644 1.3137805017 0.1780410295
| 20> C -1.7300223848 1.5090332988 1.5970583908
| 21> C -2.9542283497 2.1343796467 2.2326712569
| 22> O -3.6685054484 -0.4272695467 0.3862606006
| 23> C -4.6443221461 -1.3845170274 -0.0670691924
| 24> C -4.0842861074 -2.7896861826 -0.1451629986
| 25> H 3.4315828091 -1.4122332859 -2.6489862932
| 26> H 3.6584500335 0.3322069677 -2.4540998581
| 27> H 5.046470773 -0.7037747371 -2.8136336402
| 28> H 5.0029202323 -0.0283137404 -0.4147761382
| 29> H 4.8157324716 -1.8011833426 -0.5798567016
| 30> H 2.0963117773 1.3142208979 2.9146630528
| 31> H 0.9013727754 0.0598127759 3.3677616827
| 32> H 2.6686757866 -1.6886817527 2.9117196242
| 33> H 3.8320581147 -0.3899261475 2.5983475826
| 34> H 3.1354226262 -0.5779455248 4.2135401449
| 35> H 1.0815223797 -1.8987707694 -0.9672468043
| 36> H -0.2521686318 -1.4730292606 -2.1023796918
| 37> H -1.4923228631 0.5450819325 2.0567127866
| 38> H -0.8627439341 2.1708133776 1.6642432823
| 39> H -3.8022587245 1.459087626 2.1582515999
| 40> H -2.7460273401 2.3384809339 3.2783328185
| 41> H -3.199810103 3.0643890175 1.7271555411
| 42> H -5.4430768154 -1.309751105 0.6722252965
| 43> H -5.0110802614 -1.0617805973 -1.0460433694
| 44> H -3.6090928377 -3.0622824539 0.7937667633
| 45> H -4.8916359049 -3.4834847178 -0.3563221247
| 46> H -3.3481499748 -2.8528335774 -0.9447408791
| 47> *
| 48>
| 49>                          ****END OF INPUT****

CARTESIAN COORDINATES (ANGSTROEM)
---------------------------------
  C      4.105805   -0.645681   -2.275475
  C      4.363147   -0.831912   -0.793438
  O      3.144730   -0.838924   -0.032698
  P      2.285409    0.488840    0.188704
  S      3.331627    2.130519    0.397913
  O      1.367312    0.088175    1.416767
  C      1.798302    0.269150    2.783260
  C      2.933907   -0.662161    3.150222
  S      0.825069    0.476486   -1.341595
  C      0.239972   -1.238181   -1.159397
  S     -0.933229   -1.479761    0.196917
  P     -2.374873   -0.060202   -0.464210
  S     -2.638110    0.083262   -2.394512
  O     -1.928281    1.313781    0.178041
  C     -1.730022    1.509033    1.597058
  C     -2.954228    2.134380    2.232671
  O     -3.668505   -0.427270    0.386261
  C     -4.644322   -1.384517   -0.067069
  C     -4.084286   -2.789686   -0.145163
  H      3.431583   -1.412233   -2.648986
  H      3.658450    0.332207   -2.454100
  H      5.046471   -0.703775   -2.813634
  H      5.002920   -0.028314   -0.414776
  H      4.815732   -1.801183   -0.579857
  H      2.096312    1.314221    2.914663
  H      0.901373    0.059813    3.367762
  H      2.668676   -1.688682    2.911720
  H      3.832058   -0.389926    2.598348
  H      3.135423   -0.577946    4.213540
  H      1.081522   -1.898771   -0.967247
  H     -0.252169   -1.473029   -2.102380
  H     -1.492323    0.545082    2.056713
  H     -0.862744    2.170813    1.664243
  H     -3.802259    1.459088    2.158252
  H     -2.746027    2.338481    3.278333
  H     -3.199810    3.064389    1.727156
  H     -5.443077   -1.309751    0.672225
  H     -5.011080   -1.061781   -1.046043
  H     -3.609093   -3.062282    0.793767
  H     -4.891636   -3.483485   -0.356322
  H     -3.348150   -2.852834   -0.944741

 Total Charge           Charge          ....    0
 Multiplicity           Mult            ....    1
 Number of Electrons    NEL             ....  202
 Basis Dimension        Dim             ....  334

ORBITAL ENERGIES
----------------

  NO   OCC          E(Eh)            E(eV)
   0   2.0000     -88.041592     -2395.7335
   1   2.0000     -88.040524     -2395.7044
   2   2.0000     -87.989897     -2394.3268
   3   2.0000     -87.986155     -2394.2250
   4   2.0000     -76.427016     -2079.6848
   5   2.0000     -76.426433     -2079.6690
   6   2.0000     -18.796922      -511.4902
   7   2.0000     -18.796551      -511.4801
   8   2.0000     -18.792787      -511.3777
   9   2.0000     -18.787836      -511.2430
  10   2.0000      -9.957195      -270.9491
  11   2.0000      -9.956490      -270.9299
  12   2.0000      -9.955477      -270.9023
  13   2.0000      -9.955327      -270.8982
  14   2.0000      -9.951362      -270.7903
  15   2.0000      -9.888570      -269.0817
  16   2.0000      -9.886505      -269.0255
  17   2.0000      -9.886128      -269.0152
  18   2.0000      -9.883606      -268.9466
  19   2.0000      -7.686417      -209.1580
  20   2.0000      -7.685572      -209.1350
  21   2.0000      -7.635014      -207.7593
  22   2.0000      -7.631450      -207.6623
  23   2.0000      -6.424915      -174.8308
  24   2.0000      -6.423700      -174.7978
  25   2.0000      -5.714714      -155.5053
  26   2.0000      -5.713371      -155.4687
  27   2.0000      -5.710817      -155.3992
  28   2.0000      -5.710180      -155.3819
  29   2.0000      -5.703094      -155.1891
  30   2.0000      -5.702488      -155.1726
  31   2.0000      -5.663942      -154.1237
  32   2.0000      -5.660438      -154.0284
  33   2.0000      -5.655663      -153.8984
  34   2.0000      -5.655167      -153.8849
  35   2.0000      -5.651968      -153.7979
  36   2.0000      -5.651620      -153.7884
  37   2.0000      -4.647311      -126.4598
  38   2.0000      -4.646910      -126.4488
  39   2.0000      -4.646603      -126.4405
  40   2.0000      -4.645399      -126.4077
  41   2.0000      -4.645279      -126.4045
  42   2.0000      -4.643986      -126.3693
  43   2.0000      -0.989894       -26.9364
  44   2.0000      -0.987581       -26.8734
  45   2.0000      -0.949389       -25.8342
  46   2.0000      -0.944217       -25.6934
  47   2.0000      -0.763640       -20.7797
  48   2.0000      -0.721802       -19.6412
  49   2.0000      -0.709483       -19.3060
  50   2.0000      -0.690797       -18.7975
  51   2.0000      -0.690409       -18.7870
  52   2.0000      -0.676255       -18.4018
  53   2.0000      -0.654705       -17.8154
  54   2.0000      -0.639020       -17.3886
  55   2.0000      -0.602015       -16.3817
  56   2.0000      -0.594017       -16.1640
  57   2.0000      -0.576434       -15.6856
  58   2.0000      -0.573422       -15.6036
  59   2.0000      -0.563646       -15.3376
  60   2.0000      -0.500962       -13.6319
  61   2.0000      -0.495592       -13.4858
  62   2.0000      -0.477074       -12.9819
  63   2.0000      -0.474404       -12.9092
  64   2.0000      -0.462517       -12.5857
  65   2.0000      -0.448013       -12.1911
  66   2.0000      -0.443750       -12.0751
  67   2.0000      -0.435298       -11.8451
  68   2.0000      -0.427941       -11.6449
  69   2.0000      -0.423491       -11.5238
  70   2.0000      -0.410451       -11.1689
  71   2.0000      -0.398368       -10.8401
  72   2.0000      -0.397395       -10.8137
  73   2.0000      -0.390700       -10.6315
  74   2.0000      -0.379843       -10.3360
  75   2.0000      -0.372652       -10.1404
  76   2.0000      -0.367753       -10.0071
  77   2.0000      -0.361375        -9.8335
  78   2.0000      -0.357655        -9.7323
  79   2.0000      -0.353088        -9.6080
  80   2.0000      -0.351765        -9.5720
  81   2.0000      -0.346711        -9.4345
  82   2.0000      -0.344454        -9.3731
  83   2.0000      -0.342628        -9.3234
  84   2.0000      -0.331459        -9.0195
  85   2.0000      -0.323561        -8.8045
  86   2.0000      -0.315692        -8.5904
  87   2.0000      -0.297556        -8.0969
  88   2.0000      -0.296565        -8.0700
  89   2.0000      -0.292786        -7.9671
  90   2.0000      -0.291474        -7.9314
  91   2.0000      -0.277139        -7.5413
  92   2.0000      -0.269485        -7.3331
  93   2.0000      -0.265359        -7.2208
  94   2.0000      -0.260863        -7.0985
  95   2.0000      -0.229374        -6.2416
  96   2.0000      -0.217292        -5.9128
  97   2.0000      -0.210340        -5.7236
  98   2.0000      -0.207347        -5.6422
  99   2.0000      -0.203440        -5.5359
 100   2.0000      -0.200350        -5.4518
 101   0.0000      -0.041036        -1.1167
 102   0.0000      -0.023704        -0.6450
 103   0.0000      -0.009797        -0.2666
 104   0.0000       0.000755         0.0205
 105   0.0000       0.009310         0.2533

MULLIKEN ATOMIC CHARGES
-----------------------
   0 C :   -0.311378
   1 C :   -0.009723
   2 O :   -0.383813
   3 P :    0.603721
   4 S :   -0.322666
   5 O :   -0.369931
   6 C :   -0.012039
   7 C :   -0.302513
   8 S :   -0.043008
   9 C :   -0.363643
  10 S :   -0.085248
  11 P :    0.598293
  12 S :   -0.313015
  13 O :   -0.347129
  14 C :   -0.025232
  15 C :   -0.283826
  16 O :   -0.382469
  17 C :   -0.000463
  18 C :   -0.316561
  19 H :    0.113918
  20 H :    0.131927
  21 H :    0.114327
  22 H :    0.113153
  23 H :    0.104436
  24 H :    0.113110
  25 H :    0.104172
  26 H :    0.117027
  27 H :    0.123394
  28 H :    0.112275
  29 H :    0.183289
  30 H :    0.193982
  31 H :    0.106836
  32 H :    0.117101
  33 H :    0.118159
  34 H :    0.105785
  35 H :    0.120691
  36 H :    0.104756
  37 H :    0.114519
  38 H :    0.116310
  39 H :    0.113973
  40 H :    0.127500
Sum of atomic charges:    0.0000000

LOEWDIN ATOMIC CHARGES
----------------------
   0 C :   -0.366562
   1 C :   -0.122534
   2 O :   -0.248701
   3 P :    0.564523
   4 S :   -0.321612
   5 O :   -0.243435
   6 C :   -0.117146
   7 C :   -0.363809
   8 S :    0.112437
   9 C :   -0.481272
  10 S :    0.081136
  11 P :    0.570186
  12 S :   -0.311778
  13 O :   -0.230876
  14 C :   -0.116558
  15 C :   -0.359173
  16 O :   -0.248814
  17 C :   -0.116309
  18 C :   -0.371310
  19 H :    0.123168
  20 H :    0.124033
  21 H :    0.131854
  22 H :    0.110238
  23 H :    0.117680
  24 H :    0.111520
  25 H :    0.115673
  26 H :    0.126763
  27 H :    0.123523
  28 H :    0.130726
  29 H :    0.130605
  30 H :    0.133277
  31 H :    0.102035
  32 H :    0.121300
  33 H :    0.124731
  34 H :    0.127714
  35 H :    0.129308
  36 H :    0.118234
  37 H :    0.113833
  38 H :    0.122649
  39 H :    0.131501
  40 H :    0.121239

  Mayer bond orders larger than 0.100000
B(  0-C ,  1-C ) :   1.1642 B(  0-C , 19-H ) :   0.9469 B(  0-C , 20-H ) :   0.9345
B(  0-C , 21-H ) :   0.9386 B(  1-C ,  2-O ) :   0.9075 B(  1-C , 22-H ) :   0.9129
B(  1-C , 23-H ) :   0.9339 B(  2-O ,  3-P ) :   1.0579 B(  3-P ,  4-S ) :   1.6380
B(  3-P ,  5-O ) :   1.1083 B(  3-P ,  8-S ) :   0.9794 B(  5-O ,  6-C ) :   0.9070
B(  6-C ,  7-C ) :   1.1667 B(  6-C , 24-H ) :   0.9171 B(  6-C , 25-H ) :   0.9304
B(  7-C , 26-H ) :   0.9459 B(  7-C , 27-H ) :   0.9381 B(  7-C , 28-H ) :   0.9378
B(  8-S ,  9-C ) :   0.9912 B(  9-C , 10-S ) :   0.9991 B(  9-C , 29-H ) :   0.8909
B(  9-C , 30-H ) :   0.8867 B( 10-S , 11-P ) :   0.9609 B( 10-S , 12-S ) :   0.1099
B( 11-P , 12-S ) :   1.6299 B( 11-P , 13-O ) :   1.1371 B( 11-P , 16-O ) :   1.0813
B( 13-O , 14-C ) :   0.8961 B( 14-C , 15-C ) :   1.1583 B( 14-C , 31-H ) :   0.9096
B( 14-C , 32-H ) :   0.9325 B( 15-C , 33-H ) :   0.9423 B( 15-C , 34-H ) :   0.9405
B( 15-C , 35-H ) :   0.9464 B( 16-O , 17-C ) :   0.9057 B( 17-C , 18-C ) :   1.1664
B( 17-C , 36-H ) :   0.9343 B( 17-C , 37-H ) :   0.9188 B( 18-C , 38-H ) :   0.9435
B( 18-C , 39-H ) :   0.9367 B( 18-C , 40-H ) :   0.9345

Dispersion correction           -0.065864909
FINAL SINGLE POINT ENERGY     -2929.520384955859

DIPOLE MOMENT
-------------

Method             : SCF
Type of density    : Electron Density
Multiplicity       :   1
Irrep              :   0
Energy             : -2929.6406644132525798 Eh
Relativity type    :
Basis              : AO
                                X                 Y                 Z
Electronic contribution:     -0.962255606       8.733380109     -12.160444341
Nuclear contribution   :      0.996500125     -10.229201824      13.527222769
                        -----------------------------------------
Total Dipole Moment    :      0.034244519      -1.495821715       1.366778427
                        -----------------------------------------
Magnitude (a.u.)       :      2.026508959
Magnitude (Debye)      :      5.150976418

Rotational constants in cm-1:             0.012720             0.004937             0.004485
Rotational constants in MHz :           381.322495           147.999659           134.471340

                             ****ORCA TERMINATED NORMALLY****
TOTAL RUN TIME: 0 days 0 hours 0 minutes 21 seconds 112 msec
