                         Program Version 6.0.0  -   RELEASE  -
|  1> ! pbe def2-sv(p) def2/J RI DEFGRID1 loosescf d4 GCP(DFT/SV(P)) printgap
|  2> %output
|  3>     printlevel normal
|  4> end
|  5> * xyz 0 1
|  6> C 2.4317297939 -1.7344656916 -2.8426073224
|  7> C 3.4522534579 -0.902866995 -2.0925618006
|  8> O 3.2622845833 -0.9821271499 -0.6707589515
|  9> P 1.964407858 -0.4076524637 0.0497619074
| 10> S 1.4017101714 1.3213875219 -0.7179170324
| 11> O 2.4021521793 -0.3873841689 1.571671079
| 12> C 2.9428996818 0.7847702227 2.211339924
| 13> C 4.3365245749 1.0998191528 1.7102322269
| 14> S 0.7385449504 -2.1217333496 0.0993601035
| 15> C -0.4650504425 -1.7060221848 1.4134432212
| 16> S -0.7194965722 0.0658597808 1.6866706198
| 17> P -1.9554435744 0.5371965628 0.0414490761
| 18> S -2.3036765007 2.443788982 -0.2374216843
| 19> O -3.2864571444 -0.3273801049 0.2435558298
| 20> C -4.4401993912 0.1971160925 0.9168233757
| 21> C -4.2142110498 0.3152879584 2.4106397574
| 22> O -1.2429476603 -0.3214847297 -1.0821211215
| 23> C -1.8124219544 -0.558993935 -2.3891677467
| 24> C -1.5105665388 0.5820955369 -3.3391669532
| 25> H 2.6523061561 -1.7111364508 -3.9049109684
| 26> H 2.4463242738 -2.7620543302 -2.4879257666
| 27> H 1.4362891162 -1.3215760547 -2.6769665286
| 28> H 3.3853449279 0.1485096562 -2.3919522845
| 29> H 4.4680456189 -1.2696494851 -2.2443921965
| 30> H 2.2638056177 1.6250132884 2.0304682568
| 31> H 2.9377707011 0.5297583125 3.2717911447
| 32> H 4.9782326786 0.2292553497 1.8163947609
| 33> H 4.2950396999 1.3808367179 0.6584381732
| 34> H 4.7468347056 1.9271380406 2.2806377398
| 35> H -0.0911567259 -2.0946041173 2.3579412489
| 36> H -1.4062648764 -2.1751070058 1.1340456324
| 37> H -4.6752989184 1.1762003548 0.4870181788
| 38> H -5.2322869912 -0.51511925 0.681655974
| 39> H -3.4293638577 1.0454360965 2.6074305636
| 40> H -5.1307587592 0.6479570206 2.8868435742
| 41> H -3.916611826 -0.6423209716 2.8295741545
| 42> H -1.3347459085 -1.486892997 -2.7120019655
| 43> H -2.8884108263 -0.7148176563 -2.2831077624
| 44> H -1.843934943 0.3183108608 -4.3376059608
| 45> H -2.0196193246 1.488930949 -3.0182120392
| 46> H -0.4415866607 0.7830965411 -3.3551705985
| 47> *
| 48>
| 49>                          ****END OF INPUT****

CARTESIAN COORDINATES (ANGSTROEM)
---------------------------------
  C      2.431730   -1.734466   -2.842607
  C      3.452253   -0.902867   -2.092562
  O      3.262285   -0.982127   -0.670759
  P      1.964408   -0.407652    0.049762
  S      1.401710    1.321388   -0.717917
  O      2.402152   -0.387384    1.571671
  C      2.942900    0.784770    2.211340
  C      4.336525    1.099819    1.710232
  S      0.738545   -2.121733    0.099360
  C     -0.465050   -1.706022    1.413443
  S     -0.719497    0.065860    1.686671
  P     -1.955444    0.537197    0.041449
  S     -2.303677    2.443789   -0.237422
  O     -3.286457   -0.327380    0.243556
  C     -4.440199    0.197116    0.916823
  C     -4.214211    0.315288    2.410640
  O     -1.242948   -0.321485   -1.082121
  C     -1.812422   -0.558994   -2.389168
  C     -1.510567    0.582096   -3.339167
  H      2.652306   -1.711136   -3.904911
  H      2.446324   -2.762054   -2.487926
  H      1.436289   -1.321576   -2.676967
  H      3.385345    0.148510   -2.391952
  H      4.468046   -1.269649   -2.244392
  H      2.263806    1.625013    2.030468
  H      2.937771    0.529758    3.271791
  H      4.978233    0.229255    1.816395
  H      4.295040    1.380837    0.658438
  H      4.746835    1.927138    2.280638
  H     -0.091157   -2.094604    2.357941
  H     -1.406265   -2.175107    1.134046
  H     -4.675299    1.176200    0.487018
  H     -5.232287   -0.515119    0.681656
  H     -3.429364    1.045436    2.607431
  H     -5.130759    0.647957    2.886844
  H     -3.916612   -0.642321    2.829574
  H     -1.334746   -1.486893   -2.712002
  H     -2.888411   -0.714818   -2.283108
  H     -1.843935    0.318311   -4.337606
  H     -2.019619    1.488931   -3.018212
  H     -0.441587    0.783097   -3.355171

 Total Charge           Charge          ....    0
 Multiplicity           Mult            ....    1
 Number of Electrons    NEL             ....  202
 Basis Dimension        Dim             ....  334

ORBITAL ENERGIES
----------------

  NO   OCC          E(Eh)            E(eV)
   0   2.0000     -88.045792     -2395.8478
   1   2.0000     -88.036855     -2395.6046
   2   2.0000     -87.983270     -2394.1465
   3   2.0000     -87.978268     -2394.0104
   4   2.0000     -76.424410     -2079.6139
   5   2.0000     -76.422358     -2079.5581
   6   2.0000     -18.790199      -511.3073
   7   2.0000     -18.787532      -511.2347
   8   2.0000     -18.787447      -511.2324
   9   2.0000     -18.786007      -511.1932
  10   2.0000      -9.960583      -271.0412
  11   2.0000      -9.951141      -270.7843
  12   2.0000      -9.949379      -270.7364
  13   2.0000      -9.949231      -270.7323
  14   2.0000      -9.946628      -270.6615
  15   2.0000      -9.885476      -268.9975
  16   2.0000      -9.883079      -268.9322
  17   2.0000      -9.879051      -268.8226
  18   2.0000      -9.874296      -268.6933
  19   2.0000      -7.690344      -209.2649
  20   2.0000      -7.682033      -209.0388
  21   2.0000      -7.628393      -207.5791
  22   2.0000      -7.622842      -207.4281
  23   2.0000      -6.421557      -174.7394
  24   2.0000      -6.419275      -174.6774
  25   2.0000      -5.718720      -155.6143
  26   2.0000      -5.714573      -155.5014
  27   2.0000      -5.710265      -155.3842
  28   2.0000      -5.707094      -155.2979
  29   2.0000      -5.706624      -155.2851
  30   2.0000      -5.698526      -155.0648
  31   2.0000      -5.657381      -153.9452
  32   2.0000      -5.651825      -153.7940
  33   2.0000      -5.649185      -153.7221
  34   2.0000      -5.648326      -153.6988
  35   2.0000      -5.643448      -153.5660
  36   2.0000      -5.643012      -153.5542
  37   2.0000      -4.644208      -126.3753
  38   2.0000      -4.643443      -126.3545
  39   2.0000      -4.641918      -126.3130
  40   2.0000      -4.641915      -126.3129
  41   2.0000      -4.641122      -126.2914
  42   2.0000      -4.639692      -126.2524
  43   2.0000      -0.984607       -26.7925
  44   2.0000      -0.982280       -26.7292
  45   2.0000      -0.942746       -25.6534
  46   2.0000      -0.940435       -25.5905
  47   2.0000      -0.762926       -20.7603
  48   2.0000      -0.717470       -19.5234
  49   2.0000      -0.704600       -19.1731
  50   2.0000      -0.684789       -18.6341
  51   2.0000      -0.683133       -18.5890
  52   2.0000      -0.670710       -18.2510
  53   2.0000      -0.652010       -17.7421
  54   2.0000      -0.634722       -17.2717
  55   2.0000      -0.596048       -16.2193
  56   2.0000      -0.587943       -15.9987
  57   2.0000      -0.573138       -15.5959
  58   2.0000      -0.569948       -15.5091
  59   2.0000      -0.563784       -15.3413
  60   2.0000      -0.498047       -13.5526
  61   2.0000      -0.489781       -13.3276
  62   2.0000      -0.470299       -12.7975
  63   2.0000      -0.466414       -12.6918
  64   2.0000      -0.457484       -12.4488
  65   2.0000      -0.438855       -11.9418
  66   2.0000      -0.436923       -11.8893
  67   2.0000      -0.434533       -11.8243
  68   2.0000      -0.422742       -11.5034
  69   2.0000      -0.418176       -11.3792
  70   2.0000      -0.413386       -11.2488
  71   2.0000      -0.395603       -10.7649
  72   2.0000      -0.389682       -10.6038
  73   2.0000      -0.388651       -10.5757
  74   2.0000      -0.379049       -10.3144
  75   2.0000      -0.374646       -10.1946
  76   2.0000      -0.364408        -9.9161
  77   2.0000      -0.357034        -9.7154
  78   2.0000      -0.351063        -9.5529
  79   2.0000      -0.346465        -9.4278
  80   2.0000      -0.345592        -9.4040
  81   2.0000      -0.341616        -9.2958
  82   2.0000      -0.341093        -9.2816
  83   2.0000      -0.334746        -9.1089
  84   2.0000      -0.325893        -8.8680
  85   2.0000      -0.317777        -8.6472
  86   2.0000      -0.310545        -8.4504
  87   2.0000      -0.294754        -8.0207
  88   2.0000      -0.291855        -7.9418
  89   2.0000      -0.289966        -7.8904
  90   2.0000      -0.278059        -7.5664
  91   2.0000      -0.272554        -7.4166
  92   2.0000      -0.269018        -7.3203
  93   2.0000      -0.260600        -7.0913
  94   2.0000      -0.258091        -7.0230
  95   2.0000      -0.233069        -6.3421
  96   2.0000      -0.216790        -5.8992
  97   2.0000      -0.204326        -5.5600
  98   2.0000      -0.197486        -5.3739
  99   2.0000      -0.191894        -5.2217
 100   2.0000      -0.184551        -5.0219
 101   0.0000      -0.050017        -1.3610
 102   0.0000      -0.026101        -0.7102
 103   0.0000      -0.013944        -0.3794
 104   0.0000      -0.000844        -0.0230
 105   0.0000       0.015417         0.4195

MULLIKEN ATOMIC CHARGES
-----------------------
   0 C :   -0.349947
   1 C :    0.002713
   2 O :   -0.369866
   3 P :    0.605790
   4 S :   -0.308938
   5 O :   -0.373108
   6 C :   -0.002900
   7 C :   -0.303572
   8 S :   -0.105435
   9 C :   -0.310660
  10 S :   -0.086829
  11 P :    0.638391
  12 S :   -0.307059
  13 O :   -0.386100
  14 C :   -0.007572
  15 C :   -0.305976
  16 O :   -0.368877
  17 C :   -0.006236
  18 C :   -0.307765
  19 H :    0.114194
  20 H :    0.121722
  21 H :    0.150402
  22 H :    0.108818
  23 H :    0.104527
  24 H :    0.116651
  25 H :    0.100088
  26 H :    0.114684
  27 H :    0.122579
  28 H :    0.110583
  29 H :    0.185505
  30 H :    0.179520
  31 H :    0.110664
  32 H :    0.100370
  33 H :    0.124397
  34 H :    0.111752
  35 H :    0.109047
  36 H :    0.107328
  37 H :    0.101271
  38 H :    0.102618
  39 H :    0.126673
  40 H :    0.130552
Sum of atomic charges:   -0.0000000

LOEWDIN ATOMIC CHARGES
----------------------
   0 C :   -0.373749
   1 C :   -0.121208
   2 O :   -0.246007
   3 P :    0.565164
   4 S :   -0.305094
   5 O :   -0.244677
   6 C :   -0.118728
   7 C :   -0.364204
   8 S :    0.079678
   9 C :   -0.467610
  10 S :    0.110561
  11 P :    0.569646
  12 S :   -0.304747
  13 O :   -0.253584
  14 C :   -0.124951
  15 C :   -0.366501
  16 O :   -0.238016
  17 C :   -0.110362
  18 C :   -0.365689
  19 H :    0.131532
  20 H :    0.124631
  21 H :    0.122398
  22 H :    0.108731
  23 H :    0.118448
  24 H :    0.112104
  25 H :    0.116505
  26 H :    0.125549
  27 H :    0.122913
  28 H :    0.129669
  29 H :    0.137529
  30 H :    0.131958
  31 H :    0.108443
  32 H :    0.115677
  33 H :    0.120659
  34 H :    0.130169
  35 H :    0.121366
  36 H :    0.115270
  37 H :    0.108968
  38 H :    0.125758
  39 H :    0.124361
  40 H :    0.127438

  Mayer bond orders larger than 0.100000
B(  0-C ,  1-C ) :   1.1649 B(  0-C , 19-H ) :   0.9376 B(  0-C , 20-H ) :   0.9418
B(  0-C , 21-H ) :   0.9257 B(  1-C ,  2-O ) :   0.9119 B(  1-C , 22-H ) :   0.9120
B(  1-C , 23-H ) :   0.9327 B(  2-O ,  3-P ) :   1.0975 B(  3-P ,  4-S ) :   1.5845
B(  3-P ,  5-O ) :   1.1135 B(  3-P ,  8-S ) :   0.9743 B(  4-S ,  8-S ) :   0.1191
B(  5-O ,  6-C ) :   0.9024 B(  6-C ,  7-C ) :   1.1668 B(  6-C , 24-H ) :   0.9147
B(  6-C , 25-H ) :   0.9349 B(  7-C , 26-H ) :   0.9462 B(  7-C , 27-H ) :   0.9358
B(  7-C , 28-H ) :   0.9396 B(  8-S ,  9-C ) :   0.9696 B(  9-C , 10-S ) :   1.0058
B(  9-C , 29-H ) :   0.9088 B(  9-C , 30-H ) :   0.9042 B( 10-S , 11-P ) :   0.9525
B( 11-P , 12-S ) :   1.6594 B( 11-P , 13-O ) :   1.0533 B( 11-P , 16-O ) :   1.1158
B( 13-O , 14-C ) :   0.9157 B( 14-C , 15-C ) :   1.1642 B( 14-C , 31-H ) :   0.9096
B( 14-C , 32-H ) :   0.9331 B( 15-C , 33-H ) :   0.9360 B( 15-C , 34-H ) :   0.9392
B( 15-C , 35-H ) :   0.9471 B( 16-O , 17-C ) :   0.8998 B( 17-C , 18-C ) :   1.1726
B( 17-C , 36-H ) :   0.9263 B( 17-C , 37-H ) :   0.9234 B( 18-C , 38-H ) :   0.9384
B( 18-C , 39-H ) :   0.9334 B( 18-C , 40-H ) :   0.9406

Dispersion correction           -0.069373025
FINAL SINGLE POINT ENERGY     -2929.512240592141

DIPOLE MOMENT
-------------

Method             : SCF
Type of density    : Electron Density
Multiplicity       :   1
Irrep              :   0
Energy             : -2929.6282789386441436 Eh
Relativity type    :
Basis              : AO
                                X                 Y                 Z
Electronic contribution:     -1.311308718       2.057803777       6.171582331
Nuclear contribution   :      1.160121272      -3.378182593      -6.080781046
                        -----------------------------------------
Total Dipole Moment    :     -0.151187446      -1.320378816       0.090801285
                        -----------------------------------------
Magnitude (a.u.)       :      1.332104626
Magnitude (Debye)      :      3.385940875

Rotational constants in cm-1:             0.012077             0.005896             0.005250
Rotational constants in MHz :           362.048863           176.757165           157.386099

                             ****ORCA TERMINATED NORMALLY****
TOTAL RUN TIME: 0 days 0 hours 0 minutes 21 seconds 838 msec
