                         Program Version 6.0.0  -   RELEASE  -
|  1> ! pbe def2-sv(p) def2/J RI DEFGRID1 loosescf d4 GCP(DFT/SV(P)) printgap
|  2> %output
|  3>     printlevel normal
|  4> end
|  5> * xyz 0 1
|  6> C 1.8347802699 3.096716834 -0.9135484821
|  7> C 2.0815626812 1.6033702348 -0.9491119961
|  8> O 2.017797927 1.124282184 0.4191466725
|  9> P 2.3112954861 -0.3592850727 0.8592337659
| 10> S 2.165395792 -0.5043010388 2.802775861
| 11> O 3.7275004423 -0.6110698137 0.1825436411
| 12> C 4.3210347859 -1.8998256897 -0.0625715319
| 13> C 4.3953479973 -2.7580656364 1.1826219114
| 14> S 1.0216301312 -1.6357038604 -0.2659871994
| 15> C -0.3866555337 -1.5310971408 0.8681200002
| 16> S -1.0634171918 0.1379799297 1.0587962261
| 17> P -2.1444372293 0.2097605947 -0.7969889006
| 18> S -1.1138216497 0.0322193851 -2.4482790703
| 19> O -3.0112310957 1.5253909913 -0.6014305344
| 20> C -2.4483084208 2.8371488132 -0.4068248744
| 21> C -2.0265933993 3.470086816 -1.7181481279
| 22> O -3.2136642892 -0.9415105457 -0.6974548806
| 23> C -4.2408425619 -1.0030395155 0.324696984
| 24> C -5.5419552102 -0.4277966844 -0.1955914676
| 25> H 0.8705245788 3.3040413625 -0.4578358418
| 26> H 2.6085935725 3.5890436728 -0.3316380152
| 27> H 1.8426529645 3.4807847003 -1.9284533765
| 28> H 3.066949053 1.3667804167 -1.3540448815
| 29> H 1.3178766317 1.0831374953 -1.5371313051
| 30> H 3.7405618496 -2.3985128906 -0.8440742081
| 31> H 5.3158621465 -1.6553667675 -0.4394156823
| 32> H 4.9135807555 -2.2277758295 1.9780096331
| 33> H 3.3928261071 -3.0029695916 1.5304354262
| 34> H 4.9264109577 -3.6767741545 0.9555322455
| 35> H -0.0609648039 -1.8306160666 1.8646553901
| 36> H -1.1486090769 -2.2016422927 0.4766885612
| 37> H -3.2545674558 3.4029556999 0.0643203325
| 38> H -1.6077307796 2.7600345229 0.2893043646
| 39> H -1.6634786641 4.4755599107 -1.530498973
| 40> H -1.2379713141 2.8860168799 -2.1869335348
| 41> H -2.8723621926 3.515183885 -2.3988106785
| 42> H -4.3407455845 -2.0665813609 0.5499487958
| 43> H -3.8945791907 -0.4656613099 1.2116078881
| 44> H -5.8466220994 -0.9533505086 -1.0964777024
| 45> H -6.3094622882 -0.5420713269 0.5634863998
| 46> H -5.421069133 0.6262195955 -0.4297848455
| 47> *
| 48>
| 49>                          ****END OF INPUT****

CARTESIAN COORDINATES (ANGSTROEM)
---------------------------------
  C      1.834780    3.096717   -0.913548
  C      2.081563    1.603370   -0.949112
  O      2.017798    1.124282    0.419147
  P      2.311295   -0.359285    0.859234
  S      2.165396   -0.504301    2.802776
  O      3.727500   -0.611070    0.182544
  C      4.321035   -1.899826   -0.062572
  C      4.395348   -2.758066    1.182622
  S      1.021630   -1.635704   -0.265987
  C     -0.386656   -1.531097    0.868120
  S     -1.063417    0.137980    1.058796
  P     -2.144437    0.209761   -0.796989
  S     -1.113822    0.032219   -2.448279
  O     -3.011231    1.525391   -0.601431
  C     -2.448308    2.837149   -0.406825
  C     -2.026593    3.470087   -1.718148
  O     -3.213664   -0.941511   -0.697455
  C     -4.240843   -1.003040    0.324697
  C     -5.541955   -0.427797   -0.195591
  H      0.870525    3.304041   -0.457836
  H      2.608594    3.589044   -0.331638
  H      1.842653    3.480785   -1.928453
  H      3.066949    1.366780   -1.354045
  H      1.317877    1.083137   -1.537131
  H      3.740562   -2.398513   -0.844074
  H      5.315862   -1.655367   -0.439416
  H      4.913581   -2.227776    1.978010
  H      3.392826   -3.002970    1.530435
  H      4.926411   -3.676774    0.955532
  H     -0.060965   -1.830616    1.864655
  H     -1.148609   -2.201642    0.476689
  H     -3.254567    3.402956    0.064320
  H     -1.607731    2.760035    0.289304
  H     -1.663479    4.475560   -1.530499
  H     -1.237971    2.886017   -2.186934
  H     -2.872362    3.515184   -2.398811
  H     -4.340746   -2.066581    0.549949
  H     -3.894579   -0.465661    1.211608
  H     -5.846622   -0.953351   -1.096478
  H     -6.309462   -0.542071    0.563486
  H     -5.421069    0.626220   -0.429785

 Total Charge           Charge          ....    0
 Multiplicity           Mult            ....    1
 Number of Electrons    NEL             ....  202
 Basis Dimension        Dim             ....  334

ORBITAL ENERGIES
----------------

  NO   OCC          E(Eh)            E(eV)
   0   2.0000     -88.043400     -2395.7827
   1   2.0000     -88.038004     -2395.6359
   2   2.0000     -87.986612     -2394.2374
   3   2.0000     -87.978391     -2394.0137
   4   2.0000     -76.430148     -2079.7701
   5   2.0000     -76.421378     -2079.5314
   6   2.0000     -18.800780      -511.5952
   7   2.0000     -18.799042      -511.5479
   8   2.0000     -18.791152      -511.3332
   9   2.0000     -18.782717      -511.1037
  10   2.0000      -9.964640      -271.1516
  11   2.0000      -9.960879      -271.0493
  12   2.0000      -9.957804      -270.9656
  13   2.0000      -9.956589      -270.9326
  14   2.0000      -9.942479      -270.5486
  15   2.0000      -9.890213      -269.1264
  16   2.0000      -9.887001      -269.0390
  17   2.0000      -9.883918      -268.9551
  18   2.0000      -9.881102      -268.8784
  19   2.0000      -7.687821      -209.1962
  20   2.0000      -7.682937      -209.0633
  21   2.0000      -7.631554      -207.6651
  22   2.0000      -7.623785      -207.4537
  23   2.0000      -6.427537      -174.9022
  24   2.0000      -6.418412      -174.6539
  25   2.0000      -5.715457      -155.5255
  26   2.0000      -5.712470      -155.4442
  27   2.0000      -5.710610      -155.3936
  28   2.0000      -5.707491      -155.3087
  29   2.0000      -5.705008      -155.2412
  30   2.0000      -5.700083      -155.1072
  31   2.0000      -5.660580      -154.0322
  32   2.0000      -5.652818      -153.8210
  33   2.0000      -5.652066      -153.8005
  34   2.0000      -5.651689      -153.7903
  35   2.0000      -5.644344      -153.5904
  36   2.0000      -5.643846      -153.5769
  37   2.0000      -4.650666      -126.5510
  38   2.0000      -4.649479      -126.5188
  39   2.0000      -4.647333      -126.4604
  40   2.0000      -4.641256      -126.2950
  41   2.0000      -4.640425      -126.2724
  42   2.0000      -4.638487      -126.2196
  43   2.0000      -0.995816       -27.0975
  44   2.0000      -0.982961       -26.7477
  45   2.0000      -0.953220       -25.9384
  46   2.0000      -0.938402       -25.5352
  47   2.0000      -0.762830       -20.7577
  48   2.0000      -0.723196       -19.6792
  49   2.0000      -0.711665       -19.3654
  50   2.0000      -0.696987       -18.9660
  51   2.0000      -0.686783       -18.6883
  52   2.0000      -0.672992       -18.3131
  53   2.0000      -0.651721       -17.7342
  54   2.0000      -0.638015       -17.3613
  55   2.0000      -0.592239       -16.1156
  56   2.0000      -0.586390       -15.9565
  57   2.0000      -0.580528       -15.7970
  58   2.0000      -0.569987       -15.5101
  59   2.0000      -0.564311       -15.3557
  60   2.0000      -0.513382       -13.9698
  61   2.0000      -0.499852       -13.6017
  62   2.0000      -0.485322       -13.2063
  63   2.0000      -0.470499       -12.8029
  64   2.0000      -0.462567       -12.5871
  65   2.0000      -0.452123       -12.3029
  66   2.0000      -0.440123       -11.9764
  67   2.0000      -0.434839       -11.8326
  68   2.0000      -0.425869       -11.5885
  69   2.0000      -0.413340       -11.2475
  70   2.0000      -0.411436       -11.1958
  71   2.0000      -0.404293       -11.0014
  72   2.0000      -0.396032       -10.7766
  73   2.0000      -0.391515       -10.6537
  74   2.0000      -0.378976       -10.3125
  75   2.0000      -0.371771       -10.1164
  76   2.0000      -0.363628        -9.8948
  77   2.0000      -0.358392        -9.7523
  78   2.0000      -0.352793        -9.6000
  79   2.0000      -0.350390        -9.5346
  80   2.0000      -0.347516        -9.4564
  81   2.0000      -0.345131        -9.3915
  82   2.0000      -0.340652        -9.2696
  83   2.0000      -0.338135        -9.2011
  84   2.0000      -0.331653        -9.0247
  85   2.0000      -0.326858        -8.8943
  86   2.0000      -0.318060        -8.6549
  87   2.0000      -0.303375        -8.2553
  88   2.0000      -0.297626        -8.0988
  89   2.0000      -0.294090        -8.0026
  90   2.0000      -0.290050        -7.8927
  91   2.0000      -0.282382        -7.6840
  92   2.0000      -0.269639        -7.3373
  93   2.0000      -0.265690        -7.2298
  94   2.0000      -0.255762        -6.9596
  95   2.0000      -0.241340        -6.5672
  96   2.0000      -0.216865        -5.9012
  97   2.0000      -0.205666        -5.5964
  98   2.0000      -0.200273        -5.4497
  99   2.0000      -0.196366        -5.3434
 100   2.0000      -0.186833        -5.0840
 101   0.0000      -0.042654        -1.1607
 102   0.0000      -0.024816        -0.6753
 103   0.0000      -0.013214        -0.3596
 104   0.0000       0.000951         0.0259
 105   0.0000       0.014865         0.4045

MULLIKEN ATOMIC CHARGES
-----------------------
   0 C :   -0.292173
   1 C :   -0.032901
   2 O :   -0.354807
   3 P :    0.605281
   4 S :   -0.320750
   5 O :   -0.383413
   6 C :   -0.010516
   7 C :   -0.307647
   8 S :   -0.092391
   9 C :   -0.348124
  10 S :   -0.090646
  11 P :    0.591466
  12 S :   -0.292502
  13 O :   -0.379125
  14 C :   -0.037904
  15 C :   -0.299768
  16 O :   -0.361706
  17 C :   -0.012988
  18 C :   -0.289674
  19 H :    0.121966
  20 H :    0.117412
  21 H :    0.110801
  22 H :    0.099759
  23 H :    0.126102
  24 H :    0.114386
  25 H :    0.108283
  26 H :    0.126640
  27 H :    0.124104
  28 H :    0.110191
  29 H :    0.195634
  30 H :    0.181973
  31 H :    0.110441
  32 H :    0.130495
  33 H :    0.111044
  34 H :    0.135244
  35 H :    0.118089
  36 H :    0.108934
  37 H :    0.102864
  38 H :    0.121439
  39 H :    0.111333
  40 H :    0.123153
Sum of atomic charges:   -0.0000000

LOEWDIN ATOMIC CHARGES
----------------------
   0 C :   -0.349721
   1 C :   -0.124031
   2 O :   -0.234560
   3 P :    0.565134
   4 S :   -0.317404
   5 O :   -0.245944
   6 C :   -0.114263
   7 C :   -0.369139
   8 S :    0.072903
   9 C :   -0.479774
  10 S :    0.075481
  11 P :    0.560734
  12 S :   -0.294278
  13 O :   -0.245191
  14 C :   -0.114742
  15 C :   -0.366246
  16 O :   -0.236519
  17 C :   -0.116053
  18 C :   -0.358331
  19 H :    0.123538
  20 H :    0.127486
  21 H :    0.130047
  22 H :    0.109535
  23 H :    0.103246
  24 H :    0.108814
  25 H :    0.120766
  26 H :    0.130448
  27 H :    0.120745
  28 H :    0.129506
  29 H :    0.131771
  30 H :    0.131663
  31 H :    0.120973
  32 H :    0.108806
  33 H :    0.129648
  34 H :    0.123338
  35 H :    0.129157
  36 H :    0.119943
  37 H :    0.105700
  38 H :    0.129472
  39 H :    0.130399
  40 H :    0.126946

  Mayer bond orders larger than 0.100000
B(  0-C ,  1-C ) :   1.1687 B(  0-C , 19-H ) :   0.9411 B(  0-C , 20-H ) :   0.9486
B(  0-C , 21-H ) :   0.9396 B(  1-C ,  2-O ) :   0.8877 B(  1-C , 22-H ) :   0.9237
B(  1-C , 23-H ) :   0.9001 B(  2-O ,  3-P ) :   1.1414 B(  3-P ,  4-S ) :   1.6342
B(  3-P ,  5-O ) :   1.0885 B(  3-P ,  8-S ) :   0.9449 B(  4-S ,  8-S ) :   0.1100
B(  5-O ,  6-C ) :   0.9136 B(  6-C ,  7-C ) :   1.1666 B(  6-C , 24-H ) :   0.9265
B(  6-C , 25-H ) :   0.9336 B(  7-C , 26-H ) :   0.9430 B(  7-C , 27-H ) :   0.9322
B(  7-C , 28-H ) :   0.9351 B(  8-S ,  9-C ) :   1.0119 B(  9-C , 10-S ) :   0.9996
B(  9-C , 29-H ) :   0.8787 B(  9-C , 30-H ) :   0.8974 B( 10-S , 11-P ) :   0.9526
B( 10-S , 12-S ) :   0.1146 B( 11-P , 12-S ) :   1.6764 B( 11-P , 13-O ) :   1.0721
B( 11-P , 16-O ) :   1.1197 B( 13-O , 14-C ) :   0.9066 B( 14-C , 15-C ) :   1.1678
B( 14-C , 31-H ) :   0.9335 B( 14-C , 32-H ) :   0.9160 B( 15-C , 33-H ) :   0.9360
B( 15-C , 34-H ) :   0.9263 B( 15-C , 35-H ) :   0.9446 B( 16-O , 17-C ) :   0.8881
B( 17-C , 18-C ) :   1.1693 B( 17-C , 36-H ) :   0.9345 B( 17-C , 37-H ) :   0.9103
B( 18-C , 38-H ) :   0.9469 B( 18-C , 39-H ) :   0.9398 B( 18-C , 40-H ) :   0.9424

Dispersion correction           -0.065292847
FINAL SINGLE POINT ENERGY     -2929.516955925747

DIPOLE MOMENT
-------------

Method             : SCF
Type of density    : Electron Density
Multiplicity       :   1
Irrep              :   0
Energy             : -2929.6361396068214162 Eh
Relativity type    :
Basis              : AO
                                X                 Y                 Z
Electronic contribution:      4.766400986      -8.889875041       4.527676515
Nuclear contribution   :     -5.497654783       9.089889169      -4.837962045
                        -----------------------------------------
Total Dipole Moment    :     -0.731253797       0.200014128      -0.310285530
                        -----------------------------------------
Magnitude (a.u.)       :      0.819154978
Magnitude (Debye)      :      2.082126484

Rotational constants in cm-1:             0.012759             0.004961             0.004412
Rotational constants in MHz :           382.505196           148.738572           132.260734

                             ****ORCA TERMINATED NORMALLY****
TOTAL RUN TIME: 0 days 0 hours 0 minutes 21 seconds 15 msec
