                         Program Version 6.0.0  -   RELEASE  -
|  1> ! pbe def2-sv(p) def2/J RI DEFGRID1 loosescf d4 GCP(DFT/SV(P)) printgap
|  2> %output
|  3>     printlevel normal
|  4> end
|  5> * xyz 0 1
|  6> C 4.0536103328 -1.3122586879 -2.5534441534
|  7> C 4.0392490535 0.1248879521 -2.0763796454
|  8> O 3.4052451304 0.2712591448 -0.7906615038
|  9> P 1.863661049 -0.0151707007 -0.5568091204
| 10> S 0.6603296116 0.5738712363 -1.9824345113
| 11> O 1.5824459095 0.7235254996 0.8092143143
| 12> C 2.5189656467 0.905723137 1.8990929828
| 13> C 2.9242382425 -0.403089768 2.5434406228
| 14> S 1.7297709686 -2.0991918127 -0.1698244067
| 15> C -0.0726273688 -2.1585407137 -0.0884636301
| 16> S -0.7531326889 -1.3680316821 1.4147291422
| 17> P -1.8203152737 0.3014038906 0.7238446585
| 18> S -1.1647382015 2.1502538063 0.6063290502
| 19> O -2.9344052561 0.1432618941 1.8584726596
| 20> C -3.7283717944 1.2320357135 2.3531245724
| 21> C -4.8134564168 1.6205990752 1.3685878813
| 22> O -2.4496608215 -0.3024551016 -0.6079074807
| 23> C -2.8776362696 0.4602789671 -1.754323776
| 24> C -2.696053885 -0.3916576687 -2.9935450618
| 25> H 4.4674554327 -1.9633301374 -1.7878362589
| 26> H 3.0411569148 -1.6395557386 -2.7831254337
| 27> H 4.6579227854 -1.3816703529 -3.4522090402
| 28> H 3.5148618698 0.764024294 -2.7933144413
| 29> H 5.0477724088 0.5056184309 -1.9083766035
| 30> H 3.3867647826 1.4438856789 1.5133955614
| 31> H 1.9645537583 1.5432483237 2.5906905027
| 32> H 3.5146000928 -1.0002816264 1.8518479082
| 33> H 3.5211015369 -0.1875309088 3.4242188597
| 34> H 2.0433021931 -0.9694459297 2.8388010582
| 35> H -0.3457659528 -3.2091987435 -0.0446193429
| 36> H -0.494270379 -1.6720090345 -0.9680860616
| 37> H -4.1447754391 0.8530975837 3.287389809
| 38> H -3.0702907136 2.0838387167 2.554005967
| 39> H -5.4022956621 0.7484255726 1.0959310476
| 40> H -5.4600452353 2.3667724702 1.8192492123
| 41> H -4.3595807639 2.0426639054 0.4720261094
| 42> H -3.9290393473 0.7163933644 -1.602738485
| 43> H -2.2836963674 1.3789721329 -1.8093344728
| 44> H -3.1989771656 -1.345692191 -2.8640266493
| 45> H -3.1222749906 0.1305301975 -3.8435815049
| 46> H -1.6387271071 -0.5614072921 -3.1814440303
| 47> *
| 48>
| 49>                          ****END OF INPUT****

CARTESIAN COORDINATES (ANGSTROEM)
---------------------------------
  C      4.053610   -1.312259   -2.553444
  C      4.039249    0.124888   -2.076380
  O      3.405245    0.271259   -0.790662
  P      1.863661   -0.015171   -0.556809
  S      0.660330    0.573871   -1.982435
  O      1.582446    0.723525    0.809214
  C      2.518966    0.905723    1.899093
  C      2.924238   -0.403090    2.543441
  S      1.729771   -2.099192   -0.169824
  C     -0.072627   -2.158541   -0.088464
  S     -0.753133   -1.368032    1.414729
  P     -1.820315    0.301404    0.723845
  S     -1.164738    2.150254    0.606329
  O     -2.934405    0.143262    1.858473
  C     -3.728372    1.232036    2.353125
  C     -4.813456    1.620599    1.368588
  O     -2.449661   -0.302455   -0.607907
  C     -2.877636    0.460279   -1.754324
  C     -2.696054   -0.391658   -2.993545
  H      4.467455   -1.963330   -1.787836
  H      3.041157   -1.639556   -2.783125
  H      4.657923   -1.381670   -3.452209
  H      3.514862    0.764024   -2.793314
  H      5.047772    0.505618   -1.908377
  H      3.386765    1.443886    1.513396
  H      1.964554    1.543248    2.590691
  H      3.514600   -1.000282    1.851848
  H      3.521102   -0.187531    3.424219
  H      2.043302   -0.969446    2.838801
  H     -0.345766   -3.209199   -0.044619
  H     -0.494270   -1.672009   -0.968086
  H     -4.144775    0.853098    3.287390
  H     -3.070291    2.083839    2.554006
  H     -5.402296    0.748426    1.095931
  H     -5.460045    2.366772    1.819249
  H     -4.359581    2.042664    0.472026
  H     -3.929039    0.716393   -1.602738
  H     -2.283696    1.378972   -1.809334
  H     -3.198977   -1.345692   -2.864027
  H     -3.122275    0.130530   -3.843582
  H     -1.638727   -0.561407   -3.181444

 Total Charge           Charge          ....    0
 Multiplicity           Mult            ....    1
 Number of Electrons    NEL             ....  202
 Basis Dimension        Dim             ....  334

ORBITAL ENERGIES
----------------

  NO   OCC          E(Eh)            E(eV)
   0   2.0000     -88.040820     -2395.7125
   1   2.0000     -88.035215     -2395.5600
   2   2.0000     -87.983974     -2394.1657
   3   2.0000     -87.973090     -2393.8695
   4   2.0000     -76.426639     -2079.6746
   5   2.0000     -76.415540     -2079.3726
   6   2.0000     -18.799384      -511.5572
   7   2.0000     -18.784652      -511.1564
   8   2.0000     -18.783691      -511.1302
   9   2.0000     -18.777008      -510.9484
  10   2.0000      -9.957602      -270.9601
  11   2.0000      -9.954876      -270.8860
  12   2.0000      -9.950356      -270.7629
  13   2.0000      -9.943095      -270.5654
  14   2.0000      -9.941295      -270.5164
  15   2.0000      -9.887695      -269.0579
  16   2.0000      -9.881210      -268.8814
  17   2.0000      -9.879742      -268.8415
  18   2.0000      -9.877085      -268.7692
  19   2.0000      -7.686035      -209.1476
  20   2.0000      -7.680743      -209.0036
  21   2.0000      -7.628938      -207.5940
  22   2.0000      -7.617971      -207.2955
  23   2.0000      -6.423831      -174.8013
  24   2.0000      -6.412923      -174.5045
  25   2.0000      -5.713787      -155.4800
  26   2.0000      -5.710625      -155.3940
  27   2.0000      -5.709084      -155.3521
  28   2.0000      -5.705062      -155.2426
  29   2.0000      -5.703008      -155.1867
  30   2.0000      -5.697283      -155.0309
  31   2.0000      -5.657714      -153.9542
  32   2.0000      -5.649747      -153.7374
  33   2.0000      -5.648982      -153.7166
  34   2.0000      -5.646984      -153.6622
  35   2.0000      -5.638669      -153.4360
  36   2.0000      -5.637969      -153.4169
  37   2.0000      -4.647015      -126.4517
  38   2.0000      -4.645340      -126.4061
  39   2.0000      -4.644024      -126.3703
  40   2.0000      -4.635556      -126.1399
  41   2.0000      -4.634548      -126.1125
  42   2.0000      -4.633515      -126.0843
  43   2.0000      -0.988927       -26.9101
  44   2.0000      -0.971728       -26.4420
  45   2.0000      -0.943057       -25.6619
  46   2.0000      -0.934770       -25.4364
  47   2.0000      -0.760176       -20.6854
  48   2.0000      -0.719016       -19.5654
  49   2.0000      -0.707062       -19.2401
  50   2.0000      -0.690935       -18.8013
  51   2.0000      -0.680415       -18.5150
  52   2.0000      -0.669549       -18.2194
  53   2.0000      -0.647762       -17.6265
  54   2.0000      -0.628564       -17.1041
  55   2.0000      -0.599712       -16.3190
  56   2.0000      -0.585361       -15.9285
  57   2.0000      -0.577971       -15.7274
  58   2.0000      -0.563945       -15.3457
  59   2.0000      -0.555747       -15.1226
  60   2.0000      -0.496252       -13.5037
  61   2.0000      -0.491463       -13.3734
  62   2.0000      -0.470485       -12.8025
  63   2.0000      -0.469332       -12.7712
  64   2.0000      -0.451928       -12.2976
  65   2.0000      -0.445550       -12.1240
  66   2.0000      -0.438929       -11.9439
  67   2.0000      -0.428803       -11.6683
  68   2.0000      -0.424669       -11.5558
  69   2.0000      -0.420053       -11.4302
  70   2.0000      -0.402205       -10.9445
  71   2.0000      -0.393385       -10.7045
  72   2.0000      -0.390024       -10.6131
  73   2.0000      -0.384323       -10.4580
  74   2.0000      -0.378625       -10.3029
  75   2.0000      -0.369664       -10.0591
  76   2.0000      -0.364671        -9.9232
  77   2.0000      -0.356918        -9.7122
  78   2.0000      -0.350141        -9.5278
  79   2.0000      -0.348102        -9.4723
  80   2.0000      -0.344271        -9.3681
  81   2.0000      -0.341578        -9.2948
  82   2.0000      -0.337036        -9.1712
  83   2.0000      -0.330687        -8.9985
  84   2.0000      -0.326890        -8.8951
  85   2.0000      -0.318420        -8.6647
  86   2.0000      -0.307095        -8.3565
  87   2.0000      -0.297712        -8.1011
  88   2.0000      -0.292983        -7.9725
  89   2.0000      -0.286069        -7.7843
  90   2.0000      -0.275848        -7.5062
  91   2.0000      -0.271755        -7.3948
  92   2.0000      -0.264250        -7.1906
  93   2.0000      -0.260338        -7.0841
  94   2.0000      -0.252037        -6.8583
  95   2.0000      -0.232986        -6.3399
  96   2.0000      -0.215895        -5.8748
  97   2.0000      -0.211640        -5.7590
  98   2.0000      -0.198942        -5.4135
  99   2.0000      -0.188929        -5.1410
 100   2.0000      -0.175700        -4.7810
 101   0.0000      -0.039712        -1.0806
 102   0.0000      -0.028708        -0.7812
 103   0.0000      -0.011623        -0.3163
 104   0.0000       0.002426         0.0660
 105   0.0000       0.020822         0.5666

MULLIKEN ATOMIC CHARGES
-----------------------
   0 C :   -0.322993
   1 C :    0.000253
   2 O :   -0.382193
   3 P :    0.616136
   4 S :   -0.314348
   5 O :   -0.342179
   6 C :    0.009687
   7 C :   -0.319734
   8 S :   -0.100036
   9 C :   -0.371845
  10 S :   -0.078156
  11 P :    0.625176
  12 S :   -0.309314
  13 O :   -0.384256
  14 C :   -0.003064
  15 C :   -0.314004
  16 O :   -0.385656
  17 C :   -0.018042
  18 C :   -0.296760
  19 H :    0.118185
  20 H :    0.130817
  21 H :    0.116163
  22 H :    0.115842
  23 H :    0.106098
  24 H :    0.107109
  25 H :    0.111455
  26 H :    0.116750
  27 H :    0.109959
  28 H :    0.130433
  29 H :    0.183301
  30 H :    0.213598
  31 H :    0.099716
  32 H :    0.108038
  33 H :    0.114460
  34 H :    0.110324
  35 H :    0.120853
  36 H :    0.102364
  37 H :    0.122397
  38 H :    0.108943
  39 H :    0.107237
  40 H :    0.137287
Sum of atomic charges:   -0.0000000

LOEWDIN ATOMIC CHARGES
----------------------
   0 C :   -0.372502
   1 C :   -0.115117
   2 O :   -0.244181
   3 P :    0.574844
   4 S :   -0.296525
   5 O :   -0.226893
   6 C :   -0.105765
   7 C :   -0.370923
   8 S :    0.076113
   9 C :   -0.479297
  10 S :    0.095074
  11 P :    0.559015
  12 S :   -0.299068
  13 O :   -0.255373
  14 C :   -0.124323
  15 C :   -0.365643
  16 O :   -0.249122
  17 C :   -0.119320
  18 C :   -0.358792
  19 H :    0.123601
  20 H :    0.122317
  21 H :    0.132997
  22 H :    0.114812
  23 H :    0.119229
  24 H :    0.113189
  25 H :    0.123425
  26 H :    0.115411
  27 H :    0.129365
  28 H :    0.124954
  29 H :    0.138843
  30 H :    0.129608
  31 H :    0.116122
  32 H :    0.106539
  33 H :    0.123969
  34 H :    0.129979
  35 H :    0.120050
  36 H :    0.109073
  37 H :    0.110021
  38 H :    0.123372
  39 H :    0.129237
  40 H :    0.121682

  Mayer bond orders larger than 0.100000
B(  0-C ,  1-C ) :   1.1667 B(  0-C , 19-H ) :   0.9440 B(  0-C , 20-H ) :   0.9321
B(  0-C , 21-H ) :   0.9364 B(  1-C ,  2-O ) :   0.9009 B(  1-C , 22-H ) :   0.9184
B(  1-C , 23-H ) :   0.9341 B(  2-O ,  3-P ) :   1.0870 B(  3-P ,  4-S ) :   1.6193
B(  3-P ,  5-O ) :   1.1519 B(  3-P ,  8-S ) :   0.9395 B(  4-S ,  8-S ) :   0.1058
B(  5-O ,  6-C ) :   0.8955 B(  6-C ,  7-C ) :   1.1693 B(  6-C , 24-H ) :   0.9294
B(  6-C , 25-H ) :   0.9305 B(  7-C , 26-H ) :   0.9405 B(  7-C , 27-H ) :   0.9359
B(  7-C , 28-H ) :   0.9379 B(  8-S ,  9-C ) :   1.0026 B(  9-C , 10-S ) :   0.9941
B(  9-C , 29-H ) :   0.9111 B(  9-C , 30-H ) :   0.8593 B( 10-S , 11-P ) :   0.9702
B( 10-S , 12-S ) :   0.1075 B( 11-P , 12-S ) :   1.6206 B( 11-P , 13-O ) :   1.0872
B( 11-P , 16-O ) :   1.1016 B( 13-O , 14-C ) :   0.9215 B( 14-C , 15-C ) :   1.1612
B( 14-C , 31-H ) :   0.9331 B( 14-C , 32-H ) :   0.9065 B( 15-C , 33-H ) :   0.9471
B( 15-C , 34-H ) :   0.9390 B( 15-C , 35-H ) :   0.9299 B( 16-O , 17-C ) :   0.8985
B( 17-C , 18-C ) :   1.1649 B( 17-C , 36-H ) :   0.9276 B( 17-C , 37-H ) :   0.9040
B( 18-C , 38-H ) :   0.9484 B( 18-C , 39-H ) :   0.9408 B( 18-C , 40-H ) :   0.9345

Dispersion correction           -0.068803802
FINAL SINGLE POINT ENERGY     -2929.510454965422

DIPOLE MOMENT
-------------

Method             : SCF
Type of density    : Electron Density
Multiplicity       :   1
Irrep              :   0
Energy             : -2929.6274409883885710 Eh
Relativity type    :
Basis              : AO
                                X                 Y                 Z
Electronic contribution:      2.677437691      -0.883750268       5.305109121
Nuclear contribution   :     -2.206915107       0.385459483      -5.372099711
                        -----------------------------------------
Total Dipole Moment    :      0.470522584      -0.498290784      -0.066990591
                        -----------------------------------------
Magnitude (a.u.)       :      0.688602169
Magnitude (Debye)      :      1.750287616

Rotational constants in cm-1:             0.012870             0.005626             0.005057
Rotational constants in MHz :           385.820944           168.673858           151.597180

                             ****ORCA TERMINATED NORMALLY****
TOTAL RUN TIME: 0 days 0 hours 0 minutes 21 seconds 722 msec
