                         Program Version 6.0.0  -   RELEASE  -
|  1> ! pbe def2-sv(p) def2/J RI DEFGRID1 loosescf d4 GCP(DFT/SV(P)) printgap
|  2> %output
|  3>     printlevel normal
|  4> end
|  5> * xyz 0 1
|  6> C 2.9971463274 -1.8048262898 -2.6974627788
|  7> C 3.7398275901 -0.8575567489 -1.7757698679
|  8> O 3.1990805667 -0.9185939493 -0.4382984515
|  9> P 2.1003306399 0.0746866374 0.1127478187
| 10> S 1.3809574867 1.3253681598 -1.2192126581
| 11> O 2.8899476157 0.7572209618 1.3080044048
| 12> C 2.4020090152 1.9102066439 2.0262278201
| 13> C 3.0944365302 3.1654868908 1.5328175467
| 14> S 0.8946359611 -1.2932659772 1.2040419337
| 15> C 0.1827126746 -2.25604217 -0.1583653475
| 16> S -0.8393968684 -1.282737444 -1.3096810048
| 17> P -1.9975798572 -0.1729669006 0.0659858705
| 18> S -1.3028324218 1.3477427341 1.1077278407
| 19> O -2.5271683534 -1.3893451997 0.92757646
| 20> C -3.0836659117 -1.2194932866 2.2472800856
| 21> C -4.439454238 -0.5474559487 2.1985183915
| 22> O -3.2627152039 0.2218485399 -0.8117650919
| 23> C -3.337027595 1.4490369888 -1.5546804327
| 24> C -2.3644518407 1.4637932877 -2.7164499478
| 25> H 3.4602819013 -1.7809367822 -3.6785646028
| 26> H 3.0375845059 -2.8192619268 -2.3095995941
| 27> H 1.957088168 -1.4943994074 -2.7931139615
| 28> H 3.6716396047 0.1700687678 -2.1437064037
| 29> H 4.7860490628 -1.1430119362 -1.6605438275
| 30> H 1.3172831557 1.9908467884 1.9068047053
| 31> H 2.6353055791 1.7087982456 3.0733126746
| 32> H 2.8358656928 3.3495167139 0.4921030715
| 33> H 2.7694440072 4.0098635053 2.1319201075
| 34> H 4.1718281698 3.0530927824 1.6153429459
| 35> H -0.4320704382 -3.0222849349 0.3083222819
| 36> H 0.9778540847 -2.6987239919 -0.7547679037
| 37> H -3.147394811 -2.236068444 2.6371348229
| 38> H -2.3801139161 -0.6332728394 2.8473774653
| 39> H -4.3315232727 0.4757196351 1.8406095304
| 40> H -5.1014387561 -1.0862744175 1.5258424135
| 41> H -4.8691495619 -0.5294426211 3.1951024898
| 42> H -4.3730951343 1.4889259385 -1.8935149473
| 43> H -3.1337598884 2.2819566421 -0.8730414999
| 44> H -2.5039557233 0.5827499504 -3.3379645793
| 45> H -2.5240519092 2.3567724809 -3.3120246801
| 46> H -1.3376748663 1.4717778875 -2.3473978682
| 47> *
| 48>
| 49>                          ****END OF INPUT****

CARTESIAN COORDINATES (ANGSTROEM)
---------------------------------
  C      2.997146   -1.804826   -2.697463
  C      3.739828   -0.857557   -1.775770
  O      3.199081   -0.918594   -0.438298
  P      2.100331    0.074687    0.112748
  S      1.380957    1.325368   -1.219213
  O      2.889948    0.757221    1.308004
  C      2.402009    1.910207    2.026228
  C      3.094437    3.165487    1.532818
  S      0.894636   -1.293266    1.204042
  C      0.182713   -2.256042   -0.158365
  S     -0.839397   -1.282737   -1.309681
  P     -1.997580   -0.172967    0.065986
  S     -1.302832    1.347743    1.107728
  O     -2.527168   -1.389345    0.927576
  C     -3.083666   -1.219493    2.247280
  C     -4.439454   -0.547456    2.198518
  O     -3.262715    0.221849   -0.811765
  C     -3.337028    1.449037   -1.554680
  C     -2.364452    1.463793   -2.716450
  H      3.460282   -1.780937   -3.678565
  H      3.037585   -2.819262   -2.309600
  H      1.957088   -1.494399   -2.793114
  H      3.671640    0.170069   -2.143706
  H      4.786049   -1.143012   -1.660544
  H      1.317283    1.990847    1.906805
  H      2.635306    1.708798    3.073313
  H      2.835866    3.349517    0.492103
  H      2.769444    4.009864    2.131920
  H      4.171828    3.053093    1.615343
  H     -0.432070   -3.022285    0.308322
  H      0.977854   -2.698724   -0.754768
  H     -3.147395   -2.236068    2.637135
  H     -2.380114   -0.633273    2.847377
  H     -4.331523    0.475720    1.840610
  H     -5.101439   -1.086274    1.525842
  H     -4.869150   -0.529443    3.195102
  H     -4.373095    1.488926   -1.893515
  H     -3.133760    2.281957   -0.873041
  H     -2.503956    0.582750   -3.337965
  H     -2.524052    2.356772   -3.312025
  H     -1.337675    1.471778   -2.347398

 Total Charge           Charge          ....    0
 Multiplicity           Mult            ....    1
 Number of Electrons    NEL             ....  202
 Basis Dimension        Dim             ....  334

ORBITAL ENERGIES
----------------

  NO   OCC          E(Eh)            E(eV)
   0   2.0000     -88.038433     -2395.6475
   1   2.0000     -88.037615     -2395.6253
   2   2.0000     -87.981572     -2394.1003
   3   2.0000     -87.980078     -2394.0596
   4   2.0000     -76.423545     -2079.5904
   5   2.0000     -76.423046     -2079.5768
   6   2.0000     -18.790181      -511.3068
   7   2.0000     -18.788502      -511.2611
   8   2.0000     -18.788010      -511.2478
   9   2.0000     -18.784226      -511.1448
  10   2.0000      -9.959132      -271.0018
  11   2.0000      -9.950537      -270.7679
  12   2.0000      -9.949436      -270.7379
  13   2.0000      -9.947149      -270.6757
  14   2.0000      -9.944508      -270.6038
  15   2.0000      -9.886411      -269.0229
  16   2.0000      -9.881538      -268.8903
  17   2.0000      -9.878075      -268.7961
  18   2.0000      -9.874329      -268.6942
  19   2.0000      -7.683515      -209.0791
  20   2.0000      -7.682714      -209.0573
  21   2.0000      -7.626177      -207.5188
  22   2.0000      -7.624639      -207.4770
  23   2.0000      -6.420757      -174.7177
  24   2.0000      -6.420251      -174.7039
  25   2.0000      -5.711566      -155.4196
  26   2.0000      -5.710881      -155.4010
  27   2.0000      -5.708100      -155.3253
  28   2.0000      -5.707331      -155.3044
  29   2.0000      -5.700185      -155.1099
  30   2.0000      -5.699230      -155.0839
  31   2.0000      -5.655115      -153.8835
  32   2.0000      -5.653535      -153.8405
  33   2.0000      -5.646640      -153.6529
  34   2.0000      -5.646500      -153.6491
  35   2.0000      -5.645283      -153.6160
  36   2.0000      -5.644855      -153.6043
  37   2.0000      -4.643418      -126.3538
  38   2.0000      -4.642744      -126.3355
  39   2.0000      -4.642591      -126.3313
  40   2.0000      -4.642181      -126.3202
  41   2.0000      -4.641116      -126.2912
  42   2.0000      -4.640660      -126.2788
  43   2.0000      -0.984291       -26.7839
  44   2.0000      -0.981517       -26.7084
  45   2.0000      -0.944696       -25.7065
  46   2.0000      -0.940622       -25.5956
  47   2.0000      -0.761553       -20.7229
  48   2.0000      -0.717332       -19.5196
  49   2.0000      -0.705690       -19.2028
  50   2.0000      -0.683417       -18.5967
  51   2.0000      -0.681356       -18.5406
  52   2.0000      -0.665915       -18.1205
  53   2.0000      -0.650764       -17.7082
  54   2.0000      -0.635461       -17.2918
  55   2.0000      -0.597286       -16.2530
  56   2.0000      -0.588723       -16.0200
  57   2.0000      -0.569983       -15.5100
  58   2.0000      -0.564730       -15.3671
  59   2.0000      -0.563037       -15.3210
  60   2.0000      -0.499007       -13.5787
  61   2.0000      -0.489457       -13.3188
  62   2.0000      -0.471806       -12.8385
  63   2.0000      -0.470837       -12.8121
  64   2.0000      -0.455182       -12.3861
  65   2.0000      -0.436999       -11.8914
  66   2.0000      -0.434975       -11.8363
  67   2.0000      -0.432604       -11.7718
  68   2.0000      -0.423503       -11.5241
  69   2.0000      -0.413260       -11.2454
  70   2.0000      -0.405483       -11.0338
  71   2.0000      -0.394099       -10.7240
  72   2.0000      -0.390776       -10.6336
  73   2.0000      -0.386301       -10.5118
  74   2.0000      -0.381989       -10.3945
  75   2.0000      -0.373112       -10.1529
  76   2.0000      -0.366332        -9.9684
  77   2.0000      -0.357305        -9.7228
  78   2.0000      -0.352037        -9.5794
  79   2.0000      -0.346984        -9.4419
  80   2.0000      -0.344517        -9.3748
  81   2.0000      -0.343307        -9.3419
  82   2.0000      -0.338447        -9.2096
  83   2.0000      -0.333999        -9.0886
  84   2.0000      -0.326716        -8.8904
  85   2.0000      -0.318905        -8.6778
  86   2.0000      -0.305003        -8.2996
  87   2.0000      -0.293563        -7.9883
  88   2.0000      -0.291599        -7.9348
  89   2.0000      -0.282961        -7.6998
  90   2.0000      -0.279839        -7.6148
  91   2.0000      -0.272802        -7.4233
  92   2.0000      -0.267204        -7.2710
  93   2.0000      -0.258722        -7.0402
  94   2.0000      -0.256869        -6.9898
  95   2.0000      -0.246641        -6.7114
  96   2.0000      -0.220386        -5.9970
  97   2.0000      -0.212411        -5.7800
  98   2.0000      -0.187305        -5.0968
  99   2.0000      -0.184196        -5.0122
 100   2.0000      -0.181549        -4.9402
 101   0.0000      -0.051114        -1.3909
 102   0.0000      -0.030547        -0.8312
 103   0.0000      -0.009933        -0.2703
 104   0.0000       0.000340         0.0092
 105   0.0000       0.025068         0.6821

MULLIKEN ATOMIC CHARGES
-----------------------
   0 C :   -0.313276
   1 C :   -0.002483
   2 O :   -0.369853
   3 P :    0.612613
   4 S :   -0.305774
   5 O :   -0.370143
   6 C :   -0.022536
   7 C :   -0.287011
   8 S :   -0.096282
   9 C :   -0.340842
  10 S :   -0.096231
  11 P :    0.625923
  12 S :   -0.320450
  13 O :   -0.374559
  14 C :   -0.003168
  15 C :   -0.304473
  16 O :   -0.369986
  17 C :   -0.000819
  18 C :   -0.344316
  19 H :    0.113548
  20 H :    0.119600
  21 H :    0.125874
  22 H :    0.111083
  23 H :    0.106095
  24 H :    0.129996
  25 H :    0.102721
  26 H :    0.122732
  27 H :    0.105762
  28 H :    0.108987
  29 H :    0.188610
  30 H :    0.186210
  31 H :    0.100641
  32 H :    0.112099
  33 H :    0.122745
  34 H :    0.116382
  35 H :    0.110648
  36 H :    0.102768
  37 H :    0.109891
  38 H :    0.117827
  39 H :    0.112989
  40 H :    0.156461
Sum of atomic charges:   -0.0000000

LOEWDIN ATOMIC CHARGES
----------------------
   0 C :   -0.364045
   1 C :   -0.118040
   2 O :   -0.243054
   3 P :    0.568474
   4 S :   -0.298774
   5 O :   -0.245991
   6 C :   -0.118029
   7 C :   -0.359668
   8 S :    0.083179
   9 C :   -0.471983
  10 S :    0.087066
  11 P :    0.572894
  12 S :   -0.312535
  13 O :   -0.242982
  14 C :   -0.118945
  15 C :   -0.364156
  16 O :   -0.243073
  17 C :   -0.120727
  18 C :   -0.374293
  19 H :    0.132305
  20 H :    0.122291
  21 H :    0.122166
  22 H :    0.108631
  23 H :    0.119058
  24 H :    0.109612
  25 H :    0.116645
  26 H :    0.124432
  27 H :    0.128006
  28 H :    0.123089
  29 H :    0.135662
  30 H :    0.130194
  31 H :    0.116354
  32 H :    0.110629
  33 H :    0.123317
  34 H :    0.126417
  35 H :    0.129728
  36 H :    0.117465
  37 H :    0.109281
  38 H :    0.123631
  39 H :    0.131888
  40 H :    0.123882

  Mayer bond orders larger than 0.100000
B(  0-C ,  1-C ) :   1.1713 B(  0-C , 19-H ) :   0.9376 B(  0-C , 20-H ) :   0.9389
B(  0-C , 21-H ) :   0.9339 B(  1-C ,  2-O ) :   0.9010 B(  1-C , 22-H ) :   0.9054
B(  1-C , 23-H ) :   0.9317 B(  2-O ,  3-P ) :   1.1187 B(  3-P ,  4-S ) :   1.6130
B(  3-P ,  5-O ) :   1.1311 B(  3-P ,  8-S ) :   0.9437 B(  4-S ,  8-S ) :   0.1188
B(  5-O ,  6-C ) :   0.8939 B(  6-C ,  7-C ) :   1.1678 B(  6-C , 24-H ) :   0.9048
B(  6-C , 25-H ) :   0.9354 B(  7-C , 26-H ) :   0.9370 B(  7-C , 27-H ) :   0.9402
B(  7-C , 28-H ) :   0.9483 B(  8-S ,  9-C ) :   1.0091 B(  9-C , 10-S ) :   0.9939
B(  9-C , 29-H ) :   0.9067 B(  9-C , 30-H ) :   0.8951 B( 10-S , 11-P ) :   0.9622
B( 10-S , 12-S ) :   0.1167 B( 11-P , 12-S ) :   1.5907 B( 11-P , 13-O ) :   1.1124
B( 11-P , 16-O ) :   1.1088 B( 13-O , 14-C ) :   0.9037 B( 14-C , 15-C ) :   1.1662
B( 14-C , 31-H ) :   0.9342 B( 14-C , 32-H ) :   0.9135 B( 15-C , 33-H ) :   0.9361
B( 15-C , 34-H ) :   0.9462 B( 15-C , 35-H ) :   0.9394 B( 16-O , 17-C ) :   0.9079
B( 17-C , 18-C ) :   1.1647 B( 17-C , 36-H ) :   0.9328 B( 17-C , 37-H ) :   0.9122
B( 18-C , 38-H ) :   0.9434 B( 18-C , 39-H ) :   0.9377 B( 18-C , 40-H ) :   0.9236

Dispersion correction           -0.068626790
FINAL SINGLE POINT ENERGY     -2929.513071872465

DIPOLE MOMENT
-------------

Method             : SCF
Type of density    : Electron Density
Multiplicity       :   1
Irrep              :   0
Energy             : -2929.6280350975234796 Eh
Relativity type    :
Basis              : AO
                                X                 Y                 Z
Electronic contribution:      2.299241950      -5.794962041       3.414224829
Nuclear contribution   :     -2.449806500       5.221901014      -3.450909729
                        -----------------------------------------
Total Dipole Moment    :     -0.150564550      -0.573061028      -0.036684901
                        -----------------------------------------
Magnitude (a.u.)       :      0.593645018
Magnitude (Debye)      :      1.508925718

Rotational constants in cm-1:             0.011210             0.005781             0.005430
Rotational constants in MHz :           336.066899           173.316796           162.772429

                             ****ORCA TERMINATED NORMALLY****
TOTAL RUN TIME: 0 days 0 hours 0 minutes 20 seconds 990 msec
