                         Program Version 6.0.0  -   RELEASE  -
|  1> ! pbe def2-sv(p) def2/J RI DEFGRID1 loosescf d4 GCP(DFT/SV(P)) printgap
|  2> %output
|  3>     printlevel normal
|  4> end
|  5> * xyz 0 1
|  6> C 0.9706982111 -2.693345773 1.552863476
|  7> C 2.0765247671 -1.6807617025 1.7747863312
|  8> O 1.7723873447 -0.4333328574 1.1192284449
|  9> P 2.3942811116 -0.0024662543 -0.2893436417
| 10> S 2.9634429249 -1.4748507386 -1.4398716098
| 11> O 3.6382221985 0.9335020013 0.0221953777
| 12> C 3.5913823386 2.2978775187 0.4987474144
| 13> C 2.9051474295 2.4233980281 1.8427716654
| 14> S 0.9124791207 1.329726388 -0.9926410479
| 15> C 0.0423438371 0.1625020355 -2.0704093727
| 16> S -0.7317472281 -1.2057613985 -1.1762395371
| 17> P -2.039987383 -0.0274110605 0.0013468811
| 18> S -2.7806627767 1.5801012171 -0.8531309158
| 19> O -1.1740312514 0.2527493364 1.2984848044
| 20> C -1.3076614194 1.4561564449 2.0749789725
| 21> C -2.585217241 1.4393213345 2.8877089336
| 22> O -3.0596880862 -1.0955672114 0.5851950996
| 23> C -3.8086753521 -2.0548418306 -0.1825251675
| 24> C -4.5790521314 -1.4263223425 -1.3252898949
| 25> H 0.9419237235 -2.9959902499 0.5081693117
| 26> H 1.1559032528 -3.5661377603 2.1706168608
| 27> H 0.0099315026 -2.258330285 1.8184019006
| 28> H 3.0320051409 -2.0612238479 1.4012278915
| 29> H 2.1703300361 -1.4216913887 2.8309960161
| 30> H 4.6441369739 2.5796807629 0.5540456318
| 31> H 3.0841483326 2.9062815767 -0.2546588487
| 32> H 1.8603511898 2.1313709659 1.755396966
| 33> H 3.3921645127 1.7867931445 2.5770996536
| 34> H 2.9569562849 3.4564342953 2.1721168124
| 35> H 0.7473350964 -0.2871571773 -2.7688000266
| 36> H -0.7205587748 0.7447201409 -2.5870091553
| 37> H -0.4213250721 1.4628527482 2.7112517644
| 38> H -1.2878172164 2.3173067099 1.3983733269
| 39> H -2.6382184086 2.3340291904 3.499821447
| 40> H -3.4426423933 1.4154588068 2.2157468881
| 41> H -2.6154102001 0.5590307815 3.5240115552
| 42> H -3.11174686 -2.8106666668 -0.5556811999
| 43> H -4.4803650215 -2.5021700734 0.5525008371
| 44> H -5.2147395235 -0.6233114213 -0.9595833526
| 45> H -3.8906508816 -1.01311455 -2.0612975599
| 46> H -5.1942216376 -2.1819753978 -1.8031810419
| 47> *
| 48>
| 49>                          ****END OF INPUT****

CARTESIAN COORDINATES (ANGSTROEM)
---------------------------------
  C      0.970698   -2.693346    1.552863
  C      2.076525   -1.680762    1.774786
  O      1.772387   -0.433333    1.119228
  P      2.394281   -0.002466   -0.289344
  S      2.963443   -1.474851   -1.439872
  O      3.638222    0.933502    0.022195
  C      3.591382    2.297878    0.498747
  C      2.905147    2.423398    1.842772
  S      0.912479    1.329726   -0.992641
  C      0.042344    0.162502   -2.070409
  S     -0.731747   -1.205761   -1.176240
  P     -2.039987   -0.027411    0.001347
  S     -2.780663    1.580101   -0.853131
  O     -1.174031    0.252749    1.298485
  C     -1.307661    1.456156    2.074979
  C     -2.585217    1.439321    2.887709
  O     -3.059688   -1.095567    0.585195
  C     -3.808675   -2.054842   -0.182525
  C     -4.579052   -1.426322   -1.325290
  H      0.941924   -2.995990    0.508169
  H      1.155903   -3.566138    2.170617
  H      0.009932   -2.258330    1.818402
  H      3.032005   -2.061224    1.401228
  H      2.170330   -1.421691    2.830996
  H      4.644137    2.579681    0.554046
  H      3.084148    2.906282   -0.254659
  H      1.860351    2.131371    1.755397
  H      3.392165    1.786793    2.577100
  H      2.956956    3.456434    2.172117
  H      0.747335   -0.287157   -2.768800
  H     -0.720559    0.744720   -2.587009
  H     -0.421325    1.462853    2.711252
  H     -1.287817    2.317307    1.398373
  H     -2.638218    2.334029    3.499821
  H     -3.442642    1.415459    2.215747
  H     -2.615410    0.559031    3.524012
  H     -3.111747   -2.810667   -0.555681
  H     -4.480365   -2.502170    0.552501
  H     -5.214740   -0.623311   -0.959583
  H     -3.890651   -1.013115   -2.061298
  H     -5.194222   -2.181975   -1.803181

 Total Charge           Charge          ....    0
 Multiplicity           Mult            ....    1
 Number of Electrons    NEL             ....  202
 Basis Dimension        Dim             ....  334

ORBITAL ENERGIES
----------------

  NO   OCC          E(Eh)            E(eV)
   0   2.0000     -88.045718     -2395.8458
   1   2.0000     -88.045443     -2395.8383
   2   2.0000     -87.989341     -2394.3117
   3   2.0000     -87.983045     -2394.1404
   4   2.0000     -76.429022     -2079.7394
   5   2.0000     -76.424090     -2079.6052
   6   2.0000     -18.795889      -511.4621
   7   2.0000     -18.791170      -511.3337
   8   2.0000     -18.787715      -511.2397
   9   2.0000     -18.784258      -511.1457
  10   2.0000      -9.960174      -271.0301
  11   2.0000      -9.959883      -271.0222
  12   2.0000      -9.958184      -270.9760
  13   2.0000      -9.949466      -270.7387
  14   2.0000      -9.947718      -270.6912
  15   2.0000      -9.892766      -269.1958
  16   2.0000      -9.885185      -268.9896
  17   2.0000      -9.882423      -268.9144
  18   2.0000      -9.873339      -268.6672
  19   2.0000      -7.690406      -209.2666
  20   2.0000      -7.690353      -209.2652
  21   2.0000      -7.634210      -207.7374
  22   2.0000      -7.628359      -207.5782
  23   2.0000      -6.426072      -174.8623
  24   2.0000      -6.421808      -174.7463
  25   2.0000      -5.718240      -155.6012
  26   2.0000      -5.718207      -155.6003
  27   2.0000      -5.714964      -155.5121
  28   2.0000      -5.714915      -155.5107
  29   2.0000      -5.707423      -155.3069
  30   2.0000      -5.707230      -155.3016
  31   2.0000      -5.663098      -154.1007
  32   2.0000      -5.657434      -153.9466
  33   2.0000      -5.654877      -153.8770
  34   2.0000      -5.654390      -153.8638
  35   2.0000      -5.649279      -153.7247
  36   2.0000      -5.648001      -153.6899
  37   2.0000      -4.648522      -126.4927
  38   2.0000      -4.647984      -126.4781
  39   2.0000      -4.646576      -126.4398
  40   2.0000      -4.644610      -126.3863
  41   2.0000      -4.643354      -126.3521
  42   2.0000      -4.642295      -126.3233
  43   2.0000      -0.988059       -26.8864
  44   2.0000      -0.979635       -26.6572
  45   2.0000      -0.946073       -25.7440
  46   2.0000      -0.940288       -25.5865
  47   2.0000      -0.768277       -20.9059
  48   2.0000      -0.722043       -19.6478
  49   2.0000      -0.710988       -19.3470
  50   2.0000      -0.691153       -18.8072
  51   2.0000      -0.686740       -18.6872
  52   2.0000      -0.673563       -18.3286
  53   2.0000      -0.651972       -17.7411
  54   2.0000      -0.641196       -17.4478
  55   2.0000      -0.599967       -16.3259
  56   2.0000      -0.591759       -16.1026
  57   2.0000      -0.580255       -15.7895
  58   2.0000      -0.572758       -15.5855
  59   2.0000      -0.560171       -15.2430
  60   2.0000      -0.501226       -13.6391
  61   2.0000      -0.492998       -13.4152
  62   2.0000      -0.475533       -12.9399
  63   2.0000      -0.470811       -12.8114
  64   2.0000      -0.461159       -12.5488
  65   2.0000      -0.448212       -12.1965
  66   2.0000      -0.438727       -11.9384
  67   2.0000      -0.436395       -11.8749
  68   2.0000      -0.429603       -11.6901
  69   2.0000      -0.418867       -11.3980
  70   2.0000      -0.406209       -11.0535
  71   2.0000      -0.398188       -10.8352
  72   2.0000      -0.392274       -10.6743
  73   2.0000      -0.388937       -10.5835
  74   2.0000      -0.383185       -10.4270
  75   2.0000      -0.376475       -10.2444
  76   2.0000      -0.366790        -9.9809
  77   2.0000      -0.355583        -9.6759
  78   2.0000      -0.354491        -9.6462
  79   2.0000      -0.349064        -9.4985
  80   2.0000      -0.347614        -9.4591
  81   2.0000      -0.345941        -9.4135
  82   2.0000      -0.342758        -9.3269
  83   2.0000      -0.341600        -9.2954
  84   2.0000      -0.335438        -9.1277
  85   2.0000      -0.320131        -8.7112
  86   2.0000      -0.308842        -8.4040
  87   2.0000      -0.302388        -8.2284
  88   2.0000      -0.298526        -8.1233
  89   2.0000      -0.286518        -7.7966
  90   2.0000      -0.279508        -7.6058
  91   2.0000      -0.276517        -7.5244
  92   2.0000      -0.274387        -7.4664
  93   2.0000      -0.267634        -7.2827
  94   2.0000      -0.254521        -6.9259
  95   2.0000      -0.231205        -6.2914
  96   2.0000      -0.219523        -5.9735
  97   2.0000      -0.213880        -5.8200
  98   2.0000      -0.205447        -5.5905
  99   2.0000      -0.199556        -5.4302
 100   2.0000      -0.195045        -5.3074
 101   0.0000      -0.048321        -1.3149
 102   0.0000      -0.027178        -0.7395
 103   0.0000      -0.004887        -0.1330
 104   0.0000       0.001268         0.0345
 105   0.0000       0.006768         0.1842

MULLIKEN ATOMIC CHARGES
-----------------------
   0 C :   -0.298089
   1 C :   -0.007782
   2 O :   -0.377193
   3 P :    0.619490
   4 S :   -0.319822
   5 O :   -0.369640
   6 C :   -0.016068
   7 C :   -0.334607
   8 S :   -0.103587
   9 C :   -0.340349
  10 S :   -0.083527
  11 P :    0.620428
  12 S :   -0.332745
  13 O :   -0.354205
  14 C :   -0.029530
  15 C :   -0.289698
  16 O :   -0.375222
  17 C :   -0.011198
  18 C :   -0.310833
  19 H :    0.129506
  20 H :    0.101334
  21 H :    0.118388
  22 H :    0.105668
  23 H :    0.096347
  24 H :    0.114786
  25 H :    0.118677
  26 H :    0.148131
  27 H :    0.118858
  28 H :    0.114949
  29 H :    0.193812
  30 H :    0.191453
  31 H :    0.116498
  32 H :    0.113564
  33 H :    0.108904
  34 H :    0.121864
  35 H :    0.112592
  36 H :    0.115213
  37 H :    0.109867
  38 H :    0.126193
  39 H :    0.125083
  40 H :    0.112489
Sum of atomic charges:   -0.0000000

LOEWDIN ATOMIC CHARGES
----------------------
   0 C :   -0.366423
   1 C :   -0.114373
   2 O :   -0.250356
   3 P :    0.570145
   4 S :   -0.315677
   5 O :   -0.247482
   6 C :   -0.116206
   7 C :   -0.368926
   8 S :    0.089704
   9 C :   -0.476179
  10 S :    0.101378
  11 P :    0.572650
  12 S :   -0.320136
  13 O :   -0.229454
  14 C :   -0.123002
  15 C :   -0.363313
  16 O :   -0.243753
  17 C :   -0.114015
  18 C :   -0.369684
  19 H :    0.121002
  20 H :    0.124954
  21 H :    0.121334
  22 H :    0.108547
  23 H :    0.113371
  24 H :    0.124311
  25 H :    0.109805
  26 H :    0.122993
  27 H :    0.127881
  28 H :    0.131987
  29 H :    0.133435
  30 H :    0.131334
  31 H :    0.116414
  32 H :    0.107719
  33 H :    0.129187
  34 H :    0.122777
  35 H :    0.124865
  36 H :    0.110325
  37 H :    0.121813
  38 H :    0.129530
  39 H :    0.121010
  40 H :    0.130507

  Mayer bond orders larger than 0.100000
B(  0-C ,  1-C ) :   1.1733 B(  0-C , 19-H ) :   0.9358 B(  0-C , 20-H ) :   0.9383
B(  0-C , 21-H ) :   0.9408 B(  1-C ,  2-O ) :   0.9030 B(  1-C , 22-H ) :   0.9134
B(  1-C , 23-H ) :   0.9336 B(  2-O ,  3-P ) :   1.0899 B(  3-P ,  4-S ) :   1.6225
B(  3-P ,  5-O ) :   1.1205 B(  3-P ,  8-S ) :   0.9502 B(  4-S ,  8-S ) :   0.1006
B(  5-O ,  6-C ) :   0.9137 B(  6-C ,  7-C ) :   1.1625 B(  6-C , 24-H ) :   0.9346
B(  6-C , 25-H ) :   0.9185 B(  7-C , 26-H ) :   0.9297 B(  7-C , 27-H ) :   0.9452
B(  7-C , 28-H ) :   0.9356 B(  8-S ,  9-C ) :   1.0125 B(  9-C , 10-S ) :   1.0094
B(  9-C , 29-H ) :   0.8845 B(  9-C , 30-H ) :   0.8840 B( 10-S , 11-P ) :   0.9491
B( 10-S , 12-S ) :   0.1075 B( 11-P , 12-S ) :   1.5858 B( 11-P , 13-O ) :   1.1161
B( 11-P , 16-O ) :   1.1101 B( 13-O , 14-C ) :   0.9051 B( 14-C , 15-C ) :   1.1606
B( 14-C , 31-H ) :   0.9225 B( 14-C , 32-H ) :   0.9118 B( 15-C , 33-H ) :   0.9403
B( 15-C , 34-H ) :   0.9343 B( 15-C , 35-H ) :   0.9463 B( 16-O , 17-C ) :   0.9140
B( 17-C , 18-C ) :   1.1648 B( 17-C , 36-H ) :   0.9276 B( 17-C , 37-H ) :   0.9341
B( 18-C , 38-H ) :   0.9427 B( 18-C , 39-H ) :   0.9338 B( 18-C , 40-H ) :   0.9350

Dispersion correction           -0.068341711
FINAL SINGLE POINT ENERGY     -2929.519703684395

DIPOLE MOMENT
-------------

Method             : SCF
Type of density    : Electron Density
Multiplicity       :   1
Irrep              :   0
Energy             : -2929.6372664141986206 Eh
Relativity type    :
Basis              : AO
                                X                 Y                 Z
Electronic contribution:      8.362398051       0.154129345     -16.691596205
Nuclear contribution   :     -8.774320372      -0.011104571      17.974693359
                        -----------------------------------------
Total Dipole Moment    :     -0.411922321       0.143024774       1.283097154
                        -----------------------------------------
Magnitude (a.u.)       :      1.355165817
Magnitude (Debye)      :      3.444557764

Rotational constants in cm-1:             0.011913             0.005728             0.005237
Rotational constants in MHz :           357.145613           171.712529           157.011065

                             ****ORCA TERMINATED NORMALLY****
TOTAL RUN TIME: 0 days 0 hours 0 minutes 22 seconds 391 msec
