                         Program Version 6.0.0  -   RELEASE  -
|  1> ! wb97x-v def2-tzvp def2/J RIJCOSX DEFGRID2 scfconv7 GCP(DFT/TZ) printgap
|  2> %output
|  3>     printlevel normal
|  4> end
|  5> * xyz 0 1
|  6> C -1.8264350046773823 -0.04546014340363584 -0.35663607745457926
|  7> C -1.055240370934376 1.2964663753690397 -0.25591003332394907
|  8> C 0.28392994935927496 1.17511727204682 0.5005032762907352
|  9> C 1.0748285833040454 -0.009615982067638258 0.03959007771236403
| 10> O 2.2676023286766265 0.05572910962297018 -0.25189794790256925
| 11> C 0.3136483096092154 -1.309650082272422 -0.04451900677974589
| 12> C -1.1372916505050201 -1.1755365132913935 0.4121440834405826
| 13> H -1.9012919206470011 -0.344765851370323 -1.4081932816786926
| 14> H -2.850587508114511 0.07926453278973453 0.007815967189918397
| 15> H -0.8493965565348641 1.6846489931793371 -1.257926027143873
| 16> H -1.6597201276287077 2.05142883062885 0.25429479409392547
| 17> H 0.8824524762496568 2.085003442936609 0.4141948980680467
| 18> H 0.0772564787871522 1.0057321079153771 1.5672433386429379
| 19> H 0.35964289463096955 -1.636459994340684 -1.0929759012150795
| 20> H 0.8673124508300799 -2.0591919321499 0.5339727511902563
| 21> H -1.6661492031560128 -2.119759914184482 0.2490873515187344
| 22> H -1.1695089073762241 -0.977101710314983 1.4899121157145492
| 23> *
| 24>
| 25>                          ****END OF INPUT****

CARTESIAN COORDINATES (ANGSTROEM)
---------------------------------
  C     -1.826435   -0.045460   -0.356636
  C     -1.055240    1.296466   -0.255910
  C      0.283930    1.175117    0.500503
  C      1.074829   -0.009616    0.039590
  O      2.267602    0.055729   -0.251898
  C      0.313648   -1.309650   -0.044519
  C     -1.137292   -1.175537    0.412144
  H     -1.901292   -0.344766   -1.408193
  H     -2.850588    0.079265    0.007816
  H     -0.849397    1.684649   -1.257926
  H     -1.659720    2.051429    0.254295
  H      0.882452    2.085003    0.414195
  H      0.077256    1.005732    1.567243
  H      0.359643   -1.636460   -1.092976
  H      0.867312   -2.059192    0.533973
  H     -1.666149   -2.119760    0.249087
  H     -1.169509   -0.977102    1.489912

 Total Charge           Charge          ....    0
 Multiplicity           Mult            ....    1
 Number of Electrons    NEL             ....   54
 Basis Dimension        Dim             ....  277

ORBITAL ENERGIES
----------------

  NO   OCC          E(Eh)            E(eV)
   0   2.0000     -21.653242      -589.2147
   1   2.0000     -12.132571      -330.1440
   2   2.0000     -12.058040      -328.1159
   3   2.0000     -12.055683      -328.0518
   4   2.0000     -12.054514      -328.0200
   5   2.0000     -12.054073      -328.0080
   6   2.0000     -12.053344      -327.9882
   7   2.0000      -1.694709       -46.1154
   8   2.0000      -1.349687       -36.7269
   9   2.0000      -1.269416       -34.5426
  10   2.0000      -1.247669       -33.9508
  11   2.0000      -1.131655       -30.7939
  12   2.0000      -1.100628       -29.9496
  13   2.0000      -1.036802       -28.2128
  14   2.0000      -0.966429       -26.2979
  15   2.0000      -0.954605       -25.9761
  16   2.0000      -0.922528       -25.1033
  17   2.0000      -0.890436       -24.2300
  18   2.0000      -0.886627       -24.1263
  19   2.0000      -0.856551       -23.3079
  20   2.0000      -0.844791       -22.9879
  21   2.0000      -0.833706       -22.6863
  22   2.0000      -0.815648       -22.1949
  23   2.0000      -0.803231       -21.8570
  24   2.0000      -0.783029       -21.3073
  25   2.0000      -0.770309       -20.9612
  26   2.0000      -0.751441       -20.4478
  27   0.0000      -0.304613        -8.2889
  28   0.0000      -0.067744        -1.8434
  29   0.0000      -0.050327        -1.3695
  30   0.0000      -0.036269        -0.9869
  31   0.0000      -0.030275        -0.8238

MULLIKEN ATOMIC CHARGES
-----------------------
   0 C :   -0.196469
   1 C :   -0.203665
   2 C :   -0.143092
   3 C :    0.107469
   4 O :   -0.314991
   5 C :   -0.161503
   6 C :   -0.187687
   7 H :    0.098956
   8 H :    0.104079
   9 H :    0.107210
  10 H :    0.103669
  11 H :    0.123987
  12 H :    0.106985
  13 H :    0.117069
  14 H :    0.129135
  15 H :    0.107862
  16 H :    0.100986
Sum of atomic charges:   -0.0000000

LOEWDIN ATOMIC CHARGES
----------------------
   0 C :   -0.253199
   1 C :   -0.241266
   2 C :   -0.218875
   3 C :   -0.311980
   4 O :    0.097222
   5 C :   -0.221001
   6 C :   -0.258619
   7 H :    0.134482
   8 H :    0.132093
   9 H :    0.135445
  10 H :    0.133596
  11 H :    0.144339
  12 H :    0.152458
  13 H :    0.155094
  14 H :    0.151807
  15 H :    0.134705
  16 H :    0.133699

  Mayer bond orders larger than 0.100000
B(  0-C ,  1-C ) :   0.9784 B(  0-C ,  6-C ) :   0.9858 B(  0-C ,  7-H ) :   0.9756
B(  0-C ,  8-H ) :   0.9716 B(  1-C ,  2-C ) :   0.9686 B(  1-C ,  9-H ) :   0.9716
B(  1-C , 10-H ) :   0.9686 B(  2-C ,  3-C ) :   0.9836 B(  2-C , 11-H ) :   0.9600
B(  2-C , 12-H ) :   0.9534 B(  3-C ,  4-O ) :   2.1561 B(  3-C ,  5-C ) :   0.9432
B(  5-C ,  6-C ) :   0.9643 B(  5-C , 13-H ) :   0.9474 B(  5-C , 14-H ) :   0.9505
B(  6-C , 15-H ) :   0.9712 B(  6-C , 16-H ) :   0.9796

FINAL SINGLE POINT ENERGY      -309.903954551020

DIPOLE MOMENT
-------------

Method             : SCF
Type of density    : Electron Density
Multiplicity       :   1
Irrep              :   0
Energy             :  -309.9151649371202097 Eh
Relativity type    :
Basis              : AO
                                X                 Y                 Z
Electronic contribution:      6.065116749       0.118834978      -0.401857426
Nuclear contribution   :     -7.399068616      -0.200157427       0.680192103
                        -----------------------------------------
Total Dipole Moment    :     -1.333951867      -0.081322449       0.278334676
                        -----------------------------------------
Magnitude (a.u.)       :      1.365104800
Magnitude (Debye)      :      3.469820650

Rotational constants in cm-1:             0.143296             0.081455             0.058602
Rotational constants in MHz :          4295.896789          2441.972231          1756.857279

                             ****ORCA TERMINATED NORMALLY****
TOTAL RUN TIME: 0 days 0 hours 2 minutes 21 seconds 803 msec
