                         Program Version 6.0.0  -   RELEASE  -
|  1> ! wb97x-v def2-tzvp def2/J RIJCOSX DEFGRID2 scfconv7 GCP(DFT/TZ) printgap
|  2> %output
|  3>     printlevel normal
|  4> end
|  5> %cpcm
|  6>     smd true
|  7>     smdsolvent "water"
|  8> end
|  9> * xyz 0 1
| 10> C -1.8264350046773823 -0.04546014340363584 -0.35663607745457926
| 11> C -1.055240370934376 1.2964663753690397 -0.25591003332394907
| 12> C 0.28392994935927496 1.17511727204682 0.5005032762907352
| 13> C 1.0748285833040454 -0.009615982067638258 0.03959007771236403
| 14> O 2.2676023286766265 0.05572910962297018 -0.25189794790256925
| 15> C 0.3136483096092154 -1.309650082272422 -0.04451900677974589
| 16> C -1.1372916505050201 -1.1755365132913935 0.4121440834405826
| 17> H -1.9012919206470011 -0.344765851370323 -1.4081932816786926
| 18> H -2.850587508114511 0.07926453278973453 0.007815967189918397
| 19> H -0.8493965565348641 1.6846489931793371 -1.257926027143873
| 20> H -1.6597201276287077 2.05142883062885 0.25429479409392547
| 21> H 0.8824524762496568 2.085003442936609 0.4141948980680467
| 22> H 0.0772564787871522 1.0057321079153771 1.5672433386429379
| 23> H 0.35964289463096955 -1.636459994340684 -1.0929759012150795
| 24> H 0.8673124508300799 -2.0591919321499 0.5339727511902563
| 25> H -1.6661492031560128 -2.119759914184482 0.2490873515187344
| 26> H -1.1695089073762241 -0.977101710314983 1.4899121157145492
| 27> *
| 28>
| 29>                          ****END OF INPUT****

CARTESIAN COORDINATES (ANGSTROEM)
---------------------------------
  C     -1.826435   -0.045460   -0.356636
  C     -1.055240    1.296466   -0.255910
  C      0.283930    1.175117    0.500503
  C      1.074829   -0.009616    0.039590
  O      2.267602    0.055729   -0.251898
  C      0.313648   -1.309650   -0.044519
  C     -1.137292   -1.175537    0.412144
  H     -1.901292   -0.344766   -1.408193
  H     -2.850588    0.079265    0.007816
  H     -0.849397    1.684649   -1.257926
  H     -1.659720    2.051429    0.254295
  H      0.882452    2.085003    0.414195
  H      0.077256    1.005732    1.567243
  H      0.359643   -1.636460   -1.092976
  H      0.867312   -2.059192    0.533973
  H     -1.666149   -2.119760    0.249087
  H     -1.169509   -0.977102    1.489912

 Total Charge           Charge          ....    0
 Multiplicity           Mult            ....    1
 Number of Electrons    NEL             ....   54
 Basis Dimension        Dim             ....  277

ORBITAL ENERGIES
----------------

  NO   OCC          E(Eh)            E(eV)
   0   2.0000     -21.665569      -589.5501
   1   2.0000     -12.140900      -330.3707
   2   2.0000     -12.044028      -327.7347
   3   2.0000     -12.043398      -327.7175
   4   2.0000     -12.041226      -327.6584
   5   2.0000     -12.037187      -327.5485
   6   2.0000     -12.034444      -327.4739
   7   2.0000      -1.710806       -46.5534
   8   2.0000      -1.337129       -36.3851
   9   2.0000      -1.256380       -34.1878
  10   2.0000      -1.237031       -33.6613
  11   2.0000      -1.119861       -30.4730
  12   2.0000      -1.101508       -29.9735
  13   2.0000      -1.035860       -28.1872
  14   2.0000      -0.959064       -26.0975
  15   2.0000      -0.956145       -26.0180
  16   2.0000      -0.925516       -25.1846
  17   2.0000      -0.884004       -24.0550
  18   2.0000      -0.875989       -23.8369
  19   2.0000      -0.846501       -23.0345
  20   2.0000      -0.832093       -22.6424
  21   2.0000      -0.819894       -22.3105
  22   2.0000      -0.806138       -21.9361
  23   2.0000      -0.790925       -21.5222
  24   2.0000      -0.768887       -20.9225
  25   2.0000      -0.757416       -20.6103
  26   2.0000      -0.736346       -20.0370
  27   0.0000      -0.302812        -8.2399
  28   0.0000      -0.058420        -1.5897
  29   0.0000      -0.035815        -0.9746
  30   0.0000      -0.024317        -0.6617
  31   0.0000      -0.014008        -0.3812

MULLIKEN ATOMIC CHARGES
-----------------------
   0 C :   -0.214800
   1 C :   -0.215991
   2 C :   -0.163951
   3 C :    0.203459
   4 O :   -0.463924
   5 C :   -0.186464
   6 C :   -0.208830
   7 H :    0.107997
   8 H :    0.115753
   9 H :    0.114560
  10 H :    0.118132
  11 H :    0.127489
  12 H :    0.140312
  13 H :    0.139126
  14 H :    0.148316
  15 H :    0.120558
  16 H :    0.118256
Sum of atomic charges:   -0.0000000

LOEWDIN ATOMIC CHARGES
----------------------
   0 C :   -0.252807
   1 C :   -0.237811
   2 C :   -0.214577
   3 C :   -0.290232
   4 O :    0.011454
   5 C :   -0.216736
   6 C :   -0.254911
   7 H :    0.136951
   8 H :    0.134616
   9 H :    0.137620
  10 H :    0.138031
  11 H :    0.144618
  12 H :    0.166190
  13 H :    0.162438
  14 H :    0.157574
  15 H :    0.138243
  16 H :    0.139339

  Mayer bond orders larger than 0.100000
B(  0-C ,  1-C ) :   0.9837 B(  0-C ,  6-C ) :   0.9917 B(  0-C ,  7-H ) :   0.9735
B(  0-C ,  8-H ) :   0.9683 B(  1-C ,  2-C ) :   0.9739 B(  1-C ,  9-H ) :   0.9695
B(  1-C , 10-H ) :   0.9635 B(  2-C ,  3-C ) :   1.0095 B(  2-C , 11-H ) :   0.9572
B(  2-C , 12-H ) :   0.9343 B(  3-C ,  4-O ) :   1.9832 B(  3-C ,  5-C ) :   0.9621
B(  5-C ,  6-C ) :   0.9741 B(  5-C , 13-H ) :   0.9349 B(  5-C , 14-H ) :   0.9389
B(  6-C , 15-H ) :   0.9662 B(  6-C , 16-H ) :   0.9762

FINAL SINGLE POINT ENERGY      -309.913387805828

DIPOLE MOMENT
-------------

Method             : SCF
Type of density    : Electron Density
Multiplicity       :   1
Irrep              :   0
Energy             :  -309.9245981919284532 Eh
Relativity type    :
Basis              : AO
                                X                 Y                 Z
Electronic contribution:      5.534104962       0.072014393      -0.252285151
Nuclear contribution   :     -7.399068616      -0.200157427       0.680192103
                        -----------------------------------------
Total Dipole Moment    :     -1.864963654      -0.128143034       0.427906952
                        -----------------------------------------
Magnitude (a.u.)       :      1.917710726
Magnitude (Debye)      :      4.874433288

Rotational constants in cm-1:             0.143296             0.081455             0.058602
Rotational constants in MHz :          4295.896789          2441.972231          1756.857279

                             ****ORCA TERMINATED NORMALLY****
TOTAL RUN TIME: 0 days 0 hours 2 minutes 10 seconds 613 msec
