                         Program Version 6.0.0  -   RELEASE  -
|  1> ! wb97x-v def2-tzvp def2/J RIJCOSX DEFGRID2 scfconv7 GCP(DFT/TZ) printgap
|  2> %output
|  3>     printlevel normal
|  4> end
|  5> * xyz 0 1
|  6> C -0.3363076944580733 -1.2164303243954167 -0.0002289113217743116
|  7> C 1.0467269661333645 -1.2155934771363586 -3.0111301105187503e-05
|  8> C 1.7385019046105132 -0.00015374632242521946 1.9675725354642013e-05
|  9> C 1.0473437025071537 1.2157330801498039 -7.522527553857031e-05
| 10> C -0.33457402809451686 1.2164474992349783 -0.0002742877463602951
| 11> C -1.0374807708347114 -0.00017066392049899044 -0.00033847103943437224
| 12> C -2.4531630907122497 -0.000300023340748724 5.791501859217027e-05
| 13> N -3.615581121237409 -0.001131258312794971 0.000836627625612663
| 14> O 3.099544019695273 0.05630985852505995 0.00017798030020276914
| 15> H -0.8818503163518385 -2.153500093486794 -0.0002302134477897435
| 16> H 1.5992147360589697 -2.1504294031252456 0.00011642003024999172
| 17> H 1.6036632173455652 2.1467026316267015 3.3676379895833854e-05
| 18> H -0.8806998870793834 2.1531596034069134 -0.0003139767825701476
| 19> H 3.4605462715913795 -0.842468832318352 0.00021305554467711938
| 20> *
| 21>
| 22>                          ****END OF INPUT****

CARTESIAN COORDINATES (ANGSTROEM)
---------------------------------
  C     -0.336308   -1.216430   -0.000229
  C      1.046727   -1.215593   -0.000030
  C      1.738502   -0.000154    0.000020
  C      1.047344    1.215733   -0.000075
  C     -0.334574    1.216447   -0.000274
  C     -1.037481   -0.000171   -0.000338
  C     -2.453163   -0.000300    0.000058
  N     -3.615581   -0.001131    0.000837
  O      3.099544    0.056310    0.000178
  H     -0.881850   -2.153500   -0.000230
  H      1.599215   -2.150429    0.000116
  H      1.603663    2.146703    0.000034
  H     -0.880700    2.153160   -0.000314
  H      3.460546   -0.842469    0.000213

 Total Charge           Charge          ....    0
 Multiplicity           Mult            ....    1
 Number of Electrons    NEL             ....   62
 Basis Dimension        Dim             ....  309

ORBITAL ENERGIES
----------------

  NO   OCC          E(Eh)            E(eV)
   0   2.0000     -21.731492      -591.3439
   1   2.0000     -16.525259      -449.6752
   2   2.0000     -12.147088      -330.5391
   3   2.0000     -12.099070      -329.2324
   4   2.0000     -12.091615      -329.0296
   5   2.0000     -12.089237      -328.9649
   6   2.0000     -12.086106      -328.8797
   7   2.0000     -12.080353      -328.7231
   8   2.0000     -12.074426      -328.5618
   9   2.0000      -1.749312       -47.6012
  10   2.0000      -1.515162       -41.2297
  11   2.0000      -1.421162       -38.6718
  12   2.0000      -1.328762       -36.1575
  13   2.0000      -1.312899       -35.7258
  14   2.0000      -1.209336       -32.9077
  15   2.0000      -1.157321       -31.4923
  16   2.0000      -1.112329       -30.2680
  17   2.0000      -1.056779       -28.7564
  18   2.0000      -1.036797       -28.2127
  19   2.0000      -0.977107       -26.5884
  20   2.0000      -0.973720       -26.4963
  21   2.0000      -0.931388       -25.3444
  22   2.0000      -0.919088       -25.0096
  23   2.0000      -0.910188       -24.7675
  24   2.0000      -0.889352       -24.2005
  25   2.0000      -0.844833       -22.9891
  26   2.0000      -0.832480       -22.6529
  27   2.0000      -0.794869       -21.6295
  28   2.0000      -0.783346       -21.3159
  29   2.0000      -0.675914       -18.3926
  30   2.0000      -0.669514       -18.2184
  31   0.0000      -0.318344        -8.6626
  32   0.0000      -0.266526        -7.2525
  33   0.0000      -0.232960        -6.3392
  34   0.0000      -0.179090        -4.8733
  35   0.0000      -0.162353        -4.4178

MULLIKEN ATOMIC CHARGES
-----------------------
   0 C :   -0.229084
   1 C :   -0.180205
   2 C :    0.253771
   3 C :   -0.179232
   4 C :   -0.197106
   5 C :    0.296229
   6 C :   -0.260413
   7 N :   -0.005200
   8 O :   -0.373682
   9 H :    0.148914
  10 H :    0.123521
  11 H :    0.136122
  12 H :    0.146812
  13 H :    0.319553
Sum of atomic charges:   -0.0000000

LOEWDIN ATOMIC CHARGES
----------------------
   0 C :   -0.069228
   1 C :   -0.134539
   2 C :   -0.250476
   3 C :   -0.108472
   4 C :   -0.066598
   5 C :   -0.162319
   6 C :   -0.158402
   7 N :    0.055883
   8 O :    0.090762
   9 H :    0.156682
  10 H :    0.145090
  11 H :    0.153244
  12 H :    0.156925
  13 H :    0.191448

  Mayer bond orders larger than 0.100000
B(  0-C ,  1-C ) :   1.4644 B(  0-C ,  5-C ) :   1.3739 B(  0-C ,  9-H ) :   0.9535
B(  1-C ,  2-C ) :   1.3494 B(  1-C , 10-H ) :   0.9552 B(  2-C ,  3-C ) :   1.3832
B(  2-C ,  8-O ) :   1.1781 B(  3-C ,  4-C ) :   1.4840 B(  3-C , 11-H ) :   0.9727
B(  4-C ,  5-C ) :   1.3538 B(  4-C , 12-H ) :   0.9679 B(  5-C ,  6-C ) :   0.8915
B(  6-C ,  7-N ) :   3.1324 B(  8-O , 13-H ) :   0.8839

FINAL SINGLE POINT ENERGY      -399.736920977690

DIPOLE MOMENT
-------------

Method             : SCF
Type of density    : Electron Density
Multiplicity       :   1
Irrep              :   0
Energy             :  -399.7434328640899253 Eh
Relativity type    :
Basis              : AO
                                X                 Y                 Z
Electronic contribution:     -2.644160558       0.262618592      -0.000178000
Nuclear contribution   :      4.626378057      -0.794407076      -0.000318473
                        -----------------------------------------
Total Dipole Moment    :      1.982217499      -0.531788485      -0.000496473
                        -----------------------------------------
Magnitude (a.u.)       :      2.052312221
Magnitude (Debye)      :      5.216563100

Rotational constants in cm-1:             0.186340             0.033304             0.028255
Rotational constants in MHz :          5586.334575           998.441894           847.049360

                             ****ORCA TERMINATED NORMALLY****
TOTAL RUN TIME: 0 days 0 hours 2 minutes 59 seconds 455 msec
