                         Program Version 6.0.0  -   RELEASE  -
|  1> ! wb97x-v def2-tzvp def2/J RIJCOSX DEFGRID2 scfconv7 GCP(DFT/TZ) printgap
|  2> %output
|  3>     printlevel normal
|  4> end
|  5> %cpcm
|  6>     smd true
|  7>     smdsolvent "water"
|  8> end
|  9> * xyz 0 1
| 10> C -0.3363076944580733 -1.2164303243954167 -0.0002289113217743116
| 11> C 1.0467269661333645 -1.2155934771363586 -3.0111301105187503e-05
| 12> C 1.7385019046105132 -0.00015374632242521946 1.9675725354642013e-05
| 13> C 1.0473437025071537 1.2157330801498039 -7.522527553857031e-05
| 14> C -0.33457402809451686 1.2164474992349783 -0.0002742877463602951
| 15> C -1.0374807708347114 -0.00017066392049899044 -0.00033847103943437224
| 16> C -2.4531630907122497 -0.000300023340748724 5.791501859217027e-05
| 17> N -3.615581121237409 -0.001131258312794971 0.000836627625612663
| 18> O 3.099544019695273 0.05630985852505995 0.00017798030020276914
| 19> H -0.8818503163518385 -2.153500093486794 -0.0002302134477897435
| 20> H 1.5992147360589697 -2.1504294031252456 0.00011642003024999172
| 21> H 1.6036632173455652 2.1467026316267015 3.3676379895833854e-05
| 22> H -0.8806998870793834 2.1531596034069134 -0.0003139767825701476
| 23> H 3.4605462715913795 -0.842468832318352 0.00021305554467711938
| 24> *
| 25>
| 26>                          ****END OF INPUT****

CARTESIAN COORDINATES (ANGSTROEM)
---------------------------------
  C     -0.336308   -1.216430   -0.000229
  C      1.046727   -1.215593   -0.000030
  C      1.738502   -0.000154    0.000020
  C      1.047344    1.215733   -0.000075
  C     -0.334574    1.216447   -0.000274
  C     -1.037481   -0.000171   -0.000338
  C     -2.453163   -0.000300    0.000058
  N     -3.615581   -0.001131    0.000837
  O      3.099544    0.056310    0.000178
  H     -0.881850   -2.153500   -0.000230
  H      1.599215   -2.150429    0.000116
  H      1.603663    2.146703    0.000034
  H     -0.880700    2.153160   -0.000314
  H      3.460546   -0.842469    0.000213

 Total Charge           Charge          ....    0
 Multiplicity           Mult            ....    1
 Number of Electrons    NEL             ....   62
 Basis Dimension        Dim             ....  309

ORBITAL ENERGIES
----------------

  NO   OCC          E(Eh)            E(eV)
   0   2.0000     -21.712225      -590.8197
   1   2.0000     -16.533256      -449.8928
   2   2.0000     -12.132012      -330.1288
   3   2.0000     -12.100843      -329.2807
   4   2.0000     -12.087411      -328.9152
   5   2.0000     -12.076108      -328.6076
   6   2.0000     -12.075281      -328.5851
   7   2.0000     -12.059737      -328.1621
   8   2.0000     -12.057948      -328.1134
   9   2.0000      -1.730018       -47.0762
  10   2.0000      -1.527204       -41.5573
  11   2.0000      -1.407596       -38.3026
  12   2.0000      -1.316458       -35.8226
  13   2.0000      -1.296454       -35.2783
  14   2.0000      -1.195225       -32.5237
  15   2.0000      -1.141104       -31.0510
  16   2.0000      -1.098582       -29.8939
  17   2.0000      -1.043307       -28.3898
  18   2.0000      -1.021560       -27.7981
  19   2.0000      -0.959616       -26.1125
  20   2.0000      -0.958630       -26.0856
  21   2.0000      -0.917720       -24.9724
  22   2.0000      -0.911578       -24.8053
  23   2.0000      -0.891411       -24.2565
  24   2.0000      -0.889377       -24.2012
  25   2.0000      -0.837033       -22.7768
  26   2.0000      -0.830189       -22.5906
  27   2.0000      -0.803111       -21.8538
  28   2.0000      -0.777380       -21.1536
  29   2.0000      -0.660027       -17.9602
  30   2.0000      -0.658888       -17.9293
  31   0.0000      -0.311776        -8.4839
  32   0.0000      -0.249884        -6.7997
  33   0.0000      -0.239406        -6.5146
  34   0.0000      -0.176878        -4.8131
  35   0.0000      -0.143173        -3.8959

MULLIKEN ATOMIC CHARGES
-----------------------
   0 C :   -0.235878
   1 C :   -0.227765
   2 C :    0.289677
   3 C :   -0.226041
   4 C :   -0.230096
   5 C :    0.282618
   6 C :   -0.177086
   7 N :   -0.120159
   8 O :   -0.444762
   9 H :    0.181215
  10 H :    0.179331
  11 H :    0.166037
  12 H :    0.178047
  13 H :    0.384861
Sum of atomic charges:   -0.0000000

LOEWDIN ATOMIC CHARGES
----------------------
   0 C :   -0.066042
   1 C :   -0.120537
   2 C :   -0.248464
   3 C :   -0.115341
   4 C :   -0.066665
   5 C :   -0.172405
   6 C :   -0.139809
   7 N :   -0.017329
   8 O :    0.072705
   9 H :    0.166487
  10 H :    0.162850
  11 H :    0.160693
  12 H :    0.166211
  13 H :    0.217648

  Mayer bond orders larger than 0.100000
B(  0-C ,  1-C ) :   1.4378 B(  0-C ,  5-C ) :   1.3172 B(  0-C ,  9-H ) :   0.9652
B(  1-C ,  2-C ) :   1.3406 B(  1-C , 10-H ) :   0.9661 B(  2-C ,  3-C ) :   1.3502
B(  2-C ,  8-O ) :   1.1440 B(  3-C ,  4-C ) :   1.4899 B(  3-C , 11-H ) :   0.9784
B(  4-C ,  5-C ) :   1.3139 B(  4-C , 12-H ) :   0.9765 B(  5-C ,  6-C ) :   0.9253
B(  6-C ,  7-N ) :   3.1217 B(  8-O , 13-H ) :   0.8422

FINAL SINGLE POINT ENERGY      -399.751215410371

DIPOLE MOMENT
-------------

Method             : SCF
Type of density    : Electron Density
Multiplicity       :   1
Irrep              :   0
Energy             :  -399.7577272967710655 Eh
Relativity type    :
Basis              : AO
                                X                 Y                 Z
Electronic contribution:     -1.963675508       0.006403265      -0.000360062
Nuclear contribution   :      4.626378057      -0.794407076      -0.000318473
                        -----------------------------------------
Total Dipole Moment    :      2.662702549      -0.788003811      -0.000678535
                        -----------------------------------------
Magnitude (a.u.)       :      2.776857096
Magnitude (Debye)      :      7.058209813

Rotational constants in cm-1:             0.186340             0.033304             0.028255
Rotational constants in MHz :          5586.334575           998.441894           847.049360

                             ****ORCA TERMINATED NORMALLY****
TOTAL RUN TIME: 0 days 0 hours 2 minutes 52 seconds 922 msec
