                         Program Version 6.0.0  -   RELEASE  -
|  1> ! wb97x-v def2-tzvp def2/J RIJCOSX DEFGRID2 scfconv7 GCP(DFT/TZ) printgap
|  2> %output
|  3>     printlevel normal
|  4> end
|  5> * xyz 0 1
|  6> C -0.6377465671351301 -0.9119316221699437 0.3973166205522492
|  7> C 0.3918717254961695 -0.1261567084620804 -0.37848569235930873
|  8> Cl 2.0150939055600996 -0.8343056122669794 0.014096315447285417
|  9> Cl 0.37336908218845793 1.6273118711417618 0.0501256367038007
| 10> Cl -2.3120871402394045 -0.36944056378895096 -0.05943504164357624
| 11> H -0.5634703740388398 -1.9671181587694555 0.12761981181267845
| 12> H -0.5248176521087381 -0.7813604739394663 1.4743361551087395
| 13> H 0.2626117305904732 -0.19698698326908287 -1.4586478291847027
| 14> *
| 15>
| 16>                          ****END OF INPUT****

CARTESIAN COORDINATES (ANGSTROEM)
---------------------------------
  C     -0.637747   -0.911932    0.397317
  C      0.391872   -0.126157   -0.378486
  Cl     2.015094   -0.834306    0.014096
  Cl     0.373369    1.627312    0.050126
  Cl    -2.312087   -0.369441   -0.059435
  H     -0.563470   -1.967118    0.127620
  H     -0.524818   -0.781360    1.474336
  H      0.262612   -0.196987   -1.458648

 Total Charge           Charge          ....    0
 Multiplicity           Mult            ....    1
 Number of Electrons    NEL             ....   66
 Basis Dimension        Dim             ....  191

ORBITAL ENERGIES
----------------

  NO   OCC          E(Eh)            E(eV)
   0   2.0000    -107.161169     -2916.0037
   1   2.0000    -107.156248     -2915.8697
   2   2.0000    -107.149201     -2915.6780
   3   2.0000     -12.198481      -331.9376
   4   2.0000     -12.142680      -330.4191
   5   2.0000     -11.314490      -307.8829
   6   2.0000     -11.309506      -307.7473
   7   2.0000     -11.302311      -307.5515
   8   2.0000      -9.106057      -247.7884
   9   2.0000      -9.103308      -247.7136
  10   2.0000      -9.103034      -247.7061
  11   2.0000      -9.100721      -247.6432
  12   2.0000      -9.098053      -247.5706
  13   2.0000      -9.098014      -247.5695
  14   2.0000      -9.093701      -247.4522
  15   2.0000      -9.090955      -247.3775
  16   2.0000      -9.090932      -247.3768
  17   2.0000      -1.461006       -39.7560
  18   2.0000      -1.410862       -38.3915
  19   2.0000      -1.395113       -37.9630
  20   2.0000      -1.268554       -34.5191
  21   2.0000      -1.124886       -30.6097
  22   2.0000      -0.964548       -26.2467
  23   2.0000      -0.948759       -25.8170
  24   2.0000      -0.938968       -25.5506
  25   2.0000      -0.884102       -24.0576
  26   2.0000      -0.881779       -23.9944
  27   2.0000      -0.811907       -22.0931
  28   2.0000      -0.807658       -21.9775
  29   2.0000      -0.797764       -21.7083
  30   2.0000      -0.795417       -21.6444
  31   2.0000      -0.784708       -21.3530
  32   2.0000      -0.782182       -21.2842
  33   0.0000      -0.336746        -9.1633
  34   0.0000      -0.303254        -8.2520
  35   0.0000      -0.238106        -6.4792
  36   0.0000      -0.074117        -2.0168
  37   0.0000      -0.030785        -0.8377

MULLIKEN ATOMIC CHARGES
-----------------------
   0 C :   -0.141541
   1 C :    0.004398
   2 Cl:   -0.100922
   3 Cl:   -0.085990
   4 Cl:   -0.130676
   5 H :    0.148922
   6 H :    0.151205
   7 H :    0.154604
Sum of atomic charges:   -0.0000000

LOEWDIN ATOMIC CHARGES
----------------------
   0 C :   -0.511528
   1 C :   -0.739479
   2 Cl:    0.297032
   3 Cl:    0.302859
   4 Cl:    0.261289
   5 H :    0.131358
   6 H :    0.129991
   7 H :    0.128478

  Mayer bond orders larger than 0.100000
B(  0-C ,  1-C ) :   1.0084 B(  0-C ,  4-Cl) :   1.0627 B(  0-C ,  5-H ) :   0.9540
B(  0-C ,  6-H ) :   0.9542 B(  1-C ,  2-Cl) :   1.0844 B(  1-C ,  3-Cl) :   1.1125
B(  1-C ,  7-H ) :   0.9556

FINAL SINGLE POINT ENERGY     -1458.456072986119

DIPOLE MOMENT
-------------

Method             : SCF
Type of density    : Electron Density
Multiplicity       :   1
Irrep              :   0
Energy             : -1458.4610811163186099 Eh
Relativity type    :
Basis              : AO
                                X                 Y                 Z
Electronic contribution:      0.944441891       2.783845578      -0.198417937
Nuclear contribution   :     -0.886934328      -3.335703023       0.132932746
                        -----------------------------------------
Total Dipole Moment    :      0.057507563      -0.551857445      -0.065485191
                        -----------------------------------------
Magnitude (a.u.)       :      0.558696760
Magnitude (Debye)      :      1.420094307

Rotational constants in cm-1:             0.115209             0.047623             0.034832
Rotational constants in MHz :          3453.890175          1427.703002          1044.237506

                             ****ORCA TERMINATED NORMALLY****
TOTAL RUN TIME: 0 days 0 hours 1 minutes 20 seconds 780 msec
