                         Program Version 6.0.0  -   RELEASE  -
|  1> ! wb97x-v def2-tzvp def2/J RIJCOSX DEFGRID2 scfconv7 GCP(DFT/TZ) printgap
|  2> %output
|  3>     printlevel normal
|  4> end
|  5> %cpcm
|  6>     smd true
|  7>     smdsolvent "water"
|  8> end
|  9> * xyz 0 1
| 10> C -0.6377465671351301 -0.9119316221699437 0.3973166205522492
| 11> C 0.3918717254961695 -0.1261567084620804 -0.37848569235930873
| 12> Cl 2.0150939055600996 -0.8343056122669794 0.014096315447285417
| 13> Cl 0.37336908218845793 1.6273118711417618 0.0501256367038007
| 14> Cl -2.3120871402394045 -0.36944056378895096 -0.05943504164357624
| 15> H -0.5634703740388398 -1.9671181587694555 0.12761981181267845
| 16> H -0.5248176521087381 -0.7813604739394663 1.4743361551087395
| 17> H 0.2626117305904732 -0.19698698326908287 -1.4586478291847027
| 18> *
| 19>
| 20>                          ****END OF INPUT****

CARTESIAN COORDINATES (ANGSTROEM)
---------------------------------
  C     -0.637747   -0.911932    0.397317
  C      0.391872   -0.126157   -0.378486
  Cl     2.015094   -0.834306    0.014096
  Cl     0.373369    1.627312    0.050126
  Cl    -2.312087   -0.369441   -0.059435
  H     -0.563470   -1.967118    0.127620
  H     -0.524818   -0.781360    1.474336
  H      0.262612   -0.196987   -1.458648

 Total Charge           Charge          ....    0
 Multiplicity           Mult            ....    1
 Number of Electrons    NEL             ....   66
 Basis Dimension        Dim             ....  191

ORBITAL ENERGIES
----------------

  NO   OCC          E(Eh)            E(eV)
   0   2.0000    -107.154271     -2915.8160
   1   2.0000    -107.151970     -2915.7533
   2   2.0000    -107.142301     -2915.4902
   3   2.0000     -12.185829      -331.5933
   4   2.0000     -12.124787      -329.9322
   5   2.0000     -11.307614      -307.6958
   6   2.0000     -11.305386      -307.6352
   7   2.0000     -11.295525      -307.3669
   8   2.0000      -9.099272      -247.6038
   9   2.0000      -9.097139      -247.5457
  10   2.0000      -9.096203      -247.5203
  11   2.0000      -9.095880      -247.5115
  12   2.0000      -9.093985      -247.4599
  13   2.0000      -9.093903      -247.4577
  14   2.0000      -9.086881      -247.2666
  15   2.0000      -9.084259      -247.1953
  16   2.0000      -9.084248      -247.1950
  17   2.0000      -1.452853       -39.5342
  18   2.0000      -1.403069       -38.1794
  19   2.0000      -1.389814       -37.8188
  20   2.0000      -1.256098       -34.1802
  21   2.0000      -1.110634       -30.2219
  22   2.0000      -0.950540       -25.8655
  23   2.0000      -0.939505       -25.5652
  24   2.0000      -0.926473       -25.2106
  25   2.0000      -0.872391       -23.7390
  26   2.0000      -0.868510       -23.6334
  27   2.0000      -0.806048       -21.9337
  28   2.0000      -0.802463       -21.8361
  29   2.0000      -0.792439       -21.5634
  30   2.0000      -0.790427       -21.5086
  31   2.0000      -0.777447       -21.1554
  32   2.0000      -0.774109       -21.0646
  33   0.0000      -0.327900        -8.9226
  34   0.0000      -0.293042        -7.9741
  35   0.0000      -0.226145        -6.1537
  36   0.0000      -0.059762        -1.6262
  37   0.0000      -0.007286        -0.1983

MULLIKEN ATOMIC CHARGES
-----------------------
   0 C :   -0.156133
   1 C :    0.002486
   2 Cl:   -0.124889
   3 Cl:   -0.121485
   4 Cl:   -0.172916
   5 H :    0.187455
   6 H :    0.183610
   7 H :    0.201872
Sum of atomic charges:    0.0000000

LOEWDIN ATOMIC CHARGES
----------------------
   0 C :   -0.498381
   1 C :   -0.727468
   2 Cl:    0.284124
   3 Cl:    0.279815
   4 Cl:    0.236151
   5 H :    0.144232
   6 H :    0.139084
   7 H :    0.142444

  Mayer bond orders larger than 0.100000
B(  0-C ,  1-C ) :   1.0124 B(  0-C ,  4-Cl) :   1.0200 B(  0-C ,  5-H ) :   0.9469
B(  0-C ,  6-H ) :   0.9442 B(  1-C ,  2-Cl) :   1.0690 B(  1-C ,  3-Cl) :   1.0819
B(  1-C ,  7-H ) :   0.9432

FINAL SINGLE POINT ENERGY     -1458.461561248497

DIPOLE MOMENT
-------------

Method             : SCF
Type of density    : Electron Density
Multiplicity       :   1
Irrep              :   0
Energy             : -1458.4665693786964766 Eh
Relativity type    :
Basis              : AO
                                X                 Y                 Z
Electronic contribution:      0.973998593       2.521082094      -0.245442704
Nuclear contribution   :     -0.886934328      -3.335703023       0.132932746
                        -----------------------------------------
Total Dipole Moment    :      0.087064265      -0.814620929      -0.112509958
                        -----------------------------------------
Magnitude (a.u.)       :      0.826949778
Magnitude (Debye)      :      2.101939291

Rotational constants in cm-1:             0.115209             0.047623             0.034832
Rotational constants in MHz :          3453.890175          1427.703002          1044.237506

                             ****ORCA TERMINATED NORMALLY****
TOTAL RUN TIME: 0 days 0 hours 1 minutes 33 seconds 985 msec
