                         Program Version 6.0.0  -   RELEASE  -
|  1> ! pbe def2-sv(p) def2/J RI DEFGRID1 loosescf d4 GCP(DFT/SV(P)) printgap
|  2> %output
|  3>     printlevel normal
|  4> end
|  5> * xyz 0 1
|  6> C 3.9559953886 -1.8912285334 -2.1619274325
|  7> C 4.4802604468 -1.5734256824 -0.7769529501
|  8> O 3.4245798692 -1.2755698984 0.1560265713
|  9> P 2.4906159251 0.0020278127 0.0144475812
| 10> S 3.3622169707 1.6521466167 -0.5617635153
| 11> O 1.8684986729 0.1269376099 1.4578311376
| 12> C 1.2961854202 -0.998195456 2.1687639682
| 13> C 2.2469784542 -1.4754957095 3.2466461257
| 14> S 0.8830675714 -0.686544057 -1.220623503
| 15> C 0.237029699 0.954233831 -1.6127435382
| 16> S -0.470101601 1.7911779798 -0.1649953142
| 17> P -2.2146936038 0.6039862777 -0.056634293
| 18> S -3.0529750438 0.174216094 -1.7786848634
| 19> O -2.9633295601 1.5540483438 0.9662291626
| 20> C -4.1294289896 1.1477296461 1.7160850528
| 21> C -5.3902162354 1.209150369 0.8766045008
| 22> O -1.8487186877 -0.6730198376 0.8267536961
| 23> C -1.9763817894 -2.0322551053 0.3639227504
| 24> C -3.3169847273 -2.6062696813 0.7766549283
| 25> H 3.1926535975 -2.6636278455 -2.112210143
| 26> H 3.5237661421 -0.9984151552 -2.6111297116
| 27> H 4.7765906039 -2.2335897826 -2.7841920159
| 28> H 5.1600186752 -0.7168051049 -0.8104323807
| 29> H 4.9844301344 -2.4320025841 -0.331073529
| 30> H 0.3635834392 -0.6184752647 2.5924388352
| 31> H 1.0807792012 -1.7952263797 1.4517670956
| 32> H 1.7747798085 -2.2734064482 3.8111390233
| 33> H 3.1650367681 -1.8456109554 2.7978945829
| 34> H 2.4900316027 -0.6554533947 3.9166108224
| 35> H -0.5335826439 0.8224555244 -2.3734423437
| 36> H 1.0499617409 1.5846890698 -1.9727973482
| 37> H -3.9635175071 0.1406730406 2.1072136287
| 38> H -4.1677579688 1.861121413 2.5413555274
| 39> H -5.5237152634 2.2097592132 0.473895641
| 40> H -5.3297280617 0.51029432 0.0444752702
| 41> H -6.2453772642 0.9535557617 1.4943661174
| 42> H -1.8638428144 -2.0544068052 -0.7238368678
| 43> H -1.1491107443 -2.569065585 0.8290153185
| 44> H -4.1209986961 -2.0589700853 0.2881880191
| 45> H -3.3662919187 -3.6464948557 0.471849759
| 46> H -3.4425871494 -2.5427144675 1.8541402974
| 47> *
| 48>
| 49>                          ****END OF INPUT****

CARTESIAN COORDINATES (ANGSTROEM)
---------------------------------
  C      3.955995   -1.891229   -2.161927
  C      4.480260   -1.573426   -0.776953
  O      3.424580   -1.275570    0.156027
  P      2.490616    0.002028    0.014448
  S      3.362217    1.652147   -0.561764
  O      1.868499    0.126938    1.457831
  C      1.296185   -0.998195    2.168764
  C      2.246978   -1.475496    3.246646
  S      0.883068   -0.686544   -1.220624
  C      0.237030    0.954234   -1.612744
  S     -0.470102    1.791178   -0.164995
  P     -2.214694    0.603986   -0.056634
  S     -3.052975    0.174216   -1.778685
  O     -2.963330    1.554048    0.966229
  C     -4.129429    1.147730    1.716085
  C     -5.390216    1.209150    0.876605
  O     -1.848719   -0.673020    0.826754
  C     -1.976382   -2.032255    0.363923
  C     -3.316985   -2.606270    0.776655
  H      3.192654   -2.663628   -2.112210
  H      3.523766   -0.998415   -2.611130
  H      4.776591   -2.233590   -2.784192
  H      5.160019   -0.716805   -0.810432
  H      4.984430   -2.432003   -0.331074
  H      0.363583   -0.618475    2.592439
  H      1.080779   -1.795226    1.451767
  H      1.774780   -2.273406    3.811139
  H      3.165037   -1.845611    2.797895
  H      2.490032   -0.655453    3.916611
  H     -0.533583    0.822456   -2.373442
  H      1.049962    1.584689   -1.972797
  H     -3.963518    0.140673    2.107214
  H     -4.167758    1.861121    2.541356
  H     -5.523715    2.209759    0.473896
  H     -5.329728    0.510294    0.044475
  H     -6.245377    0.953556    1.494366
  H     -1.863843   -2.054407   -0.723837
  H     -1.149111   -2.569066    0.829015
  H     -4.120999   -2.058970    0.288188
  H     -3.366292   -3.646495    0.471850
  H     -3.442587   -2.542714    1.854140

 Total Charge           Charge          ....    0
 Multiplicity           Mult            ....    1
 Number of Electrons    NEL             ....  202
 Basis Dimension        Dim             ....  334

ORBITAL ENERGIES
----------------

  NO   OCC          E(Eh)            E(eV)
   0   2.0000     -88.041659     -2395.7353
   1   2.0000     -88.036785     -2395.6027
   2   2.0000     -87.991193     -2394.3621
   3   2.0000     -87.987828     -2394.2705
   4   2.0000     -76.428240     -2079.7181
   5   2.0000     -76.427708     -2079.7037
   6   2.0000     -18.799063      -511.5485
   7   2.0000     -18.796949      -511.4910
   8   2.0000     -18.795946      -511.4637
   9   2.0000     -18.789980      -511.3013
  10   2.0000      -9.960801      -271.0472
  11   2.0000      -9.957296      -270.9518
  12   2.0000      -9.955243      -270.8959
  13   2.0000      -9.954941      -270.8877
  14   2.0000      -9.949256      -270.7330
  15   2.0000      -9.891104      -269.1506
  16   2.0000      -9.887320      -269.0476
  17   2.0000      -9.886669      -269.0299
  18   2.0000      -9.886447      -269.0239
  19   2.0000      -7.686294      -209.1547
  20   2.0000      -7.682154      -209.0420
  21   2.0000      -7.636108      -207.7891
  22   2.0000      -7.633125      -207.7079
  23   2.0000      -6.425947      -174.8589
  24   2.0000      -6.425149      -174.8372
  25   2.0000      -5.713969      -155.4850
  26   2.0000      -5.710940      -155.4026
  27   2.0000      -5.710061      -155.3786
  28   2.0000      -5.706909      -155.2929
  29   2.0000      -5.703402      -155.1975
  30   2.0000      -5.698802      -155.0723
  31   2.0000      -5.664870      -154.1490
  32   2.0000      -5.662089      -154.0733
  33   2.0000      -5.657064      -153.9365
  34   2.0000      -5.656080      -153.9098
  35   2.0000      -5.653612      -153.8426
  36   2.0000      -5.653330      -153.8349
  37   2.0000      -4.648803      -126.5004
  38   2.0000      -4.648115      -126.4816
  39   2.0000      -4.647327      -126.4602
  40   2.0000      -4.646780      -126.4453
  41   2.0000      -4.646482      -126.4372
  42   2.0000      -4.645396      -126.4076
  43   2.0000      -0.990989       -26.9662
  44   2.0000      -0.989988       -26.9390
  45   2.0000      -0.948228       -25.8026
  46   2.0000      -0.946895       -25.7663
  47   2.0000      -0.763221       -20.7683
  48   2.0000      -0.724597       -19.7173
  49   2.0000      -0.711581       -19.3631
  50   2.0000      -0.692857       -18.8536
  51   2.0000      -0.692505       -18.8440
  52   2.0000      -0.674984       -18.3673
  53   2.0000      -0.653393       -17.7797
  54   2.0000      -0.638835       -17.3836
  55   2.0000      -0.600943       -16.3525
  56   2.0000      -0.593405       -16.1474
  57   2.0000      -0.581935       -15.8352
  58   2.0000      -0.575269       -15.6539
  59   2.0000      -0.558061       -15.1856
  60   2.0000      -0.506555       -13.7841
  61   2.0000      -0.499438       -13.5904
  62   2.0000      -0.480999       -13.0886
  63   2.0000      -0.477281       -12.9875
  64   2.0000      -0.460475       -12.5302
  65   2.0000      -0.450848       -12.2682
  66   2.0000      -0.440207       -11.9787
  67   2.0000      -0.439778       -11.9670
  68   2.0000      -0.428910       -11.6712
  69   2.0000      -0.419226       -11.4077
  70   2.0000      -0.410968       -11.1830
  71   2.0000      -0.398774       -10.8512
  72   2.0000      -0.393955       -10.7201
  73   2.0000      -0.383614       -10.4387
  74   2.0000      -0.379302       -10.3213
  75   2.0000      -0.375752       -10.2247
  76   2.0000      -0.368873       -10.0375
  77   2.0000      -0.362273        -9.8580
  78   2.0000      -0.357328        -9.7234
  79   2.0000      -0.355046        -9.6613
  80   2.0000      -0.353671        -9.6239
  81   2.0000      -0.346665        -9.4332
  82   2.0000      -0.345014        -9.3883
  83   2.0000      -0.342457        -9.3187
  84   2.0000      -0.338721        -9.2171
  85   2.0000      -0.325841        -8.8666
  86   2.0000      -0.312205        -8.4955
  87   2.0000      -0.301961        -8.2168
  88   2.0000      -0.297518        -8.0959
  89   2.0000      -0.295997        -8.0545
  90   2.0000      -0.294773        -8.0212
  91   2.0000      -0.281592        -7.6625
  92   2.0000      -0.272682        -7.4201
  93   2.0000      -0.266885        -7.2623
  94   2.0000      -0.259551        -7.0628
  95   2.0000      -0.232330        -6.3220
  96   2.0000      -0.217836        -5.9276
  97   2.0000      -0.214372        -5.8334
  98   2.0000      -0.206185        -5.6106
  99   2.0000      -0.202628        -5.5138
 100   2.0000      -0.199286        -5.4229
 101   0.0000      -0.045445        -1.2366
 102   0.0000      -0.023067        -0.6277
 103   0.0000      -0.002916        -0.0794
 104   0.0000       0.001042         0.0284
 105   0.0000       0.013011         0.3541

MULLIKEN ATOMIC CHARGES
-----------------------
   0 C :   -0.317041
   1 C :   -0.000548
   2 O :   -0.383159
   3 P :    0.599114
   4 S :   -0.306989
   5 O :   -0.346154
   6 C :   -0.027392
   7 C :   -0.280327
   8 S :   -0.104724
   9 C :   -0.381231
  10 S :   -0.050883
  11 P :    0.637984
  12 S :   -0.333155
  13 O :   -0.374051
  14 C :   -0.018147
  15 C :   -0.309551
  16 O :   -0.381383
  17 C :   -0.014962
  18 C :   -0.298435
  19 H :    0.116510
  20 H :    0.130552
  21 H :    0.114972
  22 H :    0.114469
  23 H :    0.105065
  24 H :    0.116541
  25 H :    0.106719
  26 H :    0.106256
  27 H :    0.116135
  28 H :    0.121627
  29 H :    0.193748
  30 H :    0.194637
  31 H :    0.107047
  32 H :    0.112111
  33 H :    0.123023
  34 H :    0.135375
  35 H :    0.109214
  36 H :    0.113556
  37 H :    0.104119
  38 H :    0.120361
  39 H :    0.113131
  40 H :    0.115868
Sum of atomic charges:   -0.0000000

LOEWDIN ATOMIC CHARGES
----------------------
   0 C :   -0.370866
   1 C :   -0.115553
   2 O :   -0.248641
   3 P :    0.572613
   4 S :   -0.304046
   5 O :   -0.231290
   6 C :   -0.115677
   7 C :   -0.356359
   8 S :    0.070696
   9 C :   -0.490502
  10 S :    0.104409
  11 P :    0.572042
  12 S :   -0.313114
  13 O :   -0.244154
  14 C :   -0.111780
  15 C :   -0.364978
  16 O :   -0.245981
  17 C :   -0.124963
  18 C :   -0.361907
  19 H :    0.122864
  20 H :    0.122609
  21 H :    0.132084
  22 H :    0.114251
  23 H :    0.118490
  24 H :    0.119765
  25 H :    0.101546
  26 H :    0.127789
  27 H :    0.125431
  28 H :    0.129689
  29 H :    0.127824
  30 H :    0.129419
  31 H :    0.109097
  32 H :    0.122536
  33 H :    0.131059
  34 H :    0.122511
  35 H :    0.129303
  36 H :    0.105185
  37 H :    0.111475
  38 H :    0.123134
  39 H :    0.132084
  40 H :    0.121907

  Mayer bond orders larger than 0.100000
B(  0-C ,  1-C ) :   1.1667 B(  0-C , 19-H ) :   0.9435 B(  0-C , 20-H ) :   0.9343
B(  0-C , 21-H ) :   0.9366 B(  1-C ,  2-O ) :   0.9040 B(  1-C , 22-H ) :   0.9192
B(  1-C , 23-H ) :   0.9342 B(  2-O ,  3-P ) :   1.0795 B(  3-P ,  4-S ) :   1.6412
B(  3-P ,  5-O ) :   1.1430 B(  3-P ,  8-S ) :   0.9395 B(  4-S ,  8-S ) :   0.1083
B(  5-O ,  6-C ) :   0.8919 B(  6-C ,  7-C ) :   1.1584 B(  6-C , 24-H ) :   0.9300
B(  6-C , 25-H ) :   0.9057 B(  7-C , 26-H ) :   0.9409 B(  7-C , 27-H ) :   0.9442
B(  7-C , 28-H ) :   0.9470 B(  8-S ,  9-C ) :   0.9972 B(  9-C , 10-S ) :   1.0099
B(  9-C , 29-H ) :   0.8706 B(  9-C , 30-H ) :   0.8768 B( 10-S , 11-P ) :   0.9721
B( 10-S , 12-S ) :   0.1084 B( 11-P , 12-S ) :   1.6009 B( 11-P , 13-O ) :   1.1283
B( 11-P , 16-O ) :   1.0743 B( 13-O , 14-C ) :   0.9089 B( 14-C , 15-C ) :   1.1646
B( 14-C , 31-H ) :   0.9200 B( 14-C , 32-H ) :   0.9352 B( 15-C , 33-H ) :   0.9455
B( 15-C , 34-H ) :   0.9329 B( 15-C , 35-H ) :   0.9382 B( 16-O , 17-C ) :   0.9018
B( 17-C , 18-C ) :   1.1662 B( 17-C , 36-H ) :   0.9028 B( 17-C , 37-H ) :   0.9249
B( 18-C , 38-H ) :   0.9374 B( 18-C , 39-H ) :   0.9388 B( 18-C , 40-H ) :   0.9423

Dispersion correction           -0.065664095
FINAL SINGLE POINT ENERGY     -2929.522712152758

DIPOLE MOMENT
-------------

Method             : SCF
Type of density    : Electron Density
Multiplicity       :   1
Irrep              :   0
Energy             : -2929.6425275121137020 Eh
Relativity type    :
Basis              : AO
                                X                 Y                 Z
Electronic contribution:      7.514620317      18.517302861      -9.428549260
Nuclear contribution   :     -7.901614948     -20.352265833      10.473902483
                        -----------------------------------------
Total Dipole Moment    :     -0.386994631      -1.834962972       1.045353223
                        -----------------------------------------
Magnitude (a.u.)       :      2.147001936
Magnitude (Debye)      :      5.457245227

Rotational constants in cm-1:             0.013466             0.004660             0.004471
Rotational constants in MHz :           403.706463           139.717176           134.023191

                             ****ORCA TERMINATED NORMALLY****
TOTAL RUN TIME: 0 days 0 hours 0 minutes 21 seconds 520 msec
