                         Program Version 6.0.0  -   RELEASE  -
|  1> ! wb97x-v def2-tzvp def2/J RIJCOSX DEFGRID2 scfconv7 GCP(DFT/TZ) printgap
|  2> %output
|  3>     printlevel normal
|  4> end
|  5> * xyz 0 1
|  6> C -1.8480230022331479 -0.7741868777332352 0.3332923938152939
|  7> S -0.8174699381307327 0.6371466650175175 -0.23128129190496477
|  8> S 0.9922952546725359 0.3080949234982638 0.724862286299491
|  9> C 1.8372102584362977 -0.8856267217486159 -0.38571847524981817
| 10> H -1.4056889067012375 -1.7221862516074886 0.01937442248616309
| 11> H -2.822732400686657 -0.65461938836994 -0.15169778430133019
| 12> H -1.975379681383521 -0.7476667218752279 1.4172907386448628
| 13> H 2.810149929092727 -1.0933517992343482 0.07241712158795784
| 14> H 1.986815415192749 -0.4497234187670311 -1.3754962768913452
| 15> H 1.2680836448479302 -1.8152314600167818 -0.45491275633920664
| 16> *
| 17>
| 18>                          ****END OF INPUT****

CARTESIAN COORDINATES (ANGSTROEM)
---------------------------------
  C     -1.848023   -0.774187    0.333292
  S     -0.817470    0.637147   -0.231281
  S      0.992295    0.308095    0.724862
  C      1.837210   -0.885627   -0.385718
  H     -1.405689   -1.722186    0.019374
  H     -2.822732   -0.654619   -0.151698
  H     -1.975380   -0.747667    1.417291
  H      2.810150   -1.093352    0.072417
  H      1.986815   -0.449723   -1.375496
  H      1.268084   -1.815231   -0.454913

 Total Charge           Charge          ....    0
 Multiplicity           Mult            ....    1
 Number of Electrons    NEL             ....   50
 Basis Dimension        Dim             ....  172

ORBITAL ENERGIES
----------------

  NO   OCC          E(Eh)            E(eV)
   0   2.0000     -94.143968     -2561.7876
   1   2.0000     -94.143950     -2561.7871
   2   2.0000     -12.077426      -328.6435
   3   2.0000     -12.077408      -328.6430
   4   2.0000      -9.652671      -262.6625
   5   2.0000      -9.652354      -262.6539
   6   2.0000      -7.633923      -207.7296
   7   2.0000      -7.629323      -207.6044
   8   2.0000      -7.629176      -207.6004
   9   2.0000      -7.627736      -207.5612
  10   2.0000      -7.627668      -207.5594
  11   2.0000      -7.626007      -207.5142
  12   2.0000      -1.312818       -35.7236
  13   2.0000      -1.246723       -33.9250
  14   2.0000      -1.159588       -31.5540
  15   2.0000      -1.071796       -29.1651
  16   2.0000      -0.874517       -23.7968
  17   2.0000      -0.858475       -23.3603
  18   2.0000      -0.857548       -23.3351
  19   2.0000      -0.847781       -23.0693
  20   2.0000      -0.831217       -22.6186
  21   2.0000      -0.790334       -21.5061
  22   2.0000      -0.742229       -20.1971
  23   2.0000      -0.659847       -17.9554
  24   2.0000      -0.647544       -17.6206
  25   0.0000      -0.292322        -7.9545
  26   0.0000      -0.199342        -5.4244
  27   0.0000      -0.195447        -5.3184
  28   0.0000      -0.017278        -0.4702
  29   0.0000       0.008569         0.2332

MULLIKEN ATOMIC CHARGES
-----------------------
   0 C :   -0.320434
   1 S :   -0.071797
   2 S :   -0.071592
   3 C :   -0.320466
   4 H :    0.123546
   5 H :    0.130845
   6 H :    0.137743
   7 H :    0.130907
   8 H :    0.137846
   9 H :    0.123403
Sum of atomic charges:   -0.0000000

LOEWDIN ATOMIC CHARGES
----------------------
   0 C :   -0.532612
   1 S :    0.220671
   2 S :    0.220731
   3 C :   -0.532700
   4 H :    0.099400
   5 H :    0.109560
   6 H :    0.103002
   7 H :    0.109601
   8 H :    0.103049
   9 H :    0.099298

  Mayer bond orders larger than 0.100000
B(  0-C ,  1-S ) :   1.0212 B(  0-C ,  4-H ) :   0.9677 B(  0-C ,  5-H ) :   0.9567
B(  0-C ,  6-H ) :   0.9677 B(  1-S ,  2-S ) :   1.1721 B(  2-S ,  3-C ) :   1.0216
B(  3-C ,  7-H ) :   0.9568 B(  3-C ,  8-H ) :   0.9677 B(  3-C ,  9-H ) :   0.9677

FINAL SINGLE POINT ENERGY      -876.115643741811

DIPOLE MOMENT
-------------

Method             : SCF
Type of density    : Electron Density
Multiplicity       :   1
Irrep              :   0
Energy             :  -876.1219516516110843 Eh
Relativity type    :
Basis              : AO
                                X                 Y                 Z
Electronic contribution:      0.392133462       5.510969479       1.155422746
Nuclear contribution   :     -0.450799861      -6.336115448      -1.328593818
                        -----------------------------------------
Total Dipole Moment    :     -0.058666399      -0.825145969      -0.173171072
                        -----------------------------------------
Magnitude (a.u.)       :      0.845160244
Magnitude (Debye)      :      2.148226617

Rotational constants in cm-1:             0.264821             0.090948             0.082595
Rotational constants in MHz :          7939.138995          2726.544224          2476.142318

                             ****ORCA TERMINATED NORMALLY****
TOTAL RUN TIME: 0 days 0 hours 0 minutes 44 seconds 879 msec
