                         Program Version 6.0.0  -   RELEASE  -
|  1> ! wb97x-v def2-tzvp def2/J RIJCOSX DEFGRID2 scfconv7 GCP(DFT/TZ) printgap
|  2> %output
|  3>     printlevel normal
|  4> end
|  5> %cpcm
|  6>     smd true
|  7>     smdsolvent "water"
|  8> end
|  9> * xyz 0 1
| 10> C -1.8480230022331479 -0.7741868777332352 0.3332923938152939
| 11> S -0.8174699381307327 0.6371466650175175 -0.23128129190496477
| 12> S 0.9922952546725359 0.3080949234982638 0.724862286299491
| 13> C 1.8372102584362977 -0.8856267217486159 -0.38571847524981817
| 14> H -1.4056889067012375 -1.7221862516074886 0.01937442248616309
| 15> H -2.822732400686657 -0.65461938836994 -0.15169778430133019
| 16> H -1.975379681383521 -0.7476667218752279 1.4172907386448628
| 17> H 2.810149929092727 -1.0933517992343482 0.07241712158795784
| 18> H 1.986815415192749 -0.4497234187670311 -1.3754962768913452
| 19> H 1.2680836448479302 -1.8152314600167818 -0.45491275633920664
| 20> *
| 21>
| 22>                          ****END OF INPUT****

CARTESIAN COORDINATES (ANGSTROEM)
---------------------------------
  C     -1.848023   -0.774187    0.333292
  S     -0.817470    0.637147   -0.231281
  S      0.992295    0.308095    0.724862
  C      1.837210   -0.885627   -0.385718
  H     -1.405689   -1.722186    0.019374
  H     -2.822732   -0.654619   -0.151698
  H     -1.975380   -0.747667    1.417291
  H      2.810150   -1.093352    0.072417
  H      1.986815   -0.449723   -1.375496
  H      1.268084   -1.815231   -0.454913

 Total Charge           Charge          ....    0
 Multiplicity           Mult            ....    1
 Number of Electrons    NEL             ....   50
 Basis Dimension        Dim             ....  172

ORBITAL ENERGIES
----------------

  NO   OCC          E(Eh)            E(eV)
   0   2.0000     -94.141899     -2561.7313
   1   2.0000     -94.141882     -2561.7308
   2   2.0000     -12.064691      -328.2969
   3   2.0000     -12.064674      -328.2965
   4   2.0000      -9.650665      -262.6079
   5   2.0000      -9.650357      -262.5996
   6   2.0000      -7.632026      -207.6780
   7   2.0000      -7.627267      -207.5485
   8   2.0000      -7.627117      -207.5444
   9   2.0000      -7.625916      -207.5117
  10   2.0000      -7.625848      -207.5099
  11   2.0000      -7.624132      -207.4632
  12   2.0000      -1.308502       -35.6061
  13   2.0000      -1.237756       -33.6811
  14   2.0000      -1.149487       -31.2791
  15   2.0000      -1.065064       -28.9819
  16   2.0000      -0.865053       -23.5393
  17   2.0000      -0.846164       -23.0253
  18   2.0000      -0.845433       -23.0054
  19   2.0000      -0.833755       -22.6876
  20   2.0000      -0.821490       -22.3539
  21   2.0000      -0.785136       -21.3646
  22   2.0000      -0.738998       -20.1092
  23   2.0000      -0.657608       -17.8944
  24   2.0000      -0.645376       -17.5616
  25   0.0000      -0.290322        -7.9001
  26   0.0000      -0.193425        -5.2634
  27   0.0000      -0.189643        -5.1604
  28   0.0000      -0.000875        -0.0238
  29   0.0000       0.021505         0.5852

MULLIKEN ATOMIC CHARGES
-----------------------
   0 C :   -0.356185
   1 S :   -0.112911
   2 S :   -0.112718
   3 C :   -0.356067
   4 H :    0.155969
   5 H :    0.159804
   6 H :    0.153185
   7 H :    0.160034
   8 H :    0.153137
   9 H :    0.155752
Sum of atomic charges:   -0.0000000

LOEWDIN ATOMIC CHARGES
----------------------
   0 C :   -0.528000
   1 S :    0.194079
   2 S :    0.194144
   3 C :   -0.528047
   4 H :    0.108551
   5 H :    0.118029
   6 H :    0.107334
   7 H :    0.118109
   8 H :    0.107348
   9 H :    0.108452

  Mayer bond orders larger than 0.100000
B(  0-C ,  1-S ) :   1.0103 B(  0-C ,  4-H ) :   0.9620 B(  0-C ,  5-H ) :   0.9485
B(  0-C ,  6-H ) :   0.9636 B(  1-S ,  2-S ) :   1.1664 B(  2-S ,  3-C ) :   1.0108
B(  3-C ,  7-H ) :   0.9484 B(  3-C ,  8-H ) :   0.9635 B(  3-C ,  9-H ) :   0.9620

FINAL SINGLE POINT ENERGY      -876.118308076510

DIPOLE MOMENT
-------------

Method             : SCF
Type of density    : Electron Density
Multiplicity       :   1
Irrep              :   0
Energy             :  -876.1246159863095500 Eh
Relativity type    :
Basis              : AO
                                X                 Y                 Z
Electronic contribution:      0.368620068       5.173780587       1.084933805
Nuclear contribution   :     -0.450799861      -6.336115448      -1.328593818
                        -----------------------------------------
Total Dipole Moment    :     -0.082179792      -1.162334862      -0.243660013
                        -----------------------------------------
Magnitude (a.u.)       :      1.190439436
Magnitude (Debye)      :      3.025856578

Rotational constants in cm-1:             0.264821             0.090948             0.082595
Rotational constants in MHz :          7939.138995          2726.544224          2476.142318

                             ****ORCA TERMINATED NORMALLY****
TOTAL RUN TIME: 0 days 0 hours 0 minutes 47 seconds 368 msec
