                         Program Version 6.0.0  -   RELEASE  -
|  1> ! pbe def2-sv(p) def2/J RI DEFGRID1 loosescf d4 GCP(DFT/SV(P)) printgap
|  2> %output
|  3>     printlevel normal
|  4> end
|  5> * xyz 0 1
|  6> C 3.7912903131 1.3731537923 -1.5593508484
|  7> C 2.3567081097 1.6197090753 -1.144222602
|  8> O 1.6690655093 0.3930208029 -0.8376930036
|  9> P 2.0336680166 -0.5086100337 0.4120462407
| 10> S 2.677214326 0.4388999229 2.0067373971
| 11> O 3.0586999586 -1.5466374426 -0.2160505179
| 12> C 3.897262851 -2.3879380843 0.5965330713
| 13> C 3.0996721645 -3.4342745023 1.3480358622
| 14> S 0.240820077 -1.5923662338 0.5901188856
| 15> C -0.6076150814 -0.4213132174 1.6881045293
| 16> S -0.8921241593 1.2077130249 0.9400015021
| 17> P -2.0118860687 0.6462831974 -0.7740234614
| 18> S -1.1577900051 -0.0185346958 -2.3995225392
| 19> O -2.7867564416 1.9843425454 -1.116939783
| 20> C -3.6221525722 2.6970771224 -0.1696801992
| 21> C -2.9432120407 3.9787006046 0.2699992639
| 22> O -3.089324678 -0.3269071811 -0.1066842654
| 23> C -3.5201667887 -1.5854576079 -0.6665067318
| 24> C -3.2081493366 -2.7188000604 0.290177731
| 25> H 4.355381991 0.9712042012 -0.7181354345
| 26> H 3.8250281472 0.6608049651 -2.3797877433
| 27> H 4.2412367148 2.3101021927 -1.8722193207
| 28> H 1.7656456142 2.0511971407 -1.9543146314
| 29> H 2.3098775761 2.2696977964 -0.2635681175
| 30> H 4.5845169842 -2.8404170508 -0.1195044014
| 31> H 4.4503705548 -1.7513661139 1.2947913783
| 32> H 3.7820219839 -4.1182434417 1.8424364798
| 33> H 2.4719017248 -2.9565912065 2.0992127173
| 34> H 2.4646324368 -3.9894293377 0.661934895
| 35> H 0.0100612467 -0.2333233015 2.566685571
| 36> H -1.5583815738 -0.8721664178 1.9599679338
| 37> H -4.5440550339 2.9057023699 -0.7150576636
| 38> H -3.8354594551 2.0458229008 0.6807078713
| 39> H -2.7015959302 4.5871213006 -0.597038237
| 40> H -3.61340896 4.5307491639 0.9212018397
| 41> H -2.024433935 3.7567926761 0.8090011274
| 42> H -4.5958465323 -1.4849819729 -0.8240043298
| 43> H -3.0223864144 -1.731448317 -1.6308439663
| 44> H -3.6576763333 -2.5263840326 1.2603432198
| 45> H -3.6167830582 -3.6390708813 -0.1141921322
| 46> H -2.1319947818 -2.8335541948 0.4072726895
| 47> *
| 48>
| 49>                          ****END OF INPUT****

CARTESIAN COORDINATES (ANGSTROEM)
---------------------------------
  C      3.791290    1.373154   -1.559351
  C      2.356708    1.619709   -1.144223
  O      1.669066    0.393021   -0.837693
  P      2.033668   -0.508610    0.412046
  S      2.677214    0.438900    2.006737
  O      3.058700   -1.546637   -0.216051
  C      3.897263   -2.387938    0.596533
  C      3.099672   -3.434275    1.348036
  S      0.240820   -1.592366    0.590119
  C     -0.607615   -0.421313    1.688105
  S     -0.892124    1.207713    0.940002
  P     -2.011886    0.646283   -0.774023
  S     -1.157790   -0.018535   -2.399523
  O     -2.786756    1.984343   -1.116940
  C     -3.622153    2.697077   -0.169680
  C     -2.943212    3.978701    0.269999
  O     -3.089325   -0.326907   -0.106684
  C     -3.520167   -1.585458   -0.666507
  C     -3.208149   -2.718800    0.290178
  H      4.355382    0.971204   -0.718135
  H      3.825028    0.660805   -2.379788
  H      4.241237    2.310102   -1.872219
  H      1.765646    2.051197   -1.954315
  H      2.309878    2.269698   -0.263568
  H      4.584517   -2.840417   -0.119504
  H      4.450371   -1.751366    1.294791
  H      3.782022   -4.118243    1.842436
  H      2.471902   -2.956591    2.099213
  H      2.464632   -3.989429    0.661935
  H      0.010061   -0.233323    2.566686
  H     -1.558382   -0.872166    1.959968
  H     -4.544055    2.905702   -0.715058
  H     -3.835459    2.045823    0.680708
  H     -2.701596    4.587121   -0.597038
  H     -3.613409    4.530749    0.921202
  H     -2.024434    3.756793    0.809001
  H     -4.595847   -1.484982   -0.824004
  H     -3.022386   -1.731448   -1.630844
  H     -3.657676   -2.526384    1.260343
  H     -3.616783   -3.639071   -0.114192
  H     -2.131995   -2.833554    0.407273

 Total Charge           Charge          ....    0
 Multiplicity           Mult            ....    1
 Number of Electrons    NEL             ....  202
 Basis Dimension        Dim             ....  334

ORBITAL ENERGIES
----------------

  NO   OCC          E(Eh)            E(eV)
   0   2.0000     -88.043812     -2395.7939
   1   2.0000     -88.041248     -2395.7241
   2   2.0000     -87.987914     -2394.2728
   3   2.0000     -87.975542     -2393.9362
   4   2.0000     -76.424748     -2079.6231
   5   2.0000     -76.421361     -2079.5310
   6   2.0000     -18.792593      -511.3725
   7   2.0000     -18.792495      -511.3698
   8   2.0000     -18.787898      -511.2447
   9   2.0000     -18.780597      -511.0460
  10   2.0000      -9.958657      -270.9888
  11   2.0000      -9.954535      -270.8767
  12   2.0000      -9.952461      -270.8202
  13   2.0000      -9.951700      -270.7995
  14   2.0000      -9.941206      -270.5140
  15   2.0000      -9.889756      -269.1140
  16   2.0000      -9.886531      -269.0262
  17   2.0000      -9.884745      -268.9776
  18   2.0000      -9.876782      -268.7609
  19   2.0000      -7.688611      -209.2178
  20   2.0000      -7.686018      -209.1472
  21   2.0000      -7.632847      -207.7003
  22   2.0000      -7.620944      -207.3764
  23   2.0000      -6.422250      -174.7583
  24   2.0000      -6.418827      -174.6652
  25   2.0000      -5.716456      -155.5527
  26   2.0000      -5.714041      -155.4870
  27   2.0000      -5.713286      -155.4664
  28   2.0000      -5.710394      -155.3877
  29   2.0000      -5.705429      -155.2526
  30   2.0000      -5.702998      -155.1865
  31   2.0000      -5.661563      -154.0590
  32   2.0000      -5.653621      -153.8429
  33   2.0000      -5.653090      -153.8284
  34   2.0000      -5.650055      -153.7458
  35   2.0000      -5.641404      -153.5104
  36   2.0000      -5.640993      -153.4992
  37   2.0000      -4.644588      -126.3857
  38   2.0000      -4.643944      -126.3681
  39   2.0000      -4.643012      -126.3428
  40   2.0000      -4.641958      -126.3141
  41   2.0000      -4.640389      -126.2714
  42   2.0000      -4.638981      -126.2331
  43   2.0000      -0.983115       -26.7519
  44   2.0000      -0.981871       -26.7181
  45   2.0000      -0.942133       -25.6367
  46   2.0000      -0.941210       -25.6116
  47   2.0000      -0.764767       -20.8104
  48   2.0000      -0.720345       -19.6016
  49   2.0000      -0.707607       -19.2550
  50   2.0000      -0.692490       -18.8436
  51   2.0000      -0.684005       -18.6127
  52   2.0000      -0.671190       -18.2640
  53   2.0000      -0.648144       -17.6369
  54   2.0000      -0.637437       -17.3455
  55   2.0000      -0.599720       -16.3192
  56   2.0000      -0.586815       -15.9681
  57   2.0000      -0.573650       -15.6098
  58   2.0000      -0.568628       -15.4731
  59   2.0000      -0.562165       -15.2973
  60   2.0000      -0.505203       -13.7473
  61   2.0000      -0.489517       -13.3204
  62   2.0000      -0.478012       -13.0074
  63   2.0000      -0.470443       -12.8014
  64   2.0000      -0.456527       -12.4227
  65   2.0000      -0.443010       -12.0549
  66   2.0000      -0.437909       -11.9161
  67   2.0000      -0.433692       -11.8013
  68   2.0000      -0.429701       -11.6928
  69   2.0000      -0.413069       -11.2402
  70   2.0000      -0.409034       -11.1304
  71   2.0000      -0.391167       -10.6442
  72   2.0000      -0.387315       -10.5394
  73   2.0000      -0.383739       -10.4421
  74   2.0000      -0.379562       -10.3284
  75   2.0000      -0.378165       -10.2904
  76   2.0000      -0.371078       -10.0975
  77   2.0000      -0.358906        -9.7663
  78   2.0000      -0.356191        -9.6924
  79   2.0000      -0.351549        -9.5661
  80   2.0000      -0.350351        -9.5335
  81   2.0000      -0.344848        -9.3838
  82   2.0000      -0.339315        -9.2332
  83   2.0000      -0.337212        -9.1760
  84   2.0000      -0.333432        -9.0731
  85   2.0000      -0.318680        -8.6717
  86   2.0000      -0.309288        -8.4161
  87   2.0000      -0.300280        -8.1710
  88   2.0000      -0.294454        -8.0125
  89   2.0000      -0.283638        -7.7182
  90   2.0000      -0.277748        -7.5579
  91   2.0000      -0.270509        -7.3609
  92   2.0000      -0.266587        -7.2542
  93   2.0000      -0.264307        -7.1921
  94   2.0000      -0.261490        -7.1155
  95   2.0000      -0.235376        -6.4049
  96   2.0000      -0.218394        -5.9428
  97   2.0000      -0.208642        -5.6774
  98   2.0000      -0.205022        -5.5789
  99   2.0000      -0.192269        -5.2319
 100   2.0000      -0.186557        -5.0765
 101   0.0000      -0.047982        -1.3057
 102   0.0000      -0.023827        -0.6484
 103   0.0000      -0.006799        -0.1850
 104   0.0000       0.002854         0.0777
 105   0.0000       0.018927         0.5150

MULLIKEN ATOMIC CHARGES
-----------------------
   0 C :   -0.309868
   1 C :    0.002728
   2 O :   -0.343168
   3 P :    0.630551
   4 S :   -0.343753
   5 O :   -0.368086
   6 C :   -0.004411
   7 C :   -0.315943
   8 S :   -0.090003
   9 C :   -0.354382
  10 S :   -0.101685
  11 P :    0.609526
  12 S :   -0.289457
  13 O :   -0.362453
  14 C :   -0.019637
  15 C :   -0.292777
  16 O :   -0.397718
  17 C :   -0.006901
  18 C :   -0.314544
  19 H :    0.117769
  20 H :    0.119414
  21 H :    0.109916
  22 H :    0.108234
  23 H :    0.107162
  24 H :    0.107300
  25 H :    0.111118
  26 H :    0.113386
  27 H :    0.124365
  28 H :    0.119316
  29 H :    0.191449
  30 H :    0.187310
  31 H :    0.108815
  32 H :    0.105866
  33 H :    0.120766
  34 H :    0.109779
  35 H :    0.127909
  36 H :    0.101490
  37 H :    0.115931
  38 H :    0.116170
  39 H :    0.114981
  40 H :    0.133534
Sum of atomic charges:    0.0000000

LOEWDIN ATOMIC CHARGES
----------------------
   0 C :   -0.365107
   1 C :   -0.116624
   2 O :   -0.226390
   3 P :    0.575889
   4 S :   -0.329809
   5 O :   -0.240404
   6 C :   -0.118868
   7 C :   -0.369876
   8 S :    0.103460
   9 C :   -0.477368
  10 S :    0.085469
  11 P :    0.559061
  12 S :   -0.294711
  13 O :   -0.244745
  14 C :   -0.119286
  15 C :   -0.359453
  16 O :   -0.261625
  17 C :   -0.118672
  18 C :   -0.361142
  19 H :    0.119776
  20 H :    0.127454
  21 H :    0.129261
  22 H :    0.120137
  23 H :    0.108488
  24 H :    0.119745
  25 H :    0.110557
  26 H :    0.131248
  27 H :    0.120034
  28 H :    0.124875
  29 H :    0.131335
  30 H :    0.131370
  31 H :    0.120358
  32 H :    0.107897
  33 H :    0.129183
  34 H :    0.129955
  35 H :    0.120520
  36 H :    0.115397
  37 H :    0.109271
  38 H :    0.123373
  39 H :    0.133467
  40 H :    0.116501

  Mayer bond orders larger than 0.100000
B(  0-C ,  1-C ) :   1.1636 B(  0-C , 19-H ) :   0.9376 B(  0-C , 20-H ) :   0.9458
B(  0-C , 21-H ) :   0.9399 B(  1-C ,  2-O ) :   0.9062 B(  1-C , 22-H ) :   0.9295
B(  1-C , 23-H ) :   0.9192 B(  2-O ,  3-P ) :   1.1499 B(  3-P ,  4-S ) :   1.5815
B(  3-P ,  5-O ) :   1.1131 B(  3-P ,  8-S ) :   0.9502 B(  4-S ,  8-S ) :   0.1058
B(  5-O ,  6-C ) :   0.9081 B(  6-C ,  7-C ) :   1.1662 B(  6-C , 24-H ) :   0.9337
B(  6-C , 25-H ) :   0.9157 B(  7-C , 26-H ) :   0.9378 B(  7-C , 27-H ) :   0.9354
B(  7-C , 28-H ) :   0.9445 B(  8-S ,  9-C ) :   1.0123 B(  9-C , 10-S ) :   0.9971
B(  9-C , 29-H ) :   0.8842 B(  9-C , 30-H ) :   0.8985 B( 10-S , 11-P ) :   0.9496
B( 10-S , 12-S ) :   0.1046 B( 11-P , 12-S ) :   1.6797 B( 11-P , 13-O ) :   1.1289
B( 11-P , 16-O ) :   1.0562 B( 13-O , 14-C ) :   0.8969 B( 14-C , 15-C ) :   1.1647
B( 14-C , 31-H ) :   0.9328 B( 14-C , 32-H ) :   0.9161 B( 15-C , 33-H ) :   0.9461
B( 15-C , 34-H ) :   0.9398 B( 15-C , 35-H ) :   0.9392 B( 16-O , 17-C ) :   0.9066
B( 17-C , 18-C ) :   1.1668 B( 17-C , 36-H ) :   0.9339 B( 17-C , 37-H ) :   0.8973
B( 18-C , 38-H ) :   0.9441 B( 18-C , 39-H ) :   0.9377 B( 18-C , 40-H ) :   0.9321

Dispersion correction           -0.066709118
FINAL SINGLE POINT ENERGY     -2929.519102238485

DIPOLE MOMENT
-------------

Method             : SCF
Type of density    : Electron Density
Multiplicity       :   1
Irrep              :   0
Energy             : -2929.6368187948751256 Eh
Relativity type    :
Basis              : AO
                                X                 Y                 Z
Electronic contribution:      0.330425096       2.425012919      -2.761828566
Nuclear contribution   :     -1.038561110      -2.825819038       3.366713624
                        -----------------------------------------
Total Dipole Moment    :     -0.708136013      -0.400806119       0.604885058
                        -----------------------------------------
Magnitude (a.u.)       :      1.013897476
Magnitude (Debye)      :      2.577122577

Rotational constants in cm-1:             0.011698             0.005492             0.004795
Rotational constants in MHz :           350.693048           164.649534           143.735578

                             ****ORCA TERMINATED NORMALLY****
TOTAL RUN TIME: 0 days 0 hours 0 minutes 21 seconds 314 msec
