                         Program Version 6.0.0  -   RELEASE  -
|  1> ! pbe def2-sv(p) def2/J RI DEFGRID1 loosescf d4 GCP(DFT/SV(P)) printgap
|  2> %output
|  3>     printlevel normal
|  4> end
|  5> * xyz 0 1
|  6> C 2.5613101441 -0.9575033086 -2.899931141
|  7> C 3.1801302914 0.1163049332 -2.0262466162
|  8> O 2.2156199082 0.644424932 -1.0819335947
|  9> P 2.0409094711 0.1922615248 0.4160508799
| 10> S 0.8012539264 1.4170819951 1.3072437874
| 11> O 3.5430324215 0.1950565535 0.9353487214
| 12> C 4.0207918164 -0.5041019841 2.1009760548
| 13> C 3.223123688 -0.1831593553 3.3469201559
| 14> S 1.5732567431 -1.8840476285 0.45515459
| 15> C -0.0328909001 -1.8683699104 -0.377773434
| 16> S -1.4045615989 -1.2437991621 0.6442199028
| 17> P -2.0301544829 0.4055339648 -0.5531624991
| 18> S -0.9421757405 0.8156570898 -2.1233161455
| 19> O -2.2172835489 1.6194040765 0.4261791519
| 20> C -2.963552135 1.5282843028 1.6669526274
| 21> C -2.5425149636 2.6886033989 2.5425769365
| 22> O -3.5591967683 0.077279211 -0.8900313412
| 23> C -3.9771421528 -0.686738972 -2.0333158053
| 24> C -3.5229055106 -2.1309773321 -1.9679052319
| 25> H 3.2432246133 -1.1843863335 -3.71322166
| 26> H 2.3774482158 -1.8653380295 -2.3306612398
| 27> H 1.622554624 -0.5953606521 -3.3146324229
| 28> H 3.4639823179 0.9876355374 -2.6185919626
| 29> H 4.0468351342 -0.2564488704 -1.4775274708
| 30> H 3.9922355338 -1.5764396619 1.8888563775
| 31> H 5.055758563 -0.1694994734 2.1920526201
| 32> H 2.1963074912 -0.5293347584 3.2351824201
| 33> H 3.6734146479 -0.6787236067 4.2008549628
| 34> H 3.2043374332 0.8905001857 3.519455336
| 35> H -0.2415238168 -2.9095980526 -0.6102187201
| 36> H 0.0279699877 -1.2537812853 -1.2808374939
| 37> H -4.0261800247 1.5655898786 1.4180566058
| 38> H -2.7324308863 0.5705963855 2.1428404131
| 39> H -2.7691504866 3.6299906578 2.0506294502
| 40> H -3.0713018153 2.6338274585 3.4883055117
| 41> H -1.4705556007 2.6395768799 2.7211781567
| 42> H -5.06490616 -0.6054480944 -2.0116659237
| 43> H -3.5857112584 -0.2004266527 -2.9323150662
| 44> H -3.7983100052 -2.5718093302 -1.0131902394
| 45> H -3.9933178026 -2.6878766184 -2.7718467629
| 46> H -2.4422884736 -2.1851283667 -2.0882834569
| 47> *
| 48>
| 49>                          ****END OF INPUT****

CARTESIAN COORDINATES (ANGSTROEM)
---------------------------------
  C      2.561310   -0.957503   -2.899931
  C      3.180130    0.116305   -2.026247
  O      2.215620    0.644425   -1.081934
  P      2.040909    0.192262    0.416051
  S      0.801254    1.417082    1.307244
  O      3.543032    0.195057    0.935349
  C      4.020792   -0.504102    2.100976
  C      3.223124   -0.183159    3.346920
  S      1.573257   -1.884048    0.455155
  C     -0.032891   -1.868370   -0.377773
  S     -1.404562   -1.243799    0.644220
  P     -2.030154    0.405534   -0.553162
  S     -0.942176    0.815657   -2.123316
  O     -2.217284    1.619404    0.426179
  C     -2.963552    1.528284    1.666953
  C     -2.542515    2.688603    2.542577
  O     -3.559197    0.077279   -0.890031
  C     -3.977142   -0.686739   -2.033316
  C     -3.522906   -2.130977   -1.967905
  H      3.243225   -1.184386   -3.713222
  H      2.377448   -1.865338   -2.330661
  H      1.622555   -0.595361   -3.314632
  H      3.463982    0.987636   -2.618592
  H      4.046835   -0.256449   -1.477527
  H      3.992236   -1.576440    1.888856
  H      5.055759   -0.169499    2.192053
  H      2.196307   -0.529335    3.235182
  H      3.673415   -0.678724    4.200855
  H      3.204337    0.890500    3.519455
  H     -0.241524   -2.909598   -0.610219
  H      0.027970   -1.253781   -1.280837
  H     -4.026180    1.565590    1.418057
  H     -2.732431    0.570596    2.142840
  H     -2.769150    3.629991    2.050629
  H     -3.071302    2.633827    3.488306
  H     -1.470556    2.639577    2.721178
  H     -5.064906   -0.605448   -2.011666
  H     -3.585711   -0.200427   -2.932315
  H     -3.798310   -2.571809   -1.013190
  H     -3.993318   -2.687877   -2.771847
  H     -2.442288   -2.185128   -2.088283

 Total Charge           Charge          ....    0
 Multiplicity           Mult            ....    1
 Number of Electrons    NEL             ....  202
 Basis Dimension        Dim             ....  334

ORBITAL ENERGIES
----------------

  NO   OCC          E(Eh)            E(eV)
   0   2.0000     -88.043218     -2395.7778
   1   2.0000     -88.037043     -2395.6097
   2   2.0000     -87.982321     -2394.1207
   3   2.0000     -87.971367     -2393.8226
   4   2.0000     -76.419831     -2079.4893
   5   2.0000     -76.419604     -2079.4832
   6   2.0000     -18.788615      -511.2642
   7   2.0000     -18.782992      -511.1112
   8   2.0000     -18.781868      -511.0806
   9   2.0000     -18.780295      -511.0378
  10   2.0000      -9.957888      -270.9679
  11   2.0000      -9.956858      -270.9399
  12   2.0000      -9.950988      -270.7801
  13   2.0000      -9.950571      -270.7688
  14   2.0000      -9.948439      -270.7108
  15   2.0000      -9.884093      -268.9599
  16   2.0000      -9.882213      -268.9087
  17   2.0000      -9.881194      -268.8810
  18   2.0000      -9.879511      -268.8352
  19   2.0000      -7.688179      -209.2060
  20   2.0000      -7.681868      -209.0343
  21   2.0000      -7.627477      -207.5542
  22   2.0000      -7.616359      -207.2517
  23   2.0000      -6.417194      -174.6207
  24   2.0000      -6.416716      -174.6077
  25   2.0000      -5.715785      -155.5344
  26   2.0000      -5.712645      -155.4490
  27   2.0000      -5.709740      -155.3699
  28   2.0000      -5.706489      -155.2815
  29   2.0000      -5.705480      -155.2540
  30   2.0000      -5.698755      -155.0710
  31   2.0000      -5.656347      -153.9170
  32   2.0000      -5.648289      -153.6977
  33   2.0000      -5.647403      -153.6736
  34   2.0000      -5.645469      -153.6210
  35   2.0000      -5.636898      -153.3878
  36   2.0000      -5.636411      -153.3745
  37   2.0000      -4.639857      -126.2569
  38   2.0000      -4.639732      -126.2535
  39   2.0000      -4.638847      -126.2294
  40   2.0000      -4.638790      -126.2279
  41   2.0000      -4.637774      -126.2002
  42   2.0000      -4.636482      -126.1651
  43   2.0000      -0.982401       -26.7325
  44   2.0000      -0.979530       -26.6544
  45   2.0000      -0.938588       -25.5403
  46   2.0000      -0.934657       -25.4333
  47   2.0000      -0.759180       -20.6583
  48   2.0000      -0.716532       -19.4978
  49   2.0000      -0.709219       -19.2988
  50   2.0000      -0.687509       -18.7081
  51   2.0000      -0.684299       -18.6207
  52   2.0000      -0.675766       -18.3885
  53   2.0000      -0.646830       -17.6011
  54   2.0000      -0.631707       -17.1896
  55   2.0000      -0.589556       -16.0426
  56   2.0000      -0.582565       -15.8524
  57   2.0000      -0.573386       -15.6026
  58   2.0000      -0.565792       -15.3960
  59   2.0000      -0.564652       -15.3649
  60   2.0000      -0.502601       -13.6765
  61   2.0000      -0.497150       -13.5282
  62   2.0000      -0.467939       -12.7333
  63   2.0000      -0.467068       -12.7096
  64   2.0000      -0.452846       -12.3226
  65   2.0000      -0.448186       -12.1958
  66   2.0000      -0.436044       -11.8654
  67   2.0000      -0.433888       -11.8067
  68   2.0000      -0.430496       -11.7144
  69   2.0000      -0.418923       -11.3995
  70   2.0000      -0.410002       -11.1567
  71   2.0000      -0.397335       -10.8120
  72   2.0000      -0.388660       -10.5760
  73   2.0000      -0.384797       -10.4709
  74   2.0000      -0.381950       -10.3934
  75   2.0000      -0.359838        -9.7917
  76   2.0000      -0.352986        -9.6052
  77   2.0000      -0.352419        -9.5898
  78   2.0000      -0.350871        -9.5477
  79   2.0000      -0.348761        -9.4903
  80   2.0000      -0.342835        -9.3290
  81   2.0000      -0.340734        -9.2718
  82   2.0000      -0.340337        -9.2610
  83   2.0000      -0.335641        -9.1333
  84   2.0000      -0.328743        -8.9456
  85   2.0000      -0.316031        -8.5996
  86   2.0000      -0.310309        -8.4440
  87   2.0000      -0.294271        -8.0075
  88   2.0000      -0.293716        -7.9924
  89   2.0000      -0.289484        -7.8773
  90   2.0000      -0.286703        -7.8016
  91   2.0000      -0.271196        -7.3796
  92   2.0000      -0.264503        -7.1975
  93   2.0000      -0.257639        -7.0107
  94   2.0000      -0.253523        -6.8987
  95   2.0000      -0.237610        -6.4657
  96   2.0000      -0.215096        -5.8531
  97   2.0000      -0.202400        -5.5076
  98   2.0000      -0.199208        -5.4207
  99   2.0000      -0.182559        -4.9677
 100   2.0000      -0.181248        -4.9320
 101   0.0000      -0.038110        -1.0370
 102   0.0000      -0.029299        -0.7973
 103   0.0000      -0.013905        -0.3784
 104   0.0000       0.001668         0.0454
 105   0.0000       0.020721         0.5639

MULLIKEN ATOMIC CHARGES
-----------------------
   0 C :   -0.313578
   1 C :   -0.003347
   2 O :   -0.344164
   3 P :    0.604128
   4 S :   -0.304565
   5 O :   -0.381922
   6 C :   -0.015269
   7 C :   -0.308951
   8 S :   -0.128640
   9 C :   -0.362825
  10 S :   -0.100663
  11 P :    0.611774
  12 S :   -0.296632
  13 O :   -0.349376
  14 C :   -0.017003
  15 C :   -0.286020
  16 O :   -0.388487
  17 C :    0.007150
  18 C :   -0.321017
  19 H :    0.108943
  20 H :    0.116963
  21 H :    0.138851
  22 H :    0.111534
  23 H :    0.100564
  24 H :    0.113587
  25 H :    0.109834
  26 H :    0.128112
  27 H :    0.109404
  28 H :    0.128072
  29 H :    0.182953
  30 H :    0.207965
  31 H :    0.107307
  32 H :    0.110229
  33 H :    0.120085
  34 H :    0.106608
  35 H :    0.139023
  36 H :    0.101891
  37 H :    0.107850
  38 H :    0.119568
  39 H :    0.110605
  40 H :    0.119459
Sum of atomic charges:   -0.0000000

LOEWDIN ATOMIC CHARGES
----------------------
   0 C :   -0.368314
   1 C :   -0.109572
   2 O :   -0.226147
   3 P :    0.560450
   4 S :   -0.301667
   5 O :   -0.247295
   6 C :   -0.115392
   7 C :   -0.370797
   8 S :    0.058858
   9 C :   -0.482900
  10 S :    0.069803
  11 P :    0.574140
  12 S :   -0.288455
  13 O :   -0.226472
  14 C :   -0.111774
  15 C :   -0.351134
  16 O :   -0.258443
  17 C :   -0.116350
  18 C :   -0.370665
  19 H :    0.129199
  20 H :    0.116418
  21 H :    0.130144
  22 H :    0.123425
  23 H :    0.108356
  24 H :    0.106770
  25 H :    0.121567
  26 H :    0.122230
  27 H :    0.129086
  28 H :    0.131014
  29 H :    0.135486
  30 H :    0.120652
  31 H :    0.114137
  32 H :    0.105993
  33 H :    0.129551
  34 H :    0.128545
  35 H :    0.130408
  36 H :    0.117507
  37 H :    0.109937
  38 H :    0.124227
  39 H :    0.129418
  40 H :    0.118055

  Mayer bond orders larger than 0.100000
B(  0-C ,  1-C ) :   1.1714 B(  0-C , 19-H ) :   0.9380 B(  0-C , 20-H ) :   0.9327
B(  0-C , 21-H ) :   0.9337 B(  1-C ,  2-O ) :   0.9005 B(  1-C , 22-H ) :   0.9349
B(  1-C , 23-H ) :   0.9194 B(  2-O ,  3-P ) :   1.1398 B(  3-P ,  4-S ) :   1.6753
B(  3-P ,  5-O ) :   1.0767 B(  3-P ,  8-S ) :   0.9327 B(  4-S ,  8-S ) :   0.1140
B(  5-O ,  6-C ) :   0.9155 B(  6-C ,  7-C ) :   1.1675 B(  6-C , 24-H ) :   0.9254
B(  6-C , 25-H ) :   0.9334 B(  7-C , 26-H ) :   0.9312 B(  7-C , 27-H ) :   0.9342
B(  7-C , 28-H ) :   0.9420 B(  8-S ,  9-C ) :   0.9931 B(  9-C , 10-S ) :   1.0133
B(  9-C , 29-H ) :   0.9078 B(  9-C , 30-H ) :   0.8344 B( 10-S , 11-P ) :   0.9453
B( 10-S , 12-S ) :   0.1143 B( 11-P , 12-S ) :   1.6220 B( 11-P , 13-O ) :   1.1502
B( 11-P , 16-O ) :   1.0640 B( 12-S , 30-H ) :   0.1148 B( 13-O , 14-C ) :   0.8915
B( 14-C , 15-C ) :   1.1651 B( 14-C , 31-H ) :   0.9291 B( 14-C , 32-H ) :   0.9139
B( 15-C , 33-H ) :   0.9494 B( 15-C , 34-H ) :   0.9401 B( 15-C , 35-H ) :   0.9430
B( 16-O , 17-C ) :   0.9251 B( 17-C , 18-C ) :   1.1629 B( 17-C , 36-H ) :   0.9350
B( 17-C , 37-H ) :   0.9179 B( 18-C , 38-H ) :   0.9414 B( 18-C , 39-H ) :   0.9370
B( 18-C , 40-H ) :   0.9378

Dispersion correction           -0.067777110
FINAL SINGLE POINT ENERGY     -2929.508294211284

DIPOLE MOMENT
-------------

Method             : SCF
Type of density    : Electron Density
Multiplicity       :   1
Irrep              :   0
Energy             : -2929.6256256967517402 Eh
Relativity type    :
Basis              : AO
                                X                 Y                 Z
Electronic contribution:      0.434867460       5.048410369      -0.634417623
Nuclear contribution   :     -0.284255777      -6.429818800       0.756753278
                        -----------------------------------------
Total Dipole Moment    :      0.150611683      -1.381408431       0.122335655
                        -----------------------------------------
Magnitude (a.u.)       :      1.394969227
Magnitude (Debye)      :      3.545729991

Rotational constants in cm-1:             0.011266             0.005914             0.004968
Rotational constants in MHz :           337.750419           177.293876           148.927926

                             ****ORCA TERMINATED NORMALLY****
TOTAL RUN TIME: 0 days 0 hours 0 minutes 21 seconds 407 msec
