                         Program Version 6.0.0  -   RELEASE  -
|  1> ! r2scan-3c def2/J RI DEFGRID2 scfconv6 printgap
|  2> %output
|  3>     printlevel normal
|  4> end
|  5> * xyz 0 1
|  6> C 3.6442176726 -0.7699862583 -2.7862597609
|  7> C 2.2076950793 -1.087656748 -2.4284943248
|  8> O 2.0815804958 -1.4868071359 -1.0468042677
|  9> P 2.1772633786 -0.4518472943 0.1398667391
| 10> S 1.4263095797 1.3325232827 -0.2107736634
| 11> O 3.7313754283 -0.4570514041 0.4685325923
| 12> C 4.2877500347 0.3865399759 1.496578341
| 13> C 5.7969431037 0.3325699056 1.3723654422
| 14> S 1.368600936 -1.58454897 1.7264443785
| 15> C -0.3303645892 -0.9726728188 1.6857678752
| 16> S -1.1190192879 -1.2551667494 0.0640170027
| 17> P -2.4529065335 0.3818699429 0.1106009221
| 18> S -1.9564469093 1.9286634986 1.2186828711
| 19> O -3.7714146874 -0.3602567003 0.5705233794
| 20> C -4.8902216131 0.3415373018 1.1502989764
| 21> C -5.6129872604 1.18273175 0.1198824812
| 22> O -2.7708418641 0.6908509215 -1.4130022513
| 23> C -1.7963134505 1.2303625547 -2.3277223685
| 24> C -1.381593328 0.1594309745 -3.3181228842
| 25> H 4.2889464717 -1.6046393796 -2.5252832011
| 26> H 3.7149771685 -0.5752493147 -3.8518194285
| 27> H 3.9737999496 0.1126402191 -2.2403376736
| 28> H 1.8284929118 -1.9458259794 -2.9845891845
| 29> H 1.5665149564 -0.216640914 -2.597696877
| 30> H 3.9062949051 1.4039222026 1.3572053107
| 31> H 3.9537240327 0.0113665785 2.4681928513
| 32> H 6.1372263919 -0.6942062619 1.4694037537
| 33> H 6.1087017727 0.7174511718 0.4056665485
| 34> H 6.2404985826 0.9353325148 2.1579692797
| 35> H -0.3427378363 0.1028862175 1.8866717635
| 36> H -0.8670246481 -1.5235094624 2.4544570544
| 37> H -5.5229769855 -0.4549582073 1.5435059948
| 38> H -4.5202835755 0.9668716189 1.969285416
| 39> H -5.9034766537 0.5694163362 -0.7287578611
| 40> H -6.4965943513 1.6251844373 0.5690015446
| 41> H -4.9558562898 1.9778738145 -0.2302123666
| 42> H -2.2946506694 2.0624458732 -2.8289266783
| 43> H -0.9383535385 1.615295912 -1.7665529808
| 44> H -0.67693549 0.5814289735 -4.0275407106
| 45> H -0.9154064082 -0.6741687669 -2.7965533181
| 46> H -2.2545122485 -0.2074730802 -3.8499912763
| 47> *
| 48>
| 49>                          ****END OF INPUT****

CARTESIAN COORDINATES (ANGSTROEM)
---------------------------------
  C      3.644218   -0.769986   -2.786260
  C      2.207695   -1.087657   -2.428494
  O      2.081580   -1.486807   -1.046804
  P      2.177263   -0.451847    0.139867
  S      1.426310    1.332523   -0.210774
  O      3.731375   -0.457051    0.468533
  C      4.287750    0.386540    1.496578
  C      5.796943    0.332570    1.372365
  S      1.368601   -1.584549    1.726444
  C     -0.330365   -0.972673    1.685768
  S     -1.119019   -1.255167    0.064017
  P     -2.452907    0.381870    0.110601
  S     -1.956447    1.928663    1.218683
  O     -3.771415   -0.360257    0.570523
  C     -4.890222    0.341537    1.150299
  C     -5.612987    1.182732    0.119882
  O     -2.770842    0.690851   -1.413002
  C     -1.796313    1.230363   -2.327722
  C     -1.381593    0.159431   -3.318123
  H      4.288946   -1.604639   -2.525283
  H      3.714977   -0.575249   -3.851819
  H      3.973800    0.112640   -2.240338
  H      1.828493   -1.945826   -2.984589
  H      1.566515   -0.216641   -2.597697
  H      3.906295    1.403922    1.357205
  H      3.953724    0.011367    2.468193
  H      6.137226   -0.694206    1.469404
  H      6.108702    0.717451    0.405667
  H      6.240499    0.935333    2.157969
  H     -0.342738    0.102886    1.886672
  H     -0.867025   -1.523509    2.454457
  H     -5.522977   -0.454958    1.543506
  H     -4.520284    0.966872    1.969285
  H     -5.903477    0.569416   -0.728758
  H     -6.496594    1.625184    0.569002
  H     -4.955856    1.977874   -0.230212
  H     -2.294651    2.062446   -2.828927
  H     -0.938354    1.615296   -1.766553
  H     -0.676935    0.581429   -4.027541
  H     -0.915406   -0.674169   -2.796553
  H     -2.254512   -0.207473   -3.849991

 Total Charge           Charge          ....    0
 Multiplicity           Mult            ....    1
 Number of Electrons    NEL             ....  202
 Basis Dimension        Dim             ....  539

ORBITAL ENERGIES
----------------

  NO   OCC          E(Eh)            E(eV)
   0   2.0000     -88.579089     -2410.3595
   1   2.0000     -88.572093     -2410.1692
   2   2.0000     -88.517098     -2408.6727
   3   2.0000     -88.515170     -2408.6202
   4   2.0000     -76.913253     -2092.9160
   5   2.0000     -76.909564     -2092.8156
   6   2.0000     -18.992223      -516.8047
   7   2.0000     -18.990693      -516.7630
   8   2.0000     -18.989480      -516.7300
   9   2.0000     -18.984337      -516.5901
  10   2.0000     -10.103216      -274.9225
  11   2.0000     -10.098756      -274.8011
  12   2.0000     -10.098719      -274.8001
  13   2.0000     -10.095158      -274.7032
  14   2.0000     -10.092832      -274.6399
  15   2.0000     -10.033863      -273.0353
  16   2.0000     -10.030094      -272.9327
  17   2.0000     -10.029803      -272.9248
  18   2.0000     -10.024745      -272.7872
  19   2.0000      -7.873372      -214.2453
  20   2.0000      -7.866314      -214.0533
  21   2.0000      -7.811703      -212.5672
  22   2.0000      -7.809807      -212.5156
  23   2.0000      -6.591826      -179.3727
  24   2.0000      -6.588045      -179.2698
  25   2.0000      -5.820357      -158.3800
  26   2.0000      -5.817108      -158.2916
  27   2.0000      -5.813116      -158.1829
  28   2.0000      -5.810499      -158.1117
  29   2.0000      -5.810340      -158.1074
  30   2.0000      -5.803339      -157.9169
  31   2.0000      -5.759357      -156.7201
  32   2.0000      -5.757429      -156.6676
  33   2.0000      -5.752085      -156.5222
  34   2.0000      -5.751636      -156.5100
  35   2.0000      -5.750153      -156.4696
  36   2.0000      -5.749798      -156.4600
  37   2.0000      -4.737181      -128.9052
  38   2.0000      -4.736894      -128.8974
  39   2.0000      -4.735523      -128.8601
  40   2.0000      -4.733466      -128.8042
  41   2.0000      -4.733026      -128.7922
  42   2.0000      -4.731786      -128.7584
  43   2.0000      -1.050785       -28.5933
  44   2.0000      -1.046142       -28.4670
  45   2.0000      -1.012014       -27.5383
  46   2.0000      -1.007143       -27.4057
  47   2.0000      -0.799818       -21.7642
  48   2.0000      -0.758741       -20.6464
  49   2.0000      -0.748637       -20.3715
  50   2.0000      -0.734510       -19.9870
  51   2.0000      -0.729734       -19.8571
  52   2.0000      -0.708385       -19.2761
  53   2.0000      -0.682361       -18.5680
  54   2.0000      -0.662996       -18.0411
  55   2.0000      -0.631906       -17.1950
  56   2.0000      -0.625395       -17.0179
  57   2.0000      -0.601231       -16.3603
  58   2.0000      -0.599196       -16.3049
  59   2.0000      -0.590901       -16.0792
  60   2.0000      -0.529338       -14.4040
  61   2.0000      -0.520017       -14.1504
  62   2.0000      -0.498217       -13.5572
  63   2.0000      -0.492139       -13.3918
  64   2.0000      -0.469592       -12.7782
  65   2.0000      -0.468848       -12.7580
  66   2.0000      -0.453813       -12.3489
  67   2.0000      -0.450352       -12.2547
  68   2.0000      -0.446342       -12.1456
  69   2.0000      -0.427240       -11.6258
  70   2.0000      -0.420149       -11.4328
  71   2.0000      -0.416512       -11.3339
  72   2.0000      -0.410498       -11.1702
  73   2.0000      -0.402414       -10.9502
  74   2.0000      -0.397561       -10.8182
  75   2.0000      -0.389788       -10.6067
  76   2.0000      -0.385904       -10.5010
  77   2.0000      -0.374229       -10.1833
  78   2.0000      -0.372447       -10.1348
  79   2.0000      -0.364412        -9.9162
  80   2.0000      -0.361530        -9.8377
  81   2.0000      -0.360834        -9.8188
  82   2.0000      -0.354756        -9.6534
  83   2.0000      -0.351552        -9.5662
  84   2.0000      -0.346688        -9.4339
  85   2.0000      -0.327249        -8.9049
  86   2.0000      -0.320453        -8.7200
  87   2.0000      -0.317292        -8.6340
  88   2.0000      -0.307266        -8.3611
  89   2.0000      -0.301269        -8.1979
  90   2.0000      -0.298517        -8.1231
  91   2.0000      -0.291425        -7.9301
  92   2.0000      -0.285402        -7.7662
  93   2.0000      -0.276998        -7.5375
  94   2.0000      -0.274142        -7.4598
  95   2.0000      -0.248299        -6.7566
  96   2.0000      -0.236485        -6.4351
  97   2.0000      -0.223515        -6.0821
  98   2.0000      -0.210630        -5.7315
  99   2.0000      -0.209300        -5.6953
 100   2.0000      -0.202451        -5.5090
 101   0.0000      -0.046331        -1.2607
 102   0.0000      -0.031313        -0.8521
 103   0.0000      -0.005896        -0.1604
 104   0.0000       0.013285         0.3615
 105   0.0000       0.020467         0.5569

MULLIKEN ATOMIC CHARGES
-----------------------
   0 C :   -0.446325
   1 C :   -0.150469
   2 O :   -0.295524
   3 P :    0.708063
   4 S :   -0.471741
   5 O :   -0.271687
   6 C :   -0.159040
   7 C :   -0.437907
   8 S :   -0.132857
   9 C :   -0.225076
  10 S :   -0.134093
  11 P :    0.667481
  12 S :   -0.460965
  13 O :   -0.290039
  14 C :   -0.151055
  15 C :   -0.440215
  16 O :   -0.272290
  17 C :   -0.143140
  18 C :   -0.456844
  19 H :    0.157163
  20 H :    0.145791
  21 H :    0.166159
  22 H :    0.153342
  23 H :    0.171965
  24 H :    0.172108
  25 H :    0.151917
  26 H :    0.154153
  27 H :    0.153704
  28 H :    0.147599
  29 H :    0.220111
  30 H :    0.186541
  31 H :    0.146950
  32 H :    0.171699
  33 H :    0.154580
  34 H :    0.145897
  35 H :    0.168115
  36 H :    0.149972
  37 H :    0.182088
  38 H :    0.148967
  39 H :    0.161906
  40 H :    0.152995
Sum of atomic charges:   -0.0000000

LOEWDIN ATOMIC CHARGES
----------------------
   0 C :   -0.397419
   1 C :    0.018134
   2 O :   -0.663278
   3 P :    0.373714
   4 S :   -0.121739
   5 O :   -0.669983
   6 C :    0.018676
   7 C :   -0.385407
   8 S :    0.166122
   9 C :   -0.411106
  10 S :    0.161291
  11 P :    0.378271
  12 S :   -0.125726
  13 O :   -0.666685
  14 C :    0.019942
  15 C :   -0.399617
  16 O :   -0.660244
  17 C :    0.020491
  18 C :   -0.401094
  19 H :    0.162032
  20 H :    0.158871
  21 H :    0.165307
  22 H :    0.180361
  23 H :    0.180959
  24 H :    0.180381
  25 H :    0.172383
  26 H :    0.160310
  27 H :    0.159741
  28 H :    0.160274
  29 H :    0.198567
  30 H :    0.179039
  31 H :    0.178662
  32 H :    0.179808
  33 H :    0.160395
  34 H :    0.158683
  35 H :    0.165783
  36 H :    0.177192
  37 H :    0.186510
  38 H :    0.158874
  39 H :    0.162470
  40 H :    0.159056

  Mayer bond orders larger than 0.100000
B(  0-C ,  1-C ) :   0.9389 B(  0-C , 19-H ) :   0.9721 B(  0-C , 20-H ) :   0.9628
B(  0-C , 21-H ) :   0.9604 B(  1-C ,  2-O ) :   0.7902 B(  1-C , 22-H ) :   0.9597
B(  1-C , 23-H ) :   0.9592 B(  2-O ,  3-P ) :   1.1874 B(  3-P ,  4-S ) :   1.7275
B(  3-P ,  5-O ) :   1.0839 B(  3-P ,  8-S ) :   1.0648 B(  5-O ,  6-C ) :   0.7823
B(  6-C ,  7-C ) :   0.9542 B(  6-C , 24-H ) :   0.9487 B(  6-C , 25-H ) :   0.9456
B(  7-C , 26-H ) :   0.9716 B(  7-C , 27-H ) :   0.9718 B(  7-C , 28-H ) :   0.9643
B(  8-S ,  9-C ) :   0.9342 B(  9-C , 10-S ) :   0.8974 B(  9-C , 29-H ) :   0.9029
B(  9-C , 30-H ) :   0.9145 B( 10-S , 11-P ) :   1.0705 B( 11-P , 12-S ) :   1.7574
B( 11-P , 13-O ) :   1.1757 B( 11-P , 16-O ) :   1.0879 B( 13-O , 14-C ) :   0.8081
B( 14-C , 15-C ) :   0.9311 B( 14-C , 31-H ) :   0.9608 B( 14-C , 32-H ) :   0.9641
B( 15-C , 33-H ) :   0.9712 B( 15-C , 34-H ) :   0.9630 B( 15-C , 35-H ) :   0.9598
B( 16-O , 17-C ) :   0.7500 B( 17-C , 18-C ) :   0.9334 B( 17-C , 36-H ) :   0.9650
B( 17-C , 37-H ) :   0.9549 B( 18-C , 38-H ) :   0.9684 B( 18-C , 39-H ) :   0.9614
B( 18-C , 40-H ) :   0.9697

Dispersion correction           -0.021283586
FINAL SINGLE POINT ENERGY     -2932.460649921832

DIPOLE MOMENT
-------------

Method             : SCF
Type of density    : Electron Density
Multiplicity       :   1
Irrep              :   0
Energy             : -2932.4857413974768860 Eh
Relativity type    :
Basis              : AO
                                X                 Y                 Z
Electronic contribution:     -5.550052441      -4.924896418      12.992284697
Nuclear contribution   :      5.901130451       4.516001061     -13.598065404
                        -----------------------------------------
Total Dipole Moment    :      0.351078010      -0.408895358      -0.605780707
                        -----------------------------------------
Magnitude (a.u.)       :      0.810815298
Magnitude (Debye)      :      2.060928704

Rotational constants in cm-1:             0.014067             0.004593             0.004162
Rotational constants in MHz :           421.708827           137.691566           124.760151

                             ****ORCA TERMINATED NORMALLY****
TOTAL RUN TIME: 0 days 0 hours 1 minutes 21 seconds 352 msec
