                         Program Version 6.0.0  -   RELEASE  -
|  1> ! r2scan-3c def2/J RI DEFGRID2 scfconv6 printgap
|  2> %output
|  3>     printlevel normal
|  4> end
|  5> %cpcm
|  6>     smd true
|  7>     smdsolvent "water"
|  8> end
|  9> * xyz 0 1
| 10> C 3.6442176726 -0.7699862583 -2.7862597609
| 11> C 2.2076950793 -1.087656748 -2.4284943248
| 12> O 2.0815804958 -1.4868071359 -1.0468042677
| 13> P 2.1772633786 -0.4518472943 0.1398667391
| 14> S 1.4263095797 1.3325232827 -0.2107736634
| 15> O 3.7313754283 -0.4570514041 0.4685325923
| 16> C 4.2877500347 0.3865399759 1.496578341
| 17> C 5.7969431037 0.3325699056 1.3723654422
| 18> S 1.368600936 -1.58454897 1.7264443785
| 19> C -0.3303645892 -0.9726728188 1.6857678752
| 20> S -1.1190192879 -1.2551667494 0.0640170027
| 21> P -2.4529065335 0.3818699429 0.1106009221
| 22> S -1.9564469093 1.9286634986 1.2186828711
| 23> O -3.7714146874 -0.3602567003 0.5705233794
| 24> C -4.8902216131 0.3415373018 1.1502989764
| 25> C -5.6129872604 1.18273175 0.1198824812
| 26> O -2.7708418641 0.6908509215 -1.4130022513
| 27> C -1.7963134505 1.2303625547 -2.3277223685
| 28> C -1.381593328 0.1594309745 -3.3181228842
| 29> H 4.2889464717 -1.6046393796 -2.5252832011
| 30> H 3.7149771685 -0.5752493147 -3.8518194285
| 31> H 3.9737999496 0.1126402191 -2.2403376736
| 32> H 1.8284929118 -1.9458259794 -2.9845891845
| 33> H 1.5665149564 -0.216640914 -2.597696877
| 34> H 3.9062949051 1.4039222026 1.3572053107
| 35> H 3.9537240327 0.0113665785 2.4681928513
| 36> H 6.1372263919 -0.6942062619 1.4694037537
| 37> H 6.1087017727 0.7174511718 0.4056665485
| 38> H 6.2404985826 0.9353325148 2.1579692797
| 39> H -0.3427378363 0.1028862175 1.8866717635
| 40> H -0.8670246481 -1.5235094624 2.4544570544
| 41> H -5.5229769855 -0.4549582073 1.5435059948
| 42> H -4.5202835755 0.9668716189 1.969285416
| 43> H -5.9034766537 0.5694163362 -0.7287578611
| 44> H -6.4965943513 1.6251844373 0.5690015446
| 45> H -4.9558562898 1.9778738145 -0.2302123666
| 46> H -2.2946506694 2.0624458732 -2.8289266783
| 47> H -0.9383535385 1.615295912 -1.7665529808
| 48> H -0.67693549 0.5814289735 -4.0275407106
| 49> H -0.9154064082 -0.6741687669 -2.7965533181
| 50> H -2.2545122485 -0.2074730802 -3.8499912763
| 51> *
| 52>
| 53>                          ****END OF INPUT****

CARTESIAN COORDINATES (ANGSTROEM)
---------------------------------
  C      3.644218   -0.769986   -2.786260
  C      2.207695   -1.087657   -2.428494
  O      2.081580   -1.486807   -1.046804
  P      2.177263   -0.451847    0.139867
  S      1.426310    1.332523   -0.210774
  O      3.731375   -0.457051    0.468533
  C      4.287750    0.386540    1.496578
  C      5.796943    0.332570    1.372365
  S      1.368601   -1.584549    1.726444
  C     -0.330365   -0.972673    1.685768
  S     -1.119019   -1.255167    0.064017
  P     -2.452907    0.381870    0.110601
  S     -1.956447    1.928663    1.218683
  O     -3.771415   -0.360257    0.570523
  C     -4.890222    0.341537    1.150299
  C     -5.612987    1.182732    0.119882
  O     -2.770842    0.690851   -1.413002
  C     -1.796313    1.230363   -2.327722
  C     -1.381593    0.159431   -3.318123
  H      4.288946   -1.604639   -2.525283
  H      3.714977   -0.575249   -3.851819
  H      3.973800    0.112640   -2.240338
  H      1.828493   -1.945826   -2.984589
  H      1.566515   -0.216641   -2.597697
  H      3.906295    1.403922    1.357205
  H      3.953724    0.011367    2.468193
  H      6.137226   -0.694206    1.469404
  H      6.108702    0.717451    0.405667
  H      6.240499    0.935333    2.157969
  H     -0.342738    0.102886    1.886672
  H     -0.867025   -1.523509    2.454457
  H     -5.522977   -0.454958    1.543506
  H     -4.520284    0.966872    1.969285
  H     -5.903477    0.569416   -0.728758
  H     -6.496594    1.625184    0.569002
  H     -4.955856    1.977874   -0.230212
  H     -2.294651    2.062446   -2.828927
  H     -0.938354    1.615296   -1.766553
  H     -0.676935    0.581429   -4.027541
  H     -0.915406   -0.674169   -2.796553
  H     -2.254512   -0.207473   -3.849991

 Total Charge           Charge          ....    0
 Multiplicity           Mult            ....    1
 Number of Electrons    NEL             ....  202
 Basis Dimension        Dim             ....  539

ORBITAL ENERGIES
----------------

  NO   OCC          E(Eh)            E(eV)
   0   2.0000     -88.584398     -2410.5040
   1   2.0000     -88.579250     -2410.3639
   2   2.0000     -88.526729     -2408.9348
   3   2.0000     -88.524379     -2408.8708
   4   2.0000     -76.918839     -2093.0680
   5   2.0000     -76.918517     -2093.0593
   6   2.0000     -18.995724      -516.8999
   7   2.0000     -18.994597      -516.8693
   8   2.0000     -18.994372      -516.8631
   9   2.0000     -18.992079      -516.8007
  10   2.0000     -10.104747      -274.9641
  11   2.0000     -10.090151      -274.5670
  12   2.0000     -10.090077      -274.5649
  13   2.0000     -10.089276      -274.5432
  14   2.0000     -10.088236      -274.5148
  15   2.0000     -10.019693      -272.6497
  16   2.0000     -10.018875      -272.6274
  17   2.0000     -10.018673      -272.6219
  18   2.0000     -10.018280      -272.6113
  19   2.0000      -7.878657      -214.3892
  20   2.0000      -7.873486      -214.2485
  21   2.0000      -7.821682      -212.8388
  22   2.0000      -7.819255      -212.7727
  23   2.0000      -6.597360      -179.5233
  24   2.0000      -6.597164      -179.5180
  25   2.0000      -5.825614      -158.5230
  26   2.0000      -5.822377      -158.4349
  27   2.0000      -5.820265      -158.3775
  28   2.0000      -5.817497      -158.3021
  29   2.0000      -5.815842      -158.2571
  30   2.0000      -5.810558      -158.1133
  31   2.0000      -5.769238      -156.9889
  32   2.0000      -5.766862      -156.9243
  33   2.0000      -5.762028      -156.7928
  34   2.0000      -5.761681      -156.7833
  35   2.0000      -5.759645      -156.7279
  36   2.0000      -5.759177      -156.7152
  37   2.0000      -4.742745      -129.0567
  38   2.0000      -4.742468      -129.0491
  39   2.0000      -4.742334      -129.0455
  40   2.0000      -4.742233      -129.0427
  41   2.0000      -4.741176      -129.0139
  42   2.0000      -4.740933      -129.0073
  43   2.0000      -1.053580       -28.6694
  44   2.0000      -1.052853       -28.6496
  45   2.0000      -1.014051       -27.5937
  46   2.0000      -1.013197       -27.5705
  47   2.0000      -0.803905       -21.8754
  48   2.0000      -0.757473       -20.6119
  49   2.0000      -0.744464       -20.2579
  50   2.0000      -0.725460       -19.7408
  51   2.0000      -0.724201       -19.7065
  52   2.0000      -0.709491       -19.3062
  53   2.0000      -0.687039       -18.6953
  54   2.0000      -0.671362       -18.2687
  55   2.0000      -0.632105       -17.2005
  56   2.0000      -0.622702       -16.9446
  57   2.0000      -0.595680       -16.2093
  58   2.0000      -0.594505       -16.1773
  59   2.0000      -0.589683       -16.0461
  60   2.0000      -0.527302       -14.3486
  61   2.0000      -0.520058       -14.1515
  62   2.0000      -0.495675       -13.4880
  63   2.0000      -0.492844       -13.4110
  64   2.0000      -0.471483       -12.8297
  65   2.0000      -0.467656       -12.7256
  66   2.0000      -0.448270       -12.1980
  67   2.0000      -0.448100       -12.1934
  68   2.0000      -0.445294       -12.1171
  69   2.0000      -0.427443       -11.6313
  70   2.0000      -0.420368       -11.4388
  71   2.0000      -0.416919       -11.3449
  72   2.0000      -0.405849       -11.0437
  73   2.0000      -0.402807       -10.9609
  74   2.0000      -0.396395       -10.7864
  75   2.0000      -0.386104       -10.5064
  76   2.0000      -0.384813       -10.4713
  77   2.0000      -0.370252       -10.0751
  78   2.0000      -0.361305        -9.8316
  79   2.0000      -0.356970        -9.7137
  80   2.0000      -0.354475        -9.6458
  81   2.0000      -0.351744        -9.5714
  82   2.0000      -0.350638        -9.5413
  83   2.0000      -0.349293        -9.5047
  84   2.0000      -0.345000        -9.3879
  85   2.0000      -0.323442        -8.8013
  86   2.0000      -0.321603        -8.7513
  87   2.0000      -0.314013        -8.5447
  88   2.0000      -0.306253        -8.3336
  89   2.0000      -0.300191        -8.1686
  90   2.0000      -0.299530        -8.1506
  91   2.0000      -0.291443        -7.9306
  92   2.0000      -0.288676        -7.8553
  93   2.0000      -0.279610        -7.6086
  94   2.0000      -0.276714        -7.5298
  95   2.0000      -0.254219        -6.9177
  96   2.0000      -0.244152        -6.6437
  97   2.0000      -0.233487        -6.3535
  98   2.0000      -0.222161        -6.0453
  99   2.0000      -0.217605        -5.9213
 100   2.0000      -0.211904        -5.7662
 101   0.0000      -0.052216        -1.4209
 102   0.0000      -0.040209        -1.0941
 103   0.0000      -0.011705        -0.3185
 104   0.0000       0.010254         0.2790
 105   0.0000       0.014693         0.3998

MULLIKEN ATOMIC CHARGES
-----------------------
   0 C :   -0.488910
   1 C :   -0.141557
   2 O :   -0.326581
   3 P :    0.731942
   4 S :   -0.515078
   5 O :   -0.297069
   6 C :   -0.149097
   7 C :   -0.481272
   8 S :   -0.142712
   9 C :   -0.225500
  10 S :   -0.151569
  11 P :    0.704774
  12 S :   -0.513815
  13 O :   -0.323632
  14 C :   -0.144532
  15 C :   -0.480534
  16 O :   -0.297763
  17 C :   -0.144337
  18 C :   -0.481887
  19 H :    0.170116
  20 H :    0.172059
  21 H :    0.167328
  22 H :    0.178562
  23 H :    0.179942
  24 H :    0.173307
  25 H :    0.169230
  26 H :    0.165793
  27 H :    0.166119
  28 H :    0.169661
  29 H :    0.217002
  30 H :    0.228907
  31 H :    0.173943
  32 H :    0.175312
  33 H :    0.169121
  34 H :    0.171942
  35 H :    0.166675
  36 H :    0.175884
  37 H :    0.174100
  38 H :    0.174765
  39 H :    0.162689
  40 H :    0.166675
Sum of atomic charges:   -0.0000000

LOEWDIN ATOMIC CHARGES
----------------------
   0 C :   -0.400885
   1 C :    0.024205
   2 O :   -0.679693
   3 P :    0.376185
   4 S :   -0.148812
   5 O :   -0.682674
   6 C :    0.022877
   7 C :   -0.388952
   8 S :    0.163468
   9 C :   -0.405511
  10 S :    0.154925
  11 P :    0.383750
  12 S :   -0.159695
  13 O :   -0.682907
  14 C :    0.025125
  15 C :   -0.402987
  16 O :   -0.672526
  17 C :    0.023511
  18 C :   -0.401267
  19 H :    0.164594
  20 H :    0.168932
  21 H :    0.163257
  22 H :    0.190928
  23 H :    0.184458
  24 H :    0.181041
  25 H :    0.179265
  26 H :    0.163400
  27 H :    0.162720
  28 H :    0.168946
  29 H :    0.197209
  30 H :    0.194761
  31 H :    0.189966
  32 H :    0.181423
  33 H :    0.163845
  34 H :    0.168571
  35 H :    0.162670
  36 H :    0.187634
  37 H :    0.183731
  38 H :    0.169398
  39 H :    0.161923
  40 H :    0.163192

  Mayer bond orders larger than 0.100000
B(  0-C ,  1-C ) :   0.9262 B(  0-C , 19-H ) :   0.9715 B(  0-C , 20-H ) :   0.9564
B(  0-C , 21-H ) :   0.9591 B(  1-C ,  2-O ) :   0.7790 B(  1-C , 22-H ) :   0.9498
B(  1-C , 23-H ) :   0.9537 B(  2-O ,  3-P ) :   1.1900 B(  3-P ,  4-S ) :   1.6960
B(  3-P ,  5-O ) :   1.0893 B(  3-P ,  8-S ) :   1.0778 B(  5-O ,  6-C ) :   0.7761
B(  6-C ,  7-C ) :   0.9502 B(  6-C , 24-H ) :   0.9456 B(  6-C , 25-H ) :   0.9371
B(  7-C , 26-H ) :   0.9692 B(  7-C , 27-H ) :   0.9693 B(  7-C , 28-H ) :   0.9582
B(  8-S ,  9-C ) :   0.9286 B(  9-C , 10-S ) :   0.8867 B(  9-C , 29-H ) :   0.9062
B(  9-C , 30-H ) :   0.9002 B( 10-S , 11-P ) :   1.0854 B( 11-P , 12-S ) :   1.7131
B( 11-P , 13-O ) :   1.1772 B( 11-P , 16-O ) :   1.0965 B( 13-O , 14-C ) :   0.7969
B( 14-C , 15-C ) :   0.9178 B( 14-C , 31-H ) :   0.9513 B( 14-C , 32-H ) :   0.9600
B( 15-C , 33-H ) :   0.9701 B( 15-C , 34-H ) :   0.9567 B( 15-C , 35-H ) :   0.9594
B( 16-O , 17-C ) :   0.7387 B( 17-C , 18-C ) :   0.9369 B( 17-C , 36-H ) :   0.9537
B( 17-C , 37-H ) :   0.9522 B( 18-C , 38-H ) :   0.9607 B( 18-C , 39-H ) :   0.9574
B( 18-C , 40-H ) :   0.9685

Dispersion correction           -0.021283586
FINAL SINGLE POINT ENERGY     -2932.469288119571

DIPOLE MOMENT
-------------

Method             : SCF
Type of density    : Electron Density
Multiplicity       :   1
Irrep              :   0
Energy             : -2932.4943795952158325 Eh
Relativity type    :
Basis              : AO
                                X                 Y                 Z
Electronic contribution:     -5.555584339      -5.077359478      12.827888431
Nuclear contribution   :      5.901130451       4.516001061     -13.598065404
                        -----------------------------------------
Total Dipole Moment    :      0.345546112      -0.561358417      -0.770176973
                        -----------------------------------------
Magnitude (a.u.)       :      1.013754387
Magnitude (Debye)      :      2.576758875

Rotational constants in cm-1:             0.014067             0.004593             0.004162
Rotational constants in MHz :           421.708827           137.691566           124.760151

                             ****ORCA TERMINATED NORMALLY****
TOTAL RUN TIME: 0 days 0 hours 1 minutes 53 seconds 336 msec
