                         Program Version 6.0.0  -   RELEASE  -
|  1> ! pbe def2-sv(p) def2/J RI DEFGRID1 loosescf d4 GCP(DFT/SV(P)) printgap
|  2> %output
|  3>     printlevel normal
|  4> end
|  5> * xyz 0 1
|  6> C 5.3061933518 -1.6574764725 -1.1798216686
|  7> C 3.9998140065 -1.1328398903 -1.7418476695
|  8> O 3.1153126449 -0.8643485835 -0.6394422658
|  9> P 1.9309765616 0.208861678 -0.7240105793
| 10> S 2.4558278011 1.8629118525 -1.6308328781
| 11> O 1.5189991411 0.2718266998 0.7986497137
| 12> C 2.2519713624 1.0927524984 1.7394086335
| 13> C 1.3704497518 1.2987968049 2.9524742444
| 14> S 0.3287057555 -0.8750530426 -1.5575885399
| 15> C 0.0199257388 -2.0218378037 -0.1857987878
| 16> S -1.0099330409 -1.3377698146 1.1611626549
| 17> P -1.9961969702 0.3059062079 0.2304407128
| 18> S -0.9979951609 1.9757612897 -0.0547852107
| 19> O -3.2538326336 0.4976875217 1.185076848
| 20> C -3.2114538831 1.2742845827 2.3948913425
| 21> C -2.6745102612 0.4662419525 3.5588140236
| 22> O -2.6626852289 -0.2143632685 -1.1000793772
| 23> C -3.8376372515 -1.0627171826 -1.1887399944
| 24> C -3.4784284771 -2.53323852 -1.1201179597
| 25> H 5.7732234651 -0.9029126336 -0.5531961854
| 26> H 5.1241528436 -2.5481432524 -0.5855662913
| 27> H 5.9723144408 -1.9014958299 -2.0006987881
| 28> H 3.5184437415 -1.8698576221 -2.3901993757
| 29> H 4.1474470662 -0.2041254243 -2.3036916056
| 30> H 3.1750000517 0.5658457859 1.991903557
| 31> H 2.496975417 2.0426122542 1.252266097
| 32> H 0.4623147619 1.8206132891 2.6595064169
| 33> H 1.1071015937 0.3385003432 3.3874027549
| 34> H 1.9049712276 1.8958976648 3.6836338372
| 35> H 0.9662431641 -2.3212218292 0.2604281161
| 36> H -0.4988390577 -2.8734727509 -0.619605005
| 37> H -2.6025310132 2.1665578227 2.2133250522
| 38> H -4.2496179964 1.5686338884 2.5577963752
| 39> H -3.2564201324 -0.442437792 3.6841246947
| 40> H -1.6361873844 0.1938393194 3.38196284
| 41> H -2.7352017525 1.0623612766 4.4635470303
| 42> H -4.5321279877 -0.7827109083 -0.3956978446
| 43> H -4.2589850174 -0.802567421 -2.1611090133
| 44> H -3.1094514869 -2.7934405946 -0.1311347484
| 45> H -4.3691189591 -3.1184899017 -1.3272433065
| 46> H -2.7214850586 -2.7644249912 -1.8656072159
| 47> *
| 48>
| 49>                          ****END OF INPUT****

CARTESIAN COORDINATES (ANGSTROEM)
---------------------------------
  C      5.306193   -1.657476   -1.179822
  C      3.999814   -1.132840   -1.741848
  O      3.115313   -0.864349   -0.639442
  P      1.930977    0.208862   -0.724011
  S      2.455828    1.862912   -1.630833
  O      1.518999    0.271827    0.798650
  C      2.251971    1.092752    1.739409
  C      1.370450    1.298797    2.952474
  S      0.328706   -0.875053   -1.557589
  C      0.019926   -2.021838   -0.185799
  S     -1.009933   -1.337770    1.161163
  P     -1.996197    0.305906    0.230441
  S     -0.997995    1.975761   -0.054785
  O     -3.253833    0.497688    1.185077
  C     -3.211454    1.274285    2.394891
  C     -2.674510    0.466242    3.558814
  O     -2.662685   -0.214363   -1.100079
  C     -3.837637   -1.062717   -1.188740
  C     -3.478428   -2.533239   -1.120118
  H      5.773223   -0.902913   -0.553196
  H      5.124153   -2.548143   -0.585566
  H      5.972314   -1.901496   -2.000699
  H      3.518444   -1.869858   -2.390199
  H      4.147447   -0.204125   -2.303692
  H      3.175000    0.565846    1.991904
  H      2.496975    2.042612    1.252266
  H      0.462315    1.820613    2.659506
  H      1.107102    0.338500    3.387403
  H      1.904971    1.895898    3.683634
  H      0.966243   -2.321222    0.260428
  H     -0.498839   -2.873473   -0.619605
  H     -2.602531    2.166558    2.213325
  H     -4.249618    1.568634    2.557796
  H     -3.256420   -0.442438    3.684125
  H     -1.636187    0.193839    3.381963
  H     -2.735202    1.062361    4.463547
  H     -4.532128   -0.782711   -0.395698
  H     -4.258985   -0.802567   -2.161109
  H     -3.109451   -2.793441   -0.131135
  H     -4.369119   -3.118490   -1.327243
  H     -2.721485   -2.764425   -1.865607

 Total Charge           Charge          ....    0
 Multiplicity           Mult            ....    1
 Number of Electrons    NEL             ....  202
 Basis Dimension        Dim             ....  334

ORBITAL ENERGIES
----------------

  NO   OCC          E(Eh)            E(eV)
   0   2.0000     -88.043739     -2395.7919
   1   2.0000     -88.039009     -2395.6632
   2   2.0000     -87.978290     -2394.0110
   3   2.0000     -87.973391     -2393.8777
   4   2.0000     -76.423738     -2079.5956
   5   2.0000     -76.419220     -2079.4727
   6   2.0000     -18.791106      -511.3320
   7   2.0000     -18.789246      -511.2814
   8   2.0000     -18.783088      -511.1138
   9   2.0000     -18.782681      -511.1027
  10   2.0000      -9.961071      -271.0545
  11   2.0000      -9.957286      -270.9515
  12   2.0000      -9.952110      -270.8107
  13   2.0000      -9.946418      -270.6558
  14   2.0000      -9.945821      -270.6396
  15   2.0000      -9.892099      -269.1777
  16   2.0000      -9.887351      -269.0485
  17   2.0000      -9.885351      -268.9941
  18   2.0000      -9.877919      -268.7919
  19   2.0000      -7.688623      -209.2181
  20   2.0000      -7.683507      -209.0789
  21   2.0000      -7.623480      -207.4454
  22   2.0000      -7.618350      -207.3058
  23   2.0000      -6.420542      -174.7118
  24   2.0000      -6.416844      -174.6112
  25   2.0000      -5.716851      -155.5634
  26   2.0000      -5.712964      -155.4576
  27   2.0000      -5.711594      -155.4204
  28   2.0000      -5.708049      -155.3239
  29   2.0000      -5.705350      -155.2505
  30   2.0000      -5.700306      -155.1132
  31   2.0000      -5.652499      -153.8123
  32   2.0000      -5.647604      -153.6791
  33   2.0000      -5.644252      -153.5879
  34   2.0000      -5.643395      -153.5646
  35   2.0000      -5.639001      -153.4450
  36   2.0000      -5.638139      -153.4216
  37   2.0000      -4.643861      -126.3659
  38   2.0000      -4.642275      -126.3227
  39   2.0000      -4.640437      -126.2727
  40   2.0000      -4.639246      -126.2403
  41   2.0000      -4.638834      -126.2291
  42   2.0000      -4.637233      -126.1855
  43   2.0000      -0.986181       -26.8354
  44   2.0000      -0.979723       -26.6596
  45   2.0000      -0.942668       -25.6513
  46   2.0000      -0.936071       -25.4718
  47   2.0000      -0.762341       -20.7444
  48   2.0000      -0.719071       -19.5669
  49   2.0000      -0.709721       -19.3125
  50   2.0000      -0.692275       -18.8378
  51   2.0000      -0.683306       -18.5937
  52   2.0000      -0.671347       -18.2683
  53   2.0000      -0.648275       -17.6405
  54   2.0000      -0.630655       -17.1610
  55   2.0000      -0.591265       -16.0891
  56   2.0000      -0.583941       -15.8898
  57   2.0000      -0.579666       -15.7735
  58   2.0000      -0.567234       -15.4352
  59   2.0000      -0.558347       -15.1934
  60   2.0000      -0.503951       -13.7132
  61   2.0000      -0.499318       -13.5871
  62   2.0000      -0.475945       -12.9511
  63   2.0000      -0.474231       -12.9045
  64   2.0000      -0.455357       -12.3909
  65   2.0000      -0.446859       -12.1597
  66   2.0000      -0.435121       -11.8402
  67   2.0000      -0.431462       -11.7407
  68   2.0000      -0.428767       -11.6673
  69   2.0000      -0.421012       -11.4563
  70   2.0000      -0.409675       -11.1478
  71   2.0000      -0.398208       -10.8358
  72   2.0000      -0.387977       -10.5574
  73   2.0000      -0.380936       -10.3658
  74   2.0000      -0.376454       -10.2438
  75   2.0000      -0.368658       -10.0317
  76   2.0000      -0.365519        -9.9463
  77   2.0000      -0.361531        -9.8377
  78   2.0000      -0.355041        -9.6612
  79   2.0000      -0.354325        -9.6417
  80   2.0000      -0.346974        -9.4416
  81   2.0000      -0.345172        -9.3926
  82   2.0000      -0.336412        -9.1542
  83   2.0000      -0.333399        -9.0723
  84   2.0000      -0.327933        -8.9235
  85   2.0000      -0.320372        -8.7178
  86   2.0000      -0.314407        -8.5554
  87   2.0000      -0.302442        -8.2299
  88   2.0000      -0.293080        -7.9751
  89   2.0000      -0.290050        -7.8927
  90   2.0000      -0.288180        -7.8418
  91   2.0000      -0.268586        -7.3086
  92   2.0000      -0.267574        -7.2810
  93   2.0000      -0.258243        -7.0271
  94   2.0000      -0.255621        -6.9558
  95   2.0000      -0.229784        -6.2527
  96   2.0000      -0.219538        -5.9739
  97   2.0000      -0.201553        -5.4845
  98   2.0000      -0.193667        -5.2699
  99   2.0000      -0.186586        -5.0773
 100   2.0000      -0.180201        -4.9035
 101   0.0000      -0.051738        -1.4079
 102   0.0000      -0.023841        -0.6487
 103   0.0000      -0.013686        -0.3724
 104   0.0000      -0.003746        -0.1019
 105   0.0000       0.024591         0.6692

MULLIKEN ATOMIC CHARGES
-----------------------
   0 C :   -0.280769
   1 C :   -0.007153
   2 O :   -0.390685
   3 P :    0.630627
   4 S :   -0.309328
   5 O :   -0.372435
   6 C :   -0.002558
   7 C :   -0.296367
   8 S :   -0.081951
   9 C :   -0.313275
  10 S :   -0.134064
  11 P :    0.624089
  12 S :   -0.291380
  13 O :   -0.384714
  14 C :   -0.006206
  15 C :   -0.327255
  16 O :   -0.364074
  17 C :   -0.002178
  18 C :   -0.326023
  19 H :    0.116181
  20 H :    0.110811
  21 H :    0.110413
  22 H :    0.092577
  23 H :    0.104816
  24 H :    0.097718
  25 H :    0.109929
  26 H :    0.129147
  27 H :    0.118693
  28 H :    0.104107
  29 H :    0.184031
  30 H :    0.178453
  31 H :    0.111161
  32 H :    0.104188
  33 H :    0.114537
  34 H :    0.143748
  35 H :    0.113974
  36 H :    0.114796
  37 H :    0.113204
  38 H :    0.128122
  39 H :    0.113724
  40 H :    0.121372
Sum of atomic charges:   -0.0000000

LOEWDIN ATOMIC CHARGES
----------------------
   0 C :   -0.351186
   1 C :   -0.124169
   2 O :   -0.261908
   3 P :    0.568093
   4 S :   -0.307715
   5 O :   -0.239483
   6 C :   -0.110342
   7 C :   -0.357879
   8 S :    0.107009
   9 C :   -0.468580
  10 S :    0.060084
  11 P :    0.559418
  12 S :   -0.291933
  13 O :   -0.248696
  14 C :   -0.119894
  15 C :   -0.368698
  16 O :   -0.238700
  17 C :   -0.108279
  18 C :   -0.368288
  19 H :    0.126749
  20 H :    0.123724
  21 H :    0.129767
  22 H :    0.106713
  23 H :    0.105770
  24 H :    0.109566
  25 H :    0.112052
  26 H :    0.123913
  27 H :    0.122223
  28 H :    0.127444
  29 H :    0.133370
  30 H :    0.130056
  31 H :    0.108054
  32 H :    0.118277
  33 H :    0.125200
  34 H :    0.121342
  35 H :    0.131999
  36 H :    0.115202
  37 H :    0.123455
  38 H :    0.119587
  39 H :    0.131927
  40 H :    0.124756

  Mayer bond orders larger than 0.100000
B(  0-C ,  1-C ) :   1.1601 B(  0-C , 19-H ) :   0.9513 B(  0-C , 20-H ) :   0.9516
B(  0-C , 21-H ) :   0.9427 B(  1-C ,  2-O ) :   0.9148 B(  1-C , 22-H ) :   0.9293
B(  1-C , 23-H ) :   0.9033 B(  2-O ,  3-P ) :   1.0577 B(  3-P ,  4-S ) :   1.6693
B(  3-P ,  5-O ) :   1.1211 B(  3-P ,  8-S ) :   0.9595 B(  5-O ,  6-C ) :   0.8911
B(  6-C ,  7-C ) :   1.1637 B(  6-C , 24-H ) :   0.9325 B(  6-C , 25-H ) :   0.9118
B(  7-C , 26-H ) :   0.9347 B(  7-C , 27-H ) :   0.9428 B(  7-C , 28-H ) :   0.9373
B(  8-S ,  9-C ) :   1.0128 B(  9-C , 10-S ) :   0.9694 B(  9-C , 29-H ) :   0.9022
B(  9-C , 30-H ) :   0.9038 B( 10-S , 11-P ) :   0.9569 B( 10-S , 12-S ) :   0.1148
B( 11-P , 12-S ) :   1.6458 B( 11-P , 13-O ) :   1.0669 B( 11-P , 16-O ) :   1.1127
B( 13-O , 14-C ) :   0.9113 B( 14-C , 15-C ) :   1.1672 B( 14-C , 31-H ) :   0.9050
B( 14-C , 32-H ) :   0.9330 B( 15-C , 33-H ) :   0.9457 B( 15-C , 34-H ) :   0.9264
B( 15-C , 35-H ) :   0.9391 B( 16-O , 17-C ) :   0.9014 B( 17-C , 18-C ) :   1.1675
B( 17-C , 36-H ) :   0.9192 B( 17-C , 37-H ) :   0.9350 B( 18-C , 38-H ) :   0.9312
B( 18-C , 39-H ) :   0.9361 B( 18-C , 40-H ) :   0.9418

Dispersion correction           -0.067705954
FINAL SINGLE POINT ENERGY     -2929.507090918270

DIPOLE MOMENT
-------------

Method             : SCF
Type of density    : Electron Density
Multiplicity       :   1
Irrep              :   0
Energy             : -2929.6242172563715940 Eh
Relativity type    :
Basis              : AO
                                X                 Y                 Z
Electronic contribution:     -1.149732922       9.660290082     -13.740572590
Nuclear contribution   :      0.653093145     -11.460467884      14.767119308
                        -----------------------------------------
Total Dipole Moment    :     -0.496639777      -1.800177803       1.026546718
                        -----------------------------------------
Magnitude (a.u.)       :      2.130983190
Magnitude (Debye)      :      5.416528809

Rotational constants in cm-1:             0.012228             0.005593             0.004938
Rotational constants in MHz :           366.597234           167.682481           148.023418

                             ****ORCA TERMINATED NORMALLY****
TOTAL RUN TIME: 0 days 0 hours 0 minutes 21 seconds 469 msec
