                         Program Version 6.0.0  -   RELEASE  -
|  1> ! pbe def2-sv(p) def2/J RI DEFGRID1 loosescf d4 GCP(DFT/SV(P)) printgap
|  2> %output
|  3>     printlevel normal
|  4> end
|  5> * xyz 0 1
|  6> C 2.482273126 0.1911852313 -2.9779676221
|  7> C 2.7575200245 1.0995964521 -1.7969419284
|  8> O 3.1809413982 0.3352337975 -0.6530604544
|  9> P 2.2439147094 -0.1395318718 0.5315247727
| 10> S 1.2049874739 1.2656065537 1.4353406626
| 11> O 3.2749191813 -0.8743431593 1.4818784394
| 12> C 4.0023330199 -0.1910086291 2.5230452584
| 13> C 5.0386759756 0.7571270752 1.9582412255
| 14> S 1.2086152233 -1.8261155498 -0.1872678667
| 15> C -0.0921413682 -1.8924166833 1.0940587579
| 16> S -1.7626547261 -2.025861201 0.4060299172
| 17> P -2.0876000062 -0.0473181451 -0.2538318979
| 18> S -0.8339060332 0.7702589813 -1.5264459756
| 19> O -2.278402077 0.6772901743 1.1365070358
| 20> C -2.2521269122 2.1119272027 1.2819445039
| 21> C -3.3874323357 2.7764419203 0.5346228687
| 22> O -3.5728380898 -0.1428544095 -0.8044565836
| 23> C -3.8754911373 -0.6085061961 -2.1344543636
| 24> C -5.2336610064 -0.0605291451 -2.5244746224
| 25> H 1.6147790487 -0.4345983062 -2.779874666
| 26> H 2.2778025614 0.8004119801 -3.8522086733
| 27> H 3.3426712902 -0.4440822537 -3.1676573132
| 28> H 1.8699076299 1.6848627947 -1.5377675665
| 29> H 3.5925108655 1.7724893429 -2.0012624872
| 30> H 3.2847758744 0.3494277882 3.1491452179
| 31> H 4.4598441295 -1.000280054 3.0933684421
| 32> H 5.6877677818 0.23190706 1.262761805
| 33> H 4.5452840135 1.5725791487 1.4310077098
| 34> H 5.6313712808 1.1681134084 2.7695184937
| 35> H -0.0268344273 -0.9908214115 1.7075353024
| 36> H 0.0543309839 -2.7906220007 1.6875731035
| 37> H -2.3262911528 2.2614583709 2.35987372
| 38> H -1.2814626796 2.4785296757 0.932740642
| 39> H -4.337418267 2.3403937765 0.8324288825
| 40> H -3.3882628239 3.8392785125 0.7551488989
| 41> H -3.2541464073 2.6370971402 -0.5376567787
| 42> H -3.0908117979 -0.2596064455 -2.8147220363
| 43> H -3.8756251627 -1.7013345658 -2.1177768331
| 44> H -5.4966746869 -0.4314629947 -3.5095684126
| 45> H -5.9816106647 -0.382688811 -1.8059785094
| 46> H -5.2096507555 1.025427836 -2.5452822632
| 47> *
| 48>
| 49>                          ****END OF INPUT****

CARTESIAN COORDINATES (ANGSTROEM)
---------------------------------
  C      2.482273    0.191185   -2.977968
  C      2.757520    1.099596   -1.796942
  O      3.180941    0.335234   -0.653060
  P      2.243915   -0.139532    0.531525
  S      1.204987    1.265607    1.435341
  O      3.274919   -0.874343    1.481878
  C      4.002333   -0.191009    2.523045
  C      5.038676    0.757127    1.958241
  S      1.208615   -1.826116   -0.187268
  C     -0.092141   -1.892417    1.094059
  S     -1.762655   -2.025861    0.406030
  P     -2.087600   -0.047318   -0.253832
  S     -0.833906    0.770259   -1.526446
  O     -2.278402    0.677290    1.136507
  C     -2.252127    2.111927    1.281945
  C     -3.387432    2.776442    0.534623
  O     -3.572838   -0.142854   -0.804457
  C     -3.875491   -0.608506   -2.134454
  C     -5.233661   -0.060529   -2.524475
  H      1.614779   -0.434598   -2.779875
  H      2.277803    0.800412   -3.852209
  H      3.342671   -0.444082   -3.167657
  H      1.869908    1.684863   -1.537768
  H      3.592511    1.772489   -2.001262
  H      3.284776    0.349428    3.149145
  H      4.459844   -1.000280    3.093368
  H      5.687768    0.231907    1.262762
  H      4.545284    1.572579    1.431008
  H      5.631371    1.168113    2.769518
  H     -0.026834   -0.990821    1.707535
  H      0.054331   -2.790622    1.687573
  H     -2.326291    2.261458    2.359874
  H     -1.281463    2.478530    0.932741
  H     -4.337418    2.340394    0.832429
  H     -3.388263    3.839279    0.755149
  H     -3.254146    2.637097   -0.537657
  H     -3.090812   -0.259606   -2.814722
  H     -3.875625   -1.701335   -2.117777
  H     -5.496675   -0.431463   -3.509568
  H     -5.981611   -0.382689   -1.805979
  H     -5.209651    1.025428   -2.545282

 Total Charge           Charge          ....    0
 Multiplicity           Mult            ....    1
 Number of Electrons    NEL             ....  202
 Basis Dimension        Dim             ....  334

ORBITAL ENERGIES
----------------

  NO   OCC          E(Eh)            E(eV)
   0   2.0000     -88.040124     -2395.6936
   1   2.0000     -88.036847     -2395.6044
   2   2.0000     -87.983885     -2394.1632
   3   2.0000     -87.982009     -2394.1122
   4   2.0000     -76.423400     -2079.5864
   5   2.0000     -76.423199     -2079.5810
   6   2.0000     -18.791971      -511.3555
   7   2.0000     -18.791282      -511.3368
   8   2.0000     -18.787332      -511.2293
   9   2.0000     -18.783610      -511.1280
  10   2.0000      -9.954142      -270.8660
  11   2.0000      -9.951587      -270.7965
  12   2.0000      -9.947848      -270.6947
  13   2.0000      -9.947153      -270.6758
  14   2.0000      -9.944209      -270.5957
  15   2.0000      -9.887848      -269.0620
  16   2.0000      -9.880804      -268.8703
  17   2.0000      -9.879351      -268.8308
  18   2.0000      -9.876951      -268.7655
  19   2.0000      -7.685816      -209.1417
  20   2.0000      -7.682248      -209.0446
  21   2.0000      -7.628655      -207.5863
  22   2.0000      -7.626765      -207.5348
  23   2.0000      -6.420984      -174.7238
  24   2.0000      -6.420869      -174.7207
  25   2.0000      -5.713646      -155.4762
  26   2.0000      -5.710381      -155.3874
  27   2.0000      -5.710208      -155.3826
  28   2.0000      -5.706933      -155.2935
  29   2.0000      -5.702689      -155.1781
  30   2.0000      -5.698888      -155.0746
  31   2.0000      -5.657385      -153.9453
  32   2.0000      -5.655476      -153.8933
  33   2.0000      -5.649551      -153.7321
  34   2.0000      -5.648714      -153.7093
  35   2.0000      -5.647429      -153.6744
  36   2.0000      -5.647081      -153.6649
  37   2.0000      -4.643476      -126.3554
  38   2.0000      -4.643319      -126.3511
  39   2.0000      -4.642816      -126.3375
  40   2.0000      -4.642597      -126.3315
  41   2.0000      -4.641457      -126.3005
  42   2.0000      -4.641453      -126.3003
  43   2.0000      -0.984598       -26.7923
  44   2.0000      -0.983581       -26.7646
  45   2.0000      -0.943828       -25.6829
  46   2.0000      -0.941869       -25.6296
  47   2.0000      -0.759556       -20.6686
  48   2.0000      -0.720552       -19.6072
  49   2.0000      -0.706589       -19.2273
  50   2.0000      -0.686340       -18.6763
  51   2.0000      -0.683933       -18.6108
  52   2.0000      -0.669217       -18.2103
  53   2.0000      -0.648999       -17.6602
  54   2.0000      -0.632154       -17.2018
  55   2.0000      -0.599679       -16.3181
  56   2.0000      -0.591419       -16.0933
  57   2.0000      -0.566384       -15.4121
  58   2.0000      -0.564473       -15.3601
  59   2.0000      -0.559632       -15.2284
  60   2.0000      -0.502032       -13.6610
  61   2.0000      -0.492589       -13.4040
  62   2.0000      -0.473881       -12.8950
  63   2.0000      -0.472189       -12.8489
  64   2.0000      -0.450910       -12.2699
  65   2.0000      -0.445536       -12.1236
  66   2.0000      -0.435838       -11.8598
  67   2.0000      -0.432561       -11.7706
  68   2.0000      -0.425859       -11.5882
  69   2.0000      -0.410664       -11.1747
  70   2.0000      -0.401840       -10.9346
  71   2.0000      -0.395276       -10.7560
  72   2.0000      -0.391626       -10.6567
  73   2.0000      -0.386674       -10.5219
  74   2.0000      -0.380504       -10.3541
  75   2.0000      -0.372540       -10.1373
  76   2.0000      -0.368037       -10.0148
  77   2.0000      -0.356129        -9.6908
  78   2.0000      -0.353274        -9.6131
  79   2.0000      -0.345392        -9.3986
  80   2.0000      -0.343770        -9.3544
  81   2.0000      -0.341204        -9.2846
  82   2.0000      -0.338889        -9.2216
  83   2.0000      -0.332835        -9.0569
  84   2.0000      -0.329976        -8.9791
  85   2.0000      -0.313555        -8.5323
  86   2.0000      -0.309159        -8.4126
  87   2.0000      -0.298140        -8.1128
  88   2.0000      -0.289866        -7.8876
  89   2.0000      -0.281894        -7.6707
  90   2.0000      -0.281192        -7.6516
  91   2.0000      -0.269650        -7.3375
  92   2.0000      -0.268466        -7.3053
  93   2.0000      -0.262926        -7.1546
  94   2.0000      -0.259483        -7.0609
  95   2.0000      -0.240119        -6.5340
  96   2.0000      -0.224325        -6.1042
  97   2.0000      -0.205112        -5.5814
  98   2.0000      -0.202982        -5.5234
  99   2.0000      -0.191613        -5.2141
 100   2.0000      -0.184683        -5.0255
 101   0.0000      -0.037593        -1.0230
 102   0.0000      -0.030006        -0.8165
 103   0.0000      -0.009014        -0.2453
 104   0.0000       0.006518         0.1774
 105   0.0000       0.022982         0.6254

MULLIKEN ATOMIC CHARGES
-----------------------
   0 C :   -0.308708
   1 C :   -0.013421
   2 O :   -0.371871
   3 P :    0.621383
   4 S :   -0.334694
   5 O :   -0.367515
   6 C :   -0.003283
   7 C :   -0.304764
   8 S :   -0.071914
   9 C :   -0.353362
  10 S :   -0.094401
  11 P :    0.628192
  12 S :   -0.333994
  13 O :   -0.364711
  14 C :   -0.009531
  15 C :   -0.310344
  16 O :   -0.377921
  17 C :   -0.011079
  18 C :   -0.284488
  19 H :    0.141294
  20 H :    0.109521
  21 H :    0.111460
  22 H :    0.123021
  23 H :    0.102534
  24 H :    0.107102
  25 H :    0.102781
  26 H :    0.116645
  27 H :    0.121594
  28 H :    0.109672
  29 H :    0.194375
  30 H :    0.185562
  31 H :    0.104017
  32 H :    0.129478
  33 H :    0.115384
  34 H :    0.110913
  35 H :    0.122225
  36 H :    0.105496
  37 H :    0.103202
  38 H :    0.111868
  39 H :    0.117594
  40 H :    0.120689
Sum of atomic charges:   -0.0000000

LOEWDIN ATOMIC CHARGES
----------------------
   0 C :   -0.365448
   1 C :   -0.115573
   2 O :   -0.237211
   3 P :    0.573503
   4 S :   -0.313639
   5 O :   -0.246339
   6 C :   -0.118824
   7 C :   -0.364104
   8 S :    0.088945
   9 C :   -0.477022
  10 S :    0.079587
  11 P :    0.570749
  12 S :   -0.316124
  13 O :   -0.235227
  14 C :   -0.117957
  15 C :   -0.367089
  16 O :   -0.246350
  17 C :   -0.120846
  18 C :   -0.350837
  19 H :    0.122431
  20 H :    0.130757
  21 H :    0.123965
  22 H :    0.109766
  23 H :    0.117220
  24 H :    0.107945
  25 H :    0.117689
  26 H :    0.126389
  27 H :    0.123218
  28 H :    0.129115
  29 H :    0.123742
  30 H :    0.137817
  31 H :    0.119418
  32 H :    0.110304
  33 H :    0.125126
  34 H :    0.130161
  35 H :    0.120407
  36 H :    0.106831
  37 H :    0.111419
  38 H :    0.130824
  39 H :    0.127214
  40 H :    0.128045

  Mayer bond orders larger than 0.100000
B(  0-C ,  1-C ) :   1.1729 B(  0-C , 19-H ) :   0.9301 B(  0-C , 20-H ) :   0.9403
B(  0-C , 21-H ) :   0.9467 B(  1-C ,  2-O ) :   0.8969 B(  1-C , 22-H ) :   0.9062
B(  1-C , 23-H ) :   0.9339 B(  2-O ,  3-P ) :   1.1272 B(  3-P ,  4-S ) :   1.5814
B(  3-P ,  5-O ) :   1.1221 B(  3-P ,  8-S ) :   0.9734 B(  4-S ,  8-S ) :   0.1159
B(  5-O ,  6-C ) :   0.9129 B(  6-C ,  7-C ) :   1.1648 B(  6-C , 24-H ) :   0.9134
B(  6-C , 25-H ) :   0.9348 B(  7-C , 26-H ) :   0.9466 B(  7-C , 27-H ) :   0.9381
B(  7-C , 28-H ) :   0.9390 B(  8-S ,  9-C ) :   0.9879 B(  9-C , 10-S ) :   1.0031
B(  9-C , 29-H ) :   0.8566 B(  9-C , 30-H ) :   0.9111 B( 10-S , 11-P ) :   0.9676
B( 10-S , 12-S ) :   0.1168 B( 11-P , 12-S ) :   1.6171 B( 11-P , 13-O ) :   1.1385
B( 11-P , 16-O ) :   1.1009 B( 13-O , 14-C ) :   0.8972 B( 14-C , 15-C ) :   1.1635
B( 14-C , 31-H ) :   0.9360 B( 14-C , 32-H ) :   0.9097 B( 15-C , 33-H ) :   0.9448
B( 15-C , 34-H ) :   0.9382 B( 15-C , 35-H ) :   0.9336 B( 16-O , 17-C ) :   0.9048
B( 17-C , 18-C ) :   1.1605 B( 17-C , 36-H ) :   0.9046 B( 17-C , 37-H ) :   0.9310
B( 18-C , 38-H ) :   0.9417 B( 18-C , 39-H ) :   0.9503 B( 18-C , 40-H ) :   0.9513

Dispersion correction           -0.065692758
FINAL SINGLE POINT ENERGY     -2929.520188576651

DIPOLE MOMENT
-------------

Method             : SCF
Type of density    : Electron Density
Multiplicity       :   1
Irrep              :   0
Energy             : -2929.6386159723278979 Eh
Relativity type    :
Basis              : AO
                                X                 Y                 Z
Electronic contribution:      1.830202629     -12.947197607       6.434567752
Nuclear contribution   :     -1.915208332      13.097250105      -6.509728676
                        -----------------------------------------
Total Dipole Moment    :     -0.085005703       0.150052499      -0.075160925
                        -----------------------------------------
Magnitude (a.u.)       :      0.188124657
Magnitude (Debye)      :      0.478174876

Rotational constants in cm-1:             0.013304             0.004763             0.004654
Rotational constants in MHz :           398.844201           142.783117           139.510281

                             ****ORCA TERMINATED NORMALLY****
TOTAL RUN TIME: 0 days 0 hours 0 minutes 20 seconds 910 msec
