                         Program Version 6.0.0  -   RELEASE  -
|  1> ! pbe def2-sv(p) def2/J RI DEFGRID1 loosescf d4 GCP(DFT/SV(P)) printgap
|  2> %output
|  3>     printlevel normal
|  4> end
|  5> * xyz 0 1
|  6> C 5.179940809 -1.1995201405 -1.9398584969
|  7> C 4.9457908127 -0.335490385 -0.7166208373
|  8> O 3.6903633486 -0.6862575089 -0.0891488478
|  9> P 2.3781506204 0.169691096 -0.3147015131
| 10> S 1.9739571171 0.6552989552 -2.1754699686
| 11> O 2.6783330778 1.4073452454 0.640711173
| 12> C 1.8759699764 2.5985351448 0.7090098872
| 13> C 0.9766341724 2.5665749397 1.9285747109
| 14> S 1.0425525341 -1.0882635874 0.7089591738
| 15> C 0.072708774 -1.697837316 -0.7208014542
| 16> S -1.6453078503 -1.9863414549 -0.2799414976
| 17> P -2.1514595698 0.0192207544 0.2593334212
| 18> S -1.3092226783 1.4498169998 -0.7779080208
| 19> O -1.7747077631 0.1908831732 1.77972687
| 20> C -2.2517201067 -0.6887201074 2.8283360179
| 21> C -3.3982005515 -0.0420245947 3.5781107089
| 22> O -3.7375199753 -0.033915386 0.3150213103
| 23> C -4.5901030045 -0.5567386764 -0.7214680758
| 24> C -4.3122509767 0.0588307495 -2.0765253585
| 25> H 5.1424832645 -2.2498445365 -1.6655464345
| 26> H 4.4146557968 -1.0026797378 -2.6877999266
| 27> H 6.1539230441 -0.9700282138 -2.3599747208
| 28> H 4.9344662612 0.7255998364 -0.9796990305
| 29> H 5.6995860838 -0.5143426074 0.051773924
| 30> H 2.5952334287 3.4176832256 0.7702714384
| 31> H 1.2908378141 2.6962811947 -0.2119054335
| 32> H 0.4702454496 3.5221529355 2.0193267994
| 33> H 0.2263418938 1.7843894841 1.8286286364
| 34> H 1.5670821262 2.3792543117 2.8210336479
| 35> H 0.4712575708 -2.6558264234 -1.045265882
| 36> H 0.133273118 -0.9505310927 -1.5177508977
| 37> H -2.5527885093 -1.6415843965 2.384544638
| 38> H -1.3849342532 -0.8436716153 3.4734994992
| 39> H -3.0836075795 0.9137132691 3.9877379661
| 40> H -4.2381934752 0.1243235533 2.9089829959
| 41> H -3.7066836835 -0.6958962158 4.387685307
| 42> H -4.457298358 -1.6414266623 -0.7550758801
| 43> H -5.5957968268 -0.3142273516 -0.3737741902
| 44> H -4.3790587908 1.1431290633 -2.0231190381
| 45> H -3.3101971381 -0.2056378004 -2.4123295596
| 46> H -5.0343785028 -0.3111435421 -2.7971682745
| 47> *
| 48>
| 49>                          ****END OF INPUT****

CARTESIAN COORDINATES (ANGSTROEM)
---------------------------------
  C      5.179941   -1.199520   -1.939858
  C      4.945791   -0.335490   -0.716621
  O      3.690363   -0.686258   -0.089149
  P      2.378151    0.169691   -0.314702
  S      1.973957    0.655299   -2.175470
  O      2.678333    1.407345    0.640711
  C      1.875970    2.598535    0.709010
  C      0.976634    2.566575    1.928575
  S      1.042553   -1.088264    0.708959
  C      0.072709   -1.697837   -0.720801
  S     -1.645308   -1.986341   -0.279941
  P     -2.151460    0.019221    0.259333
  S     -1.309223    1.449817   -0.777908
  O     -1.774708    0.190883    1.779727
  C     -2.251720   -0.688720    2.828336
  C     -3.398201   -0.042025    3.578111
  O     -3.737520   -0.033915    0.315021
  C     -4.590103   -0.556739   -0.721468
  C     -4.312251    0.058831   -2.076525
  H      5.142483   -2.249845   -1.665546
  H      4.414656   -1.002680   -2.687800
  H      6.153923   -0.970028   -2.359975
  H      4.934466    0.725600   -0.979699
  H      5.699586   -0.514343    0.051774
  H      2.595233    3.417683    0.770271
  H      1.290838    2.696281   -0.211905
  H      0.470245    3.522153    2.019327
  H      0.226342    1.784389    1.828629
  H      1.567082    2.379254    2.821034
  H      0.471258   -2.655826   -1.045266
  H      0.133273   -0.950531   -1.517751
  H     -2.552789   -1.641584    2.384545
  H     -1.384934   -0.843672    3.473499
  H     -3.083608    0.913713    3.987738
  H     -4.238193    0.124324    2.908983
  H     -3.706684   -0.695896    4.387685
  H     -4.457298   -1.641427   -0.755076
  H     -5.595797   -0.314227   -0.373774
  H     -4.379059    1.143129   -2.023119
  H     -3.310197   -0.205638   -2.412330
  H     -5.034379   -0.311144   -2.797168

 Total Charge           Charge          ....    0
 Multiplicity           Mult            ....    1
 Number of Electrons    NEL             ....  202
 Basis Dimension        Dim             ....  334

ORBITAL ENERGIES
----------------

  NO   OCC          E(Eh)            E(eV)
   0   2.0000     -88.049593     -2395.9512
   1   2.0000     -88.038540     -2395.6505
   2   2.0000     -87.981623     -2394.1017
   3   2.0000     -87.981019     -2394.0852
   4   2.0000     -76.428343     -2079.7209
   5   2.0000     -76.419402     -2079.4777
   6   2.0000     -18.799254      -511.5537
   7   2.0000     -18.793207      -511.3892
   8   2.0000     -18.783421      -511.1229
   9   2.0000     -18.781079      -511.0591
  10   2.0000      -9.962551      -271.0948
  11   2.0000      -9.956566      -270.9319
  12   2.0000      -9.953714      -270.8543
  13   2.0000      -9.947781      -270.6929
  14   2.0000      -9.937978      -270.4261
  15   2.0000      -9.888080      -269.0683
  16   2.0000      -9.885040      -268.9856
  17   2.0000      -9.876855      -268.7629
  18   2.0000      -9.867029      -268.4955
  19   2.0000      -7.694424      -209.3759
  20   2.0000      -7.683732      -209.0850
  21   2.0000      -7.626537      -207.5286
  22   2.0000      -7.625962      -207.5130
  23   2.0000      -6.425322      -174.8419
  24   2.0000      -6.417188      -174.6206
  25   2.0000      -5.722216      -155.7094
  26   2.0000      -5.718714      -155.6141
  27   2.0000      -5.711774      -155.4253
  28   2.0000      -5.711612      -155.4209
  29   2.0000      -5.708463      -155.3352
  30   2.0000      -5.700418      -155.1163
  31   2.0000      -5.655685      -153.8990
  32   2.0000      -5.654790      -153.8747
  33   2.0000      -5.646963      -153.6617
  34   2.0000      -5.646768      -153.6564
  35   2.0000      -5.646647      -153.6531
  36   2.0000      -5.646006      -153.6356
  37   2.0000      -4.648156      -126.4827
  38   2.0000      -4.647438      -126.4632
  39   2.0000      -4.645273      -126.4043
  40   2.0000      -4.639615      -126.2503
  41   2.0000      -4.638814      -126.2286
  42   2.0000      -4.637892      -126.2035
  43   2.0000      -0.992366       -27.0037
  44   2.0000      -0.978096       -26.6153
  45   2.0000      -0.948785       -25.8178
  46   2.0000      -0.934762       -25.4362
  47   2.0000      -0.763534       -20.7768
  48   2.0000      -0.720964       -19.6184
  49   2.0000      -0.708453       -19.2780
  50   2.0000      -0.693799       -18.8792
  51   2.0000      -0.676086       -18.3972
  52   2.0000      -0.672932       -18.3114
  53   2.0000      -0.650034       -17.6883
  54   2.0000      -0.631714       -17.1898
  55   2.0000      -0.592685       -16.1278
  56   2.0000      -0.587737       -15.9931
  57   2.0000      -0.577009       -15.7012
  58   2.0000      -0.563092       -15.3225
  59   2.0000      -0.561637       -15.2829
  60   2.0000      -0.504995       -13.7416
  61   2.0000      -0.494090       -13.4449
  62   2.0000      -0.477494       -12.9933
  63   2.0000      -0.465570       -12.6688
  64   2.0000      -0.454698       -12.3730
  65   2.0000      -0.446642       -12.1538
  66   2.0000      -0.440521       -11.9872
  67   2.0000      -0.432330       -11.7643
  68   2.0000      -0.427476       -11.6322
  69   2.0000      -0.413652       -11.2561
  70   2.0000      -0.409056       -11.1310
  71   2.0000      -0.399918       -10.8823
  72   2.0000      -0.390086       -10.6148
  73   2.0000      -0.386590       -10.5197
  74   2.0000      -0.374153       -10.1812
  75   2.0000      -0.368819       -10.0361
  76   2.0000      -0.359365        -9.7788
  77   2.0000      -0.358565        -9.7571
  78   2.0000      -0.351015        -9.5516
  79   2.0000      -0.349152        -9.5009
  80   2.0000      -0.345286        -9.3957
  81   2.0000      -0.342295        -9.3143
  82   2.0000      -0.336775        -9.1641
  83   2.0000      -0.334226        -9.0948
  84   2.0000      -0.322727        -8.7819
  85   2.0000      -0.321474        -8.7477
  86   2.0000      -0.303697        -8.2640
  87   2.0000      -0.300119        -8.1667
  88   2.0000      -0.293437        -7.9848
  89   2.0000      -0.285799        -7.7770
  90   2.0000      -0.281877        -7.6703
  91   2.0000      -0.279374        -7.6021
  92   2.0000      -0.268016        -7.2931
  93   2.0000      -0.264976        -7.2104
  94   2.0000      -0.257081        -6.9955
  95   2.0000      -0.234496        -6.3810
  96   2.0000      -0.221423        -6.0252
  97   2.0000      -0.210486        -5.7276
  98   2.0000      -0.197259        -5.3677
  99   2.0000      -0.194685        -5.2977
 100   2.0000      -0.185662        -5.0521
 101   0.0000      -0.044366        -1.2073
 102   0.0000      -0.031797        -0.8653
 103   0.0000      -0.013383        -0.3642
 104   0.0000       0.011484         0.3125
 105   0.0000       0.018308         0.4982

MULLIKEN ATOMIC CHARGES
-----------------------
   0 C :   -0.288424
   1 C :   -0.001121
   2 O :   -0.370817
   3 P :    0.623942
   4 S :   -0.321015
   5 O :   -0.377261
   6 C :   -0.010215
   7 C :   -0.312326
   8 S :   -0.100229
   9 C :   -0.348245
  10 S :   -0.121101
  11 P :    0.590299
  12 S :   -0.292379
  13 O :   -0.342877
  14 C :   -0.008192
  15 C :   -0.286328
  16 O :   -0.377222
  17 C :   -0.011748
  18 C :   -0.310903
  19 H :    0.110641
  20 H :    0.124059
  21 H :    0.105761
  22 H :    0.103047
  23 H :    0.105115
  24 H :    0.096805
  25 H :    0.119205
  26 H :    0.103863
  27 H :    0.146207
  28 H :    0.101331
  29 H :    0.182000
  30 H :    0.214260
  31 H :    0.097174
  32 H :    0.111803
  33 H :    0.120547
  34 H :    0.119384
  35 H :    0.109505
  36 H :    0.113533
  37 H :    0.110053
  38 H :    0.128966
  39 H :    0.130515
  40 H :    0.112391
Sum of atomic charges:   -0.0000000

LOEWDIN ATOMIC CHARGES
----------------------
   0 C :   -0.361187
   1 C :   -0.112416
   2 O :   -0.249581
   3 P :    0.567509
   4 S :   -0.304431
   5 O :   -0.245730
   6 C :   -0.118039
   7 C :   -0.367947
   8 S :    0.079643
   9 C :   -0.478116
  10 S :    0.066467
  11 P :    0.563984
  12 S :   -0.286002
  13 O :   -0.227503
  14 C :   -0.116422
  15 C :   -0.357721
  16 O :   -0.245298
  17 C :   -0.115144
  18 C :   -0.369047
  19 H :    0.124596
  20 H :    0.124493
  21 H :    0.127505
  22 H :    0.110037
  23 H :    0.118004
  24 H :    0.113861
  25 H :    0.107192
  26 H :    0.128455
  27 H :    0.122312
  28 H :    0.119364
  29 H :    0.134998
  30 H :    0.124027
  31 H :    0.101977
  32 H :    0.120883
  33 H :    0.129107
  34 H :    0.126118
  35 H :    0.129191
  36 H :    0.108263
  37 H :    0.121490
  38 H :    0.131489
  39 H :    0.122915
  40 H :    0.130702

  Mayer bond orders larger than 0.100000
B(  0-C ,  1-C ) :   1.1683 B(  0-C , 19-H ) :   0.9476 B(  0-C , 20-H ) :   0.9356
B(  0-C , 21-H ) :   0.9409 B(  1-C ,  2-O ) :   0.8940 B(  1-C , 22-H ) :   0.9153
B(  1-C , 23-H ) :   0.9350 B(  2-O ,  3-P ) :   1.1297 B(  3-P ,  4-S ) :   1.6101
B(  3-P ,  5-O ) :   1.1179 B(  3-P ,  8-S ) :   0.9601 B(  4-S ,  8-S ) :   0.1207
B(  5-O ,  6-C ) :   0.9005 B(  6-C ,  7-C ) :   1.1712 B(  6-C , 24-H ) :   0.9347
B(  6-C , 25-H ) :   0.9040 B(  7-C , 26-H ) :   0.9404 B(  7-C , 27-H ) :   0.9237
B(  7-C , 28-H ) :   0.9461 B(  8-S ,  9-C ) :   0.9917 B(  9-C , 10-S ) :   1.0079
B(  9-C , 29-H ) :   0.9087 B(  9-C , 30-H ) :   0.8453 B( 10-S , 11-P ) :   0.9303
B( 10-S , 12-S ) :   0.1096 B( 11-P , 12-S ) :   1.6624 B( 11-P , 13-O ) :   1.1190
B( 11-P , 16-O ) :   1.0820 B( 13-O , 14-C ) :   0.8887 B( 14-C , 15-C ) :   1.1649
B( 14-C , 31-H ) :   0.9122 B( 14-C , 32-H ) :   0.9340 B( 15-C , 33-H ) :   0.9476
B( 15-C , 34-H ) :   0.9435 B( 15-C , 35-H ) :   0.9406 B( 16-O , 17-C ) :   0.9104
B( 17-C , 18-C ) :   1.1670 B( 17-C , 36-H ) :   0.9266 B( 17-C , 37-H ) :   0.9329
B( 18-C , 38-H ) :   0.9425 B( 18-C , 39-H ) :   0.9321 B( 18-C , 40-H ) :   0.9345

Dispersion correction           -0.065628615
FINAL SINGLE POINT ENERGY     -2929.518816875858

DIPOLE MOMENT
-------------

Method             : SCF
Type of density    : Electron Density
Multiplicity       :   1
Irrep              :   0
Energy             : -2929.6377058280590973 Eh
Relativity type    :
Basis              : AO
                                X                 Y                 Z
Electronic contribution:      3.843086896      -3.174638961      -4.798904946
Nuclear contribution   :     -4.548108234       2.414426086       5.606957353
                        -----------------------------------------
Total Dipole Moment    :     -0.705021338      -0.760212875       0.808052408
                        -----------------------------------------
Magnitude (a.u.)       :      1.314506522
Magnitude (Debye)      :      3.341210048

Rotational constants in cm-1:             0.013154             0.004824             0.004540
Rotational constants in MHz :           394.341995           144.619584           136.094433

                             ****ORCA TERMINATED NORMALLY****
TOTAL RUN TIME: 0 days 0 hours 0 minutes 21 seconds 470 msec
