                         Program Version 6.0.1  -  RELEASE   -
|  1> ! pbe def2-sv(p) def2/J RI DEFGRID1 loosescf d4 GCP(DFT/SV(P)) printgap
|  2> %output
|  3>     printlevel normal
|  4> end
|  5> * xyz 0 1
|  6> C 3.9883822037 -3.7888513435 -1.4145644103
|  7> C 2.8866040462 -2.9889759937 -2.0912767394
|  8> O 2.6824937362 -1.7255649324 -1.4294149281
|  9> C 1.8850079147 -1.6877896282 -0.3820544266
| 10> O 1.2973748111 -2.6425042663 0.0748824046
| 11> C 1.7467271249 -0.2743557759 0.1543584748
| 12> C 0.851607109 0.5265550218 -0.7922192776
| 13> H 1.3676565519 0.6914894899 -1.7431706787
| 14> C 0.4353342609 1.8745593641 -0.226388341
| 15> O -0.686459672 2.3218350461 -0.3632860387
| 16> O 1.4176881742 2.480732481 0.376672054
| 17> C 1.1400473849 3.7592093951 0.988692813
| 18> C 2.436351589 4.2901616525 1.5651524782
| 19> S -0.6686411133 -0.3694490584 -1.2584917186
| 20> P -1.87588213 -0.0024472599 0.4527527966
| 21> S -1.0550577973 0.5281126372 2.1487158044
| 22> O -3.0768747705 0.932390098 0.0389429807
| 23> C -3.8448313651 0.7375973117 -1.1642306363
| 24> O -2.6474646712 -1.4079352034 0.5539948698
| 25> C -1.9938792412 -2.5732192384 1.0663605509
| 26> H 3.6937425228 -4.0473376676 -0.4000186715
| 27> H 4.163050638 -4.7022019069 -1.9734650293
| 28> H 4.9062122799 -3.2084752033 -1.3802461558
| 29> H 1.9433714082 -3.5422181704 -2.0819700643
| 30> H 3.1593342221 -2.7191427694 -3.1114136338
| 31> H 2.7240122071 0.2043193094 0.2022283872
| 32> H 1.3044022154 -0.3194246533 1.151207068
| 33> H 0.7250346452 4.4231976387 0.2245984234
| 34> H 0.3804579094 3.6015485629 1.7610430577
| 35> H 2.8181648958 3.6029747996 2.3137082268
| 36> H 3.1757411179 4.4044983154 0.7784568511
| 37> H 2.2513924282 5.2540901187 2.026944435
| 38> H -4.3261011433 -0.2387032206 -1.14425523
| 39> H -3.1939828317 0.8212650865 -2.0345424416
| 40> H -4.581300705 1.5367603851 -1.1584916295
| 41> H -1.1042524317 -2.8096697275 0.4803634298
| 42> H -2.7249772825 -3.3735233811 0.9936044065
| 43> H -1.7051523123 -2.4086390673 2.105183101
| 44> *
| 45>
| 46>                          ****END OF INPUT****

CARTESIAN COORDINATES (ANGSTROEM)
---------------------------------
  C      3.988382   -3.788851   -1.414564
  C      2.886604   -2.988976   -2.091277
  O      2.682494   -1.725565   -1.429415
  C      1.885008   -1.687790   -0.382054
  O      1.297375   -2.642504    0.074882
  C      1.746727   -0.274356    0.154358
  C      0.851607    0.526555   -0.792219
  H      1.367657    0.691489   -1.743171
  C      0.435334    1.874559   -0.226388
  O     -0.686460    2.321835   -0.363286
  O      1.417688    2.480732    0.376672
  C      1.140047    3.759209    0.988693
  C      2.436352    4.290162    1.565152
  S     -0.668641   -0.369449   -1.258492
  P     -1.875882   -0.002447    0.452753
  S     -1.055058    0.528113    2.148716
  O     -3.076875    0.932390    0.038943
  C     -3.844831    0.737597   -1.164231
  O     -2.647465   -1.407935    0.553995
  C     -1.993879   -2.573219    1.066361
  H      3.693743   -4.047338   -0.400019
  H      4.163051   -4.702202   -1.973465
  H      4.906212   -3.208475   -1.380246
  H      1.943371   -3.542218   -2.081970
  H      3.159334   -2.719143   -3.111414
  H      2.724012    0.204319    0.202228
  H      1.304402   -0.319425    1.151207
  H      0.725035    4.423198    0.224598
  H      0.380458    3.601549    1.761043
  H      2.818165    3.602975    2.313708
  H      3.175741    4.404498    0.778457
  H      2.251392    5.254090    2.026944
  H     -4.326101   -0.238703   -1.144255
  H     -3.193983    0.821265   -2.034542
  H     -4.581301    1.536760   -1.158492
  H     -1.104252   -2.809670    0.480363
  H     -2.724977   -3.373523    0.993604
  H     -1.705152   -2.408639    2.105183

 Total Charge           Charge          ....    0
 Multiplicity           Mult            ....    1
 Number of Electrons    NEL             ....  174
 Basis Dimension        Dim             ....  316

ORBITAL ENERGIES
----------------

  NO   OCC          E(Eh)            E(eV)
   0   2.0000     -88.036162     -2395.5857
   1   2.0000     -87.976833     -2393.9713
   2   2.0000     -76.419518     -2079.4808
   3   2.0000     -18.813689      -511.9465
   4   2.0000     -18.806819      -511.7596
   5   2.0000     -18.782571      -511.0997
   6   2.0000     -18.778856      -510.9987
   7   2.0000     -18.741060      -509.9702
   8   2.0000     -18.739347      -509.9236
   9   2.0000     -10.018590      -272.6197
  10   2.0000     -10.011186      -272.4182
  11   2.0000      -9.952425      -270.8193
  12   2.0000      -9.951920      -270.8055
  13   2.0000      -9.950560      -270.7685
  14   2.0000      -9.941261      -270.5155
  15   2.0000      -9.925661      -270.0910
  16   2.0000      -9.903302      -269.4825
  17   2.0000      -9.891138      -269.1516
  18   2.0000      -9.890280      -269.1282
  19   2.0000      -7.680897      -209.0078
  20   2.0000      -7.622041      -207.4063
  21   2.0000      -6.416095      -174.5908
  22   2.0000      -5.708930      -155.3479
  23   2.0000      -5.705488      -155.2542
  24   2.0000      -5.697617      -155.0400
  25   2.0000      -5.651182      -153.7765
  26   2.0000      -5.642722      -153.5463
  27   2.0000      -5.641809      -153.5214
  28   2.0000      -4.638754      -126.2269
  29   2.0000      -4.638094      -126.2090
  30   2.0000      -4.636519      -126.1661
  31   2.0000      -1.022142       -27.8139
  32   2.0000      -1.014291       -27.6003
  33   2.0000      -0.975431       -26.5428
  34   2.0000      -0.930310       -25.3150
  35   2.0000      -0.921506       -25.0755
  36   2.0000      -0.917730       -24.9727
  37   2.0000      -0.765936       -20.8422
  38   2.0000      -0.714014       -19.4293
  39   2.0000      -0.709918       -19.3179
  40   2.0000      -0.687238       -18.7007
  41   2.0000      -0.655250       -17.8303
  42   2.0000      -0.625105       -17.0100
  43   2.0000      -0.619400       -16.8547
  44   2.0000      -0.614393       -16.7185
  45   2.0000      -0.593726       -16.1561
  46   2.0000      -0.564062       -15.3489
  47   2.0000      -0.515681       -14.0324
  48   2.0000      -0.505648       -13.7594
  49   2.0000      -0.500171       -13.6104
  50   2.0000      -0.479554       -13.0493
  51   2.0000      -0.463521       -12.6131
  52   2.0000      -0.454626       -12.3710
  53   2.0000      -0.450128       -12.2486
  54   2.0000      -0.439479       -11.9588
  55   2.0000      -0.433218       -11.7885
  56   2.0000      -0.422631       -11.5004
  57   2.0000      -0.416189       -11.3251
  58   2.0000      -0.410000       -11.1567
  59   2.0000      -0.402256       -10.9459
  60   2.0000      -0.400512       -10.8985
  61   2.0000      -0.390940       -10.6380
  62   2.0000      -0.390665       -10.6305
  63   2.0000      -0.380914       -10.3652
  64   2.0000      -0.372918       -10.1476
  65   2.0000      -0.370302       -10.0764
  66   2.0000      -0.362625        -9.8675
  67   2.0000      -0.357190        -9.7196
  68   2.0000      -0.344730        -9.3806
  69   2.0000      -0.339496        -9.2381
  70   2.0000      -0.335072        -9.1178
  71   2.0000      -0.327702        -8.9172
  72   2.0000      -0.321598        -8.7511
  73   2.0000      -0.309991        -8.4353
  74   2.0000      -0.308071        -8.3830
  75   2.0000      -0.299089        -8.1386
  76   2.0000      -0.291394        -7.9292
  77   2.0000      -0.286378        -7.7927
  78   2.0000      -0.268649        -7.3103
  79   2.0000      -0.265133        -7.2146
  80   2.0000      -0.261396        -7.1129
  81   2.0000      -0.248857        -6.7717
  82   2.0000      -0.238298        -6.4844
  83   2.0000      -0.219403        -5.9703
  84   2.0000      -0.214084        -5.8255
  85   2.0000      -0.196005        -5.3336
  86   2.0000      -0.191324        -5.2062
  87   0.0000      -0.043169        -1.1747
  88   0.0000      -0.029830        -0.8117
  89   0.0000      -0.018570        -0.5053
  90   0.0000       0.007590         0.2065
  91   0.0000       0.025896         0.7047

MULLIKEN ATOMIC CHARGES
-----------------------
   0 C :   -0.306124
   1 C :   -0.010845
   2 O :   -0.234648
   3 C :    0.119276
   4 O :   -0.191771
   5 C :   -0.030679
   6 C :   -0.332518
   7 H :    0.154327
   8 C :    0.194751
   9 O :   -0.187489
  10 O :   -0.220712
  11 C :   -0.029982
  12 C :   -0.273414
  13 S :   -0.096148
  14 P :    0.621702
  15 S :   -0.321960
  16 O :   -0.352531
  17 C :   -0.104222
  18 O :   -0.392297
  19 C :   -0.123073
  20 H :    0.129583
  21 H :    0.114230
  22 H :    0.114070
  23 H :    0.109460
  24 H :    0.102408
  25 H :    0.108768
  26 H :    0.116460
  27 H :    0.108085
  28 H :    0.123017
  29 H :    0.120352
  30 H :    0.112955
  31 H :    0.114341
  32 H :    0.121027
  33 H :    0.122831
  34 H :    0.130504
  35 H :    0.140447
  36 H :    0.113751
  37 H :    0.116068
Sum of atomic charges:    0.0000000

LOEWDIN ATOMIC CHARGES
----------------------
   0 C :   -0.356228
   1 C :   -0.111003
   2 O :   -0.061829
   3 C :    0.023710
   4 O :   -0.159935
   5 C :   -0.255909
   6 C :   -0.258746
   7 H :    0.150491
   8 C :   -0.000514
   9 O :   -0.164070
  10 O :   -0.041294
  11 C :   -0.103689
  12 C :   -0.350712
  13 S :    0.106879
  14 P :    0.590587
  15 S :   -0.304658
  16 O :   -0.230003
  17 C :   -0.208424
  18 O :   -0.265089
  19 C :   -0.224797
  20 H :    0.131613
  21 H :    0.131348
  22 H :    0.124946
  23 H :    0.120807
  24 H :    0.117749
  25 H :    0.140321
  26 H :    0.133012
  27 H :    0.118323
  28 H :    0.124828
  29 H :    0.129241
  30 H :    0.125589
  31 H :    0.132794
  32 H :    0.114187
  33 H :    0.111477
  34 H :    0.126325
  35 H :    0.113730
  36 H :    0.117255
  37 H :    0.111688

  Mayer bond orders larger than 0.100000
B(  0-C ,  1-C ) :   1.1741 B(  0-C , 20-H ) :   0.9458 B(  0-C , 21-H ) :   0.9441
B(  0-C , 22-H ) :   0.9484 B(  1-C ,  2-O ) :   0.9142 B(  1-C , 23-H ) :   0.9144
B(  1-C , 24-H ) :   0.9369 B(  2-O ,  3-C ) :   1.2185 B(  3-C ,  4-O ) :   2.0038
B(  3-C ,  5-C ) :   1.0241 B(  5-C ,  6-C ) :   1.0511 B(  5-C , 25-H ) :   0.8723
B(  5-C , 26-H ) :   0.8733 B(  6-C ,  7-H ) :   0.8577 B(  6-C ,  8-C ) :   0.9101
B(  6-C , 13-S ) :   1.0306 B(  8-C ,  9-O ) :   2.0269 B(  8-C , 10-O ) :   1.2697
B( 10-O , 11-C ) :   0.8912 B( 11-C , 12-C ) :   1.1532 B( 11-C , 27-H ) :   0.9303
B( 11-C , 28-H ) :   0.9264 B( 12-C , 29-H ) :   0.9488 B( 12-C , 30-H ) :   0.9503
B( 12-C , 31-H ) :   0.9429 B( 13-S , 14-P ) :   0.9422 B( 13-S , 15-S ) :   0.1134
B( 14-P , 15-S ) :   1.5935 B( 14-P , 16-O ) :   1.1449 B( 14-P , 18-O ) :   1.0743
B( 16-O , 17-C ) :   0.9209 B( 17-C , 32-H ) :   0.9464 B( 17-C , 33-H ) :   0.9393
B( 17-C , 34-H ) :   0.9600 B( 18-O , 19-C ) :   0.9248 B( 19-C , 35-H ) :   0.9251
B( 19-C , 36-H ) :   0.9565 B( 19-C , 37-H ) :   0.9432

Dispersion correction           -0.052178728
FINAL SINGLE POINT ENERGY     -1979.017180318761

DIPOLE MOMENT
-------------

Method             : SCF
Type of density    : Electron Density
Multiplicity       :   1
Irrep              :   0
Energy             : -1979.1467308268056513 Eh
Relativity type    :
Basis              : AO
                                X                 Y                 Z
Electronic contribution:    -14.707684321       2.682334442       2.010104904
Nuclear contribution   :     15.761815730      -2.657281190      -3.246743281
                        -----------------------------------------
Total Dipole Moment    :      1.054131409       0.025053252      -1.236638377
                        -----------------------------------------
Magnitude (a.u.)       :      1.625144661
Magnitude (Debye)      :      4.130789449

Rotational constants in cm-1:             0.010770             0.007970             0.005576
Rotational constants in MHz :           322.877089           238.943865           167.168457

                             ****ORCA TERMINATED NORMALLY****
TOTAL RUN TIME: 0 days 0 hours 0 minutes 45 seconds 514 msec
