                         Program Version 6.0.0  -   RELEASE  -
|  1> ! pbe def2-sv(p) def2/J RI DEFGRID1 loosescf d4 GCP(DFT/SV(P)) printgap
|  2> %output
|  3>     printlevel normal
|  4> end
|  5> * xyz 0 1
|  6> C 2.5097313893 -3.159836344 -0.432109843
|  7> C 3.3666597324 -2.2070711181 -1.2363332349
|  8> O 3.5441695285 -0.9319696668 -0.5742735299
|  9> P 2.4137768595 0.0783113716 -0.1521914672
| 10> S 3.1069875077 1.8853964739 0.1184553871
| 11> O 1.7807473086 -0.5938621149 1.1458374897
| 12> C 1.2685138856 0.1247569936 2.2791903811
| 13> C 2.0201793766 -0.3100966678 3.5218194558
| 14> S 0.9549794692 -0.1440540902 -1.7035595526
| 15> C 0.2518383323 1.513843463 -1.5959783537
| 16> S -0.645707728 1.8108226708 -0.0501123037
| 17> P -2.1082397024 0.3000382361 -0.3414045533
| 18> S -2.7161328869 -0.0374369611 -2.1640853099
| 19> O -3.2979341106 0.7572033329 0.5970984446
| 20> C -3.113272748 1.0601555615 2.0030727228
| 21> C -4.4650684419 1.4420415704 2.5683011879
| 22> O -1.3881082278 -0.9206959269 0.4074328976
| 23> C -1.6112990412 -2.2891002226 0.0174834958
| 24> C -2.9995253771 -2.7538764412 0.4073583934
| 25> H 2.9299515477 -3.2984182648 0.560287609
| 26> H 1.5028048797 -2.7584854183 -0.3383942064
| 27> H 2.4640345853 -4.116417367 -0.9431400198
| 28> H 2.9280965121 -2.0237312789 -2.2208618025
| 29> H 4.3881671802 -2.5737253592 -1.3478405579
| 30> H 1.3853602457 1.2003878081 2.1092949544
| 31> H 0.2052225032 -0.1176917527 2.3457726179
| 32> H 1.9299665001 -1.3835510406 3.6599303818
| 33> H 3.0723620551 -0.0530116395 3.4254673941
| 34> H 1.6065543169 0.2015713855 4.3846996727
| 35> H -0.4305878641 1.6149401165 -2.4392220515
| 36> H 1.0501071784 2.2553104174 -1.6318965913
| 37> H -2.7055465664 0.1750251979 2.4972967254
| 38> H -2.3963672791 1.8820584249 2.0851336817
| 39> H -5.1649054182 0.6192151649 2.4543842308
| 40> H -4.3562072761 1.6806027026 3.6213078996
| 41> H -4.8565212222 2.3075516158 2.0417806821
| 42> H -1.4635340305 -2.3717979675 -1.0638197364
| 43> H -0.8344913378 -2.8463804677 0.543752681
| 44> H -3.7453716184 -2.1474617213 -0.1066039106
| 45> H -3.1273086818 -3.791449557 0.1156292112
| 46> H -3.1464305416 -2.6610562581 1.4803472464
| 47> *
| 48>
| 49>                          ****END OF INPUT****

CARTESIAN COORDINATES (ANGSTROEM)
---------------------------------
  C      2.509731   -3.159836   -0.432110
  C      3.366660   -2.207071   -1.236333
  O      3.544170   -0.931970   -0.574274
  P      2.413777    0.078311   -0.152191
  S      3.106988    1.885396    0.118455
  O      1.780747   -0.593862    1.145837
  C      1.268514    0.124757    2.279190
  C      2.020179   -0.310097    3.521819
  S      0.954979   -0.144054   -1.703560
  C      0.251838    1.513843   -1.595978
  S     -0.645708    1.810823   -0.050112
  P     -2.108240    0.300038   -0.341405
  S     -2.716133   -0.037437   -2.164085
  O     -3.297934    0.757203    0.597098
  C     -3.113273    1.060156    2.003073
  C     -4.465068    1.442042    2.568301
  O     -1.388108   -0.920696    0.407433
  C     -1.611299   -2.289100    0.017483
  C     -2.999525   -2.753876    0.407358
  H      2.929952   -3.298418    0.560288
  H      1.502805   -2.758485   -0.338394
  H      2.464035   -4.116417   -0.943140
  H      2.928097   -2.023731   -2.220862
  H      4.388167   -2.573725   -1.347841
  H      1.385360    1.200388    2.109295
  H      0.205223   -0.117692    2.345773
  H      1.929967   -1.383551    3.659930
  H      3.072362   -0.053012    3.425467
  H      1.606554    0.201571    4.384700
  H     -0.430588    1.614940   -2.439222
  H      1.050107    2.255310   -1.631897
  H     -2.705547    0.175025    2.497297
  H     -2.396367    1.882058    2.085134
  H     -5.164905    0.619215    2.454384
  H     -4.356207    1.680603    3.621308
  H     -4.856521    2.307552    2.041781
  H     -1.463534   -2.371798   -1.063820
  H     -0.834491   -2.846380    0.543753
  H     -3.745372   -2.147462   -0.106604
  H     -3.127309   -3.791450    0.115629
  H     -3.146431   -2.661056    1.480347

 Total Charge           Charge          ....    0
 Multiplicity           Mult            ....    1
 Number of Electrons    NEL             ....  202
 Basis Dimension        Dim             ....  334

ORBITAL ENERGIES
----------------

  NO   OCC          E(Eh)            E(eV)
   0   2.0000     -88.043853     -2395.7950
   1   2.0000     -88.041696     -2395.7363
   2   2.0000     -87.991066     -2394.3586
   3   2.0000     -87.984191     -2394.1715
   4   2.0000     -76.428878     -2079.7355
   5   2.0000     -76.426009     -2079.6574
   6   2.0000     -18.799361      -511.5566
   7   2.0000     -18.794178      -511.4156
   8   2.0000     -18.793962      -511.4097
   9   2.0000     -18.787507      -511.2340
  10   2.0000      -9.966169      -271.1932
  11   2.0000      -9.962293      -271.0878
  12   2.0000      -9.955245      -270.8960
  13   2.0000      -9.954469      -270.8749
  14   2.0000      -9.945237      -270.6236
  15   2.0000      -9.896703      -269.3030
  16   2.0000      -9.893338      -269.2114
  17   2.0000      -9.889009      -269.0936
  18   2.0000      -9.883408      -268.9412
  19   2.0000      -7.688691      -209.2199
  20   2.0000      -7.686311      -209.1552
  21   2.0000      -7.636309      -207.7945
  22   2.0000      -7.629436      -207.6075
  23   2.0000      -6.426678      -174.8788
  24   2.0000      -6.423419      -174.7901
  25   2.0000      -5.716463      -155.5529
  26   2.0000      -5.714173      -155.4906
  27   2.0000      -5.713410      -155.4698
  28   2.0000      -5.710875      -155.4008
  29   2.0000      -5.705580      -155.2567
  30   2.0000      -5.703319      -155.1952
  31   2.0000      -5.665356      -154.1622
  32   2.0000      -5.658423      -153.9735
  33   2.0000      -5.656968      -153.9339
  34   2.0000      -5.656251      -153.9144
  35   2.0000      -5.650074      -153.7463
  36   2.0000      -5.649447      -153.7293
  37   2.0000      -4.649549      -126.5207
  38   2.0000      -4.648084      -126.4808
  39   2.0000      -4.647205      -126.4569
  40   2.0000      -4.646121      -126.4274
  41   2.0000      -4.645116      -126.4000
  42   2.0000      -4.643855      -126.3657
  43   2.0000      -0.989917       -26.9370
  44   2.0000      -0.985540       -26.8179
  45   2.0000      -0.948820       -25.8187
  46   2.0000      -0.943894       -25.6847
  47   2.0000      -0.766122       -20.8472
  48   2.0000      -0.725900       -19.7528
  49   2.0000      -0.716074       -19.4854
  50   2.0000      -0.696820       -18.9614
  51   2.0000      -0.691928       -18.8283
  52   2.0000      -0.674213       -18.3463
  53   2.0000      -0.652635       -17.7591
  54   2.0000      -0.641073       -17.4445
  55   2.0000      -0.598404       -16.2834
  56   2.0000      -0.593816       -16.1586
  57   2.0000      -0.580023       -15.7832
  58   2.0000      -0.571619       -15.5546
  59   2.0000      -0.565337       -15.3836
  60   2.0000      -0.512720       -13.9518
  61   2.0000      -0.498474       -13.5642
  62   2.0000      -0.483383       -13.1535
  63   2.0000      -0.480576       -13.0771
  64   2.0000      -0.461087       -12.5468
  65   2.0000      -0.451203       -12.2778
  66   2.0000      -0.446852       -12.1595
  67   2.0000      -0.438613       -11.9353
  68   2.0000      -0.430348       -11.7104
  69   2.0000      -0.410574       -11.1723
  70   2.0000      -0.407900       -11.0995
  71   2.0000      -0.401141       -10.9156
  72   2.0000      -0.397940       -10.8285
  73   2.0000      -0.389280       -10.5928
  74   2.0000      -0.382499       -10.4083
  75   2.0000      -0.375426       -10.2158
  76   2.0000      -0.368774       -10.0349
  77   2.0000      -0.363490        -9.8911
  78   2.0000      -0.358337        -9.7508
  79   2.0000      -0.357975        -9.7410
  80   2.0000      -0.352532        -9.5929
  81   2.0000      -0.348764        -9.4904
  82   2.0000      -0.347407        -9.4534
  83   2.0000      -0.344364        -9.3706
  84   2.0000      -0.335184        -9.1208
  85   2.0000      -0.324322        -8.8253
  86   2.0000      -0.319639        -8.6978
  87   2.0000      -0.313764        -8.5379
  88   2.0000      -0.296821        -8.0769
  89   2.0000      -0.288388        -7.8474
  90   2.0000      -0.285758        -7.7759
  91   2.0000      -0.277386        -7.5480
  92   2.0000      -0.274904        -7.4805
  93   2.0000      -0.272919        -7.4265
  94   2.0000      -0.255882        -6.9629
  95   2.0000      -0.232419        -6.3245
  96   2.0000      -0.216863        -5.9011
  97   2.0000      -0.214587        -5.8392
  98   2.0000      -0.208081        -5.6622
  99   2.0000      -0.200159        -5.4466
 100   2.0000      -0.198106        -5.3908
 101   0.0000      -0.048131        -1.3097
 102   0.0000      -0.026798        -0.7292
 103   0.0000      -0.002861        -0.0779
 104   0.0000       0.000835         0.0227
 105   0.0000       0.007082         0.1927

MULLIKEN ATOMIC CHARGES
-----------------------
   0 C :   -0.333127
   1 C :   -0.014360
   2 O :   -0.361151
   3 P :    0.617165
   4 S :   -0.318032
   5 O :   -0.379211
   6 C :   -0.026335
   7 C :   -0.273244
   8 S :   -0.118629
   9 C :   -0.335812
  10 S :   -0.106371
  11 P :    0.623846
  12 S :   -0.306525
  13 O :   -0.369266
  14 C :   -0.049187
  15 C :   -0.270387
  16 O :   -0.385190
  17 C :   -0.032097
  18 C :   -0.297998
  19 H :    0.122615
  20 H :    0.147448
  21 H :    0.114722
  22 H :    0.121189
  23 H :    0.116022
  24 H :    0.113439
  25 H :    0.101596
  26 H :    0.107642
  27 H :    0.117451
  28 H :    0.104830
  29 H :    0.193339
  30 H :    0.194781
  31 H :    0.114504
  32 H :    0.119107
  33 H :    0.121781
  34 H :    0.112883
  35 H :    0.126310
  36 H :    0.116450
  37 H :    0.118815
  38 H :    0.129882
  39 H :    0.113162
  40 H :    0.107945
Sum of atomic charges:   -0.0000000

LOEWDIN ATOMIC CHARGES
----------------------
   0 C :   -0.368490
   1 C :   -0.112746
   2 O :   -0.236147
   3 P :    0.572438
   4 S :   -0.310489
   5 O :   -0.244124
   6 C :   -0.128914
   7 C :   -0.354063
   8 S :    0.071648
   9 C :   -0.477925
  10 S :    0.085246
  11 P :    0.571420
  12 S :   -0.303202
  13 O :   -0.245035
  14 C :   -0.119150
  15 C :   -0.348225
  16 O :   -0.249903
  17 C :   -0.123929
  18 C :   -0.365479
  19 H :    0.129732
  20 H :    0.122084
  21 H :    0.131927
  22 H :    0.111048
  23 H :    0.125172
  24 H :    0.102588
  25 H :    0.104745
  26 H :    0.121715
  27 H :    0.127555
  28 H :    0.127511
  29 H :    0.132659
  30 H :    0.131459
  31 H :    0.109907
  32 H :    0.109462
  33 H :    0.130088
  34 H :    0.131621
  35 H :    0.132631
  36 H :    0.110265
  37 H :    0.116972
  38 H :    0.125325
  39 H :    0.131676
  40 H :    0.120924

  Mayer bond orders larger than 0.100000
B(  0-C ,  1-C ) :   1.1671 B(  0-C , 19-H ) :   0.9433 B(  0-C , 20-H ) :   0.9277
B(  0-C , 21-H ) :   0.9349 B(  1-C ,  2-O ) :   0.9040 B(  1-C , 22-H ) :   0.9182
B(  1-C , 23-H ) :   0.9340 B(  2-O ,  3-P ) :   1.1505 B(  3-P ,  4-S ) :   1.6305
B(  3-P ,  5-O ) :   1.0887 B(  3-P ,  8-S ) :   0.9225 B(  4-S ,  8-S ) :   0.1027
B(  5-O ,  6-C ) :   0.9033 B(  6-C ,  7-C ) :   1.1559 B(  6-C , 24-H ) :   0.8995
B(  6-C , 25-H ) :   0.9215 B(  7-C , 26-H ) :   0.9503 B(  7-C , 27-H ) :   0.9478
B(  7-C , 28-H ) :   0.9421 B(  8-S ,  9-C ) :   1.0220 B(  9-C , 10-S ) :   1.0023
B(  9-C , 29-H ) :   0.8846 B(  9-C , 30-H ) :   0.8774 B( 10-S , 11-P ) :   0.9541
B( 10-S , 12-S ) :   0.1019 B( 11-P , 12-S ) :   1.6358 B( 11-P , 13-O ) :   1.1195
B( 11-P , 16-O ) :   1.0613 B( 13-O , 14-C ) :   0.9033 B( 14-C , 15-C ) :   1.1635
B( 14-C , 31-H ) :   0.9192 B( 14-C , 32-H ) :   0.9196 B( 15-C , 33-H ) :   0.9503
B( 15-C , 34-H ) :   0.9400 B( 15-C , 35-H ) :   0.9489 B( 16-O , 17-C ) :   0.9048
B( 17-C , 18-C ) :   1.1588 B( 17-C , 36-H ) :   0.9141 B( 17-C , 37-H ) :   0.9219
B( 18-C , 38-H ) :   0.9317 B( 18-C , 39-H ) :   0.9398 B( 18-C , 40-H ) :   0.9458

Dispersion correction           -0.066435767
FINAL SINGLE POINT ENERGY     -2929.519003543696

DIPOLE MOMENT
-------------

Method             : SCF
Type of density    : Electron Density
Multiplicity       :   1
Irrep              :   0
Energy             : -2929.6387075032303073 Eh
Relativity type    :
Basis              : AO
                                X                 Y                 Z
Electronic contribution:      7.978419855      16.133560856     -19.164409401
Nuclear contribution   :     -8.506546061     -17.545657466      20.494841184
                        -----------------------------------------
Total Dipole Moment    :     -0.528126206      -1.412096610       1.330431782
                        -----------------------------------------
Magnitude (a.u.)       :      2.010717000
Magnitude (Debye)      :      5.110836448

Rotational constants in cm-1:             0.010958             0.005562             0.005276
Rotational constants in MHz :           328.524712           166.744329           158.158006

                             ****ORCA TERMINATED NORMALLY****
TOTAL RUN TIME: 0 days 0 hours 0 minutes 22 seconds 224 msec
