                         Program Version 6.0.0  -   RELEASE  -
|  1> ! pbe def2-sv(p) def2/J RI DEFGRID1 loosescf d4 GCP(DFT/SV(P)) printgap
|  2> %output
|  3>     printlevel normal
|  4> end
|  5> * xyz 0 1
|  6> C 1.8514093497 -3.0135381508 0.0103795978
|  7> C 1.5864861024 -1.9519073025 1.0584467735
|  8> O 2.5654368788 -0.9017136846 1.0384373082
|  9> P 2.7230955975 0.2233193267 -0.0793284012
| 10> S 3.3118659372 -0.3047534754 -1.8710391843
| 11> O 3.8058100972 1.1505972515 0.5821048365
| 12> C 3.9232187812 1.4599576822 1.9935538934
| 13> C 2.7187642495 2.2057549319 2.5265377256
| 14> S 0.8779934707 1.3176932393 -0.0444947954
| 15> C 0.2421289608 0.8603403537 -1.6697667233
| 16> S -0.5746399435 -0.7612574429 -1.6715758923
| 17> P -2.2071754855 -0.1934106307 -0.4560736732
| 18> S -2.9045148392 1.6208128216 -0.7411634944
| 19> O -1.7786237703 -0.5021467944 1.0495309707
| 20> C -1.714457476 0.4824151701 2.0983181222
| 21> C -2.997643177 0.4768618435 2.9048313325
| 22> O -3.1028317491 -1.4429608041 -0.8366110641
| 23> C -4.2474036357 -1.8659695715 -0.0646140973
| 24> C -5.4643304091 -1.0049757942 -0.3400361782
| 25> H 1.7263150081 -2.6027171991 -0.9897501805
| 26> H 2.8659492842 -3.3916548261 0.1059460566
| 27> H 1.1477111973 -3.8291525036 0.1422883823
| 28> H 1.6725222595 -2.3633718785 2.0663062574
| 29> H 0.5908981647 -1.5181813544 0.9240914291
| 30> H 4.07989709 0.5254219992 2.5348376214
| 31> H 4.8258038017 2.0712690127 2.0370311753
| 32> H 2.5366461908 3.1027525632 1.9404532058
| 33> H 1.8316573194 1.576573665 2.4805606554
| 34> H 2.9020686368 2.4840675854 3.5596400004
| 35> H 1.0696019066 0.7979156401 -2.3778225716
| 36> H -0.4761226957 1.6287112127 -1.9553835262
| 37> H -0.856215558 0.1926720022 2.7063427328
| 38> H -1.5371231399 1.467733579 1.657619376
| 39> H -3.8320431268 0.7800712606 2.2754067935
| 40> H -3.1918069439 -0.5151733883 3.303471029
| 41> H -2.9042428971 1.180447243 3.7255747952
| 42> H -4.4094670258 -2.8962216056 -0.3863807625
| 43> H -3.9826143391 -1.8481286335 0.9955410578
| 44> H -5.2794992148 0.0244261604 -0.0384737274
| 45> H -5.6972066517 -1.013311958 -1.401653509
| 46> H -6.3121154079 -1.3918215108 0.2165952322
| 47> *
| 48>
| 49>                          ****END OF INPUT****

CARTESIAN COORDINATES (ANGSTROEM)
---------------------------------
  C      1.851409   -3.013538    0.010380
  C      1.586486   -1.951907    1.058447
  O      2.565437   -0.901714    1.038437
  P      2.723096    0.223319   -0.079328
  S      3.311866   -0.304753   -1.871039
  O      3.805810    1.150597    0.582105
  C      3.923219    1.459958    1.993554
  C      2.718764    2.205755    2.526538
  S      0.877993    1.317693   -0.044495
  C      0.242129    0.860340   -1.669767
  S     -0.574640   -0.761257   -1.671576
  P     -2.207175   -0.193411   -0.456074
  S     -2.904515    1.620813   -0.741163
  O     -1.778624   -0.502147    1.049531
  C     -1.714457    0.482415    2.098318
  C     -2.997643    0.476862    2.904831
  O     -3.102832   -1.442961   -0.836611
  C     -4.247404   -1.865970   -0.064614
  C     -5.464330   -1.004976   -0.340036
  H      1.726315   -2.602717   -0.989750
  H      2.865949   -3.391655    0.105946
  H      1.147711   -3.829153    0.142288
  H      1.672522   -2.363372    2.066306
  H      0.590898   -1.518181    0.924091
  H      4.079897    0.525422    2.534838
  H      4.825804    2.071269    2.037031
  H      2.536646    3.102753    1.940453
  H      1.831657    1.576574    2.480561
  H      2.902069    2.484068    3.559640
  H      1.069602    0.797916   -2.377823
  H     -0.476123    1.628711   -1.955384
  H     -0.856216    0.192672    2.706343
  H     -1.537123    1.467734    1.657619
  H     -3.832043    0.780071    2.275407
  H     -3.191807   -0.515173    3.303471
  H     -2.904243    1.180447    3.725575
  H     -4.409467   -2.896222   -0.386381
  H     -3.982614   -1.848129    0.995541
  H     -5.279499    0.024426   -0.038474
  H     -5.697207   -1.013312   -1.401654
  H     -6.312115   -1.391822    0.216595

 Total Charge           Charge          ....    0
 Multiplicity           Mult            ....    1
 Number of Electrons    NEL             ....  202
 Basis Dimension        Dim             ....  334

ORBITAL ENERGIES
----------------

  NO   OCC          E(Eh)            E(eV)
   0   2.0000     -88.043262     -2395.7790
   1   2.0000     -88.042159     -2395.7489
   2   2.0000     -87.994469     -2394.4512
   3   2.0000     -87.984249     -2394.1731
   4   2.0000     -76.431979     -2079.8199
   5   2.0000     -76.427829     -2079.7070
   6   2.0000     -18.799982      -511.5735
   7   2.0000     -18.798142      -511.5235
   8   2.0000     -18.793857      -511.4068
   9   2.0000     -18.793257      -511.3905
  10   2.0000      -9.962702      -271.0989
  11   2.0000      -9.960605      -271.0418
  12   2.0000      -9.957423      -270.9552
  13   2.0000      -9.951387      -270.7910
  14   2.0000      -9.949267      -270.7333
  15   2.0000      -9.895799      -269.2784
  16   2.0000      -9.892831      -269.1976
  17   2.0000      -9.888511      -269.0801
  18   2.0000      -9.875797      -268.7341
  19   2.0000      -7.687493      -209.1873
  20   2.0000      -7.687160      -209.1783
  21   2.0000      -7.639310      -207.8762
  22   2.0000      -7.629441      -207.6076
  23   2.0000      -6.429460      -174.9545
  24   2.0000      -6.424940      -174.8315
  25   2.0000      -5.715413      -155.5243
  26   2.0000      -5.715030      -155.5139
  27   2.0000      -5.711909      -155.4289
  28   2.0000      -5.711824      -155.4266
  29   2.0000      -5.704694      -155.2326
  30   2.0000      -5.703983      -155.2133
  31   2.0000      -5.668121      -154.2374
  32   2.0000      -5.660187      -154.0215
  33   2.0000      -5.659345      -153.9986
  34   2.0000      -5.658559      -153.9772
  35   2.0000      -5.649809      -153.7391
  36   2.0000      -5.649607      -153.7336
  37   2.0000      -4.652315      -126.5959
  38   2.0000      -4.650907      -126.5576
  39   2.0000      -4.649972      -126.5322
  40   2.0000      -4.647824      -126.4737
  41   2.0000      -4.646712      -126.4434
  42   2.0000      -4.645187      -126.4020
  43   2.0000      -0.993098       -27.0236
  44   2.0000      -0.989591       -26.9281
  45   2.0000      -0.950957       -25.8769
  46   2.0000      -0.944476       -25.7005
  47   2.0000      -0.764394       -20.8002
  48   2.0000      -0.726890       -19.7797
  49   2.0000      -0.714973       -19.4554
  50   2.0000      -0.694767       -18.9056
  51   2.0000      -0.691107       -18.8060
  52   2.0000      -0.675930       -18.3930
  53   2.0000      -0.654760       -17.8169
  54   2.0000      -0.639546       -17.4029
  55   2.0000      -0.601358       -16.3638
  56   2.0000      -0.592833       -16.1318
  57   2.0000      -0.583915       -15.8891
  58   2.0000      -0.580637       -15.7999
  59   2.0000      -0.560323       -15.2472
  60   2.0000      -0.507291       -13.8041
  61   2.0000      -0.496734       -13.5168
  62   2.0000      -0.483469       -13.1559
  63   2.0000      -0.474388       -12.9088
  64   2.0000      -0.461132       -12.5480
  65   2.0000      -0.450718       -12.2647
  66   2.0000      -0.442859       -12.0508
  67   2.0000      -0.442136       -12.0311
  68   2.0000      -0.427207       -11.6249
  69   2.0000      -0.420948       -11.4546
  70   2.0000      -0.413381       -11.2487
  71   2.0000      -0.402694       -10.9579
  72   2.0000      -0.398992       -10.8571
  73   2.0000      -0.388982       -10.5847
  74   2.0000      -0.384086       -10.4515
  75   2.0000      -0.377904       -10.2833
  76   2.0000      -0.368244       -10.0204
  77   2.0000      -0.359071        -9.7708
  78   2.0000      -0.357933        -9.7399
  79   2.0000      -0.356695        -9.7062
  80   2.0000      -0.353880        -9.6296
  81   2.0000      -0.346318        -9.4238
  82   2.0000      -0.344421        -9.3722
  83   2.0000      -0.340609        -9.2684
  84   2.0000      -0.334030        -9.0894
  85   2.0000      -0.328495        -8.9388
  86   2.0000      -0.312239        -8.4965
  87   2.0000      -0.299864        -8.1597
  88   2.0000      -0.298908        -8.1337
  89   2.0000      -0.296844        -8.0775
  90   2.0000      -0.291336        -7.9277
  91   2.0000      -0.283891        -7.7251
  92   2.0000      -0.278230        -7.5710
  93   2.0000      -0.268335        -7.3018
  94   2.0000      -0.260326        -7.0838
  95   2.0000      -0.236885        -6.4460
  96   2.0000      -0.219129        -5.9628
  97   2.0000      -0.214952        -5.8491
  98   2.0000      -0.204477        -5.5641
  99   2.0000      -0.201270        -5.4768
 100   2.0000      -0.199002        -5.4151
 101   0.0000      -0.048434        -1.3180
 102   0.0000      -0.027623        -0.7517
 103   0.0000      -0.004479        -0.1219
 104   0.0000      -0.000943        -0.0257
 105   0.0000       0.006338         0.1725

MULLIKEN ATOMIC CHARGES
-----------------------
   0 C :   -0.302317
   1 C :   -0.035912
   2 O :   -0.384007
   3 P :    0.620148
   4 S :   -0.306932
   5 O :   -0.359476
   6 C :    0.007347
   7 C :   -0.340072
   8 S :   -0.132929
   9 C :   -0.352966
  10 S :   -0.074240
  11 P :    0.638098
  12 S :   -0.326804
  13 O :   -0.378265
  14 C :   -0.021900
  15 C :   -0.295588
  16 O :   -0.373162
  17 C :   -0.017530
  18 C :   -0.311326
  19 H :    0.136362
  20 H :    0.113728
  21 H :    0.104949
  22 H :    0.097436
  23 H :    0.128746
  24 H :    0.111520
  25 H :    0.113553
  26 H :    0.132652
  27 H :    0.131560
  28 H :    0.118131
  29 H :    0.195803
  30 H :    0.196071
  31 H :    0.107723
  32 H :    0.120069
  33 H :    0.120625
  34 H :    0.116276
  35 H :    0.113562
  36 H :    0.111881
  37 H :    0.107796
  38 H :    0.135692
  39 H :    0.123500
  40 H :    0.110195
Sum of atomic charges:   -0.0000000

LOEWDIN ATOMIC CHARGES
----------------------
   0 C :   -0.367201
   1 C :   -0.123920
   2 O :   -0.246960
   3 P :    0.569777
   4 S :   -0.295629
   5 O :   -0.234777
   6 C :   -0.107680
   7 C :   -0.371853
   8 S :    0.074959
   9 C :   -0.489886
  10 S :    0.104631
  11 P :    0.569702
  12 S :   -0.309572
  13 O :   -0.245003
  14 C :   -0.126448
  15 C :   -0.361031
  16 O :   -0.243781
  17 C :   -0.112017
  18 C :   -0.365067
  19 H :    0.118184
  20 H :    0.125674
  21 H :    0.128400
  22 H :    0.115127
  23 H :    0.102674
  24 H :    0.115462
  25 H :    0.124307
  26 H :    0.130916
  27 H :    0.115128
  28 H :    0.133857
  29 H :    0.128965
  30 H :    0.130583
  31 H :    0.113644
  32 H :    0.105077
  33 H :    0.123649
  34 H :    0.122430
  35 H :    0.132331
  36 H :    0.122454
  37 H :    0.109434
  38 H :    0.122479
  39 H :    0.131252
  40 H :    0.129730

  Mayer bond orders larger than 0.100000
B(  0-C ,  1-C ) :   1.1688 B(  0-C , 19-H ) :   0.9277 B(  0-C , 20-H ) :   0.9452
B(  0-C , 21-H ) :   0.9378 B(  1-C ,  2-O ) :   0.9087 B(  1-C , 22-H ) :   0.9346
B(  1-C , 23-H ) :   0.8974 B(  2-O ,  3-P ) :   1.0723 B(  3-P ,  4-S ) :   1.6562
B(  3-P ,  5-O ) :   1.1460 B(  3-P ,  8-S ) :   0.9224 B(  4-S ,  8-S ) :   0.1124
B(  5-O ,  6-C ) :   0.8999 B(  6-C ,  7-C ) :   1.1691 B(  6-C , 24-H ) :   0.9268
B(  6-C , 25-H ) :   0.9337 B(  7-C , 26-H ) :   0.9418 B(  7-C , 27-H ) :   0.9298
B(  7-C , 28-H ) :   0.9352 B(  8-S ,  9-C ) :   1.0060 B(  9-C , 10-S ) :   1.0035
B(  9-C , 29-H ) :   0.8623 B(  9-C , 30-H ) :   0.8738 B( 10-S , 11-P ) :   0.9642
B( 10-S , 12-S ) :   0.1087 B( 11-P , 12-S ) :   1.6090 B( 11-P , 13-O ) :   1.0711
B( 11-P , 16-O ) :   1.1291 B( 13-O , 14-C ) :   0.8981 B( 14-C , 15-C ) :   1.1645
B( 14-C , 31-H ) :   0.9284 B( 14-C , 32-H ) :   0.9030 B( 15-C , 33-H ) :   0.9386
B( 15-C , 34-H ) :   0.9425 B( 15-C , 35-H ) :   0.9393 B( 16-O , 17-C ) :   0.9092
B( 17-C , 18-C ) :   1.1644 B( 17-C , 36-H ) :   0.9351 B( 17-C , 37-H ) :   0.9208
B( 18-C , 38-H ) :   0.9330 B( 18-C , 39-H ) :   0.9454 B( 18-C , 40-H ) :   0.9381

Dispersion correction           -0.066191637
FINAL SINGLE POINT ENERGY     -2929.521391496169

DIPOLE MOMENT
-------------

Method             : SCF
Type of density    : Electron Density
Multiplicity       :   1
Irrep              :   0
Energy             : -2929.6412463022038537 Eh
Relativity type    :
Basis              : AO
                                X                 Y                 Z
Electronic contribution:     12.018309237       4.805154065     -20.422563840
Nuclear contribution   :    -12.870923178      -5.301337152      22.698733802
                        -----------------------------------------
Total Dipole Moment    :     -0.852613941      -0.496183087       2.276169962
                        -----------------------------------------
Magnitude (a.u.)       :      2.480745429
Magnitude (Debye)      :      6.305553769

Rotational constants in cm-1:             0.012973             0.004914             0.004543
Rotational constants in MHz :           388.921916           147.332624           136.194685

                             ****ORCA TERMINATED NORMALLY****
TOTAL RUN TIME: 0 days 0 hours 0 minutes 21 seconds 616 msec
