                         Program Version 6.0.0  -   RELEASE  -
|  1> ! pbe def2-sv(p) def2/J RI DEFGRID1 loosescf d4 GCP(DFT/SV(P)) printgap
|  2> %output
|  3>     printlevel normal
|  4> end
|  5> * xyz 0 1
|  6> C 5.4739311843 0.1227566794 -0.8037356398
|  7> C 4.5146337132 -0.7766582698 -0.0490408492
|  8> O 3.4323938165 -0.0021808634 0.5066913047
|  9> P 1.9945302415 0.0533580669 -0.1726339887
| 10> S 2.0139360463 0.1604639954 -2.1353226724
| 11> O 1.3007496319 1.1726357678 0.7015739475
| 12> C 1.850337383 2.4819587299 0.9622130424
| 13> C 2.1793415834 3.234566515 -0.3092042681
| 14> S 1.0558417162 -1.6781988883 0.5750400372
| 15> C -0.1628817954 -2.0132394761 -0.7418246756
| 16> S -1.868074106 -1.9411344149 -0.1548476613
| 17> P -2.0065488316 0.1537057229 0.1924130504
| 18> S -1.2469118735 1.3238573149 -1.1807489732
| 19> O -1.3731461598 0.4198100724 1.6112872908
| 20> C -1.4748616402 -0.4248282086 2.7856950637
| 21> C -2.9043193359 -0.7313690501 3.174263926
| 22> O -3.556936431 0.3896929302 0.4507659779
| 23> C -4.4886584281 0.6652852773 -0.6083346882
| 24> C -4.6911724643 -0.5254369587 -1.5231854166
| 25> H 6.3169750322 -0.4656972888 -1.1506305628
| 26> H 4.9727873631 0.5624531925 -1.6637463922
| 27> H 5.8317057362 0.9183303385 -0.1561602595
| 28> H 4.9954382455 -1.2458424828 0.8108871242
| 29> H 4.1067812394 -1.5470080897 -0.7088451182
| 30> H 1.0572576742 2.9783038866 1.5248304186
| 31> H 2.7364807129 2.3571566255 1.5887945294
| 32> H 1.3035332469 3.2774126372 -0.9550593141
| 33> H 2.4954281611 4.2434516377 -0.0637530597
| 34> H 2.9797284926 2.729246135 -0.8486395928
| 35> H -0.0075371587 -3.0302130115 -1.0923539032
| 36> H -0.006853455 -1.2899000965 -1.5478864652
| 37> H -0.9143481531 -1.3448688818 2.5952115869
| 38> H -0.9636999354 0.1604686091 3.5516133629
| 39> H -3.3784511784 -1.3496031394 2.4150469767
| 40> H -2.902761902 -1.2686288811 4.1177297246
| 41> H -3.4715769526 0.1891281263 3.2838787121
| 42> H -5.4070029651 0.9296172974 -0.0822047263
| 43> H -4.123094188 1.5273640984 -1.175438854
| 44> H -4.9338095008 -1.412516759 -0.9438857866
| 45> H -5.5009076898 -0.3117911443 -2.213477904
| 46> H -3.7840664505 -0.7153898699 -2.0947108885
| 47> *
| 48>
| 49>                          ****END OF INPUT****

CARTESIAN COORDINATES (ANGSTROEM)
---------------------------------
  C      5.473931    0.122757   -0.803736
  C      4.514634   -0.776658   -0.049041
  O      3.432394   -0.002181    0.506691
  P      1.994530    0.053358   -0.172634
  S      2.013936    0.160464   -2.135323
  O      1.300750    1.172636    0.701574
  C      1.850337    2.481959    0.962213
  C      2.179342    3.234567   -0.309204
  S      1.055842   -1.678199    0.575040
  C     -0.162882   -2.013239   -0.741825
  S     -1.868074   -1.941134   -0.154848
  P     -2.006549    0.153706    0.192413
  S     -1.246912    1.323857   -1.180749
  O     -1.373146    0.419810    1.611287
  C     -1.474862   -0.424828    2.785695
  C     -2.904319   -0.731369    3.174264
  O     -3.556936    0.389693    0.450766
  C     -4.488658    0.665285   -0.608335
  C     -4.691172   -0.525437   -1.523185
  H      6.316975   -0.465697   -1.150631
  H      4.972787    0.562453   -1.663746
  H      5.831706    0.918330   -0.156160
  H      4.995438   -1.245842    0.810887
  H      4.106781   -1.547008   -0.708845
  H      1.057258    2.978304    1.524830
  H      2.736481    2.357157    1.588795
  H      1.303533    3.277413   -0.955059
  H      2.495428    4.243452   -0.063753
  H      2.979728    2.729246   -0.848640
  H     -0.007537   -3.030213   -1.092354
  H     -0.006853   -1.289900   -1.547886
  H     -0.914348   -1.344869    2.595212
  H     -0.963700    0.160469    3.551613
  H     -3.378451   -1.349603    2.415047
  H     -2.902762   -1.268629    4.117730
  H     -3.471577    0.189128    3.283879
  H     -5.407003    0.929617   -0.082205
  H     -4.123094    1.527364   -1.175439
  H     -4.933810   -1.412517   -0.943886
  H     -5.500908   -0.311791   -2.213478
  H     -3.784066   -0.715390   -2.094711

 Total Charge           Charge          ....    0
 Multiplicity           Mult            ....    1
 Number of Electrons    NEL             ....  202
 Basis Dimension        Dim             ....  334

ORBITAL ENERGIES
----------------

  NO   OCC          E(Eh)            E(eV)
   0   2.0000     -88.042706     -2395.7638
   1   2.0000     -88.039628     -2395.6801
   2   2.0000     -87.980144     -2394.0614
   3   2.0000     -87.975932     -2393.9468
   4   2.0000     -76.422321     -2079.5571
   5   2.0000     -76.421356     -2079.5308
   6   2.0000     -18.791243      -511.3357
   7   2.0000     -18.789669      -511.2929
   8   2.0000     -18.785086      -511.1682
   9   2.0000     -18.779615      -511.0193
  10   2.0000      -9.952730      -270.8276
  11   2.0000      -9.952000      -270.8077
  12   2.0000      -9.949742      -270.7462
  13   2.0000      -9.949273      -270.7335
  14   2.0000      -9.946849      -270.6675
  15   2.0000      -9.883842      -268.9530
  16   2.0000      -9.881652      -268.8934
  17   2.0000      -9.881425      -268.8872
  18   2.0000      -9.874167      -268.6897
  19   2.0000      -7.687572      -209.1895
  20   2.0000      -7.684786      -209.1137
  21   2.0000      -7.625136      -207.4905
  22   2.0000      -7.620993      -207.3778
  23   2.0000      -6.419478      -174.6829
  24   2.0000      -6.418529      -174.6571
  25   2.0000      -5.715418      -155.5244
  26   2.0000      -5.712604      -155.4479
  27   2.0000      -5.711905      -155.4288
  28   2.0000      -5.709218      -155.3557
  29   2.0000      -5.704783      -155.2350
  30   2.0000      -5.701834      -155.1548
  31   2.0000      -5.654045      -153.8544
  32   2.0000      -5.649946      -153.7429
  33   2.0000      -5.645840      -153.6311
  34   2.0000      -5.645216      -153.6141
  35   2.0000      -5.641588      -153.5154
  36   2.0000      -5.641087      -153.5018
  37   2.0000      -4.642337      -126.3244
  38   2.0000      -4.641309      -126.2964
  39   2.0000      -4.641002      -126.2881
  40   2.0000      -4.640445      -126.2729
  41   2.0000      -4.639978      -126.2602
  42   2.0000      -4.638705      -126.2256
  43   2.0000      -0.982934       -26.7470
  44   2.0000      -0.981686       -26.7130
  45   2.0000      -0.940543       -25.5935
  46   2.0000      -0.937247       -25.5038
  47   2.0000      -0.760276       -20.6882
  48   2.0000      -0.717243       -19.5172
  49   2.0000      -0.706385       -19.2217
  50   2.0000      -0.687041       -18.6953
  51   2.0000      -0.683660       -18.6033
  52   2.0000      -0.672350       -18.2956
  53   2.0000      -0.648223       -17.6390
  54   2.0000      -0.630016       -17.1436
  55   2.0000      -0.594616       -16.1803
  56   2.0000      -0.587330       -15.9821
  57   2.0000      -0.573386       -15.6026
  58   2.0000      -0.570033       -15.5114
  59   2.0000      -0.559817       -15.2334
  60   2.0000      -0.499169       -13.5831
  61   2.0000      -0.488204       -13.2847
  62   2.0000      -0.467477       -12.7207
  63   2.0000      -0.466643       -12.6980
  64   2.0000      -0.446308       -12.1447
  65   2.0000      -0.444828       -12.1044
  66   2.0000      -0.438700       -11.9376
  67   2.0000      -0.433296       -11.7906
  68   2.0000      -0.428026       -11.6472
  69   2.0000      -0.411567       -11.1993
  70   2.0000      -0.406953       -11.0737
  71   2.0000      -0.404598       -11.0097
  72   2.0000      -0.392369       -10.6769
  73   2.0000      -0.384229       -10.4554
  74   2.0000      -0.377573       -10.2743
  75   2.0000      -0.367022        -9.9872
  76   2.0000      -0.362031        -9.8514
  77   2.0000      -0.356952        -9.7132
  78   2.0000      -0.349915        -9.5217
  79   2.0000      -0.348177        -9.4744
  80   2.0000      -0.343424        -9.3450
  81   2.0000      -0.340088        -9.2543
  82   2.0000      -0.333588        -9.0774
  83   2.0000      -0.331364        -9.0169
  84   2.0000      -0.329375        -8.9628
  85   2.0000      -0.314889        -8.5686
  86   2.0000      -0.309653        -8.4261
  87   2.0000      -0.295236        -8.0338
  88   2.0000      -0.291456        -7.9309
  89   2.0000      -0.287762        -7.8304
  90   2.0000      -0.277669        -7.5558
  91   2.0000      -0.271451        -7.3866
  92   2.0000      -0.267380        -7.2758
  93   2.0000      -0.257125        -6.9967
  94   2.0000      -0.254999        -6.9389
  95   2.0000      -0.236919        -6.4469
  96   2.0000      -0.221036        -6.0147
  97   2.0000      -0.210170        -5.7190
  98   2.0000      -0.195958        -5.3323
  99   2.0000      -0.188796        -5.1374
 100   2.0000      -0.180849        -4.9212
 101   0.0000      -0.038212        -1.0398
 102   0.0000      -0.029424        -0.8007
 103   0.0000      -0.006946        -0.1890
 104   0.0000       0.015033         0.4091
 105   0.0000       0.018274         0.4973

MULLIKEN ATOMIC CHARGES
-----------------------
   0 C :   -0.294274
   1 C :   -0.002665
   2 O :   -0.385913
   3 P :    0.622967
   4 S :   -0.311632
   5 O :   -0.351509
   6 C :    0.009841
   7 C :   -0.327512
   8 S :   -0.103833
   9 C :   -0.346856
  10 S :   -0.114785
  11 P :    0.594158
  12 S :   -0.297183
  13 O :   -0.350002
  14 C :   -0.001061
  15 C :   -0.303723
  16 O :   -0.375624
  17 C :   -0.000553
  18 C :   -0.317818
  19 H :    0.108465
  20 H :    0.129494
  21 H :    0.110504
  22 H :    0.104352
  23 H :    0.100201
  24 H :    0.106964
  25 H :    0.102218
  26 H :    0.138307
  27 H :    0.106075
  28 H :    0.125900
  29 H :    0.181126
  30 H :    0.207669
  31 H :    0.112980
  32 H :    0.104795
  33 H :    0.116953
  34 H :    0.110640
  35 H :    0.119489
  36 H :    0.102405
  37 H :    0.112006
  38 H :    0.114480
  39 H :    0.112924
  40 H :    0.130028
Sum of atomic charges:   -0.0000000

LOEWDIN ATOMIC CHARGES
----------------------
   0 C :   -0.361531
   1 C :   -0.117289
   2 O :   -0.251703
   3 P :    0.570180
   4 S :   -0.303102
   5 O :   -0.229891
   6 C :   -0.107100
   7 C :   -0.369944
   8 S :    0.077682
   9 C :   -0.479798
  10 S :    0.072886
  11 P :    0.566263
  12 S :   -0.298755
  13 O :   -0.229637
  14 C :   -0.115903
  15 C :   -0.366700
  16 O :   -0.244167
  17 C :   -0.119130
  18 C :   -0.371129
  19 H :    0.129297
  20 H :    0.125542
  21 H :    0.123506
  22 H :    0.116903
  23 H :    0.108171
  24 H :    0.121503
  25 H :    0.109489
  26 H :    0.132543
  27 H :    0.127305
  28 H :    0.119672
  29 H :    0.137181
  30 H :    0.126051
  31 H :    0.101456
  32 H :    0.120738
  33 H :    0.117396
  34 H :    0.129973
  35 H :    0.127378
  36 H :    0.117411
  37 H :    0.111671
  38 H :    0.122005
  39 H :    0.131053
  40 H :    0.122526

  Mayer bond orders larger than 0.100000
B(  0-C ,  1-C ) :   1.1682 B(  0-C , 19-H ) :   0.9402 B(  0-C , 20-H ) :   0.9335
B(  0-C , 21-H ) :   0.9477 B(  1-C ,  2-O ) :   0.9023 B(  1-C , 22-H ) :   0.9349
B(  1-C , 23-H ) :   0.9107 B(  2-O ,  3-P ) :   1.0809 B(  3-P ,  4-S ) :   1.6023
B(  3-P ,  5-O ) :   1.1468 B(  3-P ,  8-S ) :   0.9592 B(  4-S ,  8-S ) :   0.1204
B(  5-O ,  6-C ) :   0.9052 B(  6-C ,  7-C ) :   1.1671 B(  6-C , 24-H ) :   0.9320
B(  6-C , 25-H ) :   0.9320 B(  7-C , 26-H ) :   0.9399 B(  7-C , 27-H ) :   0.9354
B(  7-C , 28-H ) :   0.9348 B(  8-S ,  9-C ) :   0.9959 B(  9-C , 10-S ) :   1.0025
B(  9-C , 29-H ) :   0.9113 B(  9-C , 30-H ) :   0.8454 B( 10-S , 11-P ) :   0.9313
B( 10-S , 12-S ) :   0.1057 B( 11-P , 12-S ) :   1.6437 B( 11-P , 13-O ) :   1.1478
B( 11-P , 16-O ) :   1.0851 B( 13-O , 14-C ) :   0.9005 B( 14-C , 15-C ) :   1.1695
B( 14-C , 31-H ) :   0.9082 B( 14-C , 32-H ) :   0.9352 B( 15-C , 33-H ) :   0.9384
B( 15-C , 34-H ) :   0.9361 B( 15-C , 35-H ) :   0.9433 B( 16-O , 17-C ) :   0.9079
B( 17-C , 18-C ) :   1.1657 B( 17-C , 36-H ) :   0.9339 B( 17-C , 37-H ) :   0.9137
B( 18-C , 38-H ) :   0.9449 B( 18-C , 39-H ) :   0.9378 B( 18-C , 40-H ) :   0.9344

Dispersion correction           -0.068425518
FINAL SINGLE POINT ENERGY     -2929.515321255460

DIPOLE MOMENT
-------------

Method             : SCF
Type of density    : Electron Density
Multiplicity       :   1
Irrep              :   0
Energy             : -2929.6327476608717006 Eh
Relativity type    :
Basis              : AO
                                X                 Y                 Z
Electronic contribution:     -1.327685277      -5.804815840      -3.814574810
Nuclear contribution   :      1.324453441       5.433327445       4.984826205
                        -----------------------------------------
Total Dipole Moment    :     -0.003231836      -0.371488395       1.170251395
                        -----------------------------------------
Magnitude (a.u.)       :      1.227803893
Magnitude (Debye)      :      3.120829480

Rotational constants in cm-1:             0.013745             0.005139             0.004997
Rotational constants in MHz :           412.052966           154.061753           149.808268

                             ****ORCA TERMINATED NORMALLY****
TOTAL RUN TIME: 0 days 0 hours 0 minutes 21 seconds 776 msec
