                         Program Version 6.0.0  -   RELEASE  -
|  1> ! pbe def2-sv(p) def2/J RI DEFGRID1 loosescf d4 GCP(DFT/SV(P)) printgap
|  2> %output
|  3>     printlevel normal
|  4> end
|  5> * xyz 0 1
|  6> C 3.0448442273 -2.2567684634 -2.2225901022
|  7> C 4.2327792021 -1.5506013224 -1.605092634
|  8> O 3.8901592305 -0.2494178655 -1.0698364226
|  9> P 2.8364779171 0.0304102283 0.0709909855
| 10> S 3.2008039673 1.724745837 0.9800229868
| 11> O 2.9655083834 -1.2848264157 0.9606789289
| 12> C 2.5861535088 -1.3414009522 2.3456693793
| 13> C 1.1024252076 -1.1180664486 2.5502414941
| 14> S 0.934826204 -0.0930276138 -0.9117456098
| 15> C 0.2276977754 1.5130185064 -0.4819939934
| 16> S -0.9620748213 1.4500824045 0.8901162123
| 17> P -2.3758370121 0.2283153617 -0.0909362742
| 18> S -2.654250675 0.5443455243 -2.0103859463
| 19> O -3.6832542334 0.3295687445 0.8063260371
| 20> C -4.7034069209 1.3166430819 0.5801397969
| 21> C -4.2248117382 2.7173327996 0.9043868933
| 22> O -1.8208782293 -1.1984357501 0.314268478
| 23> C -2.1239353274 -2.3837731125 -0.4488468453
| 24> C -3.5868306338 -2.7605495149 -0.3443285924
| 25> H 3.3759655775 -3.1935642799 -2.6599003579
| 26> H 2.2951931294 -2.4655018438 -1.4610157637
| 27> H 2.5926616918 -1.6400672298 -2.9952381085
| 28> H 4.9961181156 -1.3193635262 -2.3495041072
| 29> H 4.6655944267 -2.1467789423 -0.7994114792
| 30> H 2.889454427 -2.3430579597 2.6546774819
| 31> H 3.1630108044 -0.5903958664 2.8937371377
| 32> H 0.5202417052 -1.7742208301 1.9071618886
| 33> H 0.8472288671 -1.3148591178 3.586471157
| 34> H 0.8460134049 -0.0841334419 2.3220786959
| 35> H -0.2820884129 1.8818913323 -1.3708114454
| 36> H 1.0273566071 2.1868564635 -0.1687446301
| 37> H -5.0214311318 1.2525408646 -0.4656602537
| 38> H -5.517875707 1.0073593448 1.2365572802
| 39> H -3.804677833 2.7507338278 1.9065553856
| 40> H -3.457857808 3.0238781422 0.1940393991
| 41> H -5.0598643122 3.4074758193 0.8390743946
| 42> H -1.8399788394 -2.2055757267 -1.4909725092
| 43> H -1.4777295966 -3.1483617419 -0.0159616374
| 44> H -4.199647625 -1.995967582 -0.8204395863
| 45> H -3.7527066088 -3.7083786735 -0.8466591842
| 46> H -3.8790238403 -2.8450395469 0.699076741
| 47> *
| 48>
| 49>                          ****END OF INPUT****

CARTESIAN COORDINATES (ANGSTROEM)
---------------------------------
  C      3.044844   -2.256768   -2.222590
  C      4.232779   -1.550601   -1.605093
  O      3.890159   -0.249418   -1.069836
  P      2.836478    0.030410    0.070991
  S      3.200804    1.724746    0.980023
  O      2.965508   -1.284826    0.960679
  C      2.586154   -1.341401    2.345669
  C      1.102425   -1.118066    2.550241
  S      0.934826   -0.093028   -0.911746
  C      0.227698    1.513019   -0.481994
  S     -0.962075    1.450082    0.890116
  P     -2.375837    0.228315   -0.090936
  S     -2.654251    0.544346   -2.010386
  O     -3.683254    0.329569    0.806326
  C     -4.703407    1.316643    0.580140
  C     -4.224812    2.717333    0.904387
  O     -1.820878   -1.198436    0.314268
  C     -2.123935   -2.383773   -0.448847
  C     -3.586831   -2.760550   -0.344329
  H      3.375966   -3.193564   -2.659900
  H      2.295193   -2.465502   -1.461016
  H      2.592662   -1.640067   -2.995238
  H      4.996118   -1.319364   -2.349504
  H      4.665594   -2.146779   -0.799411
  H      2.889454   -2.343058    2.654677
  H      3.163011   -0.590396    2.893737
  H      0.520242   -1.774221    1.907162
  H      0.847229   -1.314859    3.586471
  H      0.846013   -0.084133    2.322079
  H     -0.282088    1.881891   -1.370811
  H      1.027357    2.186856   -0.168745
  H     -5.021431    1.252541   -0.465660
  H     -5.517876    1.007359    1.236557
  H     -3.804678    2.750734    1.906555
  H     -3.457858    3.023878    0.194039
  H     -5.059864    3.407476    0.839074
  H     -1.839979   -2.205576   -1.490973
  H     -1.477730   -3.148362   -0.015962
  H     -4.199648   -1.995968   -0.820440
  H     -3.752707   -3.708379   -0.846659
  H     -3.879024   -2.845040    0.699077

 Total Charge           Charge          ....    0
 Multiplicity           Mult            ....    1
 Number of Electrons    NEL             ....  202
 Basis Dimension        Dim             ....  334

ORBITAL ENERGIES
----------------

  NO   OCC          E(Eh)            E(eV)
   0   2.0000     -88.042361     -2395.7545
   1   2.0000     -88.039231     -2395.6693
   2   2.0000     -87.992584     -2394.3999
   3   2.0000     -87.987504     -2394.2617
   4   2.0000     -76.428590     -2079.7277
   5   2.0000     -76.426823     -2079.6796
   6   2.0000     -18.795950      -511.4638
   7   2.0000     -18.794150      -511.4148
   8   2.0000     -18.791626      -511.3462
   9   2.0000     -18.790253      -511.3088
  10   2.0000      -9.958282      -270.9786
  11   2.0000      -9.955034      -270.8902
  12   2.0000      -9.953033      -270.8358
  13   2.0000      -9.952180      -270.8126
  14   2.0000      -9.949018      -270.7266
  15   2.0000      -9.891393      -269.1585
  16   2.0000      -9.885710      -269.0039
  17   2.0000      -9.885536      -268.9991
  18   2.0000      -9.876584      -268.7555
  19   2.0000      -7.687185      -209.1790
  20   2.0000      -7.683733      -209.0850
  21   2.0000      -7.637427      -207.8250
  22   2.0000      -7.632628      -207.6944
  23   2.0000      -6.426208      -174.8660
  24   2.0000      -6.424228      -174.8121
  25   2.0000      -5.714951      -155.5117
  26   2.0000      -5.711834      -155.4269
  27   2.0000      -5.711703      -155.4233
  28   2.0000      -5.708240      -155.3291
  29   2.0000      -5.704127      -155.2172
  30   2.0000      -5.700724      -155.1246
  31   2.0000      -5.666182      -154.1846
  32   2.0000      -5.661582      -154.0595
  33   2.0000      -5.658059      -153.9636
  34   2.0000      -5.657797      -153.9565
  35   2.0000      -5.653164      -153.8304
  36   2.0000      -5.652803      -153.8206
  37   2.0000      -4.648602      -126.4949
  38   2.0000      -4.647973      -126.4778
  39   2.0000      -4.647183      -126.4563
  40   2.0000      -4.646811      -126.4462
  41   2.0000      -4.645579      -126.4126
  42   2.0000      -4.644758      -126.3903
  43   2.0000      -0.989555       -26.9272
  44   2.0000      -0.988222       -26.8909
  45   2.0000      -0.948699       -25.8154
  46   2.0000      -0.943908       -25.6851
  47   2.0000      -0.761194       -20.7131
  48   2.0000      -0.722133       -19.6502
  49   2.0000      -0.710167       -19.3246
  50   2.0000      -0.690305       -18.7841
  51   2.0000      -0.688697       -18.7404
  52   2.0000      -0.676477       -18.4079
  53   2.0000      -0.653330       -17.7780
  54   2.0000      -0.638264       -17.3680
  55   2.0000      -0.604549       -16.4506
  56   2.0000      -0.595441       -16.2028
  57   2.0000      -0.580172       -15.7873
  58   2.0000      -0.574403       -15.6303
  59   2.0000      -0.555563       -15.1176
  60   2.0000      -0.496555       -13.5119
  61   2.0000      -0.493955       -13.4412
  62   2.0000      -0.476053       -12.9541
  63   2.0000      -0.469565       -12.7775
  64   2.0000      -0.457870       -12.4593
  65   2.0000      -0.449969       -12.2443
  66   2.0000      -0.442230       -12.0337
  67   2.0000      -0.440208       -11.9787
  68   2.0000      -0.427769       -11.6402
  69   2.0000      -0.421645       -11.4735
  70   2.0000      -0.410216       -11.1626
  71   2.0000      -0.401520       -10.9259
  72   2.0000      -0.396377       -10.7860
  73   2.0000      -0.388398       -10.5688
  74   2.0000      -0.381945       -10.3933
  75   2.0000      -0.371328       -10.1044
  76   2.0000      -0.369642       -10.0585
  77   2.0000      -0.358617        -9.7585
  78   2.0000      -0.356789        -9.7087
  79   2.0000      -0.350925        -9.5492
  80   2.0000      -0.349623        -9.5137
  81   2.0000      -0.347038        -9.4434
  82   2.0000      -0.341285        -9.2868
  83   2.0000      -0.338685        -9.2161
  84   2.0000      -0.336832        -9.1657
  85   2.0000      -0.320713        -8.7270
  86   2.0000      -0.307572        -8.3694
  87   2.0000      -0.297857        -8.1051
  88   2.0000      -0.297115        -8.0849
  89   2.0000      -0.295382        -8.0378
  90   2.0000      -0.285784        -7.7766
  91   2.0000      -0.275730        -7.5030
  92   2.0000      -0.273513        -7.4427
  93   2.0000      -0.266449        -7.2505
  94   2.0000      -0.256724        -6.9858
  95   2.0000      -0.228479        -6.2172
  96   2.0000      -0.218530        -5.9465
  97   2.0000      -0.214873        -5.8470
  98   2.0000      -0.206612        -5.6222
  99   2.0000      -0.205205        -5.5839
 100   2.0000      -0.200859        -5.4657
 101   0.0000      -0.043842        -1.1930
 102   0.0000      -0.028137        -0.7656
 103   0.0000      -0.010757        -0.2927
 104   0.0000       0.004898         0.1333
 105   0.0000       0.009861         0.2683

MULLIKEN ATOMIC CHARGES
-----------------------
   0 C :   -0.336009
   1 C :    0.009785
   2 O :   -0.363214
   3 P :    0.614907
   4 S :   -0.311149
   5 O :   -0.388733
   6 C :    0.005551
   7 C :   -0.336211
   8 S :   -0.101611
   9 C :   -0.352635
  10 S :   -0.073187
  11 P :    0.604616
  12 S :   -0.333988
  13 O :   -0.369572
  14 C :   -0.006023
  15 C :   -0.316125
  16 O :   -0.355117
  17 C :   -0.004091
  18 C :   -0.306323
  19 H :    0.116893
  20 H :    0.127793
  21 H :    0.133632
  22 H :    0.112406
  23 H :    0.109021
  24 H :    0.100114
  25 H :    0.111245
  26 H :    0.125112
  27 H :    0.108745
  28 H :    0.138338
  29 H :    0.193845
  30 H :    0.192443
  31 H :    0.111515
  32 H :    0.106601
  33 H :    0.120066
  34 H :    0.128163
  35 H :    0.114386
  36 H :    0.112592
  37 H :    0.104258
  38 H :    0.122633
  39 H :    0.112021
  40 H :    0.117306
Sum of atomic charges:   -0.0000000

LOEWDIN ATOMIC CHARGES
----------------------
   0 C :   -0.372427
   1 C :   -0.107660
   2 O :   -0.240971
   3 P :    0.574216
   4 S :   -0.303215
   5 O :   -0.250084
   6 C :   -0.115392
   7 C :   -0.375106
   8 S :    0.082305
   9 C :   -0.486749
  10 S :    0.107700
  11 P :    0.570458
  12 S :   -0.322659
  13 O :   -0.242415
  14 C :   -0.119102
  15 C :   -0.369265
  16 O :   -0.235955
  17 C :   -0.117710
  18 C :   -0.365186
  19 H :    0.133195
  20 H :    0.117258
  21 H :    0.129924
  22 H :    0.123691
  23 H :    0.114501
  24 H :    0.116300
  25 H :    0.112628
  26 H :    0.124417
  27 H :    0.130188
  28 H :    0.113519
  29 H :    0.130224
  30 H :    0.127463
  31 H :    0.110603
  32 H :    0.119351
  33 H :    0.125521
  34 H :    0.121910
  35 H :    0.131766
  36 H :    0.110491
  37 H :    0.116919
  38 H :    0.122246
  39 H :    0.130362
  40 H :    0.126739

  Mayer bond orders larger than 0.100000
B(  0-C ,  1-C ) :   1.1700 B(  0-C , 19-H ) :   0.9354 B(  0-C , 20-H ) :   0.9329
B(  0-C , 21-H ) :   0.9405 B(  1-C ,  2-O ) :   0.9028 B(  1-C , 22-H ) :   0.9336
B(  1-C , 23-H ) :   0.9277 B(  2-O ,  3-P ) :   1.1371 B(  3-P ,  4-S ) :   1.6286
B(  3-P ,  5-O ) :   1.0706 B(  3-P ,  8-S ) :   0.9440 B(  4-S ,  8-S ) :   0.1146
B(  4-S , 30-H ) :   0.1084 B(  5-O ,  6-C ) :   0.9052 B(  6-C ,  7-C ) :   1.1604
B(  6-C , 24-H ) :   0.9339 B(  6-C , 25-H ) :   0.9205 B(  7-C , 26-H ) :   0.9400
B(  7-C , 27-H ) :   0.9362 B(  7-C , 28-H ) :   0.9227 B(  8-S ,  9-C ) :   1.0187
B(  9-C , 10-S ) :   0.9974 B(  9-C , 29-H ) :   0.8823 B(  9-C , 30-H ) :   0.8555
B( 10-S , 11-P ) :   0.9692 B( 10-S , 12-S ) :   0.1087 B( 11-P , 12-S ) :   1.5863
B( 11-P , 13-O ) :   1.1121 B( 11-P , 16-O ) :   1.1264 B( 13-O , 14-C ) :   0.9079
B( 14-C , 15-C ) :   1.1660 B( 14-C , 31-H ) :   0.9162 B( 14-C , 32-H ) :   0.9338
B( 15-C , 33-H ) :   0.9446 B( 15-C , 34-H ) :   0.9357 B( 15-C , 35-H ) :   0.9378
B( 16-O , 17-C ) :   0.9068 B( 17-C , 18-C ) :   1.1645 B( 17-C , 36-H ) :   0.9176
B( 17-C , 37-H ) :   0.9328 B( 18-C , 38-H ) :   0.9359 B( 18-C , 39-H ) :   0.9392
B( 18-C , 40-H ) :   0.9457

Dispersion correction           -0.065248086
FINAL SINGLE POINT ENERGY     -2929.521276657889

DIPOLE MOMENT
-------------

Method             : SCF
Type of density    : Electron Density
Multiplicity       :   1
Irrep              :   0
Energy             : -2929.6415450677950503 Eh
Relativity type    :
Basis              : AO
                                X                 Y                 Z
Electronic contribution:     10.199611797      13.172546788      -2.405153838
Nuclear contribution   :    -10.795955821     -14.692482254       2.685546940
                        -----------------------------------------
Total Dipole Moment    :     -0.596344024      -1.519935465       0.280393102
                        -----------------------------------------
Magnitude (a.u.)       :      1.656638254
Magnitude (Debye)      :      4.210839801

Rotational constants in cm-1:             0.012801             0.004691             0.004319
Rotational constants in MHz :           383.761205           140.620697           129.475071

                             ****ORCA TERMINATED NORMALLY****
TOTAL RUN TIME: 0 days 0 hours 0 minutes 21 seconds 378 msec
