                         Program Version 6.0.0  -   RELEASE  -
|  1> ! r2scan-3c def2/J RI DEFGRID2 scfconv6 printgap
|  2> %output
|  3>     printlevel normal
|  4> end
|  5> * xyz 0 1
|  6> C 5.7651601939 -0.9992919266 -0.4345304916
|  7> C 4.9281375657 -0.3365381157 -1.5086229688
|  8> O 3.5369777598 -0.7102351953 -1.4223327142
|  9> P 2.6100991758 -0.2535025803 -0.2226683639
| 10> S 2.9454702667 1.5504815648 0.4771187375
| 11> O 2.829876461 -1.430295898 0.8255502895
| 12> C 2.4674577453 -1.3147681364 2.2108588653
| 13> C 0.9736358208 -1.4595011578 2.4179197333
| 14> S 0.7446535195 -0.6438785098 -1.1481418863
| 15> C 0.0874958357 1.050610891 -1.1672838176
| 16> S -0.7960855285 1.495526347 0.3526935309
| 17> P -2.4796621615 0.270322866 -0.0017818493
| 18> S -3.118830269 0.1502584178 -1.8559764984
| 19> O -3.5588238314 0.7540498615 1.0582603012
| 20> C -4.5181865287 1.7859911441 0.7697005661
| 21> C -3.8659324023 3.1443109952 0.6111919203
| 22> O -1.9674615825 -1.0790793701 0.6483994168
| 23> C -2.5286579664 -2.3600054536 0.2995590568
| 24> C -3.9527951617 -2.5025036321 0.7938656723
| 25> H 5.4874989105 -0.6123744799 0.5448158042
| 26> H 5.6073098342 -2.0745043226 -0.446227494
| 27> H 6.8141186056 -0.7848827731 -0.6138150365
| 28> H 5.2211981576 -0.6605134745 -2.5080813571
| 29> H 4.9973930638 0.7534292272 -1.4342777828
| 30> H 3.017725149 -2.1217428596 2.6971531488
| 31> H 2.8175703348 -0.346425817 2.584152243
| 32> H 0.7572365218 -1.489860007 3.4808998916
| 33> H 0.44469597 -0.6147423726 1.9786036725
| 34> H 0.617508766 -2.3739002042 1.9502416831
| 35> H -0.6024202991 1.1075678565 -2.0089625001
| 36> H 0.9041837369 1.7628372222 -1.269478906
| 37> H -5.0578332574 1.5111504804 -0.1423734029
| 38> H -5.1947182419 1.7609544602 1.6249655833
| 39> H -4.6349344568 3.9045164494 0.5183886832
| 40> H -3.239396125 3.3658116411 1.4716082241
| 41> H -3.2460508943 3.1582996804 -0.2844568722
| 42> H -2.4793513395 -2.474928349 -0.788046747
| 43> H -1.8603365117 -3.0782933248 0.7757099558
| 44> H -4.5982482253 -1.8001096713 0.2677676242
| 45> H -4.301705123 -3.5125587548 0.6032671113
| 46> H -4.0020429987 -2.294898134 1.8594706907
| 47> *
| 48>
| 49>                          ****END OF INPUT****

CARTESIAN COORDINATES (ANGSTROEM)
---------------------------------
  C      5.765160   -0.999292   -0.434530
  C      4.928138   -0.336538   -1.508623
  O      3.536978   -0.710235   -1.422333
  P      2.610099   -0.253503   -0.222668
  S      2.945470    1.550482    0.477119
  O      2.829876   -1.430296    0.825550
  C      2.467458   -1.314768    2.210859
  C      0.973636   -1.459501    2.417920
  S      0.744654   -0.643879   -1.148142
  C      0.087496    1.050611   -1.167284
  S     -0.796086    1.495526    0.352694
  P     -2.479662    0.270323   -0.001782
  S     -3.118830    0.150258   -1.855976
  O     -3.558824    0.754050    1.058260
  C     -4.518187    1.785991    0.769701
  C     -3.865932    3.144311    0.611192
  O     -1.967462   -1.079079    0.648399
  C     -2.528658   -2.360005    0.299559
  C     -3.952795   -2.502504    0.793866
  H      5.487499   -0.612374    0.544816
  H      5.607310   -2.074504   -0.446227
  H      6.814119   -0.784883   -0.613815
  H      5.221198   -0.660513   -2.508081
  H      4.997393    0.753429   -1.434278
  H      3.017725   -2.121743    2.697153
  H      2.817570   -0.346426    2.584152
  H      0.757237   -1.489860    3.480900
  H      0.444696   -0.614742    1.978604
  H      0.617509   -2.373900    1.950242
  H     -0.602420    1.107568   -2.008963
  H      0.904184    1.762837   -1.269479
  H     -5.057833    1.511150   -0.142373
  H     -5.194718    1.760954    1.624966
  H     -4.634934    3.904516    0.518389
  H     -3.239396    3.365812    1.471608
  H     -3.246051    3.158300   -0.284457
  H     -2.479351   -2.474928   -0.788047
  H     -1.860337   -3.078293    0.775710
  H     -4.598248   -1.800110    0.267768
  H     -4.301705   -3.512559    0.603267
  H     -4.002043   -2.294898    1.859471

 Total Charge           Charge          ....    0
 Multiplicity           Mult            ....    1
 Number of Electrons    NEL             ....  202
 Basis Dimension        Dim             ....  539

ORBITAL ENERGIES
----------------

  NO   OCC          E(Eh)            E(eV)
   0   2.0000     -88.574003     -2410.2212
   1   2.0000     -88.572195     -2410.1720
   2   2.0000     -88.524395     -2408.8713
   3   2.0000     -88.522975     -2408.8326
   4   2.0000     -76.914149     -2092.9404
   5   2.0000     -76.913572     -2092.9247
   6   2.0000     -18.994952      -516.8789
   7   2.0000     -18.991073      -516.7734
   8   2.0000     -18.989783      -516.7383
   9   2.0000     -18.987713      -516.6819
  10   2.0000     -10.102657      -274.9073
  11   2.0000     -10.100416      -274.8463
  12   2.0000     -10.097401      -274.7642
  13   2.0000     -10.097035      -274.7543
  14   2.0000     -10.095726      -274.7187
  15   2.0000     -10.029320      -272.9117
  16   2.0000     -10.029291      -272.9109
  17   2.0000     -10.028632      -272.8929
  18   2.0000     -10.022328      -272.7214
  19   2.0000      -7.868234      -214.1055
  20   2.0000      -7.866407      -214.0558
  21   2.0000      -7.819128      -212.7693
  22   2.0000      -7.817719      -212.7309
  23   2.0000      -6.592888      -179.4016
  24   2.0000      -6.592177      -179.3823
  25   2.0000      -5.815077      -158.2363
  26   2.0000      -5.813363      -158.1897
  27   2.0000      -5.812134      -158.1562
  28   2.0000      -5.810432      -158.1099
  29   2.0000      -5.805360      -157.9719
  30   2.0000      -5.803278      -157.9152
  31   2.0000      -5.766728      -156.9206
  32   2.0000      -5.765252      -156.8805
  33   2.0000      -5.759471      -156.7232
  34   2.0000      -5.759118      -156.7136
  35   2.0000      -5.758020      -156.6837
  36   2.0000      -5.757821      -156.6783
  37   2.0000      -4.738276      -128.9350
  38   2.0000      -4.737746      -128.9206
  39   2.0000      -4.737376      -128.9105
  40   2.0000      -4.737039      -128.9014
  41   2.0000      -4.736756      -128.8937
  42   2.0000      -4.736243      -128.8797
  43   2.0000      -1.051532       -28.6136
  44   2.0000      -1.048447       -28.5297
  45   2.0000      -1.012865       -27.5615
  46   2.0000      -1.009580       -27.4721
  47   2.0000      -0.799157       -21.7462
  48   2.0000      -0.758347       -20.6357
  49   2.0000      -0.747217       -20.3328
  50   2.0000      -0.732246       -19.9254
  51   2.0000      -0.729330       -19.8461
  52   2.0000      -0.710785       -19.3414
  53   2.0000      -0.687048       -18.6955
  54   2.0000      -0.669498       -18.2180
  55   2.0000      -0.636645       -17.3240
  56   2.0000      -0.627549       -17.0765
  57   2.0000      -0.606676       -16.5085
  58   2.0000      -0.603339       -16.4177
  59   2.0000      -0.587451       -15.9854
  60   2.0000      -0.520734       -14.1699
  61   2.0000      -0.516139       -14.0449
  62   2.0000      -0.494669       -13.4606
  63   2.0000      -0.491447       -13.3730
  64   2.0000      -0.475870       -12.9491
  65   2.0000      -0.460950       -12.5431
  66   2.0000      -0.459477       -12.5030
  67   2.0000      -0.455583       -12.3970
  68   2.0000      -0.446454       -12.1486
  69   2.0000      -0.432260       -11.7624
  70   2.0000      -0.421116       -11.4591
  71   2.0000      -0.412352       -11.2207
  72   2.0000      -0.410110       -11.1597
  73   2.0000      -0.406892       -11.0721
  74   2.0000      -0.401962       -10.9379
  75   2.0000      -0.392871       -10.6906
  76   2.0000      -0.381398       -10.3784
  77   2.0000      -0.372467       -10.1353
  78   2.0000      -0.369489       -10.0543
  79   2.0000      -0.365527        -9.9465
  80   2.0000      -0.362807        -9.8725
  81   2.0000      -0.359531        -9.7833
  82   2.0000      -0.355590        -9.6761
  83   2.0000      -0.352354        -9.5880
  84   2.0000      -0.348022        -9.4702
  85   2.0000      -0.332971        -9.0606
  86   2.0000      -0.322858        -8.7854
  87   2.0000      -0.311693        -8.4816
  88   2.0000      -0.307671        -8.3721
  89   2.0000      -0.300163        -8.1679
  90   2.0000      -0.298829        -8.1316
  91   2.0000      -0.289918        -7.8891
  92   2.0000      -0.286966        -7.8087
  93   2.0000      -0.280563        -7.6345
  94   2.0000      -0.275612        -7.4998
  95   2.0000      -0.242273        -6.5926
  96   2.0000      -0.231643        -6.3033
  97   2.0000      -0.227261        -6.1841
  98   2.0000      -0.221008        -6.0139
  99   2.0000      -0.218248        -5.9388
 100   2.0000      -0.215399        -5.8613
 101   0.0000      -0.044721        -1.2169
 102   0.0000      -0.029014        -0.7895
 103   0.0000      -0.005719        -0.1556
 104   0.0000       0.003597         0.0979
 105   0.0000       0.017046         0.4638

MULLIKEN ATOMIC CHARGES
-----------------------
   0 C :   -0.434697
   1 C :   -0.156039
   2 O :   -0.292506
   3 P :    0.663555
   4 S :   -0.478166
   5 O :   -0.278101
   6 C :   -0.153244
   7 C :   -0.440867
   8 S :   -0.102560
   9 C :   -0.245426
  10 S :   -0.103814
  11 P :    0.686074
  12 S :   -0.486840
  13 O :   -0.306010
  14 C :   -0.150800
  15 C :   -0.452916
  16 O :   -0.276251
  17 C :   -0.149891
  18 C :   -0.442773
  19 H :    0.164705
  20 H :    0.156554
  21 H :    0.146880
  22 H :    0.149982
  23 H :    0.169841
  24 H :    0.146043
  25 H :    0.169250
  26 H :    0.144815
  27 H :    0.185036
  28 H :    0.146204
  29 H :    0.217653
  30 H :    0.206211
  31 H :    0.170997
  32 H :    0.148746
  33 H :    0.148255
  34 H :    0.157252
  35 H :    0.177671
  36 H :    0.173463
  37 H :    0.150375
  38 H :    0.167262
  39 H :    0.147317
  40 H :    0.156759
Sum of atomic charges:    0.0000000

LOEWDIN ATOMIC CHARGES
----------------------
   0 C :   -0.399557
   1 C :    0.023012
   2 O :   -0.668190
   3 P :    0.387040
   4 S :   -0.126269
   5 O :   -0.665025
   6 C :    0.019209
   7 C :   -0.404558
   8 S :    0.186620
   9 C :   -0.420847
  10 S :    0.163190
  11 P :    0.376142
  12 S :   -0.136154
  13 O :   -0.660033
  14 C :    0.020457
  15 C :   -0.406420
  16 O :   -0.676621
  17 C :    0.018955
  18 C :   -0.399065
  19 H :    0.163970
  20 H :    0.161718
  21 H :    0.159126
  22 H :    0.180465
  23 H :    0.179062
  24 H :    0.178114
  25 H :    0.179878
  26 H :    0.158562
  27 H :    0.171954
  28 H :    0.159038
  29 H :    0.192108
  30 H :    0.192392
  31 H :    0.179361
  32 H :    0.179795
  33 H :    0.159638
  34 H :    0.161009
  35 H :    0.166005
  36 H :    0.180997
  37 H :    0.179658
  38 H :    0.164664
  39 H :    0.159510
  40 H :    0.161090

  Mayer bond orders larger than 0.100000
B(  0-C ,  1-C ) :   0.9281 B(  0-C , 19-H ) :   0.9603 B(  0-C , 20-H ) :   0.9706
B(  0-C , 21-H ) :   0.9616 B(  1-C ,  2-O ) :   0.8134 B(  1-C , 22-H ) :   0.9608
B(  1-C , 23-H ) :   0.9663 B(  2-O ,  3-P ) :   1.1838 B(  3-P ,  4-S ) :   1.7345
B(  3-P ,  5-O ) :   1.0691 B(  3-P ,  8-S ) :   1.0931 B(  5-O ,  6-C ) :   0.7965
B(  6-C ,  7-C ) :   0.9403 B(  6-C , 24-H ) :   0.9614 B(  6-C , 25-H ) :   0.9613
B(  7-C , 26-H ) :   0.9618 B(  7-C , 27-H ) :   0.9502 B(  7-C , 28-H ) :   0.9692
B(  8-S ,  9-C ) :   0.8987 B(  9-C , 10-S ) :   0.9166 B(  9-C , 29-H ) :   0.9065
B(  9-C , 30-H ) :   0.9055 B( 10-S , 11-P ) :   1.0962 B( 11-P , 12-S ) :   1.7449
B( 11-P , 13-O ) :   1.0639 B( 11-P , 16-O ) :   1.1402 B( 13-O , 14-C ) :   0.8135
B( 14-C , 15-C ) :   0.9229 B( 14-C , 31-H ) :   0.9664 B( 14-C , 32-H ) :   0.9583
B( 15-C , 33-H ) :   0.9584 B( 15-C , 34-H ) :   0.9684 B( 15-C , 35-H ) :   0.9617
B( 16-O , 17-C ) :   0.7902 B( 17-C , 18-C ) :   0.9213 B( 17-C , 36-H ) :   0.9631
B( 17-C , 37-H ) :   0.9627 B( 18-C , 38-H ) :   0.9600 B( 18-C , 39-H ) :   0.9619
B( 18-C , 40-H ) :   0.9724

Dispersion correction           -0.021321694
FINAL SINGLE POINT ENERGY     -2932.464781889221

DIPOLE MOMENT
-------------

Method             : SCF
Type of density    : Electron Density
Multiplicity       :   1
Irrep              :   0
Energy             : -2932.4899457978672217 Eh
Relativity type    :
Basis              : AO
                                X                 Y                 Z
Electronic contribution:      2.412897316       6.003607587      -9.677337053
Nuclear contribution   :     -2.471726165      -6.613044175      10.469713222
                        -----------------------------------------
Total Dipole Moment    :     -0.058828849      -0.609436588       0.792376169
                        -----------------------------------------
Magnitude (a.u.)       :      1.001365958
Magnitude (Debye)      :      2.545269990

Rotational constants in cm-1:             0.014558             0.004277             0.004055
Rotational constants in MHz :           436.449852           128.221538           121.575751

                             ****ORCA TERMINATED NORMALLY****
TOTAL RUN TIME: 0 days 0 hours 1 minutes 17 seconds 583 msec
