                         Program Version 6.0.0  -   RELEASE  -
|  1> ! r2scan-3c def2/J RI DEFGRID2 scfconv6 printgap
|  2> %output
|  3>     printlevel normal
|  4> end
|  5> %cpcm
|  6>     smd true
|  7>     smdsolvent "water"
|  8> end
|  9> * xyz 0 1
| 10> C 5.7651601939 -0.9992919266 -0.4345304916
| 11> C 4.9281375657 -0.3365381157 -1.5086229688
| 12> O 3.5369777598 -0.7102351953 -1.4223327142
| 13> P 2.6100991758 -0.2535025803 -0.2226683639
| 14> S 2.9454702667 1.5504815648 0.4771187375
| 15> O 2.829876461 -1.430295898 0.8255502895
| 16> C 2.4674577453 -1.3147681364 2.2108588653
| 17> C 0.9736358208 -1.4595011578 2.4179197333
| 18> S 0.7446535195 -0.6438785098 -1.1481418863
| 19> C 0.0874958357 1.050610891 -1.1672838176
| 20> S -0.7960855285 1.495526347 0.3526935309
| 21> P -2.4796621615 0.270322866 -0.0017818493
| 22> S -3.118830269 0.1502584178 -1.8559764984
| 23> O -3.5588238314 0.7540498615 1.0582603012
| 24> C -4.5181865287 1.7859911441 0.7697005661
| 25> C -3.8659324023 3.1443109952 0.6111919203
| 26> O -1.9674615825 -1.0790793701 0.6483994168
| 27> C -2.5286579664 -2.3600054536 0.2995590568
| 28> C -3.9527951617 -2.5025036321 0.7938656723
| 29> H 5.4874989105 -0.6123744799 0.5448158042
| 30> H 5.6073098342 -2.0745043226 -0.446227494
| 31> H 6.8141186056 -0.7848827731 -0.6138150365
| 32> H 5.2211981576 -0.6605134745 -2.5080813571
| 33> H 4.9973930638 0.7534292272 -1.4342777828
| 34> H 3.017725149 -2.1217428596 2.6971531488
| 35> H 2.8175703348 -0.346425817 2.584152243
| 36> H 0.7572365218 -1.489860007 3.4808998916
| 37> H 0.44469597 -0.6147423726 1.9786036725
| 38> H 0.617508766 -2.3739002042 1.9502416831
| 39> H -0.6024202991 1.1075678565 -2.0089625001
| 40> H 0.9041837369 1.7628372222 -1.269478906
| 41> H -5.0578332574 1.5111504804 -0.1423734029
| 42> H -5.1947182419 1.7609544602 1.6249655833
| 43> H -4.6349344568 3.9045164494 0.5183886832
| 44> H -3.239396125 3.3658116411 1.4716082241
| 45> H -3.2460508943 3.1582996804 -0.2844568722
| 46> H -2.4793513395 -2.474928349 -0.788046747
| 47> H -1.8603365117 -3.0782933248 0.7757099558
| 48> H -4.5982482253 -1.8001096713 0.2677676242
| 49> H -4.301705123 -3.5125587548 0.6032671113
| 50> H -4.0020429987 -2.294898134 1.8594706907
| 51> *
| 52>
| 53>                          ****END OF INPUT****

CARTESIAN COORDINATES (ANGSTROEM)
---------------------------------
  C      5.765160   -0.999292   -0.434530
  C      4.928138   -0.336538   -1.508623
  O      3.536978   -0.710235   -1.422333
  P      2.610099   -0.253503   -0.222668
  S      2.945470    1.550482    0.477119
  O      2.829876   -1.430296    0.825550
  C      2.467458   -1.314768    2.210859
  C      0.973636   -1.459501    2.417920
  S      0.744654   -0.643879   -1.148142
  C      0.087496    1.050611   -1.167284
  S     -0.796086    1.495526    0.352694
  P     -2.479662    0.270323   -0.001782
  S     -3.118830    0.150258   -1.855976
  O     -3.558824    0.754050    1.058260
  C     -4.518187    1.785991    0.769701
  C     -3.865932    3.144311    0.611192
  O     -1.967462   -1.079079    0.648399
  C     -2.528658   -2.360005    0.299559
  C     -3.952795   -2.502504    0.793866
  H      5.487499   -0.612374    0.544816
  H      5.607310   -2.074504   -0.446227
  H      6.814119   -0.784883   -0.613815
  H      5.221198   -0.660513   -2.508081
  H      4.997393    0.753429   -1.434278
  H      3.017725   -2.121743    2.697153
  H      2.817570   -0.346426    2.584152
  H      0.757237   -1.489860    3.480900
  H      0.444696   -0.614742    1.978604
  H      0.617509   -2.373900    1.950242
  H     -0.602420    1.107568   -2.008963
  H      0.904184    1.762837   -1.269479
  H     -5.057833    1.511150   -0.142373
  H     -5.194718    1.760954    1.624966
  H     -4.634934    3.904516    0.518389
  H     -3.239396    3.365812    1.471608
  H     -3.246051    3.158300   -0.284457
  H     -2.479351   -2.474928   -0.788047
  H     -1.860337   -3.078293    0.775710
  H     -4.598248   -1.800110    0.267768
  H     -4.301705   -3.512559    0.603267
  H     -4.002043   -2.294898    1.859471

 Total Charge           Charge          ....    0
 Multiplicity           Mult            ....    1
 Number of Electrons    NEL             ....  202
 Basis Dimension        Dim             ....  539

ORBITAL ENERGIES
----------------

  NO   OCC          E(Eh)            E(eV)
   0   2.0000     -88.579178     -2410.3620
   1   2.0000     -88.578835     -2410.3526
   2   2.0000     -88.532053     -2409.0796
   3   2.0000     -88.529797     -2409.0183
   4   2.0000     -76.920001     -2093.0996
   5   2.0000     -76.919244     -2093.0790
   6   2.0000     -18.996914      -516.9323
   7   2.0000     -18.995107      -516.8831
   8   2.0000     -18.993058      -516.8274
   9   2.0000     -18.992847      -516.8216
  10   2.0000     -10.105021      -274.9716
  11   2.0000     -10.090420      -274.5743
  12   2.0000     -10.089504      -274.5494
  13   2.0000     -10.089147      -274.5396
  14   2.0000     -10.089052      -274.5371
  15   2.0000     -10.018929      -272.6289
  16   2.0000     -10.018723      -272.6233
  17   2.0000     -10.018693      -272.6225
  18   2.0000     -10.016414      -272.5605
  19   2.0000      -7.873474      -214.2481
  20   2.0000      -7.873128      -214.2387
  21   2.0000      -7.827011      -212.9838
  22   2.0000      -7.824803      -212.9237
  23   2.0000      -6.598665      -179.5588
  24   2.0000      -6.598017      -179.5412
  25   2.0000      -5.820298      -158.3784
  26   2.0000      -5.820042      -158.3714
  27   2.0000      -5.817370      -158.2987
  28   2.0000      -5.817106      -158.2915
  29   2.0000      -5.810623      -158.1151
  30   2.0000      -5.810088      -158.1005
  31   2.0000      -5.774581      -157.1343
  32   2.0000      -5.772293      -157.0721
  33   2.0000      -5.767338      -156.9373
  34   2.0000      -5.767005      -156.9282
  35   2.0000      -5.765089      -156.8761
  36   2.0000      -5.764914      -156.8713
  37   2.0000      -4.743844      -129.0866
  38   2.0000      -4.743512      -129.0775
  39   2.0000      -4.743351      -129.0732
  40   2.0000      -4.742877      -129.0602
  41   2.0000      -4.742780      -129.0576
  42   2.0000      -4.741960      -129.0353
  43   2.0000      -1.053753       -28.6741
  44   2.0000      -1.052689       -28.6451
  45   2.0000      -1.014451       -27.6046
  46   2.0000      -1.013205       -27.5707
  47   2.0000      -0.803390       -21.8614
  48   2.0000      -0.756971       -20.5982
  49   2.0000      -0.742607       -20.2074
  50   2.0000      -0.723939       -19.6994
  51   2.0000      -0.723344       -19.6832
  52   2.0000      -0.710705       -19.3393
  53   2.0000      -0.690987       -18.8027
  54   2.0000      -0.676279       -18.4025
  55   2.0000      -0.636354       -17.3161
  56   2.0000      -0.625087       -17.0095
  57   2.0000      -0.599971       -16.3260
  58   2.0000      -0.598917       -16.2974
  59   2.0000      -0.588349       -16.0098
  60   2.0000      -0.518125       -14.0989
  61   2.0000      -0.513515       -13.9735
  62   2.0000      -0.492556       -13.4031
  63   2.0000      -0.489297       -13.3145
  64   2.0000      -0.476825       -12.9751
  65   2.0000      -0.458872       -12.4865
  66   2.0000      -0.455238       -12.3877
  67   2.0000      -0.453307       -12.3351
  68   2.0000      -0.444258       -12.0889
  69   2.0000      -0.429783       -11.6950
  70   2.0000      -0.419745       -11.4219
  71   2.0000      -0.408209       -11.1079
  72   2.0000      -0.407556       -11.0902
  73   2.0000      -0.405569       -11.0361
  74   2.0000      -0.402294       -10.9470
  75   2.0000      -0.392357       -10.6766
  76   2.0000      -0.381309       -10.3759
  77   2.0000      -0.367298        -9.9947
  78   2.0000      -0.365634        -9.9494
  79   2.0000      -0.363272        -9.8851
  80   2.0000      -0.354677        -9.6512
  81   2.0000      -0.352557        -9.5936
  82   2.0000      -0.349463        -9.5094
  83   2.0000      -0.347523        -9.4566
  84   2.0000      -0.345405        -9.3989
  85   2.0000      -0.330818        -9.0020
  86   2.0000      -0.321988        -8.7617
  87   2.0000      -0.306955        -8.3527
  88   2.0000      -0.304833        -8.2949
  89   2.0000      -0.300638        -8.1808
  90   2.0000      -0.297553        -8.0968
  91   2.0000      -0.289353        -7.8737
  92   2.0000      -0.287898        -7.8341
  93   2.0000      -0.280714        -7.6386
  94   2.0000      -0.278036        -7.5657
  95   2.0000      -0.247258        -6.7282
  96   2.0000      -0.239247        -6.5102
  97   2.0000      -0.234850        -6.3906
  98   2.0000      -0.228939        -6.2297
  99   2.0000      -0.226133        -6.1534
 100   2.0000      -0.222301        -6.0491
 101   0.0000      -0.051757        -1.4084
 102   0.0000      -0.036166        -0.9841
 103   0.0000      -0.010377        -0.2824
 104   0.0000      -0.001889        -0.0514
 105   0.0000       0.013288         0.3616

MULLIKEN ATOMIC CHARGES
-----------------------
   0 C :   -0.475194
   1 C :   -0.151867
   2 O :   -0.327430
   3 P :    0.700561
   4 S :   -0.513792
   5 O :   -0.302317
   6 C :   -0.147531
   7 C :   -0.485235
   8 S :   -0.128195
   9 C :   -0.253492
  10 S :   -0.118358
  11 P :    0.723020
  12 S :   -0.530676
  13 O :   -0.330264
  14 C :   -0.151731
  15 C :   -0.488416
  16 O :   -0.303832
  17 C :   -0.148593
  18 C :   -0.483864
  19 H :    0.167569
  20 H :    0.169091
  21 H :    0.172217
  22 H :    0.175143
  23 H :    0.176069
  24 H :    0.174524
  25 H :    0.173673
  26 H :    0.171290
  27 H :    0.169910
  28 H :    0.169033
  29 H :    0.234922
  30 H :    0.226156
  31 H :    0.178205
  32 H :    0.176074
  33 H :    0.173338
  34 H :    0.169980
  35 H :    0.172822
  36 H :    0.176902
  37 H :    0.179219
  38 H :    0.168442
  39 H :    0.172294
  40 H :    0.170334
Sum of atomic charges:    0.0000000

LOEWDIN ATOMIC CHARGES
----------------------
   0 C :   -0.402635
   1 C :    0.027741
   2 O :   -0.685862
   3 P :    0.391474
   4 S :   -0.147575
   5 O :   -0.675650
   6 C :    0.025519
   7 C :   -0.409642
   8 S :    0.172302
   9 C :   -0.415023
  10 S :    0.154814
  11 P :    0.381269
  12 S :   -0.162146
  13 O :   -0.670552
  14 C :    0.026419
  15 C :   -0.409592
  16 O :   -0.690834
  17 C :    0.022982
  18 C :   -0.402220
  19 H :    0.162661
  20 H :    0.164391
  21 H :    0.168809
  22 H :    0.190924
  23 H :    0.181571
  24 H :    0.190358
  25 H :    0.181649
  26 H :    0.168151
  27 H :    0.163908
  28 H :    0.164265
  29 H :    0.197092
  30 H :    0.198962
  31 H :    0.181770
  32 H :    0.191411
  33 H :    0.168797
  34 H :    0.163832
  35 H :    0.161656
  36 H :    0.182003
  37 H :    0.190984
  38 H :    0.162744
  39 H :    0.168864
  40 H :    0.164412

  Mayer bond orders larger than 0.100000
B(  0-C ,  1-C ) :   0.9154 B(  0-C , 19-H ) :   0.9589 B(  0-C , 20-H ) :   0.9699
B(  0-C , 21-H ) :   0.9554 B(  1-C ,  2-O ) :   0.8021 B(  1-C , 22-H ) :   0.9512
B(  1-C , 23-H ) :   0.9615 B(  2-O ,  3-P ) :   1.1855 B(  3-P ,  4-S ) :   1.7094
B(  3-P ,  5-O ) :   1.0766 B(  3-P ,  8-S ) :   1.0940 B(  5-O ,  6-C ) :   0.7852
B(  6-C ,  7-C ) :   0.9265 B(  6-C , 24-H ) :   0.9520 B(  6-C , 25-H ) :   0.9592
B(  7-C , 26-H ) :   0.9555 B(  7-C , 27-H ) :   0.9550 B(  7-C , 28-H ) :   0.9660
B(  8-S ,  9-C ) :   0.8909 B(  9-C , 10-S ) :   0.9103 B(  9-C , 29-H ) :   0.9026
B(  9-C , 30-H ) :   0.9003 B( 10-S , 11-P ) :   1.1036 B( 11-P , 12-S ) :   1.7052
B( 11-P , 13-O ) :   1.0739 B( 11-P , 16-O ) :   1.1477 B( 13-O , 14-C ) :   0.8014
B( 14-C , 15-C ) :   0.9088 B( 14-C , 31-H ) :   0.9652 B( 14-C , 32-H ) :   0.9485
B( 15-C , 33-H ) :   0.9530 B( 15-C , 34-H ) :   0.9657 B( 15-C , 35-H ) :   0.9631
B( 16-O , 17-C ) :   0.7772 B( 17-C , 18-C ) :   0.9106 B( 17-C , 36-H ) :   0.9589
B( 17-C , 37-H ) :   0.9522 B( 18-C , 38-H ) :   0.9591 B( 18-C , 39-H ) :   0.9558
B( 18-C , 40-H ) :   0.9713

Dispersion correction           -0.021321694
FINAL SINGLE POINT ENERGY     -2932.472050733233

DIPOLE MOMENT
-------------

Method             : SCF
Type of density    : Electron Density
Multiplicity       :   1
Irrep              :   0
Energy             : -2932.4972146418790544 Eh
Relativity type    :
Basis              : AO
                                X                 Y                 Z
Electronic contribution:      2.426108536       5.847608064      -9.427476394
Nuclear contribution   :     -2.471726165      -6.613044175      10.469713222
                        -----------------------------------------
Total Dipole Moment    :     -0.045617629      -0.765436111       1.042236828
                        -----------------------------------------
Magnitude (a.u.)       :      1.293920791
Magnitude (Debye)      :      3.288885279

Rotational constants in cm-1:             0.014558             0.004277             0.004055
Rotational constants in MHz :           436.449852           128.221538           121.575751

                             ****ORCA TERMINATED NORMALLY****
TOTAL RUN TIME: 0 days 0 hours 1 minutes 53 seconds 110 msec
