                         Program Version 6.0.0  -   RELEASE  -
|  1> ! pbe def2-sv(p) def2/J RI DEFGRID1 loosescf d4 GCP(DFT/SV(P)) printgap
|  2> %output
|  3>     printlevel normal
|  4> end
|  5> * xyz 0 1
|  6> C 5.5873586969 -0.4384497957 -1.1037360075
|  7> C 4.3372036286 0.4162892233 -1.0587590677
|  8> O 3.3798812823 -0.2458604928 -0.2117394945
|  9> P 1.9942584747 0.4556836781 0.15051753
| 10> S 2.1477211289 2.2861988827 0.8254336175
| 11> O 1.3683926665 -0.6328949269 1.1034172842
| 12> C 1.3518607154 -0.4797144458 2.5368074043
| 13> C 2.7280434741 -0.7105774684 3.122308568
| 14> S 0.8548855361 0.256225408 -1.6304567199
| 15> C 0.4715770167 -1.5144759089 -1.5931277514
| 16> S -0.7542421843 -2.0034560122 -0.3309933332
| 17> P -2.0041531775 -0.312980732 -0.3302420136
| 18> S -2.6302608495 0.3824380385 -2.057693337
| 19> O -1.2106222898 0.6960695077 0.6083047526
| 20> C -1.5066866365 2.1086066553 0.5860427588
| 21> C -2.8701573702 2.4040495087 1.1704578201
| 22> O -3.1642932153 -0.7900893823 0.6431334624
| 23> C -4.2453254981 -1.6286391565 0.1856829302
| 24> C -5.4031652752 -1.4682763453 1.1500782792
| 25> H 5.3524312765 -1.4220570287 -1.4995096551
| 26> H 6.3218695914 0.0400898455 -1.7429787568
| 27> H 5.9988136887 -0.5496002234 -0.1048655727
| 28> H 3.896689199 0.5386213579 -2.053703554
| 29> H 4.540160076 1.4081285036 -0.6416659275
| 30> H 0.9873706976 0.5235039444 2.7785874936
| 31> H 0.6300560638 -1.2267060186 2.8705349636
| 32> H 2.6727516405 -0.66189245 4.2051708764
| 33> H 3.1057059182 -1.683505226 2.8201178243
| 34> H 3.4102777669 0.0604915761 2.766042375
| 35> H 1.371270439 -2.0883665464 -1.3830508092
| 36> H 0.0739228303 -1.7414701856 -2.5805336396
| 37> H -0.7023331529 2.5609740887 1.169817037
| 38> H -1.4398097939 2.4591664207 -0.4499623204
| 39> H -3.0074595069 3.4791525249 1.229636771
| 40> H -3.6435202268 1.9812739312 0.530148635
| 41> H -2.9546509956 1.9698378916 2.1631001768
| 42> H -4.5200873379 -1.3198856943 -0.8287157567
| 43> H -3.885973334 -2.6606605991 0.160905311
| 44> H -6.2138324998 -2.1204951991 0.8424907163
| 45> H -5.0873297297 -1.7341311527 2.1545883173
| 46> H -5.7523392458 -0.4395522242 1.1512377036
| 47> *
| 48>
| 49>                          ****END OF INPUT****

CARTESIAN COORDINATES (ANGSTROEM)
---------------------------------
  C      5.587359   -0.438450   -1.103736
  C      4.337204    0.416289   -1.058759
  O      3.379881   -0.245860   -0.211739
  P      1.994258    0.455684    0.150518
  S      2.147721    2.286199    0.825434
  O      1.368393   -0.632895    1.103417
  C      1.351861   -0.479714    2.536807
  C      2.728043   -0.710577    3.122309
  S      0.854886    0.256225   -1.630457
  C      0.471577   -1.514476   -1.593128
  S     -0.754242   -2.003456   -0.330993
  P     -2.004153   -0.312981   -0.330242
  S     -2.630261    0.382438   -2.057693
  O     -1.210622    0.696070    0.608305
  C     -1.506687    2.108607    0.586043
  C     -2.870157    2.404050    1.170458
  O     -3.164293   -0.790089    0.643133
  C     -4.245325   -1.628639    0.185683
  C     -5.403165   -1.468276    1.150078
  H      5.352431   -1.422057   -1.499510
  H      6.321870    0.040090   -1.742979
  H      5.998814   -0.549600   -0.104866
  H      3.896689    0.538621   -2.053704
  H      4.540160    1.408129   -0.641666
  H      0.987371    0.523504    2.778587
  H      0.630056   -1.226706    2.870535
  H      2.672752   -0.661892    4.205171
  H      3.105706   -1.683505    2.820118
  H      3.410278    0.060492    2.766042
  H      1.371270   -2.088367   -1.383051
  H      0.073923   -1.741470   -2.580534
  H     -0.702333    2.560974    1.169817
  H     -1.439810    2.459166   -0.449962
  H     -3.007460    3.479153    1.229637
  H     -3.643520    1.981274    0.530149
  H     -2.954651    1.969838    2.163100
  H     -4.520087   -1.319886   -0.828716
  H     -3.885973   -2.660661    0.160905
  H     -6.213832   -2.120495    0.842491
  H     -5.087330   -1.734131    2.154588
  H     -5.752339   -0.439552    1.151238

 Total Charge           Charge          ....    0
 Multiplicity           Mult            ....    1
 Number of Electrons    NEL             ....  202
 Basis Dimension        Dim             ....  334

ORBITAL ENERGIES
----------------

  NO   OCC          E(Eh)            E(eV)
   0   2.0000     -88.044722     -2395.8187
   1   2.0000     -88.038399     -2395.6466
   2   2.0000     -87.990727     -2394.3494
   3   2.0000     -87.981096     -2394.0873
   4   2.0000     -76.427218     -2079.6903
   5   2.0000     -76.423370     -2079.5856
   6   2.0000     -18.792887      -511.3804
   7   2.0000     -18.791995      -511.3562
   8   2.0000     -18.791393      -511.3398
   9   2.0000     -18.784979      -511.1653
  10   2.0000      -9.961854      -271.0758
  11   2.0000      -9.952817      -270.8299
  12   2.0000      -9.951702      -270.7996
  13   2.0000      -9.950948      -270.7791
  14   2.0000      -9.937031      -270.4004
  15   2.0000      -9.890183      -269.1256
  16   2.0000      -9.887500      -269.0526
  17   2.0000      -9.883828      -268.9526
  18   2.0000      -9.875271      -268.7198
  19   2.0000      -7.689302      -209.2365
  20   2.0000      -7.683865      -209.0886
  21   2.0000      -7.635775      -207.7800
  22   2.0000      -7.626145      -207.5180
  23   2.0000      -6.424938      -174.8314
  24   2.0000      -6.420544      -174.7119
  25   2.0000      -5.717570      -155.5830
  26   2.0000      -5.713602      -155.4750
  27   2.0000      -5.711976      -155.4308
  28   2.0000      -5.708413      -155.3338
  29   2.0000      -5.706086      -155.2705
  30   2.0000      -5.700466      -155.1176
  31   2.0000      -5.664624      -154.1422
  32   2.0000      -5.656467      -153.9203
  33   2.0000      -5.655923      -153.9055
  34   2.0000      -5.655021      -153.8810
  35   2.0000      -5.646777      -153.6566
  36   2.0000      -5.646380      -153.6458
  37   2.0000      -4.647328      -126.4602
  38   2.0000      -4.646872      -126.4478
  39   2.0000      -4.645395      -126.4076
  40   2.0000      -4.642961      -126.3414
  41   2.0000      -4.642407      -126.3263
  42   2.0000      -4.641113      -126.2911
  43   2.0000      -0.989214       -26.9179
  44   2.0000      -0.982708       -26.7408
  45   2.0000      -0.947190       -25.7744
  46   2.0000      -0.940875       -25.6025
  47   2.0000      -0.763921       -20.7874
  48   2.0000      -0.721510       -19.6333
  49   2.0000      -0.708005       -19.2658
  50   2.0000      -0.688786       -18.7428
  51   2.0000      -0.682572       -18.5737
  52   2.0000      -0.671711       -18.2782
  53   2.0000      -0.651802       -17.7364
  54   2.0000      -0.637229       -17.3399
  55   2.0000      -0.598596       -16.2886
  56   2.0000      -0.591763       -16.1027
  57   2.0000      -0.570879       -15.5344
  58   2.0000      -0.564172       -15.3519
  59   2.0000      -0.558462       -15.1965
  60   2.0000      -0.507066       -13.7980
  61   2.0000      -0.499728       -13.5983
  62   2.0000      -0.478724       -13.0267
  63   2.0000      -0.469469       -12.7749
  64   2.0000      -0.459420       -12.5014
  65   2.0000      -0.442560       -12.0427
  66   2.0000      -0.436534       -11.8787
  67   2.0000      -0.432388       -11.7659
  68   2.0000      -0.426033       -11.5930
  69   2.0000      -0.417315       -11.3557
  70   2.0000      -0.408368       -11.1123
  71   2.0000      -0.397815       -10.8251
  72   2.0000      -0.391229       -10.6459
  73   2.0000      -0.380721       -10.3599
  74   2.0000      -0.377975       -10.2852
  75   2.0000      -0.372107       -10.1255
  76   2.0000      -0.369359       -10.0508
  77   2.0000      -0.358721        -9.7613
  78   2.0000      -0.356248        -9.6940
  79   2.0000      -0.354101        -9.6356
  80   2.0000      -0.346448        -9.4273
  81   2.0000      -0.344294        -9.3687
  82   2.0000      -0.342894        -9.3306
  83   2.0000      -0.337577        -9.1859
  84   2.0000      -0.330302        -8.9880
  85   2.0000      -0.318168        -8.6578
  86   2.0000      -0.311626        -8.4798
  87   2.0000      -0.300078        -8.1655
  88   2.0000      -0.298102        -8.1118
  89   2.0000      -0.292247        -7.9525
  90   2.0000      -0.281836        -7.6692
  91   2.0000      -0.274765        -7.4767
  92   2.0000      -0.263671        -7.1749
  93   2.0000      -0.261446        -7.1143
  94   2.0000      -0.258844        -7.0435
  95   2.0000      -0.229389        -6.2420
  96   2.0000      -0.221765        -6.0345
  97   2.0000      -0.213014        -5.7964
  98   2.0000      -0.205956        -5.6044
  99   2.0000      -0.194520        -5.2932
 100   2.0000      -0.193390        -5.2624
 101   0.0000      -0.046348        -1.2612
 102   0.0000      -0.024147        -0.6571
 103   0.0000      -0.007864        -0.2140
 104   0.0000       0.002300         0.0626
 105   0.0000       0.019265         0.5242

MULLIKEN ATOMIC CHARGES
-----------------------
   0 C :   -0.275980
   1 C :   -0.015948
   2 O :   -0.377514
   3 P :    0.625433
   4 S :   -0.326530
   5 O :   -0.362996
   6 C :    0.000036
   7 C :   -0.302019
   8 S :   -0.079584
   9 C :   -0.320484
  10 S :   -0.097518
  11 P :    0.611215
  12 S :   -0.332899
  13 O :   -0.367398
  14 C :   -0.019368
  15 C :   -0.301461
  16 O :   -0.375849
  17 C :   -0.010943
  18 C :   -0.282751
  19 H :    0.113373
  20 H :    0.112933
  21 H :    0.118178
  22 H :    0.098606
  23 H :    0.107123
  24 H :    0.113795
  25 H :    0.104277
  26 H :    0.111827
  27 H :    0.114679
  28 H :    0.120995
  29 H :    0.179911
  30 H :    0.191677
  31 H :    0.117079
  32 H :    0.112517
  33 H :    0.110438
  34 H :    0.118545
  35 H :    0.110739
  36 H :    0.106009
  37 H :    0.101082
  38 H :    0.111666
  39 H :    0.115836
  40 H :    0.121272
Sum of atomic charges:   -0.0000000

LOEWDIN ATOMIC CHARGES
----------------------
   0 C :   -0.349602
   1 C :   -0.124609
   2 O :   -0.253977
   3 P :    0.573059
   4 S :   -0.310271
   5 O :   -0.231350
   6 C :   -0.113172
   7 C :   -0.363618
   8 S :    0.105962
   9 C :   -0.466416
  10 S :    0.078911
  11 P :    0.564567
  12 S :   -0.332722
  13 O :   -0.240544
  14 C :   -0.127858
  15 C :   -0.365460
  16 O :   -0.247890
  17 C :   -0.121598
  18 C :   -0.350471
  19 H :    0.125416
  20 H :    0.131298
  21 H :    0.127736
  22 H :    0.105399
  23 H :    0.109449
  24 H :    0.111477
  25 H :    0.118264
  26 H :    0.130317
  27 H :    0.125661
  28 H :    0.122118
  29 H :    0.133813
  30 H :    0.139370
  31 H :    0.111275
  32 H :    0.110472
  33 H :    0.129931
  34 H :    0.118664
  35 H :    0.123406
  36 H :    0.107735
  37 H :    0.109624
  38 H :    0.130704
  39 H :    0.126530
  40 H :    0.128399

  Mayer bond orders larger than 0.100000
B(  0-C ,  1-C ) :   1.1597 B(  0-C , 19-H ) :   0.9512 B(  0-C , 20-H ) :   0.9422
B(  0-C , 21-H ) :   0.9516 B(  1-C ,  2-O ) :   0.9095 B(  1-C , 22-H ) :   0.9205
B(  1-C , 23-H ) :   0.9161 B(  2-O ,  3-P ) :   1.0792 B(  3-P ,  4-S ) :   1.6291
B(  3-P ,  5-O ) :   1.1360 B(  3-P ,  8-S ) :   0.9527 B(  5-O ,  6-C ) :   0.8928
B(  6-C ,  7-C ) :   1.1626 B(  6-C , 24-H ) :   0.9172 B(  6-C , 25-H ) :   0.9318
B(  7-C , 26-H ) :   0.9399 B(  7-C , 27-H ) :   0.9464 B(  7-C , 28-H ) :   0.9363
B(  8-S ,  9-C ) :   1.0044 B(  9-C , 10-S ) :   0.9757 B(  9-C , 29-H ) :   0.9065
B(  9-C , 30-H ) :   0.9047 B( 10-S , 11-P ) :   0.9840 B( 10-S , 12-S ) :   0.1128
B( 11-P , 12-S ) :   1.6048 B( 11-P , 13-O ) :   1.1147 B( 11-P , 16-O ) :   1.1042
B( 13-O , 14-C ) :   0.8924 B( 14-C , 15-C ) :   1.1618 B( 14-C , 31-H ) :   0.9162
B( 14-C , 32-H ) :   0.9169 B( 15-C , 33-H ) :   0.9396 B( 15-C , 34-H ) :   0.9339
B( 15-C , 35-H ) :   0.9462 B( 16-O , 17-C ) :   0.9042 B( 17-C , 18-C ) :   1.1605
B( 17-C , 36-H ) :   0.9063 B( 17-C , 37-H ) :   0.9302 B( 18-C , 38-H ) :   0.9420
B( 18-C , 39-H ) :   0.9503 B( 18-C , 40-H ) :   0.9514

Dispersion correction           -0.066360792
FINAL SINGLE POINT ENERGY     -2929.520319043054

DIPOLE MOMENT
-------------

Method             : SCF
Type of density    : Electron Density
Multiplicity       :   1
Irrep              :   0
Energy             : -2929.6390002650414317 Eh
Relativity type    :
Basis              : AO
                                X                 Y                 Z
Electronic contribution:     -0.691442162       1.593243087     -12.403577999
Nuclear contribution   :      1.108059937      -2.633239569      13.003936825
                        -----------------------------------------
Total Dipole Moment    :      0.416617776      -1.039996483       0.600358826
                        -----------------------------------------
Magnitude (a.u.)       :      1.271060099
Magnitude (Debye)      :      3.230778017

Rotational constants in cm-1:             0.013419             0.004956             0.004793
Rotational constants in MHz :           402.288295           148.563570           143.697618

                             ****ORCA TERMINATED NORMALLY****
TOTAL RUN TIME: 0 days 0 hours 0 minutes 21 seconds 371 msec
