                         Program Version 6.0.0  -   RELEASE  -
|  1> ! pbe def2-sv(p) def2/J RI DEFGRID1 loosescf d4 GCP(DFT/SV(P)) printgap
|  2> %output
|  3>     printlevel normal
|  4> end
|  5> * xyz 0 1
|  6> C 3.6117108715 2.2123290598 -0.1386865771
|  7> C 2.1094491178 2.0630701126 -0.0332723586
|  8> O 1.6811616746 0.7456193749 -0.4320687285
|  9> P 2.0215564137 -0.5486629625 0.4048749874
| 10> S 2.2392231736 -0.295183888 2.3390297112
| 11> O 3.272953331 -1.1127242363 -0.3948517661
| 12> C 3.9337631364 -2.3419992688 -0.0311715118
| 13> C 5.1019071055 -2.0768726588 0.8990325812
| 14> S 0.4762865611 -1.8649739512 -0.176185443
| 15> C -0.6982112615 -1.4009766494 1.1317657303
| 16> S -1.1951051448 0.3386169946 1.0902864605
| 17> P -2.1321494206 0.3738763271 -0.8404704826
| 18> S -0.9645535639 0.5808755035 -2.4004012376
| 19> O -3.2298423063 1.5145413286 -0.698226314
| 20> C -2.9310938533 2.8906775584 -0.9862789688
| 21> C -1.9917971023 3.4870629618 0.0415579347
| 22> O -2.9931875818 -0.948257566 -0.8954519161
| 23> C -4.3578672963 -1.0868986725 -0.421207577
| 24> C -4.4787191847 -0.9485418486 1.0820410253
| 25> H 3.9419325511 1.9635842859 -1.1439457178
| 26> H 3.8909435078 3.2348121856 0.0949698999
| 27> H 4.096322273 1.5393929206 0.5682621255
| 28> H 1.5847067584 2.7249084446 -0.7245203864
| 29> H 1.7692711694 2.2424996221 0.9924128137
| 30> H 3.208550181 -3.018856666 0.4304855406
| 31> H 4.2683253881 -2.7632210153 -0.9811854744
| 32> H 5.7971992074 -1.3822566706 0.4359819718
| 33> H 4.7493780685 -1.6508260872 1.835758793
| 34> H 5.6121619383 -3.0120836392 1.1054805473
| 35> H -0.2325301718 -1.5500527475 2.1062862014
| 36> H -1.5630418753 -2.0460173738 0.9999531733
| 37> H -2.4930592928 2.9470988063 -1.9881433036
| 38> H -3.9061662179 3.3793637036 -0.9762610409
| 39> H -1.8471932816 4.541874036 -0.1678507127
| 40> H -2.3960547904 3.367716614 1.0433342197
| 41> H -1.0275422376 2.9810541181 -0.0062198103
| 42> H -4.970187414 -0.3396409902 -0.928153428
| 43> H -4.634942194 -2.0867126433 -0.7592026724
| 44> H -4.1578834304 0.0415479893 1.3976034721
| 45> H -5.5186522948 -1.0872432817 1.3616117426
| 46> H -3.8758882949 -1.6949605367 1.5929592225
| 47> *
| 48>
| 49>                          ****END OF INPUT****

CARTESIAN COORDINATES (ANGSTROEM)
---------------------------------
  C      3.611711    2.212329   -0.138687
  C      2.109449    2.063070   -0.033272
  O      1.681162    0.745619   -0.432069
  P      2.021556   -0.548663    0.404875
  S      2.239223   -0.295184    2.339030
  O      3.272953   -1.112724   -0.394852
  C      3.933763   -2.341999   -0.031172
  C      5.101907   -2.076873    0.899033
  S      0.476287   -1.864974   -0.176185
  C     -0.698211   -1.400977    1.131766
  S     -1.195105    0.338617    1.090286
  P     -2.132149    0.373876   -0.840470
  S     -0.964554    0.580876   -2.400401
  O     -3.229842    1.514541   -0.698226
  C     -2.931094    2.890678   -0.986279
  C     -1.991797    3.487063    0.041558
  O     -2.993188   -0.948258   -0.895452
  C     -4.357867   -1.086899   -0.421208
  C     -4.478719   -0.948542    1.082041
  H      3.941933    1.963584   -1.143946
  H      3.890944    3.234812    0.094970
  H      4.096322    1.539393    0.568262
  H      1.584707    2.724908   -0.724520
  H      1.769271    2.242500    0.992413
  H      3.208550   -3.018857    0.430486
  H      4.268325   -2.763221   -0.981185
  H      5.797199   -1.382257    0.435982
  H      4.749378   -1.650826    1.835759
  H      5.612162   -3.012084    1.105481
  H     -0.232530   -1.550053    2.106286
  H     -1.563042   -2.046017    0.999953
  H     -2.493059    2.947099   -1.988143
  H     -3.906166    3.379364   -0.976261
  H     -1.847193    4.541874   -0.167851
  H     -2.396055    3.367717    1.043334
  H     -1.027542    2.981054   -0.006220
  H     -4.970187   -0.339641   -0.928153
  H     -4.634942   -2.086713   -0.759203
  H     -4.157883    0.041548    1.397603
  H     -5.518652   -1.087243    1.361612
  H     -3.875888   -1.694961    1.592959

 Total Charge           Charge          ....    0
 Multiplicity           Mult            ....    1
 Number of Electrons    NEL             ....  202
 Basis Dimension        Dim             ....  334

ORBITAL ENERGIES
----------------

  NO   OCC          E(Eh)            E(eV)
   0   2.0000     -88.038068     -2395.6376
   1   2.0000     -88.036464     -2395.5940
   2   2.0000     -87.984568     -2394.1818
   3   2.0000     -87.975294     -2393.9295
   4   2.0000     -76.423879     -2079.5995
   5   2.0000     -76.422397     -2079.5592
   6   2.0000     -18.795867      -511.4615
   7   2.0000     -18.792915      -511.3812
   8   2.0000     -18.789207      -511.2803
   9   2.0000     -18.781516      -511.0710
  10   2.0000      -9.960482      -271.0385
  11   2.0000      -9.955304      -270.8976
  12   2.0000      -9.954806      -270.8840
  13   2.0000      -9.952187      -270.8128
  14   2.0000      -9.944253      -270.5969
  15   2.0000      -9.891689      -269.1666
  16   2.0000      -9.889181      -269.0983
  17   2.0000      -9.879093      -268.8238
  18   2.0000      -9.877778      -268.7880
  19   2.0000      -7.682434      -209.0497
  20   2.0000      -7.681792      -209.0322
  21   2.0000      -7.629556      -207.6108
  22   2.0000      -7.620506      -207.3645
  23   2.0000      -6.421082      -174.7265
  24   2.0000      -6.419806      -174.6918
  25   2.0000      -5.710343      -155.3863
  26   2.0000      -5.709680      -155.3683
  27   2.0000      -5.707119      -155.2986
  28   2.0000      -5.706353      -155.2777
  29   2.0000      -5.699316      -155.0863
  30   2.0000      -5.698623      -155.0674
  31   2.0000      -5.658279      -153.9696
  32   2.0000      -5.650234      -153.7507
  33   2.0000      -5.649857      -153.7404
  34   2.0000      -5.649569      -153.7326
  35   2.0000      -5.641330      -153.5084
  36   2.0000      -5.640314      -153.4807
  37   2.0000      -4.644535      -126.3842
  38   2.0000      -4.642687      -126.3339
  39   2.0000      -4.642194      -126.3205
  40   2.0000      -4.641596      -126.3042
  41   2.0000      -4.640873      -126.2846
  42   2.0000      -4.640457      -126.2733
  43   2.0000      -0.990220       -26.9453
  44   2.0000      -0.981806       -26.7163
  45   2.0000      -0.947174       -25.7739
  46   2.0000      -0.940257       -25.5857
  47   2.0000      -0.760408       -20.6918
  48   2.0000      -0.718725       -19.5575
  49   2.0000      -0.707355       -19.2481
  50   2.0000      -0.694771       -18.9057
  51   2.0000      -0.681993       -18.5580
  52   2.0000      -0.671460       -18.2714
  53   2.0000      -0.648636       -17.6503
  54   2.0000      -0.634697       -17.2710
  55   2.0000      -0.594932       -16.1889
  56   2.0000      -0.590879       -16.0786
  57   2.0000      -0.583644       -15.8818
  58   2.0000      -0.566488       -15.4149
  59   2.0000      -0.558358       -15.1937
  60   2.0000      -0.499469       -13.5913
  61   2.0000      -0.494703       -13.4616
  62   2.0000      -0.474624       -12.9152
  63   2.0000      -0.470323       -12.7981
  64   2.0000      -0.460315       -12.5258
  65   2.0000      -0.447700       -12.1825
  66   2.0000      -0.435032       -11.8378
  67   2.0000      -0.432211       -11.7611
  68   2.0000      -0.428564       -11.6618
  69   2.0000      -0.417586       -11.3631
  70   2.0000      -0.403615       -10.9829
  71   2.0000      -0.400042       -10.8857
  72   2.0000      -0.390943       -10.6381
  73   2.0000      -0.385217       -10.4823
  74   2.0000      -0.379542       -10.3279
  75   2.0000      -0.372657       -10.1405
  76   2.0000      -0.368198       -10.0192
  77   2.0000      -0.360385        -9.8066
  78   2.0000      -0.356457        -9.6997
  79   2.0000      -0.349242        -9.5033
  80   2.0000      -0.347315        -9.4509
  81   2.0000      -0.344795        -9.3824
  82   2.0000      -0.342214        -9.3121
  83   2.0000      -0.331912        -9.0318
  84   2.0000      -0.330161        -8.9841
  85   2.0000      -0.324472        -8.8293
  86   2.0000      -0.310698        -8.4545
  87   2.0000      -0.300163        -8.1679
  88   2.0000      -0.295232        -8.0337
  89   2.0000      -0.293899        -7.9974
  90   2.0000      -0.280278        -7.6267
  91   2.0000      -0.273570        -7.4442
  92   2.0000      -0.268976        -7.3192
  93   2.0000      -0.260637        -7.0923
  94   2.0000      -0.256202        -6.9716
  95   2.0000      -0.232966        -6.3393
  96   2.0000      -0.214843        -5.8462
  97   2.0000      -0.205940        -5.6039
  98   2.0000      -0.200496        -5.4558
  99   2.0000      -0.190445        -5.1823
 100   2.0000      -0.182901        -4.9770
 101   0.0000      -0.045170        -1.2291
 102   0.0000      -0.019620        -0.5339
 103   0.0000      -0.009884        -0.2690
 104   0.0000       0.001017         0.0277
 105   0.0000       0.020485         0.5574

MULLIKEN ATOMIC CHARGES
-----------------------
   0 C :   -0.295399
   1 C :   -0.021907
   2 O :   -0.342683
   3 P :    0.616201
   4 S :   -0.347118
   5 O :   -0.368632
   6 C :   -0.010528
   7 C :   -0.294427
   8 S :   -0.069546
   9 C :   -0.358501
  10 S :   -0.104315
  11 P :    0.605409
  12 S :   -0.291293
  13 O :   -0.385032
  14 C :    0.003036
  15 C :   -0.348821
  16 O :   -0.376051
  17 C :    0.009982
  18 C :   -0.328196
  19 H :    0.117937
  20 H :    0.107972
  21 H :    0.122004
  22 H :    0.113862
  23 H :    0.112412
  24 H :    0.100710
  25 H :    0.109232
  26 H :    0.114022
  27 H :    0.129524
  28 H :    0.106717
  29 H :    0.192073
  30 H :    0.183658
  31 H :    0.112241
  32 H :    0.104217
  33 H :    0.116994
  34 H :    0.121584
  35 H :    0.151477
  36 H :    0.111437
  37 H :    0.111238
  38 H :    0.133662
  39 H :    0.113869
  40 H :    0.120981
Sum of atomic charges:    0.0000000

LOEWDIN ATOMIC CHARGES
----------------------
   0 C :   -0.365124
   1 C :   -0.118333
   2 O :   -0.223939
   3 P :    0.572551
   4 S :   -0.329716
   5 O :   -0.243223
   6 C :   -0.115818
   7 C :   -0.364132
   8 S :    0.091290
   9 C :   -0.480728
  10 S :    0.074797
  11 P :    0.567584
  12 S :   -0.301257
  13 O :   -0.247500
  14 C :   -0.119515
  15 C :   -0.372837
  16 O :   -0.244754
  17 C :   -0.106959
  18 C :   -0.368049
  19 H :    0.127278
  20 H :    0.128847
  21 H :    0.121289
  22 H :    0.117865
  23 H :    0.108924
  24 H :    0.106262
  25 H :    0.119705
  26 H :    0.125366
  27 H :    0.124171
  28 H :    0.128353
  29 H :    0.131030
  30 H :    0.126115
  31 H :    0.111447
  32 H :    0.118135
  33 H :    0.133346
  34 H :    0.125909
  35 H :    0.123324
  36 H :    0.116659
  37 H :    0.122339
  38 H :    0.123117
  39 H :    0.132356
  40 H :    0.123825

  Mayer bond orders larger than 0.100000
B(  0-C ,  1-C ) :   1.1613 B(  0-C , 19-H ) :   0.9449 B(  0-C , 20-H ) :   0.9392
B(  0-C , 21-H ) :   0.9330 B(  1-C ,  2-O ) :   0.9059 B(  1-C , 22-H ) :   0.9244
B(  1-C , 23-H ) :   0.9162 B(  2-O ,  3-P ) :   1.1503 B(  3-P ,  4-S ) :   1.5795
B(  3-P ,  5-O ) :   1.1134 B(  3-P ,  8-S ) :   0.9645 B(  4-S ,  8-S ) :   0.1116
B(  5-O ,  6-C ) :   0.9060 B(  6-C ,  7-C ) :   1.1673 B(  6-C , 24-H ) :   0.9149
B(  6-C , 25-H ) :   0.9358 B(  7-C , 26-H ) :   0.9465 B(  7-C , 27-H ) :   0.9315
B(  7-C , 28-H ) :   0.9396 B(  8-S ,  9-C ) :   1.0067 B(  9-C , 10-S ) :   1.0047
B(  9-C , 29-H ) :   0.8837 B(  9-C , 30-H ) :   0.8921 B( 10-S , 11-P ) :   0.9296
B( 10-S , 12-S ) :   0.1111 B( 11-P , 12-S ) :   1.6956 B( 11-P , 13-O ) :   1.0597
B( 11-P , 16-O ) :   1.1074 B( 13-O , 14-C ) :   0.9071 B( 14-C , 15-C ) :   1.1632
B( 14-C , 31-H ) :   0.9110 B( 14-C , 32-H ) :   0.9327 B( 15-C , 33-H ) :   0.9379
B( 15-C , 34-H ) :   0.9432 B( 15-C , 35-H ) :   0.9241 B( 16-O , 17-C ) :   0.8949
B( 17-C , 18-C ) :   1.1674 B( 17-C , 36-H ) :   0.9271 B( 17-C , 37-H ) :   0.9354
B( 18-C , 38-H ) :   0.9350 B( 18-C , 39-H ) :   0.9353 B( 18-C , 40-H ) :   0.9430

Dispersion correction           -0.067189114
FINAL SINGLE POINT ENERGY     -2929.515272988652

DIPOLE MOMENT
-------------

Method             : SCF
Type of density    : Electron Density
Multiplicity       :   1
Irrep              :   0
Energy             : -2929.6330156899985013 Eh
Relativity type    :
Basis              : AO
                                X                 Y                 Z
Electronic contribution:     -3.055887810      -7.826876206      -5.857854413
Nuclear contribution   :      2.217645859       8.011866206       6.229414579
                        -----------------------------------------
Total Dipole Moment    :     -0.838241951       0.184990000       0.371560167
                        -----------------------------------------
Magnitude (a.u.)       :      0.935375767
Magnitude (Debye)      :      2.377536254

Rotational constants in cm-1:             0.013332             0.005134             0.004609
Rotational constants in MHz :           399.674143           153.901143           138.181871

                             ****ORCA TERMINATED NORMALLY****
TOTAL RUN TIME: 0 days 0 hours 0 minutes 21 seconds 746 msec
