                         Program Version 6.0.1  -  RELEASE   -
|  1> ! r2scan-3c def2/J RI DEFGRID2 scfconv6 printgap
|  2> %output
|  3>     printlevel normal
|  4> end
|  5> * xyz 0 1
|  6> C 5.1966012205 -3.0137444421 -0.5981235286
|  7> C 4.807584815 -2.0142610531 -1.6753776157
|  8> O 3.3852966284 -2.045184234 -1.9143925165
|  9> C 2.6034208313 -1.30443819 -1.1609483814
| 10> O 2.9910213784 -0.5480723743 -0.293300312
| 11> C 1.1425739831 -1.5137496785 -1.4938557825
| 12> C 0.3122138948 -0.4007458532 -0.8703204694
| 13> H 0.4409188714 0.5561743792 -1.3818942523
| 14> C 0.6646345271 -0.233956295 0.5982777216
| 15> O 0.6439655806 -1.1512547773 1.3918523496
| 16> O 0.9015669146 1.022772712 0.8921427883
| 17> C 1.2806372572 1.3582972072 2.2410100361
| 18> C 0.7260493045 2.7284546672 2.5793590678
| 19> S -1.4532027413 -0.8633562747 -0.9377901634
| 20> P -2.2020314274 0.8297974674 0.10694921
| 21> S -1.5860304466 2.5764947491 -0.5097382683
| 22> O -3.777714644 0.5923920553 0.0118674051
| 23> C -4.4753771537 0.7696239273 -1.228539494
| 24> O -1.9546915537 0.5964394551 1.6531227195
| 25> C -2.3983356214 -0.5822473017 2.3586215105
| 26> H 4.7350381967 -2.7412970921 0.3487647639
| 27> H 4.868994798 -4.0113124099 -0.8768900027
| 28> H 6.2748282364 -3.0104539674 -0.4778814569
| 29> H 5.2490088415 -2.2728083944 -2.6376855269
| 30> H 5.0901934936 -0.9988349955 -1.3838262445
| 31> H 0.8465856855 -2.474091342 -1.061722586
| 32> H 1.0010251525 -1.564855044 -2.5722622593
| 33> H 0.8951485442 0.5832565885 2.9103003349
| 34> H 2.3741032525 1.3471426316 2.2676438806
| 35> H 1.0926618537 3.4629969561 1.8682272771
| 36> H -0.3602254098 2.7151228594 2.5293131293
| 37> H 1.0377714551 3.0040933339 3.5810530516
| 38> H -4.174219945 1.7082830304 -1.6956463545
| 39> H -5.5304843729 0.7944428278 -0.9684131889
| 40> H -4.2600404606 -0.0649282543 -1.894829988
| 41> H -3.3226487648 -0.9598072297 1.9277101228
| 42> H -2.555677283 -0.2630520625 3.3856941188
| 43> H -1.6137699089 -1.3384909488 2.3095654224
| 44> *
| 45>
| 46>                          ****END OF INPUT****

CARTESIAN COORDINATES (ANGSTROEM)
---------------------------------
  C      5.196601   -3.013744   -0.598124
  C      4.807585   -2.014261   -1.675378
  O      3.385297   -2.045184   -1.914393
  C      2.603421   -1.304438   -1.160948
  O      2.991021   -0.548072   -0.293300
  C      1.142574   -1.513750   -1.493856
  C      0.312214   -0.400746   -0.870320
  H      0.440919    0.556174   -1.381894
  C      0.664635   -0.233956    0.598278
  O      0.643966   -1.151255    1.391852
  O      0.901567    1.022773    0.892143
  C      1.280637    1.358297    2.241010
  C      0.726049    2.728455    2.579359
  S     -1.453203   -0.863356   -0.937790
  P     -2.202031    0.829797    0.106949
  S     -1.586030    2.576495   -0.509738
  O     -3.777715    0.592392    0.011867
  C     -4.475377    0.769624   -1.228539
  O     -1.954692    0.596439    1.653123
  C     -2.398336   -0.582247    2.358622
  H      4.735038   -2.741297    0.348765
  H      4.868995   -4.011312   -0.876890
  H      6.274828   -3.010454   -0.477881
  H      5.249009   -2.272808   -2.637686
  H      5.090193   -0.998835   -1.383826
  H      0.846586   -2.474091   -1.061723
  H      1.001025   -1.564855   -2.572262
  H      0.895149    0.583257    2.910300
  H      2.374103    1.347143    2.267644
  H      1.092662    3.462997    1.868227
  H     -0.360225    2.715123    2.529313
  H      1.037771    3.004093    3.581053
  H     -4.174220    1.708283   -1.695646
  H     -5.530484    0.794443   -0.968413
  H     -4.260040   -0.064928   -1.894830
  H     -3.322649   -0.959807    1.927710
  H     -2.555677   -0.263052    3.385694
  H     -1.613770   -1.338491    2.309565

 Total Charge           Charge          ....    0
 Multiplicity           Mult            ....    1
 Number of Electrons    NEL             ....  174
 Basis Dimension        Dim             ....  510

ORBITAL ENERGIES
----------------

  NO   OCC          E(Eh)            E(eV)
   0   2.0000     -88.576320     -2410.2842
   1   2.0000     -88.514643     -2408.6059
   2   2.0000     -76.913202     -2092.9146
   3   2.0000     -19.011126      -517.3190
   4   2.0000     -18.994714      -516.8724
   5   2.0000     -18.993835      -516.8485
   6   2.0000     -18.987098      -516.6652
   7   2.0000     -18.944293      -515.5004
   8   2.0000     -18.921629      -514.8837
   9   2.0000     -10.169853      -276.7358
  10   2.0000     -10.152673      -276.2683
  11   2.0000     -10.101214      -274.8680
  12   2.0000     -10.094709      -274.6910
  13   2.0000     -10.091095      -274.5927
  14   2.0000     -10.088791      -274.5300
  15   2.0000     -10.078236      -274.2427
  16   2.0000     -10.066509      -273.9236
  17   2.0000     -10.035199      -273.0717
  18   2.0000     -10.013548      -272.4825
  19   2.0000      -7.870434      -214.1654
  20   2.0000      -7.809378      -212.5040
  21   2.0000      -6.591454      -179.3626
  22   2.0000      -5.817116      -158.2918
  23   2.0000      -5.814546      -158.2218
  24   2.0000      -5.807551      -158.0315
  25   2.0000      -5.757255      -156.6629
  26   2.0000      -5.749465      -156.4509
  27   2.0000      -5.749358      -156.4480
  28   2.0000      -4.737353      -128.9099
  29   2.0000      -4.736543      -128.8879
  30   2.0000      -4.734689      -128.8374
  31   2.0000      -1.088559       -29.6212
  32   2.0000      -1.067031       -29.0354
  33   2.0000      -1.050781       -28.5932
  34   2.0000      -1.009794       -27.4779
  35   2.0000      -0.993134       -27.0245
  36   2.0000      -0.972150       -26.4536
  37   2.0000      -0.809970       -22.0404
  38   2.0000      -0.760315       -20.6892
  39   2.0000      -0.735844       -20.0233
  40   2.0000      -0.731709       -19.9108
  41   2.0000      -0.699916       -19.0457
  42   2.0000      -0.677333       -18.4312
  43   2.0000      -0.656300       -17.8588
  44   2.0000      -0.645196       -17.5567
  45   2.0000      -0.628377       -17.0990
  46   2.0000      -0.582438       -15.8489
  47   2.0000      -0.540954       -14.7201
  48   2.0000      -0.534571       -14.5464
  49   2.0000      -0.518908       -14.1202
  50   2.0000      -0.497581       -13.5399
  51   2.0000      -0.494663       -13.4605
  52   2.0000      -0.486832       -13.2474
  53   2.0000      -0.464086       -12.6284
  54   2.0000      -0.457793       -12.4572
  55   2.0000      -0.456281       -12.4160
  56   2.0000      -0.446911       -12.1611
  57   2.0000      -0.443111       -12.0577
  58   2.0000      -0.434473       -11.8226
  59   2.0000      -0.426021       -11.5926
  60   2.0000      -0.424201       -11.5431
  61   2.0000      -0.415471       -11.3055
  62   2.0000      -0.413057       -11.2399
  63   2.0000      -0.399911       -10.8821
  64   2.0000      -0.390037       -10.6134
  65   2.0000      -0.375720       -10.2239
  66   2.0000      -0.369773       -10.0620
  67   2.0000      -0.362512        -9.8645
  68   2.0000      -0.358878        -9.7656
  69   2.0000      -0.354503        -9.6465
  70   2.0000      -0.349394        -9.5075
  71   2.0000      -0.341488        -9.2924
  72   2.0000      -0.330860        -9.0032
  73   2.0000      -0.324886        -8.8406
  74   2.0000      -0.321064        -8.7366
  75   2.0000      -0.318398        -8.6641
  76   2.0000      -0.313531        -8.5316
  77   2.0000      -0.301754        -8.2111
  78   2.0000      -0.286803        -7.8043
  79   2.0000      -0.284998        -7.7552
  80   2.0000      -0.277499        -7.5511
  81   2.0000      -0.261980        -7.1288
  82   2.0000      -0.251709        -6.8493
  83   2.0000      -0.246886        -6.7181
  84   2.0000      -0.230845        -6.2816
  85   2.0000      -0.211690        -5.7604
  86   2.0000      -0.208665        -5.6781
  87   0.0000      -0.043711        -1.1894
  88   0.0000      -0.026545        -0.7223
  89   0.0000      -0.021066        -0.5732
  90   0.0000       0.005833         0.1587
  91   0.0000       0.022822         0.6210

MULLIKEN ATOMIC CHARGES
-----------------------
   0 C :   -0.463873
   1 C :   -0.139979
   2 O :   -0.167293
   3 C :    0.390820
   4 O :   -0.402954
   5 C :   -0.380012
   6 C :   -0.057055
   7 H :    0.253549
   8 C :    0.226313
   9 O :   -0.399242
  10 O :   -0.092129
  11 C :   -0.173438
  12 C :   -0.454489
  13 S :   -0.190686
  14 P :    0.734019
  15 S :   -0.421338
  16 O :   -0.353364
  17 C :   -0.292261
  18 O :   -0.298859
  19 C :   -0.286457
  20 H :    0.174561
  21 H :    0.153802
  22 H :    0.149547
  23 H :    0.151250
  24 H :    0.168852
  25 H :    0.200302
  26 H :    0.181692
  27 H :    0.171617
  28 H :    0.156538
  29 H :    0.152527
  30 H :    0.175106
  31 H :    0.139579
  32 H :    0.178949
  33 H :    0.153125
  34 H :    0.154481
  35 H :    0.159238
  36 H :    0.152170
  37 H :    0.195392
Sum of atomic charges:   -0.0000000

LOEWDIN ATOMIC CHARGES
----------------------
   0 C :   -0.387144
   1 C :    0.031996
   2 O :   -0.575895
   3 C :    0.379634
   4 O :   -0.419658
   5 C :   -0.207779
   6 C :   -0.190420
   7 H :    0.205046
   8 C :    0.327144
   9 O :   -0.449966
  10 O :   -0.577024
  11 C :    0.033829
  12 C :   -0.391040
  13 S :    0.190448
  14 P :    0.377742
  15 S :   -0.074083
  16 O :   -0.683871
  17 C :   -0.055809
  18 O :   -0.654078
  19 C :   -0.048010
  20 H :    0.167016
  21 H :    0.158395
  22 H :    0.160619
  23 H :    0.179719
  24 H :    0.189002
  25 H :    0.202769
  26 H :    0.189075
  27 H :    0.190663
  28 H :    0.180326
  29 H :    0.161178
  30 H :    0.168049
  31 H :    0.155184
  32 H :    0.178741
  33 H :    0.177824
  34 H :    0.167828
  35 H :    0.173968
  36 H :    0.178377
  37 H :    0.190204

  Mayer bond orders larger than 0.100000
B(  0-C ,  1-C ) :   0.9436 B(  0-C , 20-H ) :   0.9685 B(  0-C , 21-H ) :   0.9726
B(  0-C , 22-H ) :   0.9638 B(  1-C ,  2-O ) :   0.7973 B(  1-C , 23-H ) :   0.9612
B(  1-C , 24-H ) :   0.9661 B(  2-O ,  3-C ) :   1.1364 B(  3-C ,  4-O ) :   1.7671
B(  3-C ,  5-C ) :   1.0134 B(  4-O ,  8-C ) :   0.1025 B(  5-C ,  6-C ) :   0.9331
B(  5-C , 25-H ) :   0.9362 B(  5-C , 26-H ) :   0.9399 B(  6-C ,  7-H ) :   0.9831
B(  6-C ,  8-C ) :   0.7912 B(  6-C ,  9-O ) :  -0.1043 B(  6-C , 13-S ) :   0.8469
B(  8-C ,  9-O ) :   1.8721 B(  8-C , 10-O ) :   1.1605 B( 10-O , 11-C ) :   0.7841
B( 11-C , 12-C ) :   0.9425 B( 11-C , 27-H ) :   0.9865 B( 11-C , 28-H ) :   0.9472
B( 12-C , 29-H ) :   0.9656 B( 12-C , 30-H ) :   0.9691 B( 12-C , 31-H ) :   0.9682
B( 13-S , 14-P ) :   0.9930 B( 14-P , 15-S ) :   1.8730 B( 14-P , 16-O ) :   1.0441
B( 14-P , 18-O ) :   1.1044 B( 16-O , 17-C ) :   0.8293 B( 17-C , 32-H ) :   0.9586
B( 17-C , 33-H ) :   0.9664 B( 17-C , 34-H ) :   0.9576 B( 18-O , 19-C ) :   0.7972
B( 19-C , 35-H ) :   0.9635 B( 19-C , 36-H ) :   0.9665 B( 19-C , 37-H ) :   0.9468

Dispersion correction           -0.017517455
FINAL SINGLE POINT ENERGY     -1981.455622750035

DIPOLE MOMENT
-------------

Method             : SCF
Type of density    : Electron Density
Multiplicity       :   1
Irrep              :   0
Energy             : -1981.4751237114160176 Eh
Relativity type    :
Basis              : AO
                                X                 Y                 Z
Electronic contribution:    -13.203636486       4.891048204      -6.140433405
Nuclear contribution   :     13.429689303      -6.000329432       5.767423990
                        -----------------------------------------
Total Dipole Moment    :      0.226052817      -1.109281228      -0.373009415
                        -----------------------------------------
Magnitude (a.u.)       :      1.191948297
Magnitude (Debye)      :      3.029691798

Rotational constants in cm-1:             0.016794             0.005785             0.005145
Rotational constants in MHz :           503.472123           173.441687           154.233857

                             ****ORCA TERMINATED NORMALLY****
TOTAL RUN TIME: 0 days 0 hours 1 minutes 17 seconds 175 msec
