                         Program Version 6.0.1  -  RELEASE   -
|  1> ! r2scan-3c def2/J RI DEFGRID2 scfconv6 printgap
|  2> %output
|  3>     printlevel normal
|  4> end
|  5> %cpcm
|  6>     smd true
|  7>     smdsolvent "water"
|  8> end
|  9> * xyz 0 1
| 10> C 5.1966012205 -3.0137444421 -0.5981235286
| 11> C 4.807584815 -2.0142610531 -1.6753776157
| 12> O 3.3852966284 -2.045184234 -1.9143925165
| 13> C 2.6034208313 -1.30443819 -1.1609483814
| 14> O 2.9910213784 -0.5480723743 -0.293300312
| 15> C 1.1425739831 -1.5137496785 -1.4938557825
| 16> C 0.3122138948 -0.4007458532 -0.8703204694
| 17> H 0.4409188714 0.5561743792 -1.3818942523
| 18> C 0.6646345271 -0.233956295 0.5982777216
| 19> O 0.6439655806 -1.1512547773 1.3918523496
| 20> O 0.9015669146 1.022772712 0.8921427883
| 21> C 1.2806372572 1.3582972072 2.2410100361
| 22> C 0.7260493045 2.7284546672 2.5793590678
| 23> S -1.4532027413 -0.8633562747 -0.9377901634
| 24> P -2.2020314274 0.8297974674 0.10694921
| 25> S -1.5860304466 2.5764947491 -0.5097382683
| 26> O -3.777714644 0.5923920553 0.0118674051
| 27> C -4.4753771537 0.7696239273 -1.228539494
| 28> O -1.9546915537 0.5964394551 1.6531227195
| 29> C -2.3983356214 -0.5822473017 2.3586215105
| 30> H 4.7350381967 -2.7412970921 0.3487647639
| 31> H 4.868994798 -4.0113124099 -0.8768900027
| 32> H 6.2748282364 -3.0104539674 -0.4778814569
| 33> H 5.2490088415 -2.2728083944 -2.6376855269
| 34> H 5.0901934936 -0.9988349955 -1.3838262445
| 35> H 0.8465856855 -2.474091342 -1.061722586
| 36> H 1.0010251525 -1.564855044 -2.5722622593
| 37> H 0.8951485442 0.5832565885 2.9103003349
| 38> H 2.3741032525 1.3471426316 2.2676438806
| 39> H 1.0926618537 3.4629969561 1.8682272771
| 40> H -0.3602254098 2.7151228594 2.5293131293
| 41> H 1.0377714551 3.0040933339 3.5810530516
| 42> H -4.174219945 1.7082830304 -1.6956463545
| 43> H -5.5304843729 0.7944428278 -0.9684131889
| 44> H -4.2600404606 -0.0649282543 -1.894829988
| 45> H -3.3226487648 -0.9598072297 1.9277101228
| 46> H -2.555677283 -0.2630520625 3.3856941188
| 47> H -1.6137699089 -1.3384909488 2.3095654224
| 48> *
| 49>
| 50>                          ****END OF INPUT****

CARTESIAN COORDINATES (ANGSTROEM)
---------------------------------
  C      5.196601   -3.013744   -0.598124
  C      4.807585   -2.014261   -1.675378
  O      3.385297   -2.045184   -1.914393
  C      2.603421   -1.304438   -1.160948
  O      2.991021   -0.548072   -0.293300
  C      1.142574   -1.513750   -1.493856
  C      0.312214   -0.400746   -0.870320
  H      0.440919    0.556174   -1.381894
  C      0.664635   -0.233956    0.598278
  O      0.643966   -1.151255    1.391852
  O      0.901567    1.022773    0.892143
  C      1.280637    1.358297    2.241010
  C      0.726049    2.728455    2.579359
  S     -1.453203   -0.863356   -0.937790
  P     -2.202031    0.829797    0.106949
  S     -1.586030    2.576495   -0.509738
  O     -3.777715    0.592392    0.011867
  C     -4.475377    0.769624   -1.228539
  O     -1.954692    0.596439    1.653123
  C     -2.398336   -0.582247    2.358622
  H      4.735038   -2.741297    0.348765
  H      4.868995   -4.011312   -0.876890
  H      6.274828   -3.010454   -0.477881
  H      5.249009   -2.272808   -2.637686
  H      5.090193   -0.998835   -1.383826
  H      0.846586   -2.474091   -1.061723
  H      1.001025   -1.564855   -2.572262
  H      0.895149    0.583257    2.910300
  H      2.374103    1.347143    2.267644
  H      1.092662    3.462997    1.868227
  H     -0.360225    2.715123    2.529313
  H      1.037771    3.004093    3.581053
  H     -4.174220    1.708283   -1.695646
  H     -5.530484    0.794443   -0.968413
  H     -4.260040   -0.064928   -1.894830
  H     -3.322649   -0.959807    1.927710
  H     -2.555677   -0.263052    3.385694
  H     -1.613770   -1.338491    2.309565

 Total Charge           Charge          ....    0
 Multiplicity           Mult            ....    1
 Number of Electrons    NEL             ....  174
 Basis Dimension        Dim             ....  510

ORBITAL ENERGIES
----------------

  NO   OCC          E(Eh)            E(eV)
   0   2.0000     -88.583955     -2410.4920
   1   2.0000     -88.528402     -2408.9803
   2   2.0000     -76.922534     -2093.1686
   3   2.0000     -19.010648      -517.3060
   4   2.0000     -19.004621      -517.1420
   5   2.0000     -19.000934      -517.0417
   6   2.0000     -18.998378      -516.9721
   7   2.0000     -18.953416      -515.7487
   8   2.0000     -18.944467      -515.5052
   9   2.0000     -10.175527      -276.8902
  10   2.0000     -10.171575      -276.7826
  11   2.0000     -10.096209      -274.7318
  12   2.0000     -10.087372      -274.4914
  13   2.0000     -10.084400      -274.4105
  14   2.0000     -10.084183      -274.4046
  15   2.0000     -10.083886      -274.3965
  16   2.0000     -10.061570      -273.7892
  17   2.0000     -10.019816      -272.6530
  18   2.0000     -10.017316      -272.5850
  19   2.0000      -7.877982      -214.3708
  20   2.0000      -7.823491      -212.8880
  21   2.0000      -6.600862      -179.6186
  22   2.0000      -5.824666      -158.4972
  23   2.0000      -5.822107      -158.4276
  24   2.0000      -5.815095      -158.2368
  25   2.0000      -5.771250      -157.0437
  26   2.0000      -5.763664      -156.8373
  27   2.0000      -5.763433      -156.8310
  28   2.0000      -4.746707      -129.1645
  29   2.0000      -4.745912      -129.1428
  30   2.0000      -4.744228      -129.0970
  31   2.0000      -1.090670       -29.6786
  32   2.0000      -1.084473       -29.5100
  33   2.0000      -1.056022       -28.7358
  34   2.0000      -1.014238       -27.5988
  35   2.0000      -1.000563       -27.2267
  36   2.0000      -0.993587       -27.0369
  37   2.0000      -0.814457       -22.1625
  38   2.0000      -0.754916       -20.5423
  39   2.0000      -0.742539       -20.2055
  40   2.0000      -0.732219       -19.9247
  41   2.0000      -0.699062       -19.0224
  42   2.0000      -0.673315       -18.3218
  43   2.0000      -0.660832       -17.9822
  44   2.0000      -0.650348       -17.6969
  45   2.0000      -0.625669       -17.0253
  46   2.0000      -0.585125       -15.9221
  47   2.0000      -0.544110       -14.8060
  48   2.0000      -0.529945       -14.4205
  49   2.0000      -0.525271       -14.2933
  50   2.0000      -0.501802       -13.6547
  51   2.0000      -0.495856       -13.4929
  52   2.0000      -0.488839       -13.3020
  53   2.0000      -0.471239       -12.8231
  54   2.0000      -0.464105       -12.6289
  55   2.0000      -0.460060       -12.5189
  56   2.0000      -0.451881       -12.2963
  57   2.0000      -0.447555       -12.1786
  58   2.0000      -0.438274       -11.9260
  59   2.0000      -0.429397       -11.6845
  60   2.0000      -0.421518       -11.4701
  61   2.0000      -0.418713       -11.3938
  62   2.0000      -0.411528       -11.1982
  63   2.0000      -0.399865       -10.8809
  64   2.0000      -0.387925       -10.5560
  65   2.0000      -0.375457       -10.2167
  66   2.0000      -0.370515       -10.0822
  67   2.0000      -0.365975        -9.9587
  68   2.0000      -0.361136        -9.8270
  69   2.0000      -0.357909        -9.7392
  70   2.0000      -0.344864        -9.3842
  71   2.0000      -0.341713        -9.2985
  72   2.0000      -0.333777        -9.0825
  73   2.0000      -0.329895        -8.9769
  74   2.0000      -0.325757        -8.8643
  75   2.0000      -0.317649        -8.6437
  76   2.0000      -0.312826        -8.5124
  77   2.0000      -0.308678        -8.3995
  78   2.0000      -0.291501        -7.9321
  79   2.0000      -0.286101        -7.7852
  80   2.0000      -0.281812        -7.6685
  81   2.0000      -0.277361        -7.5474
  82   2.0000      -0.264293        -7.1918
  83   2.0000      -0.260919        -7.1000
  84   2.0000      -0.246606        -6.7105
  85   2.0000      -0.226769        -6.1707
  86   2.0000      -0.222715        -6.0604
  87   0.0000      -0.052038        -1.4160
  88   0.0000      -0.036143        -0.9835
  89   0.0000      -0.029431        -0.8009
  90   0.0000      -0.001975        -0.0537
  91   0.0000       0.017238         0.4691

MULLIKEN ATOMIC CHARGES
-----------------------
   0 C :   -0.493749
   1 C :   -0.141488
   2 O :   -0.178865
   3 C :    0.426363
   4 O :   -0.473285
   5 C :   -0.389254
   6 C :   -0.058247
   7 H :    0.271780
   8 C :    0.224438
   9 O :   -0.459677
  10 O :   -0.122825
  11 C :   -0.160825
  12 C :   -0.496406
  13 S :   -0.185846
  14 P :    0.759292
  15 S :   -0.476139
  16 O :   -0.374910
  17 C :   -0.304731
  18 O :   -0.326720
  19 C :   -0.297062
  20 H :    0.169678
  21 H :    0.167346
  22 H :    0.172369
  23 H :    0.177521
  24 H :    0.175231
  25 H :    0.228387
  26 H :    0.214463
  27 H :    0.182388
  28 H :    0.177952
  29 H :    0.163776
  30 H :    0.170188
  31 H :    0.168334
  32 H :    0.179504
  33 H :    0.181880
  34 H :    0.176191
  35 H :    0.182317
  36 H :    0.182761
  37 H :    0.187869
Sum of atomic charges:   -0.0000000

LOEWDIN ATOMIC CHARGES
----------------------
   0 C :   -0.390482
   1 C :    0.037960
   2 O :   -0.573952
   3 C :    0.390959
   4 O :   -0.466624
   5 C :   -0.200085
   6 C :   -0.187207
   7 H :    0.210023
   8 C :    0.327360
   9 O :   -0.492189
  10 O :   -0.591927
  11 C :    0.036905
  12 C :   -0.393017
  13 S :    0.201237
  14 P :    0.380177
  15 S :   -0.115720
  16 O :   -0.690833
  17 C :   -0.050102
  18 O :   -0.669264
  19 C :   -0.040957
  20 H :    0.163347
  21 H :    0.162725
  22 H :    0.169006
  23 H :    0.191180
  24 H :    0.191244
  25 H :    0.210967
  26 H :    0.205099
  27 H :    0.194590
  28 H :    0.188779
  29 H :    0.162469
  30 H :    0.164006
  31 H :    0.166842
  32 H :    0.178953
  33 H :    0.190233
  34 H :    0.176723
  35 H :    0.183022
  36 H :    0.191079
  37 H :    0.187473

  Mayer bond orders larger than 0.100000
B(  0-C ,  1-C ) :   0.9378 B(  0-C , 20-H ) :   0.9686 B(  0-C , 21-H ) :   0.9692
B(  0-C , 22-H ) :   0.9586 B(  1-C ,  2-O ) :   0.7809 B(  1-C , 23-H ) :   0.9515
B(  1-C , 24-H ) :   0.9625 B(  2-O ,  3-C ) :   1.1560 B(  3-C ,  4-O ) :   1.7177
B(  3-C ,  5-C ) :   1.0128 B(  4-O ,  8-C ) :   0.1049 B(  5-C ,  6-C ) :   0.9295
B(  5-C , 25-H ) :   0.9400 B(  5-C , 26-H ) :   0.9149 B(  6-C ,  7-H ) :   0.9657
B(  6-C ,  8-C ) :   0.8075 B(  6-C , 13-S ) :   0.8374 B(  8-C ,  9-O ) :   1.8051
B(  8-C , 10-O ) :   1.1557 B( 10-O , 11-C ) :   0.7722 B( 11-C , 12-C ) :   0.9373
B( 11-C , 27-H ) :   0.9748 B( 11-C , 28-H ) :   0.9345 B( 12-C , 29-H ) :   0.9662
B( 12-C , 30-H ) :   0.9701 B( 12-C , 31-H ) :   0.9612 B( 13-S , 14-P ) :   1.0033
B( 14-P , 15-S ) :   1.8365 B( 14-P , 16-O ) :   1.0567 B( 14-P , 18-O ) :   1.1076
B( 16-O , 17-C ) :   0.8191 B( 17-C , 32-H ) :   0.9546 B( 17-C , 33-H ) :   0.9561
B( 17-C , 34-H ) :   0.9500 B( 18-O , 19-C ) :   0.7874 B( 19-C , 35-H ) :   0.9548
B( 19-C , 36-H ) :   0.9551 B( 19-C , 37-H ) :   0.9455

Dispersion correction           -0.017517455
FINAL SINGLE POINT ENERGY     -1981.470174540331

DIPOLE MOMENT
-------------

Method             : SCF
Type of density    : Electron Density
Multiplicity       :   1
Irrep              :   0
Energy             : -1981.4896755017116448 Eh
Relativity type    :
Basis              : AO
                                X                 Y                 Z
Electronic contribution:    -13.337678259       4.449856389      -6.494146724
Nuclear contribution   :     13.429689303      -6.000329432       5.767423990
                        -----------------------------------------
Total Dipole Moment    :      0.092011044      -1.550473043      -0.726722734
                        -----------------------------------------
Magnitude (a.u.)       :      1.714805709
Magnitude (Debye)      :      4.358689722

Rotational constants in cm-1:             0.016794             0.005785             0.005145
Rotational constants in MHz :           503.472123           173.441687           154.233857

                             ****ORCA TERMINATED NORMALLY****
TOTAL RUN TIME: 0 days 0 hours 1 minutes 44 seconds 965 msec
