                         Program Version 6.0.0  -   RELEASE  -
|  1> ! pbe def2-sv(p) def2/J RI DEFGRID1 loosescf d4 GCP(DFT/SV(P)) printgap
|  2> %output
|  3>     printlevel normal
|  4> end
|  5> * xyz 0 1
|  6> C 4.5018261608 -1.4886219548 0.8219162053
|  7> C 4.5588878885 -0.8981177942 -0.5711358585
|  8> O 3.2716600777 -0.8837999651 -1.2274454411
|  9> P 1.9728564873 -0.1372624353 -0.6893003255
| 10> S 0.7888170781 0.243074375 -2.1970088064
| 11> O 2.5351404389 1.0897665441 0.1497922831
| 12> C 2.3090727044 2.4659297626 -0.2000592363
| 13> C 3.3765896868 2.9511152664 -1.1599228353
| 14> S 1.2011986898 -1.4433343914 0.7991835464
| 15> C -0.2827203878 -2.0518218668 -0.0634634186
| 16> S -1.8217126973 -1.787325607 0.8497547464
| 17> P -2.0603439153 0.3101353111 0.556338097
| 18> S -0.6246432936 1.5093489112 1.1306025784
| 19> O -3.4970475259 0.5651360746 1.1849345014
| 20> C -3.9311267139 0.1166504889 2.4836563809
| 21> C -2.9723772619 0.5026824259 3.5898694474
| 22> O -2.3322113687 0.5291048044 -0.9776970517
| 23> C -3.3735903187 -0.1547180604 -1.7209567273
| 24> C -3.0356188612 -0.0397006344 -3.1928294492
| 25> H 5.5050612742 -1.519895323 1.2355382067
| 26> H 3.8726279496 -0.8723478944 1.4638324029
| 27> H 4.0921759996 -2.4949908706 0.794947753
| 28> H 5.1730860481 -1.5014476341 -1.241404213
| 29> H 4.9391017232 0.125577381 -0.5403594213
| 30> H 1.3123643353 2.5670388598 -0.639665337
| 31> H 2.3317673928 2.9992410905 0.7512884057
| 32> H 4.3622735163 2.8476685197 -0.7140970536
| 33> H 3.336408013 2.3685359635 -2.0800685032
| 34> H 3.1971010815 3.9952780304 -1.3950290146
| 35> H -0.1921171466 -3.1296007512 -0.1691901767
| 36> H -0.3404693995 -1.5575808607 -1.0377859565
| 37> H -4.9020026347 0.59924645 2.6089339209
| 38> H -4.0561204554 -0.968712208 2.4411232481
| 39> H -3.3857780974 0.2021826609 4.547142844
| 40> H -2.0132538779 0.0060738681 3.4460564986
| 41> H -2.8044244985 1.577251484 3.5893924531
| 42> H -3.4091445669 -1.1989784105 -1.3961863047
| 43> H -4.3226515025 0.3297769581 -1.4844686903
| 44> H -2.0462974927 -0.4492601834 -3.383903112
| 45> H -3.7725628961 -0.5839596522 -3.7740533739
| 46> H -3.0320930903 1.0035774413 -3.4945722888
| 47> *
| 48>
| 49>                          ****END OF INPUT****

CARTESIAN COORDINATES (ANGSTROEM)
---------------------------------
  C      4.501826   -1.488622    0.821916
  C      4.558888   -0.898118   -0.571136
  O      3.271660   -0.883800   -1.227445
  P      1.972856   -0.137262   -0.689300
  S      0.788817    0.243074   -2.197009
  O      2.535140    1.089767    0.149792
  C      2.309073    2.465930   -0.200059
  C      3.376590    2.951115   -1.159923
  S      1.201199   -1.443334    0.799184
  C     -0.282720   -2.051822   -0.063463
  S     -1.821713   -1.787326    0.849755
  P     -2.060344    0.310135    0.556338
  S     -0.624643    1.509349    1.130603
  O     -3.497048    0.565136    1.184935
  C     -3.931127    0.116650    2.483656
  C     -2.972377    0.502682    3.589869
  O     -2.332211    0.529105   -0.977697
  C     -3.373590   -0.154718   -1.720957
  C     -3.035619   -0.039701   -3.192829
  H      5.505061   -1.519895    1.235538
  H      3.872628   -0.872348    1.463832
  H      4.092176   -2.494991    0.794948
  H      5.173086   -1.501448   -1.241404
  H      4.939102    0.125577   -0.540359
  H      1.312364    2.567039   -0.639665
  H      2.331767    2.999241    0.751288
  H      4.362274    2.847669   -0.714097
  H      3.336408    2.368536   -2.080069
  H      3.197101    3.995278   -1.395029
  H     -0.192117   -3.129601   -0.169190
  H     -0.340469   -1.557581   -1.037786
  H     -4.902003    0.599246    2.608934
  H     -4.056120   -0.968712    2.441123
  H     -3.385778    0.202183    4.547143
  H     -2.013254    0.006074    3.446056
  H     -2.804424    1.577251    3.589392
  H     -3.409145   -1.198978   -1.396186
  H     -4.322652    0.329777   -1.484469
  H     -2.046297   -0.449260   -3.383903
  H     -3.772563   -0.583960   -3.774053
  H     -3.032093    1.003577   -3.494572

 Total Charge           Charge          ....    0
 Multiplicity           Mult            ....    1
 Number of Electrons    NEL             ....  202
 Basis Dimension        Dim             ....  334

ORBITAL ENERGIES
----------------

  NO   OCC          E(Eh)            E(eV)
   0   2.0000     -88.043108     -2395.7748
   1   2.0000     -88.032756     -2395.4931
   2   2.0000     -87.980232     -2394.0638
   3   2.0000     -87.974097     -2393.8969
   4   2.0000     -76.420413     -2079.5052
   5   2.0000     -76.419872     -2079.4904
   6   2.0000     -18.788864      -511.2710
   7   2.0000     -18.787787      -511.2417
   8   2.0000     -18.783153      -511.1156
   9   2.0000     -18.778788      -510.9968
  10   2.0000      -9.957604      -270.9602
  11   2.0000      -9.953125      -270.8383
  12   2.0000      -9.952301      -270.8159
  13   2.0000      -9.948872      -270.7226
  14   2.0000      -9.943463      -270.5754
  15   2.0000      -9.885385      -268.9950
  16   2.0000      -9.881158      -268.8800
  17   2.0000      -9.880863      -268.8719
  18   2.0000      -9.880274      -268.8559
  19   2.0000      -7.687991      -209.2009
  20   2.0000      -7.677853      -208.9250
  21   2.0000      -7.625494      -207.5002
  22   2.0000      -7.619061      -207.3252
  23   2.0000      -6.417628      -174.6325
  24   2.0000      -6.417471      -174.6283
  25   2.0000      -5.715588      -155.5290
  26   2.0000      -5.712363      -155.4413
  27   2.0000      -5.705837      -155.2637
  28   2.0000      -5.705419      -155.2523
  29   2.0000      -5.702607      -155.1758
  30   2.0000      -5.694446      -154.9538
  31   2.0000      -5.654395      -153.8639
  32   2.0000      -5.648180      -153.6948
  33   2.0000      -5.646469      -153.6482
  34   2.0000      -5.645180      -153.6131
  35   2.0000      -5.639525      -153.4593
  36   2.0000      -5.639162      -153.4494
  37   2.0000      -4.640562      -126.2761
  38   2.0000      -4.640407      -126.2719
  39   2.0000      -4.639798      -126.2553
  40   2.0000      -4.638638      -126.2238
  41   2.0000      -4.638200      -126.2118
  42   2.0000      -4.637435      -126.1910
  43   2.0000      -0.983141       -26.7526
  44   2.0000      -0.978473       -26.6256
  45   2.0000      -0.939603       -25.5679
  46   2.0000      -0.935320       -25.4514
  47   2.0000      -0.757648       -20.6166
  48   2.0000      -0.717196       -19.5159
  49   2.0000      -0.707980       -19.2651
  50   2.0000      -0.687524       -18.7085
  51   2.0000      -0.686883       -18.6910
  52   2.0000      -0.671549       -18.2738
  53   2.0000      -0.646793       -17.6001
  54   2.0000      -0.631498       -17.1839
  55   2.0000      -0.593817       -16.1586
  56   2.0000      -0.583032       -15.8651
  57   2.0000      -0.573120       -15.5954
  58   2.0000      -0.565393       -15.3851
  59   2.0000      -0.559304       -15.2194
  60   2.0000      -0.503733       -13.7073
  61   2.0000      -0.489739       -13.3265
  62   2.0000      -0.471262       -12.8237
  63   2.0000      -0.469554       -12.7772
  64   2.0000      -0.455136       -12.3849
  65   2.0000      -0.442678       -12.0459
  66   2.0000      -0.439419       -11.9572
  67   2.0000      -0.431185       -11.7331
  68   2.0000      -0.424967       -11.5639
  69   2.0000      -0.415219       -11.2987
  70   2.0000      -0.410463       -11.1693
  71   2.0000      -0.395840       -10.7713
  72   2.0000      -0.391253       -10.6465
  73   2.0000      -0.384461       -10.4617
  74   2.0000      -0.379898       -10.3375
  75   2.0000      -0.369172       -10.0457
  76   2.0000      -0.353708        -9.6249
  77   2.0000      -0.351850        -9.5743
  78   2.0000      -0.347813        -9.4645
  79   2.0000      -0.347540        -9.4570
  80   2.0000      -0.342830        -9.3289
  81   2.0000      -0.340554        -9.2669
  82   2.0000      -0.337117        -9.1734
  83   2.0000      -0.333644        -9.0789
  84   2.0000      -0.332373        -9.0443
  85   2.0000      -0.316181        -8.6037
  86   2.0000      -0.307733        -8.3738
  87   2.0000      -0.297744        -8.1020
  88   2.0000      -0.293682        -7.9915
  89   2.0000      -0.289523        -7.8783
  90   2.0000      -0.279214        -7.5978
  91   2.0000      -0.270118        -7.3503
  92   2.0000      -0.265911        -7.2358
  93   2.0000      -0.259213        -7.0535
  94   2.0000      -0.252903        -6.8818
  95   2.0000      -0.236898        -6.4463
  96   2.0000      -0.216815        -5.8998
  97   2.0000      -0.202215        -5.5026
  98   2.0000      -0.198006        -5.3880
  99   2.0000      -0.182396        -4.9632
 100   2.0000      -0.181674        -4.9436
 101   0.0000      -0.037881        -1.0308
 102   0.0000      -0.027769        -0.7556
 103   0.0000      -0.011949        -0.3251
 104   0.0000       0.002679         0.0729
 105   0.0000       0.023126         0.6293

MULLIKEN ATOMIC CHARGES
-----------------------
   0 C :   -0.332639
   1 C :   -0.000206
   2 O :   -0.370223
   3 P :    0.634690
   4 S :   -0.307162
   5 O :   -0.391245
   6 C :   -0.020696
   7 C :   -0.296673
   8 S :   -0.089603
   9 C :   -0.339522
  10 S :   -0.131237
  11 P :    0.602724
  12 S :   -0.306787
  13 O :   -0.383281
  14 C :   -0.012985
  15 C :   -0.311820
  16 O :   -0.347621
  17 C :   -0.013102
  18 C :   -0.285709
  19 H :    0.112999
  20 H :    0.134569
  21 H :    0.126544
  22 H :    0.107842
  23 H :    0.104849
  24 H :    0.134242
  25 H :    0.106174
  26 H :    0.112319
  27 H :    0.123429
  28 H :    0.112472
  29 H :    0.181386
  30 H :    0.195205
  31 H :    0.109571
  32 H :    0.113354
  33 H :    0.109973
  34 H :    0.130589
  35 H :    0.128191
  36 H :    0.095426
  37 H :    0.104634
  38 H :    0.132902
  39 H :    0.106211
  40 H :    0.120213
Sum of atomic charges:    0.0000000

LOEWDIN ATOMIC CHARGES
----------------------
   0 C :   -0.372478
   1 C :   -0.112249
   2 O :   -0.252635
   3 P :    0.579918
   4 S :   -0.291350
   5 O :   -0.245175
   6 C :   -0.122451
   7 C :   -0.361637
   8 S :    0.081544
   9 C :   -0.481673
  10 S :    0.060382
  11 P :    0.564807
  12 S :   -0.300015
  13 O :   -0.248640
  14 C :   -0.114515
  15 C :   -0.370783
  16 O :   -0.228520
  17 C :   -0.117369
  18 C :   -0.352279
  19 H :    0.130988
  20 H :    0.120352
  21 H :    0.126316
  22 H :    0.121334
  23 H :    0.110029
  24 H :    0.111953
  25 H :    0.118239
  26 H :    0.119989
  27 H :    0.125484
  28 H :    0.131480
  29 H :    0.136387
  30 H :    0.120326
  31 H :    0.121487
  32 H :    0.107757
  33 H :    0.129398
  34 H :    0.123093
  35 H :    0.130809
  36 H :    0.099973
  37 H :    0.113693
  38 H :    0.128756
  39 H :    0.127637
  40 H :    0.129640

  Mayer bond orders larger than 0.100000
B(  0-C ,  1-C ) :   1.1660 B(  0-C , 19-H ) :   0.9355 B(  0-C , 20-H ) :   0.9347
B(  0-C , 21-H ) :   0.9408 B(  1-C ,  2-O ) :   0.9162 B(  1-C , 22-H ) :   0.9341
B(  1-C , 23-H ) :   0.9261 B(  2-O ,  3-P ) :   1.1058 B(  3-P ,  4-S ) :   1.6161
B(  3-P ,  5-O ) :   1.0878 B(  3-P ,  8-S ) :   0.9486 B(  4-S ,  8-S ) :   0.1122
B(  4-S , 30-H ) :   0.1179 B(  5-O ,  6-C ) :   0.8912 B(  6-C ,  7-C ) :   1.1578
B(  6-C , 24-H ) :   0.9039 B(  6-C , 25-H ) :   0.9348 B(  7-C , 26-H ) :   0.9427
B(  7-C , 27-H ) :   0.9411 B(  7-C , 28-H ) :   0.9401 B(  8-S ,  9-C ) :   1.0127
B(  9-C , 10-S ) :   0.9906 B(  9-C , 29-H ) :   0.9118 B(  9-C , 30-H ) :   0.8462
B( 10-S , 11-P ) :   0.9409 B( 10-S , 12-S ) :   0.1138 B( 11-P , 12-S ) :   1.6673
B( 11-P , 13-O ) :   1.0818 B( 11-P , 16-O ) :   1.1377 B( 13-O , 14-C ) :   0.9160
B( 14-C , 15-C ) :   1.1668 B( 14-C , 31-H ) :   0.9335 B( 14-C , 32-H ) :   0.9267
B( 15-C , 33-H ) :   0.9342 B( 15-C , 34-H ) :   0.9314 B( 15-C , 35-H ) :   0.9418
B( 16-O , 17-C ) :   0.8928 B( 17-C , 18-C ) :   1.1626 B( 17-C , 36-H ) :   0.9115
B( 17-C , 37-H ) :   0.9305 B( 18-C , 38-H ) :   0.9456 B( 18-C , 39-H ) :   0.9409
B( 18-C , 40-H ) :   0.9496

Dispersion correction           -0.066965166
FINAL SINGLE POINT ENERGY     -2929.508514808615

DIPOLE MOMENT
-------------

Method             : SCF
Type of density    : Electron Density
Multiplicity       :   1
Irrep              :   0
Energy             : -2929.6267583773033039 Eh
Relativity type    :
Basis              : AO
                                X                 Y                 Z
Electronic contribution:     -3.853567947      -4.513549222       0.727500611
Nuclear contribution   :      3.698366639       3.983635871      -0.354263285
                        -----------------------------------------
Total Dipole Moment    :     -0.155201307      -0.529913351       0.373237326
                        -----------------------------------------
Magnitude (a.u.)       :      0.666484589
Magnitude (Debye)      :      1.694069194

Rotational constants in cm-1:             0.011974             0.005241             0.004982
Rotational constants in MHz :           358.979399           157.127633           149.350814

                             ****ORCA TERMINATED NORMALLY****
TOTAL RUN TIME: 0 days 0 hours 0 minutes 21 seconds 155 msec
