                         Program Version 6.0.1  -  RELEASE   -
|  1> ! pbe def2-sv(p) def2/J RI DEFGRID1 loosescf d4 GCP(DFT/SV(P)) printgap
|  2> %output
|  3>     printlevel normal
|  4> end
|  5> * xyz 0 1
|  6> C 3.0062452972 -3.8581099618 0.2075861645
|  7> C 2.6960343632 -2.4216245395 0.5776224795
|  8> O 2.1850741219 -1.7614083145 -0.5961769741
|  9> C 2.0390710266 -0.4580967312 -0.5688019776
| 10> O 2.288269462 0.2501739116 0.3865845204
| 11> C 1.5542482194 0.091391627 -1.8979094152
| 12> C 0.2891382063 0.9360718656 -1.7187076116
| 13> H 0.1450430512 1.5720609045 -2.5952660399
| 14> C 0.3711774618 1.8098882839 -0.4803447605
| 15> O -0.3508589809 1.6319927867 0.4862884368
| 16> O 1.2305956086 2.7720007806 -0.6224318691
| 17> C 1.5003507687 3.6650624356 0.4822106684
| 18> C 2.9447173664 3.495700575 0.9183838161
| 19> S -1.2177456288 -0.0835395425 -1.6223566292
| 20> P -1.6994527677 -0.3788788582 0.4351463705
| 21> S -0.4283329733 -1.0246746032 1.7812960444
| 22> O -2.712003526 0.7406396817 0.9219417159
| 23> C -3.9407853436 1.0245629103 0.2274481654
| 24> O -2.789599988 -1.5394625894 0.140604761
| 25> C -2.4040504591 -2.8771610564 -0.1742673369
| 26> H 3.3886946957 -4.3749069274 1.08111652
| 27> H 2.1037984858 -4.3548492077 -0.1349405153
| 28> H 3.7492458513 -3.8881661054 -0.5838045722
| 29> H 3.5857554844 -1.8805649849 0.9146842823
| 30> H 1.9360040178 -2.3531749918 1.363354477
| 31> H 1.3629786125 -0.7290932657 -2.5879106904
| 32> H 2.3460925798 0.7329628749 -2.2901444224
| 33> H 1.3128641615 4.6690512492 0.0964747521
| 34> H 0.8081679465 3.4350458424 1.2959685341
| 35> H 3.1165433439 2.4641659313 1.2175524319
| 36> H 3.614750412 3.7431375503 0.1007435451
| 37> H 3.1438282884 4.1500323352 1.7603524286
| 38> H -4.6482048768 0.2125964978 0.3857410091
| 39> H -3.7530259766 1.1505530672 -0.8391466194
| 40> H -4.3047155895 1.9496552901 0.6673503355
| 41> H -2.0553204438 -2.9310105701 -1.2054898033
| 42> H -3.2977731648 -3.4810840626 -0.0392996597
| 43> H -1.6155212358 -3.2065472078 0.5054688544
| 44> *
| 45>
| 46>                          ****END OF INPUT****

CARTESIAN COORDINATES (ANGSTROEM)
---------------------------------
  C      3.006245   -3.858110    0.207586
  C      2.696034   -2.421625    0.577622
  O      2.185074   -1.761408   -0.596177
  C      2.039071   -0.458097   -0.568802
  O      2.288269    0.250174    0.386585
  C      1.554248    0.091392   -1.897909
  C      0.289138    0.936072   -1.718708
  H      0.145043    1.572061   -2.595266
  C      0.371177    1.809888   -0.480345
  O     -0.350859    1.631993    0.486288
  O      1.230596    2.772001   -0.622432
  C      1.500351    3.665062    0.482211
  C      2.944717    3.495701    0.918384
  S     -1.217746   -0.083540   -1.622357
  P     -1.699453   -0.378879    0.435146
  S     -0.428333   -1.024675    1.781296
  O     -2.712004    0.740640    0.921942
  C     -3.940785    1.024563    0.227448
  O     -2.789600   -1.539463    0.140605
  C     -2.404050   -2.877161   -0.174267
  H      3.388695   -4.374907    1.081117
  H      2.103798   -4.354849   -0.134941
  H      3.749246   -3.888166   -0.583805
  H      3.585755   -1.880565    0.914684
  H      1.936004   -2.353175    1.363354
  H      1.362979   -0.729093   -2.587911
  H      2.346093    0.732963   -2.290144
  H      1.312864    4.669051    0.096475
  H      0.808168    3.435046    1.295969
  H      3.116543    2.464166    1.217552
  H      3.614750    3.743138    0.100744
  H      3.143828    4.150032    1.760352
  H     -4.648205    0.212596    0.385741
  H     -3.753026    1.150553   -0.839147
  H     -4.304716    1.949655    0.667350
  H     -2.055320   -2.931011   -1.205490
  H     -3.297773   -3.481084   -0.039300
  H     -1.615521   -3.206547    0.505469

 Total Charge           Charge          ....    0
 Multiplicity           Mult            ....    1
 Number of Electrons    NEL             ....  174
 Basis Dimension        Dim             ....  316

ORBITAL ENERGIES
----------------

  NO   OCC          E(Eh)            E(eV)
   0   2.0000     -88.034193     -2395.5322
   1   2.0000     -87.961049     -2393.5418
   2   2.0000     -76.415555     -2079.3730
   3   2.0000     -18.815549      -511.9971
   4   2.0000     -18.803434      -511.6675
   5   2.0000     -18.773266      -510.8465
   6   2.0000     -18.771793      -510.8065
   7   2.0000     -18.752366      -510.2778
   8   2.0000     -18.738881      -509.9109
   9   2.0000     -10.026142      -272.8252
  10   2.0000     -10.011603      -272.4296
  11   2.0000      -9.954894      -270.8864
  12   2.0000      -9.949773      -270.7471
  13   2.0000      -9.939533      -270.4684
  14   2.0000      -9.936041      -270.3734
  15   2.0000      -9.928885      -270.1787
  16   2.0000      -9.917233      -269.8616
  17   2.0000      -9.884691      -268.9761
  18   2.0000      -9.881496      -268.8892
  19   2.0000      -7.679040      -208.9573
  20   2.0000      -7.606227      -206.9759
  21   2.0000      -6.410461      -174.4375
  22   2.0000      -5.707152      -155.2995
  23   2.0000      -5.703079      -155.1887
  24   2.0000      -5.696253      -155.0029
  25   2.0000      -5.635599      -153.3525
  26   2.0000      -5.626986      -153.1181
  27   2.0000      -5.625696      -153.0830
  28   2.0000      -4.633669      -126.0886
  29   2.0000      -4.632570      -126.0586
  30   2.0000      -4.630591      -126.0048
  31   2.0000      -1.025963       -27.9179
  32   2.0000      -1.010412       -27.4947
  33   2.0000      -0.968226       -26.3468
  34   2.0000      -0.931750       -25.3542
  35   2.0000      -0.920781       -25.0557
  36   2.0000      -0.915970       -24.9248
  37   2.0000      -0.766630       -20.8611
  38   2.0000      -0.711253       -19.3542
  39   2.0000      -0.706574       -19.2269
  40   2.0000      -0.683915       -18.6103
  41   2.0000      -0.655364       -17.8334
  42   2.0000      -0.622965       -16.9518
  43   2.0000      -0.618896       -16.8410
  44   2.0000      -0.603665       -16.4266
  45   2.0000      -0.587661       -15.9911
  46   2.0000      -0.560176       -15.2432
  47   2.0000      -0.510708       -13.8971
  48   2.0000      -0.506904       -13.7936
  49   2.0000      -0.500415       -13.6170
  50   2.0000      -0.487402       -13.2629
  51   2.0000      -0.463942       -12.6245
  52   2.0000      -0.459646       -12.5076
  53   2.0000      -0.443799       -12.0764
  54   2.0000      -0.440921       -11.9981
  55   2.0000      -0.422928       -11.5085
  56   2.0000      -0.421137       -11.4597
  57   2.0000      -0.416798       -11.3416
  58   2.0000      -0.411628       -11.2010
  59   2.0000      -0.407801       -11.0968
  60   2.0000      -0.399795       -10.8790
  61   2.0000      -0.392980       -10.6935
  62   2.0000      -0.383622       -10.4389
  63   2.0000      -0.380919       -10.3653
  64   2.0000      -0.369604       -10.0574
  65   2.0000      -0.363237        -9.8842
  66   2.0000      -0.357936        -9.7399
  67   2.0000      -0.354496        -9.6463
  68   2.0000      -0.344482        -9.3738
  69   2.0000      -0.341020        -9.2796
  70   2.0000      -0.330183        -8.9847
  71   2.0000      -0.328097        -8.9280
  72   2.0000      -0.314975        -8.5709
  73   2.0000      -0.308120        -8.3844
  74   2.0000      -0.299491        -8.1496
  75   2.0000      -0.297620        -8.0987
  76   2.0000      -0.282854        -7.6968
  77   2.0000      -0.280454        -7.6315
  78   2.0000      -0.272469        -7.4143
  79   2.0000      -0.257971        -7.0198
  80   2.0000      -0.254673        -6.9300
  81   2.0000      -0.243468        -6.6251
  82   2.0000      -0.238466        -6.4890
  83   2.0000      -0.225013        -6.1229
  84   2.0000      -0.223619        -6.0850
  85   2.0000      -0.181876        -4.9491
  86   2.0000      -0.171267        -4.6604
  87   0.0000      -0.039678        -1.0797
  88   0.0000      -0.030014        -0.8167
  89   0.0000      -0.023855        -0.6491
  90   0.0000       0.003912         0.1065
  91   0.0000       0.031266         0.8508

MULLIKEN ATOMIC CHARGES
-----------------------
   0 C :   -0.274008
   1 C :   -0.039787
   2 O :   -0.216700
   3 C :    0.103037
   4 O :   -0.202420
   5 C :   -0.027213
   6 C :   -0.293070
   7 H :    0.145408
   8 C :    0.223970
   9 O :   -0.188688
  10 O :   -0.222909
  11 C :   -0.023436
  12 C :   -0.303109
  13 S :   -0.115650
  14 P :    0.638254
  15 S :   -0.324221
  16 O :   -0.366205
  17 C :   -0.096362
  18 O :   -0.408968
  19 C :   -0.096578
  20 H :    0.111823
  21 H :    0.115729
  22 H :    0.109233
  23 H :    0.100967
  24 H :    0.132693
  25 H :    0.114522
  26 H :    0.122820
  27 H :    0.104965
  28 H :    0.129851
  29 H :    0.148191
  30 H :    0.106071
  31 H :    0.110374
  32 H :    0.121202
  33 H :    0.106820
  34 H :    0.123345
  35 H :    0.106114
  36 H :    0.115704
  37 H :    0.108231
Sum of atomic charges:    0.0000000

LOEWDIN ATOMIC CHARGES
----------------------
   0 C :   -0.350207
   1 C :   -0.112026
   2 O :   -0.044571
   3 C :    0.028057
   4 O :   -0.155890
   5 C :   -0.245858
   6 C :   -0.260223
   7 H :    0.146716
   8 C :    0.025350
   9 O :   -0.142143
  10 O :   -0.037125
  11 C :   -0.103313
  12 C :   -0.356615
  13 S :    0.086033
  14 P :    0.585244
  15 S :   -0.312489
  16 O :   -0.241343
  17 C :   -0.209340
  18 O :   -0.275037
  19 C :   -0.222724
  20 H :    0.131158
  21 H :    0.127017
  22 H :    0.123322
  23 H :    0.114962
  24 H :    0.117142
  25 H :    0.135293
  26 H :    0.147887
  27 H :    0.117444
  28 H :    0.128554
  29 H :    0.138245
  30 H :    0.121926
  31 H :    0.129580
  32 H :    0.114967
  33 H :    0.104112
  34 H :    0.121592
  35 H :    0.103263
  36 H :    0.117544
  37 H :    0.103497

  Mayer bond orders larger than 0.100000
B(  0-C ,  1-C ) :   1.1548 B(  0-C , 20-H ) :   0.9444 B(  0-C , 21-H ) :   0.9487
B(  0-C , 22-H ) :   0.9514 B(  1-C ,  2-O ) :   0.8967 B(  1-C , 23-H ) :   0.9270
B(  1-C , 24-H ) :   0.9128 B(  2-O ,  3-C ) :   1.2693 B(  2-O ,  4-O ) :   0.1019
B(  3-C ,  4-O ) :   1.9431 B(  3-C ,  5-C ) :   1.0078 B(  5-C ,  6-C ) :   1.0270
B(  5-C , 25-H ) :   0.9043 B(  5-C , 26-H ) :   0.8762 B(  6-C ,  7-H ) :   0.8785
B(  6-C ,  8-C ) :   0.9026 B(  6-C , 13-S ) :   1.0283 B(  8-C ,  9-O ) :   1.9148
B(  8-C , 10-O ) :   1.2712 B(  9-O , 14-P ) :   0.1616 B( 10-O , 11-C ) :   0.8896
B( 11-C , 12-C ) :   1.1782 B( 11-C , 27-H ) :   0.9370 B( 11-C , 28-H ) :   0.9080
B( 12-C , 29-H ) :   0.9321 B( 12-C , 30-H ) :   0.9502 B( 12-C , 31-H ) :   0.9423
B( 13-S , 14-P ) :   0.9339 B( 13-S , 15-S ) :   0.1102 B( 14-P , 15-S ) :   1.6092
B( 14-P , 16-O ) :   1.1046 B( 14-P , 18-O ) :   1.0027 B( 16-O , 17-C ) :   0.9301
B( 17-C , 32-H ) :   0.9486 B( 17-C , 33-H ) :   0.9384 B( 17-C , 34-H ) :   0.9588
B( 18-O , 19-C ) :   0.9473 B( 19-C , 35-H ) :   0.9479 B( 19-C , 36-H ) :   0.9589
B( 19-C , 37-H ) :   0.9267

Dispersion correction           -0.053308229
FINAL SINGLE POINT ENERGY     -1979.006977696198

DIPOLE MOMENT
-------------

Method             : SCF
Type of density    : Electron Density
Multiplicity       :   1
Irrep              :   0
Energy             : -1979.1368290398695535 Eh
Relativity type    :
Basis              : AO
                                X                 Y                 Z
Electronic contribution:    -11.379282297       2.907735991      -0.180101654
Nuclear contribution   :     11.826773287      -2.525598344      -1.215132316
                        -----------------------------------------
Total Dipole Moment    :      0.447490990       0.382137647      -1.395233970
                        -----------------------------------------
Magnitude (a.u.)       :      1.514250705
Magnitude (Debye)      :      3.848919414

Rotational constants in cm-1:             0.011028             0.009443             0.006489
Rotational constants in MHz :           330.610230           283.085209           194.544909

                             ****ORCA TERMINATED NORMALLY****
TOTAL RUN TIME: 0 days 0 hours 0 minutes 36 seconds 469 msec
