                         Program Version 6.0.0  -   RELEASE  -
|  1> ! pbe def2-sv(p) def2/J RI DEFGRID1 loosescf d4 GCP(DFT/SV(P)) printgap
|  2> %output
|  3>     printlevel normal
|  4> end
|  5> * xyz 0 1
|  6> C 5.18486533 -0.8349529915 -2.3664075637
|  7> C 3.7420044478 -1.1333560331 -2.0113181012
|  8> O 3.5032522816 -0.655317297 -0.6725221115
|  9> P 2.055554817 -0.2631036755 -0.1525681422
| 10> S 1.0335044798 0.8202487065 -1.4331846399
| 11> O 2.356842884 0.3742626289 1.2609474956
| 12> C 2.6171999829 1.7796162417 1.4489995611
| 13> C 3.8702363731 2.2239589365 0.7266027638
| 14> S 1.310641493 -2.1428988297 0.4428925598
| 15> C -0.3213815861 -1.6903020959 1.0916145093
| 16> S -1.5353559644 -1.3242236402 -0.2148492392
| 17> P -2.2378109609 0.5358123855 0.5511859781
| 18> S -0.9421024822 1.6302602003 1.5261325089
| 19> O -3.434051125 0.1764214708 1.5109112788
| 20> C -4.5737034004 -0.6280478208 1.1068241123
| 21> C -4.522022056 -1.9818188376 1.7861981865
| 22> O -3.0051944317 1.2178086443 -0.6564991631
| 23> C -2.3903814285 1.8133916291 -1.8155231183
| 24> C -2.3660117986 0.8398106188 -2.9765065429
| 25> H 5.8473038356 -1.3056024406 -1.6458591293
| 26> H 5.3944867481 -1.2246256165 -3.3570634823
| 27> H 5.3606872384 0.2371688586 -2.3587640776
| 28> H 3.5415527043 -2.2076272523 -2.0257329765
| 29> H 3.0482133849 -0.628504052 -2.6924640301
| 30> H 1.7419765181 2.3423362551 1.1085222335
| 31> H 2.7089343882 1.8802706042 2.5312306406
| 32> H 4.7112428077 1.5996800487 1.0172135134
| 33> H 3.7236146278 2.1426589113 -0.3499834636
| 34> H 4.080188662 3.2591101121 0.9768067275
| 35> H -0.2258857548 -0.8114012341 1.7339971968
| 36> H -0.6598152245 -2.5584961501 1.6507272647
| 37> H -5.4452783792 -0.0548621181 1.4259411725
| 38> H -4.5763363099 -0.7263303527 0.0197057098
| 39> H -3.6820601618 -2.5634337209 1.4148322146
| 40> H -4.4184777638 -1.8543026973 2.8601546312
| 41> H -5.4424353029 -2.517343978 1.5764870277
| 42> H -3.0152014827 2.6806024334 -2.0370082105
| 43> H -1.3802792547 2.1474017162 -1.5623752232
| 44> H -3.366424795 0.4657941318 -3.1741869475
| 45> H -1.9902418575 1.3535018355 -3.8552317989
| 46> H -1.7074309613 0.0027113157 -2.7568061384
| 47> *
| 48>
| 49>                          ****END OF INPUT****

CARTESIAN COORDINATES (ANGSTROEM)
---------------------------------
  C      5.184865   -0.834953   -2.366408
  C      3.742004   -1.133356   -2.011318
  O      3.503252   -0.655317   -0.672522
  P      2.055555   -0.263104   -0.152568
  S      1.033504    0.820249   -1.433185
  O      2.356843    0.374263    1.260947
  C      2.617200    1.779616    1.449000
  C      3.870236    2.223959    0.726603
  S      1.310641   -2.142899    0.442893
  C     -0.321382   -1.690302    1.091615
  S     -1.535356   -1.324224   -0.214849
  P     -2.237811    0.535812    0.551186
  S     -0.942102    1.630260    1.526133
  O     -3.434051    0.176421    1.510911
  C     -4.573703   -0.628048    1.106824
  C     -4.522022   -1.981819    1.786198
  O     -3.005194    1.217809   -0.656499
  C     -2.390381    1.813392   -1.815523
  C     -2.366012    0.839811   -2.976507
  H      5.847304   -1.305602   -1.645859
  H      5.394487   -1.224626   -3.357063
  H      5.360687    0.237169   -2.358764
  H      3.541553   -2.207627   -2.025733
  H      3.048213   -0.628504   -2.692464
  H      1.741977    2.342336    1.108522
  H      2.708934    1.880271    2.531231
  H      4.711243    1.599680    1.017214
  H      3.723615    2.142659   -0.349983
  H      4.080189    3.259110    0.976807
  H     -0.225886   -0.811401    1.733997
  H     -0.659815   -2.558496    1.650727
  H     -5.445278   -0.054862    1.425941
  H     -4.576336   -0.726330    0.019706
  H     -3.682060   -2.563434    1.414832
  H     -4.418478   -1.854303    2.860155
  H     -5.442435   -2.517344    1.576487
  H     -3.015201    2.680602   -2.037008
  H     -1.380279    2.147402   -1.562375
  H     -3.366425    0.465794   -3.174187
  H     -1.990242    1.353502   -3.855232
  H     -1.707431    0.002711   -2.756806

 Total Charge           Charge          ....    0
 Multiplicity           Mult            ....    1
 Number of Electrons    NEL             ....  202
 Basis Dimension        Dim             ....  334

ORBITAL ENERGIES
----------------

  NO   OCC          E(Eh)            E(eV)
   0   2.0000     -88.040414     -2395.7015
   1   2.0000     -88.039789     -2395.6845
   2   2.0000     -87.981855     -2394.1080
   3   2.0000     -87.979230     -2394.0366
   4   2.0000     -76.423234     -2079.5819
   5   2.0000     -76.422631     -2079.5655
   6   2.0000     -18.792244      -511.3630
   7   2.0000     -18.790490      -511.3152
   8   2.0000     -18.786022      -511.1936
   9   2.0000     -18.785130      -511.1694
  10   2.0000      -9.954569      -270.8776
  11   2.0000      -9.954520      -270.8763
  12   2.0000      -9.951314      -270.7890
  13   2.0000      -9.948627      -270.7159
  14   2.0000      -9.943198      -270.5682
  15   2.0000      -9.887662      -269.0570
  16   2.0000      -9.886315      -269.0203
  17   2.0000      -9.879655      -268.8391
  18   2.0000      -9.878456      -268.8065
  19   2.0000      -7.686128      -209.1502
  20   2.0000      -7.684477      -209.1053
  21   2.0000      -7.626623      -207.5310
  22   2.0000      -7.624443      -207.4716
  23   2.0000      -6.420780      -174.7183
  24   2.0000      -6.420180      -174.7020
  25   2.0000      -5.713991      -155.4856
  26   2.0000      -5.712272      -155.4388
  27   2.0000      -5.710652      -155.3947
  28   2.0000      -5.709104      -155.3526
  29   2.0000      -5.702992      -155.1863
  30   2.0000      -5.701461      -155.1446
  31   2.0000      -5.655349      -153.8899
  32   2.0000      -5.653482      -153.8391
  33   2.0000      -5.647271      -153.6701
  34   2.0000      -5.646940      -153.6610
  35   2.0000      -5.645203      -153.6138
  36   2.0000      -5.644250      -153.5878
  37   2.0000      -4.643265      -126.3497
  38   2.0000      -4.642980      -126.3419
  39   2.0000      -4.642613      -126.3319
  40   2.0000      -4.641985      -126.3148
  41   2.0000      -4.641270      -126.2954
  42   2.0000      -4.640396      -126.2716
  43   2.0000      -0.985147       -26.8072
  44   2.0000      -0.983794       -26.7704
  45   2.0000      -0.942982       -25.6598
  46   2.0000      -0.940726       -25.5985
  47   2.0000      -0.759735       -20.6734
  48   2.0000      -0.720375       -19.6024
  49   2.0000      -0.709513       -19.3068
  50   2.0000      -0.687239       -18.7007
  51   2.0000      -0.685781       -18.6611
  52   2.0000      -0.671864       -18.2823
  53   2.0000      -0.648325       -17.6418
  54   2.0000      -0.631680       -17.1889
  55   2.0000      -0.596102       -16.2208
  56   2.0000      -0.586776       -15.9670
  57   2.0000      -0.572727       -15.5847
  58   2.0000      -0.564140       -15.3510
  59   2.0000      -0.560201       -15.2439
  60   2.0000      -0.504163       -13.7190
  61   2.0000      -0.498181       -13.5562
  62   2.0000      -0.475616       -12.9422
  63   2.0000      -0.472339       -12.8530
  64   2.0000      -0.451720       -12.2919
  65   2.0000      -0.445444       -12.1212
  66   2.0000      -0.438048       -11.9199
  67   2.0000      -0.435357       -11.8467
  68   2.0000      -0.427118       -11.6225
  69   2.0000      -0.414577       -11.2812
  70   2.0000      -0.405631       -11.0378
  71   2.0000      -0.397772       -10.8239
  72   2.0000      -0.391993       -10.6667
  73   2.0000      -0.380621       -10.3572
  74   2.0000      -0.375960       -10.2304
  75   2.0000      -0.371678       -10.1139
  76   2.0000      -0.363684        -9.8963
  77   2.0000      -0.356092        -9.6898
  78   2.0000      -0.355826        -9.6825
  79   2.0000      -0.348390        -9.4802
  80   2.0000      -0.346843        -9.4381
  81   2.0000      -0.343036        -9.3345
  82   2.0000      -0.339821        -9.2470
  83   2.0000      -0.332914        -9.0591
  84   2.0000      -0.330526        -8.9941
  85   2.0000      -0.313813        -8.5393
  86   2.0000      -0.310714        -8.4550
  87   2.0000      -0.297712        -8.1011
  88   2.0000      -0.296281        -8.0622
  89   2.0000      -0.289397        -7.8749
  90   2.0000      -0.280843        -7.6421
  91   2.0000      -0.271664        -7.3924
  92   2.0000      -0.267619        -7.2823
  93   2.0000      -0.262001        -7.1294
  94   2.0000      -0.257984        -7.0201
  95   2.0000      -0.240527        -6.5451
  96   2.0000      -0.223386        -6.0786
  97   2.0000      -0.204418        -5.5625
  98   2.0000      -0.199871        -5.4388
  99   2.0000      -0.192188        -5.2297
 100   2.0000      -0.181958        -4.9513
 101   0.0000      -0.038192        -1.0392
 102   0.0000      -0.030337        -0.8255
 103   0.0000      -0.010801        -0.2939
 104   0.0000       0.004994         0.1359
 105   0.0000       0.021151         0.5755

MULLIKEN ATOMIC CHARGES
-----------------------
   0 C :   -0.284944
   1 C :   -0.009954
   2 O :   -0.378106
   3 P :    0.629865
   4 S :   -0.336244
   5 O :   -0.363796
   6 C :   -0.009694
   7 C :   -0.311416
   8 S :   -0.094046
   9 C :   -0.347325
  10 S :   -0.105239
  11 P :    0.606514
  12 S :   -0.308025
  13 O :   -0.358905
  14 C :   -0.007598
  15 C :   -0.289650
  16 O :   -0.379123
  17 C :   -0.012207
  18 C :   -0.310470
  19 H :    0.117489
  20 H :    0.111573
  21 H :    0.120880
  22 H :    0.102397
  23 H :    0.104782
  24 H :    0.130819
  25 H :    0.104983
  26 H :    0.115145
  27 H :    0.122106
  28 H :    0.111250
  29 H :    0.195680
  30 H :    0.181327
  31 H :    0.111190
  32 H :    0.102648
  33 H :    0.116086
  34 H :    0.119785
  35 H :    0.108591
  36 H :    0.104668
  37 H :    0.128290
  38 H :    0.108621
  39 H :    0.111323
  40 H :    0.140729
Sum of atomic charges:   -0.0000000

LOEWDIN ATOMIC CHARGES
----------------------
   0 C :   -0.350973
   1 C :   -0.120951
   2 O :   -0.246559
   3 P :    0.570958
   4 S :   -0.317356
   5 O :   -0.234393
   6 C :   -0.117662
   7 C :   -0.367559
   8 S :    0.080097
   9 C :   -0.478561
  10 S :    0.068898
  11 P :    0.569047
  12 S :   -0.298378
  13 O :   -0.242106
  14 C :   -0.113106
  15 C :   -0.360224
  16 O :   -0.241809
  17 C :   -0.114490
  18 C :   -0.365654
  19 H :    0.127167
  20 H :    0.130654
  21 H :    0.128122
  22 H :    0.111269
  23 H :    0.106356
  24 H :    0.111044
  25 H :    0.119970
  26 H :    0.124953
  27 H :    0.120058
  28 H :    0.130343
  29 H :    0.124739
  30 H :    0.134904
  31 H :    0.121878
  32 H :    0.107097
  33 H :    0.118755
  34 H :    0.128843
  35 H :    0.129259
  36 H :    0.118734
  37 H :    0.110473
  38 H :    0.121849
  39 H :    0.131838
  40 H :    0.122478

  Mayer bond orders larger than 0.100000
B(  0-C ,  1-C ) :   1.1606 B(  0-C , 19-H ) :   0.9503 B(  0-C , 20-H ) :   0.9417
B(  0-C , 21-H ) :   0.9513 B(  1-C ,  2-O ) :   0.9051 B(  1-C , 22-H ) :   0.9314
B(  1-C , 23-H ) :   0.9036 B(  2-O ,  3-P ) :   1.1004 B(  3-P ,  4-S ) :   1.6154
B(  3-P ,  5-O ) :   1.1411 B(  3-P ,  8-S ) :   0.9691 B(  4-S ,  8-S ) :   0.1158
B(  5-O ,  6-C ) :   0.8967 B(  6-C ,  7-C ) :   1.1633 B(  6-C , 24-H ) :   0.9102
B(  6-C , 25-H ) :   0.9359 B(  7-C , 26-H ) :   0.9446 B(  7-C , 27-H ) :   0.9330
B(  7-C , 28-H ) :   0.9381 B(  8-S ,  9-C ) :   1.0052 B(  9-C , 10-S ) :   0.9882
B(  9-C , 29-H ) :   0.8532 B(  9-C , 30-H ) :   0.9106 B( 10-S , 11-P ) :   0.9405
B( 10-S , 12-S ) :   0.1135 B( 11-P , 12-S ) :   1.6340 B( 11-P , 13-O ) :   1.1304
B( 11-P , 16-O ) :   1.1134 B( 12-S , 29-H ) :   0.1039 B( 13-O , 14-C ) :   0.8920
B( 14-C , 15-C ) :   1.1638 B( 14-C , 31-H ) :   0.9346 B( 14-C , 32-H ) :   0.9175
B( 15-C , 33-H ) :   0.9382 B( 15-C , 34-H ) :   0.9463 B( 15-C , 35-H ) :   0.9401
B( 16-O , 17-C ) :   0.8947 B( 17-C , 18-C ) :   1.1722 B( 17-C , 36-H ) :   0.9339
B( 17-C , 37-H ) :   0.9049 B( 18-C , 38-H ) :   0.9471 B( 18-C , 39-H ) :   0.9399
B( 18-C , 40-H ) :   0.9306

Dispersion correction           -0.065568134
FINAL SINGLE POINT ENERGY     -2929.517797054346

DIPOLE MOMENT
-------------

Method             : SCF
Type of density    : Electron Density
Multiplicity       :   1
Irrep              :   0
Energy             : -2929.6362682148665044 Eh
Relativity type    :
Basis              : AO
                                X                 Y                 Z
Electronic contribution:     -4.279815279      -1.922085312       8.652892832
Nuclear contribution   :      4.143795313       1.358399624      -9.256588441
                        -----------------------------------------
Total Dipole Moment    :     -0.136019967      -0.563685688      -0.603695609
                        -----------------------------------------
Magnitude (a.u.)       :      0.837073100
Magnitude (Debye)      :      2.127670731

Rotational constants in cm-1:             0.012839             0.004819             0.004730
Rotational constants in MHz :           384.918181           144.477949           141.791139

                             ****ORCA TERMINATED NORMALLY****
TOTAL RUN TIME: 0 days 0 hours 0 minutes 20 seconds 948 msec
