                         Program Version 6.0.0  -   RELEASE  -
|  1> ! pbe def2-sv(p) def2/J RI DEFGRID1 loosescf d4 GCP(DFT/SV(P)) printgap
|  2> %output
|  3>     printlevel normal
|  4> end
|  5> * xyz 0 1
|  6> C 2.9013270871 -0.530576177 3.2227550921
|  7> C 1.5443049854 -0.7517858646 2.5901910971
|  8> O 1.3853003628 0.0370734515 1.3891523167
|  9> P 2.2115052005 -0.2777927325 0.0786510514
| 10> S 2.7409230878 -2.1478179597 -0.1992860033
| 11> O 3.4044278634 0.7615703019 0.193243919
| 12> C 4.5024126217 0.7707339719 -0.7410669231
| 13> C 5.6709766546 1.4732288068 -0.0793904165
| 14> S 0.976131456 0.5619559217 -1.4210891926
| 15> C -0.0531984623 -0.9124102068 -1.6619432153
| 16> S -1.13669347 -1.2519444079 -0.2581058288
| 17> P -2.4038160673 0.4485091778 -0.536831527
| 18> S -2.7938008413 0.879179451 -2.4019731087
| 19> O -1.7078837793 1.6391188603 0.2221536399
| 20> C -1.4344167684 1.6247050466 1.6451090315
| 21> C -2.4820829977 2.4224079639 2.3927646687
| 22> O -3.6623605589 0.1451859794 0.3828447454
| 23> C -4.7188446243 -0.750170995 -0.017646725
| 24> C -4.4918355946 -2.1475975115 0.5247122014
| 25> H 2.9539815241 -1.0706202616 4.1628299486
| 26> H 3.6807896684 -0.90093182 2.5577967774
| 27> H 3.0654993506 0.5287057642 3.4010501869
| 28> H 0.7341707529 -0.4132054773 3.2368693312
| 29> H 1.4007831179 -1.8059902398 2.3332217835
| 30> H 4.7500828034 -0.2643201431 -1.0002446437
| 31> H 4.17773751 1.2967958634 -1.6428603863
| 32> H 5.3811758907 2.4790294789 0.2103186208
| 33> H 5.9847732397 0.9276574045 0.805983046
| 34> H 6.4979708938 1.5246221099 -0.779859779
| 35> H 0.5870614849 -1.7858662767 -1.7874696998
| 36> H -0.6601091437 -0.7282285477 -2.5487273003
| 37> H -1.4041847082 0.5867726581 1.9878505741
| 38> H -0.4423347546 2.0712880384 1.7398355483
| 39> H -3.4576693633 1.9565883292 2.282251229
| 40> H -2.2175727313 2.4598441468 3.4448817064
| 41> H -2.529421545 3.433444399 1.9976965271
| 42> H -5.6244595609 -0.3071812605 0.4008250936
| 43> H -4.7863876435 -0.7489467788 -1.1101765726
| 44> H -3.591944132 -2.5844553958 0.0980602098
| 45> H -4.3861742083 -2.1157004381 1.6053664084
| 46> H -5.3436135006 -2.7686703027 0.2668508752
| 47> *
| 48>
| 49>                          ****END OF INPUT****

CARTESIAN COORDINATES (ANGSTROEM)
---------------------------------
  C      2.901327   -0.530576    3.222755
  C      1.544305   -0.751786    2.590191
  O      1.385300    0.037073    1.389152
  P      2.211505   -0.277793    0.078651
  S      2.740923   -2.147818   -0.199286
  O      3.404428    0.761570    0.193244
  C      4.502413    0.770734   -0.741067
  C      5.670977    1.473229   -0.079390
  S      0.976131    0.561956   -1.421089
  C     -0.053198   -0.912410   -1.661943
  S     -1.136693   -1.251944   -0.258106
  P     -2.403816    0.448509   -0.536832
  S     -2.793801    0.879179   -2.401973
  O     -1.707884    1.639119    0.222154
  C     -1.434417    1.624705    1.645109
  C     -2.482083    2.422408    2.392765
  O     -3.662361    0.145186    0.382845
  C     -4.718845   -0.750171   -0.017647
  C     -4.491836   -2.147598    0.524712
  H      2.953982   -1.070620    4.162830
  H      3.680790   -0.900932    2.557797
  H      3.065499    0.528706    3.401050
  H      0.734171   -0.413205    3.236869
  H      1.400783   -1.805990    2.333222
  H      4.750083   -0.264320   -1.000245
  H      4.177738    1.296796   -1.642860
  H      5.381176    2.479029    0.210319
  H      5.984773    0.927657    0.805983
  H      6.497971    1.524622   -0.779860
  H      0.587061   -1.785866   -1.787470
  H     -0.660109   -0.728229   -2.548727
  H     -1.404185    0.586773    1.987851
  H     -0.442335    2.071288    1.739836
  H     -3.457669    1.956588    2.282251
  H     -2.217573    2.459844    3.444882
  H     -2.529422    3.433444    1.997697
  H     -5.624460   -0.307181    0.400825
  H     -4.786388   -0.748947   -1.110177
  H     -3.591944   -2.584455    0.098060
  H     -4.386174   -2.115700    1.605366
  H     -5.343614   -2.768670    0.266851

 Total Charge           Charge          ....    0
 Multiplicity           Mult            ....    1
 Number of Electrons    NEL             ....  202
 Basis Dimension        Dim             ....  334

ORBITAL ENERGIES
----------------

  NO   OCC          E(Eh)            E(eV)
   0   2.0000     -88.040506     -2395.7040
   1   2.0000     -88.040041     -2395.6913
   2   2.0000     -87.991181     -2394.3618
   3   2.0000     -87.983911     -2394.1639
   4   2.0000     -76.428453     -2079.7239
   5   2.0000     -76.425390     -2079.6406
   6   2.0000     -18.797876      -511.5162
   7   2.0000     -18.797477      -511.5054
   8   2.0000     -18.795630      -511.4551
   9   2.0000     -18.789690      -511.2935
  10   2.0000      -9.956364      -270.9264
  11   2.0000      -9.956037      -270.9175
  12   2.0000      -9.955518      -270.9034
  13   2.0000      -9.952452      -270.8200
  14   2.0000      -9.949955      -270.7520
  15   2.0000      -9.891191      -269.1530
  16   2.0000      -9.888091      -269.0686
  17   2.0000      -9.887322      -269.0477
  18   2.0000      -9.885211      -268.9903
  19   2.0000      -7.685348      -209.1290
  20   2.0000      -7.685263      -209.1266
  21   2.0000      -7.636113      -207.7892
  22   2.0000      -7.629294      -207.6037
  23   2.0000      -6.426294      -174.8684
  24   2.0000      -6.423040      -174.7798
  25   2.0000      -5.713146      -155.4626
  26   2.0000      -5.712939      -155.4570
  27   2.0000      -5.710028      -155.3778
  28   2.0000      -5.709831      -155.3724
  29   2.0000      -5.702411      -155.1705
  30   2.0000      -5.702208      -155.1650
  31   2.0000      -5.664825      -154.1477
  32   2.0000      -5.658271      -153.9694
  33   2.0000      -5.656768      -153.9285
  34   2.0000      -5.656457      -153.9200
  35   2.0000      -5.649781      -153.7384
  36   2.0000      -5.649464      -153.7297
  37   2.0000      -4.648707      -126.4978
  38   2.0000      -4.648058      -126.4801
  39   2.0000      -4.646819      -126.4464
  40   2.0000      -4.645982      -126.4236
  41   2.0000      -4.644748      -126.3900
  42   2.0000      -4.643196      -126.3478
  43   2.0000      -0.991828       -26.9890
  44   2.0000      -0.989715       -26.9315
  45   2.0000      -0.950902       -25.8754
  46   2.0000      -0.945864       -25.7383
  47   2.0000      -0.763536       -20.7769
  48   2.0000      -0.723466       -19.6865
  49   2.0000      -0.711716       -19.3668
  50   2.0000      -0.692641       -18.8477
  51   2.0000      -0.691819       -18.8253
  52   2.0000      -0.675027       -18.3684
  53   2.0000      -0.650259       -17.6944
  54   2.0000      -0.637408       -17.3448
  55   2.0000      -0.602522       -16.3954
  56   2.0000      -0.593393       -16.1470
  57   2.0000      -0.573323       -15.6009
  58   2.0000      -0.569373       -15.4934
  59   2.0000      -0.561450       -15.2778
  60   2.0000      -0.508965       -13.8496
  61   2.0000      -0.500862       -13.6291
  62   2.0000      -0.482475       -13.1288
  63   2.0000      -0.479653       -13.0520
  64   2.0000      -0.459692       -12.5089
  65   2.0000      -0.449275       -12.2254
  66   2.0000      -0.441033       -12.0011
  67   2.0000      -0.436648       -11.8818
  68   2.0000      -0.430982       -11.7276
  69   2.0000      -0.415068       -11.2946
  70   2.0000      -0.406567       -11.0633
  71   2.0000      -0.399316       -10.8659
  72   2.0000      -0.391154       -10.6438
  73   2.0000      -0.384880       -10.4731
  74   2.0000      -0.383363       -10.4318
  75   2.0000      -0.375746       -10.2246
  76   2.0000      -0.368001       -10.0138
  77   2.0000      -0.362197        -9.8559
  78   2.0000      -0.360495        -9.8096
  79   2.0000      -0.355195        -9.6653
  80   2.0000      -0.351311        -9.5597
  81   2.0000      -0.347995        -9.4694
  82   2.0000      -0.345498        -9.4015
  83   2.0000      -0.342310        -9.3147
  84   2.0000      -0.334206        -9.0942
  85   2.0000      -0.324373        -8.8266
  86   2.0000      -0.314102        -8.5472
  87   2.0000      -0.303512        -8.2590
  88   2.0000      -0.295915        -8.0523
  89   2.0000      -0.294093        -8.0027
  90   2.0000      -0.289402        -7.8750
  91   2.0000      -0.280686        -7.6378
  92   2.0000      -0.271375        -7.3845
  93   2.0000      -0.265950        -7.2369
  94   2.0000      -0.258723        -7.0402
  95   2.0000      -0.234108        -6.3704
  96   2.0000      -0.219831        -5.9819
  97   2.0000      -0.213997        -5.8232
  98   2.0000      -0.204837        -5.5739
  99   2.0000      -0.202132        -5.5003
 100   2.0000      -0.198241        -5.3944
 101   0.0000      -0.043092        -1.1726
 102   0.0000      -0.021293        -0.5794
 103   0.0000      -0.001128        -0.0307
 104   0.0000       0.001420         0.0386
 105   0.0000       0.013445         0.3659

MULLIKEN ATOMIC CHARGES
-----------------------
   0 C :   -0.304682
   1 C :   -0.008310
   2 O :   -0.358635
   3 P :    0.611905
   4 S :   -0.338481
   5 O :   -0.375491
   6 C :   -0.013105
   7 C :   -0.282850
   8 S :   -0.065439
   9 C :   -0.379762
  10 S :   -0.096273
  11 P :    0.604560
  12 S :   -0.311948
  13 O :   -0.347536
  14 C :   -0.022175
  15 C :   -0.281675
  16 O :   -0.381884
  17 C :   -0.005530
  18 C :   -0.306257
  19 H :    0.112951
  20 H :    0.124828
  21 H :    0.115968
  22 H :    0.102762
  23 H :    0.115507
  24 H :    0.107950
  25 H :    0.107195
  26 H :    0.118498
  27 H :    0.119198
  28 H :    0.114042
  29 H :    0.193860
  30 H :    0.195761
  31 H :    0.105229
  32 H :    0.116113
  33 H :    0.117498
  34 H :    0.105567
  35 H :    0.120240
  36 H :    0.108088
  37 H :    0.107583
  38 H :    0.129485
  39 H :    0.111800
  40 H :    0.113444
Sum of atomic charges:   -0.0000000

LOEWDIN ATOMIC CHARGES
----------------------
   0 C :   -0.365071
   1 C :   -0.116941
   2 O :   -0.234946
   3 P :    0.571311
   4 S :   -0.323620
   5 O :   -0.246238
   6 C :   -0.119428
   7 C :   -0.350329
   8 S :    0.090366
   9 C :   -0.488984
  10 S :    0.071793
  11 P :    0.569451
  12 S :   -0.308693
  13 O :   -0.229445
  14 C :   -0.114541
  15 C :   -0.358228
  16 O :   -0.246932
  17 C :   -0.116904
  18 C :   -0.365907
  19 H :    0.131116
  20 H :    0.122425
  21 H :    0.126067
  22 H :    0.114448
  23 H :    0.112158
  24 H :    0.109043
  25 H :    0.112842
  26 H :    0.127794
  27 H :    0.127676
  28 H :    0.131894
  29 H :    0.128438
  30 H :    0.128900
  31 H :    0.102878
  32 H :    0.120177
  33 H :    0.125037
  34 H :    0.127475
  35 H :    0.129146
  36 H :    0.119729
  37 H :    0.110046
  38 H :    0.119841
  39 H :    0.124270
  40 H :    0.131888

  Mayer bond orders larger than 0.100000
B(  0-C ,  1-C ) :   1.1657 B(  0-C , 19-H ) :   0.9384 B(  0-C , 20-H ) :   0.9334
B(  0-C , 21-H ) :   0.9459 B(  1-C ,  2-O ) :   0.9003 B(  1-C , 22-H ) :   0.9298
B(  1-C , 23-H ) :   0.9156 B(  2-O ,  3-P ) :   1.1229 B(  3-P ,  4-S ) :   1.5946
B(  3-P ,  5-O ) :   1.1137 B(  3-P ,  8-S ) :   0.9724 B(  4-S ,  8-S ) :   0.1096
B(  5-O ,  6-C ) :   0.9012 B(  6-C ,  7-C ) :   1.1614 B(  6-C , 24-H ) :   0.9094
B(  6-C , 25-H ) :   0.9298 B(  7-C , 26-H ) :   0.9503 B(  7-C , 27-H ) :   0.9514
B(  7-C , 28-H ) :   0.9416 B(  8-S ,  9-C ) :   1.0034 B(  9-C , 10-S ) :   1.0059
B(  9-C , 29-H ) :   0.8739 B(  9-C , 30-H ) :   0.8719 B( 10-S , 11-P ) :   0.9433
B( 10-S , 12-S ) :   0.1091 B( 11-P , 12-S ) :   1.6511 B( 11-P , 13-O ) :   1.1462
B( 11-P , 16-O ) :   1.0819 B( 13-O , 14-C ) :   0.8898 B( 14-C , 15-C ) :   1.1564
B( 14-C , 31-H ) :   0.9113 B( 14-C , 32-H ) :   0.9312 B( 15-C , 33-H ) :   0.9425
B( 15-C , 34-H ) :   0.9409 B( 15-C , 35-H ) :   0.9466 B( 16-O , 17-C ) :   0.9019
B( 17-C , 18-C ) :   1.1668 B( 17-C , 36-H ) :   0.9350 B( 17-C , 37-H ) :   0.9065
B( 18-C , 38-H ) :   0.9321 B( 18-C , 39-H ) :   0.9485 B( 18-C , 40-H ) :   0.9395

Dispersion correction           -0.064276420
FINAL SINGLE POINT ENERGY     -2929.525188061042

DIPOLE MOMENT
-------------

Method             : SCF
Type of density    : Electron Density
Multiplicity       :   1
Irrep              :   0
Energy             : -2929.6458156593644162 Eh
Relativity type    :
Basis              : AO
                                X                 Y                 Z
Electronic contribution:     -4.395963179      -1.568688731     -19.299617166
Nuclear contribution   :      4.644636531       1.603571044      20.888695121
                        -----------------------------------------
Total Dipole Moment    :      0.248673352       0.034882313       1.589077956
                        -----------------------------------------
Magnitude (a.u.)       :      1.608795811
Magnitude (Debye)      :      4.089233974

Rotational constants in cm-1:             0.012922             0.004604             0.004423
Rotational constants in MHz :           387.389216           138.037461           132.600049

                             ****ORCA TERMINATED NORMALLY****
TOTAL RUN TIME: 0 days 0 hours 0 minutes 21 seconds 408 msec
