                         Program Version 6.0.0  -   RELEASE  -
|  1> ! pbe def2-sv(p) def2/J RI DEFGRID1 loosescf d4 GCP(DFT/SV(P)) printgap
|  2> %output
|  3>     printlevel normal
|  4> end
|  5> * xyz 0 1
|  6> C 2.5912033622 -2.9656283061 -1.4157055793
|  7> C 3.4240953225 -1.7798503372 -1.8557450437
|  8> O 3.5863425649 -0.7940775115 -0.8103406542
|  9> P 2.4263159073 0.0162313295 -0.0900070971
| 10> S 3.1765828505 1.5972332567 0.7774060085
| 11> O 1.6796874037 -1.0101206152 0.8824957792
| 12> C 1.9658470735 -1.1185414486 2.2913087431
| 13> C 0.9495034991 -0.3529995072 3.1148437066
| 14> S 0.9759721417 0.2831548718 -1.6025347402
| 15> C 0.2527750207 1.8147019818 -0.9619635638
| 16> S -0.5917720188 1.6086341043 0.6271426263
| 17> P -2.0316403168 0.2100773356 -0.0331103605
| 18> S -2.7447007387 0.4449505375 -1.8482824985
| 19> O -3.1186616011 0.1969724702 1.1261438463
| 20> C -4.2662631217 1.0628196508 1.121600232
| 21> C -3.8882055383 2.5141065764 1.3376527084
| 22> O -1.2563951339 -1.1398183677 0.2579596394
| 23> C -1.5611470057 -2.3676351502 -0.4316742501
| 24> C -2.9317044087 -2.8955324927 -0.0631627441
| 25> H 2.5575341489 -3.6933832354 -2.2204111042
| 26> H 3.0258299937 -3.4260338412 -0.5320731911
| 27> H 1.5773150679 -2.6432225846 -1.1865620777
| 28> H 2.9732802003 -1.2884580752 -2.7220365045
| 29> H 4.4502489543 -2.0698508893 -2.0875562545
| 30> H 1.9189516507 -2.1890737685 2.4993348483
| 31> H 2.9776343836 -0.7488218139 2.4832284073
| 32> H -0.0582788216 -0.648667104 2.832803686
| 33> H 1.1085076918 -0.5668166105 4.166871451
| 34> H 1.058677379 0.7166354721 2.9483835045
| 35> H -0.4577480197 2.1493457664 -1.7172224887
| 36> H 1.0398811031 2.5501343852 -0.7980222626
| 37> H -4.7880641147 0.9401620382 0.1669682409
| 38> H -4.884975742 0.6824694755 1.9354984277
| 39> H -3.3277917663 2.8858302819 0.4808428283
| 40> H -4.7897374281 3.1074187842 1.4522329236
| 41> H -3.2722746465 2.6159691855 2.2277127312
| 42> H -1.4913852262 -2.1861115255 -1.5093544881
| 43> H -0.7678902088 -3.0476506745 -0.1170543068
| 44> H -3.0824796814 -3.8638219947 -0.5300494925
| 45> H -3.0200673347 -2.9939871134 1.0156075909
| 46> H -3.6990161845 -2.2083074433 -0.4181147824
| 47> *
| 48>
| 49>                          ****END OF INPUT****

CARTESIAN COORDINATES (ANGSTROEM)
---------------------------------
  C      2.591203   -2.965628   -1.415706
  C      3.424095   -1.779850   -1.855745
  O      3.586343   -0.794078   -0.810341
  P      2.426316    0.016231   -0.090007
  S      3.176583    1.597233    0.777406
  O      1.679687   -1.010121    0.882496
  C      1.965847   -1.118541    2.291309
  C      0.949503   -0.353000    3.114844
  S      0.975972    0.283155   -1.602535
  C      0.252775    1.814702   -0.961964
  S     -0.591772    1.608634    0.627143
  P     -2.031640    0.210077   -0.033110
  S     -2.744701    0.444951   -1.848282
  O     -3.118662    0.196972    1.126144
  C     -4.266263    1.062820    1.121600
  C     -3.888206    2.514107    1.337653
  O     -1.256395   -1.139818    0.257960
  C     -1.561147   -2.367635   -0.431674
  C     -2.931704   -2.895532   -0.063163
  H      2.557534   -3.693383   -2.220411
  H      3.025830   -3.426034   -0.532073
  H      1.577315   -2.643223   -1.186562
  H      2.973280   -1.288458   -2.722037
  H      4.450249   -2.069851   -2.087556
  H      1.918952   -2.189074    2.499335
  H      2.977634   -0.748822    2.483228
  H     -0.058279   -0.648667    2.832804
  H      1.108508   -0.566817    4.166871
  H      1.058677    0.716635    2.948384
  H     -0.457748    2.149346   -1.717222
  H      1.039881    2.550134   -0.798022
  H     -4.788064    0.940162    0.166968
  H     -4.884976    0.682469    1.935498
  H     -3.327792    2.885830    0.480843
  H     -4.789737    3.107419    1.452233
  H     -3.272275    2.615969    2.227713
  H     -1.491385   -2.186112   -1.509354
  H     -0.767890   -3.047651   -0.117054
  H     -3.082480   -3.863822   -0.530049
  H     -3.020067   -2.993987    1.015608
  H     -3.699016   -2.208307   -0.418115

 Total Charge           Charge          ....    0
 Multiplicity           Mult            ....    1
 Number of Electrons    NEL             ....  202
 Basis Dimension        Dim             ....  334

ORBITAL ENERGIES
----------------

  NO   OCC          E(Eh)            E(eV)
   0   2.0000     -88.044467     -2395.8117
   1   2.0000     -88.043734     -2395.7918
   2   2.0000     -87.992443     -2394.3961
   3   2.0000     -87.982520     -2394.1261
   4   2.0000     -76.428928     -2079.7369
   5   2.0000     -76.423554     -2079.5906
   6   2.0000     -18.797127      -511.4958
   7   2.0000     -18.790834      -511.3246
   8   2.0000     -18.789895      -511.2990
   9   2.0000     -18.783669      -511.1296
  10   2.0000      -9.959678      -271.0166
  11   2.0000      -9.956904      -270.9411
  12   2.0000      -9.955294      -270.8973
  13   2.0000      -9.952704      -270.8269
  14   2.0000      -9.947177      -270.6764
  15   2.0000      -9.892548      -269.1899
  16   2.0000      -9.885992      -269.0115
  17   2.0000      -9.885525      -268.9988
  18   2.0000      -9.872429      -268.6424
  19   2.0000      -7.689422      -209.2398
  20   2.0000      -7.688533      -209.2156
  21   2.0000      -7.637298      -207.8214
  22   2.0000      -7.627835      -207.5639
  23   2.0000      -6.426357      -174.8701
  24   2.0000      -6.421277      -174.7318
  25   2.0000      -5.717260      -155.5745
  26   2.0000      -5.716432      -155.5520
  27   2.0000      -5.714029      -155.4866
  28   2.0000      -5.713167      -155.4632
  29   2.0000      -5.706315      -155.2767
  30   2.0000      -5.705320      -155.2496
  31   2.0000      -5.666057      -154.1813
  32   2.0000      -5.657956      -153.9608
  33   2.0000      -5.657625      -153.9518
  34   2.0000      -5.656924      -153.9327
  35   2.0000      -5.648753      -153.7104
  36   2.0000      -5.647462      -153.6753
  37   2.0000      -4.648740      -126.4987
  38   2.0000      -4.648112      -126.4815
  39   2.0000      -4.647006      -126.4515
  40   2.0000      -4.644064      -126.3714
  41   2.0000      -4.642828      -126.3378
  42   2.0000      -4.641775      -126.3091
  43   2.0000      -0.989375       -26.9223
  44   2.0000      -0.979230       -26.6462
  45   2.0000      -0.948053       -25.7978
  46   2.0000      -0.939826       -25.5740
  47   2.0000      -0.767306       -20.8795
  48   2.0000      -0.722133       -19.6502
  49   2.0000      -0.710281       -19.3277
  50   2.0000      -0.690493       -18.7893
  51   2.0000      -0.687943       -18.7199
  52   2.0000      -0.673479       -18.3263
  53   2.0000      -0.651793       -17.7362
  54   2.0000      -0.640471       -17.4281
  55   2.0000      -0.604373       -16.4458
  56   2.0000      -0.590766       -16.0756
  57   2.0000      -0.577781       -15.7222
  58   2.0000      -0.574039       -15.6204
  59   2.0000      -0.558297       -15.1920
  60   2.0000      -0.499431       -13.5902
  61   2.0000      -0.493186       -13.4203
  62   2.0000      -0.475732       -12.9453
  63   2.0000      -0.474226       -12.9043
  64   2.0000      -0.458477       -12.4758
  65   2.0000      -0.447048       -12.1648
  66   2.0000      -0.442444       -12.0395
  67   2.0000      -0.436294       -11.8722
  68   2.0000      -0.428818       -11.6687
  69   2.0000      -0.414622       -11.2824
  70   2.0000      -0.406121       -11.0511
  71   2.0000      -0.397439       -10.8149
  72   2.0000      -0.395707       -10.7677
  73   2.0000      -0.389466       -10.5979
  74   2.0000      -0.382825       -10.4172
  75   2.0000      -0.374134       -10.1807
  76   2.0000      -0.366655        -9.9772
  77   2.0000      -0.358464        -9.7543
  78   2.0000      -0.355268        -9.6673
  79   2.0000      -0.353139        -9.6094
  80   2.0000      -0.349103        -9.4996
  81   2.0000      -0.345939        -9.4135
  82   2.0000      -0.345002        -9.3880
  83   2.0000      -0.339034        -9.2256
  84   2.0000      -0.335116        -9.1190
  85   2.0000      -0.320491        -8.7210
  86   2.0000      -0.308447        -8.3933
  87   2.0000      -0.301346        -8.2001
  88   2.0000      -0.298008        -8.1092
  89   2.0000      -0.285734        -7.7752
  90   2.0000      -0.277906        -7.5622
  91   2.0000      -0.277848        -7.5606
  92   2.0000      -0.272526        -7.4158
  93   2.0000      -0.266910        -7.2630
  94   2.0000      -0.257827        -7.0158
  95   2.0000      -0.230565        -6.2740
  96   2.0000      -0.218164        -5.9365
  97   2.0000      -0.215476        -5.8634
  98   2.0000      -0.208637        -5.6773
  99   2.0000      -0.200965        -5.4685
 100   2.0000      -0.195189        -5.3114
 101   0.0000      -0.047068        -1.2808
 102   0.0000      -0.026214        -0.7133
 103   0.0000      -0.002285        -0.0622
 104   0.0000       0.002842         0.0773
 105   0.0000       0.008134         0.2213

MULLIKEN ATOMIC CHARGES
-----------------------
   0 C :   -0.333854
   1 C :   -0.016686
   2 O :   -0.370142
   3 P :    0.619748
   4 S :   -0.319496
   5 O :   -0.376387
   6 C :   -0.008192
   7 C :   -0.294240
   8 S :   -0.104095
   9 C :   -0.345978
  10 S :   -0.065666
  11 P :    0.618327
  12 S :   -0.336945
  13 O :   -0.374171
  14 C :   -0.005154
  15 C :   -0.315844
  16 O :   -0.355672
  17 C :   -0.023996
  18 C :   -0.293925
  19 H :    0.114426
  20 H :    0.118575
  21 H :    0.147997
  22 H :    0.119055
  23 H :    0.114830
  24 H :    0.095763
  25 H :    0.105295
  26 H :    0.116439
  27 H :    0.101446
  28 H :    0.129462
  29 H :    0.189844
  30 H :    0.194337
  31 H :    0.111155
  32 H :    0.106374
  33 H :    0.126848
  34 H :    0.114345
  35 H :    0.120044
  36 H :    0.112364
  37 H :    0.116261
  38 H :    0.110672
  39 H :    0.115207
  40 H :    0.121630
Sum of atomic charges:   -0.0000000

LOEWDIN ATOMIC CHARGES
----------------------
   0 C :   -0.369032
   1 C :   -0.116157
   2 O :   -0.247682
   3 P :    0.570860
   4 S :   -0.314897
   5 O :   -0.250080
   6 C :   -0.114696
   7 C :   -0.365868
   8 S :    0.088204
   9 C :   -0.477586
  10 S :    0.114598
  11 P :    0.572883
  12 S :   -0.327107
  13 O :   -0.243496
  14 C :   -0.119188
  15 C :   -0.369293
  16 O :   -0.230696
  17 C :   -0.119323
  18 C :   -0.365087
  19 H :    0.131714
  20 H :    0.127756
  21 H :    0.123128
  22 H :    0.109792
  23 H :    0.124298
  24 H :    0.113131
  25 H :    0.108494
  26 H :    0.120833
  27 H :    0.124998
  28 H :    0.121099
  29 H :    0.131165
  30 H :    0.133193
  31 H :    0.110536
  32 H :    0.119273
  33 H :    0.121313
  34 H :    0.131697
  35 H :    0.125439
  36 H :    0.110077
  37 H :    0.117683
  38 H :    0.130027
  39 H :    0.126031
  40 H :    0.121961

  Mayer bond orders larger than 0.100000
B(  0-C ,  1-C ) :   1.1623 B(  0-C , 19-H ) :   0.9357 B(  0-C , 20-H ) :   0.9452
B(  0-C , 21-H ) :   0.9301 B(  1-C ,  2-O ) :   0.9141 B(  1-C , 22-H ) :   0.9186
B(  1-C , 23-H ) :   0.9347 B(  2-O ,  3-P ) :   1.1198 B(  3-P ,  4-S ) :   1.6234
B(  3-P ,  5-O ) :   1.0902 B(  3-P ,  8-S ) :   0.9519 B(  4-S ,  8-S ) :   0.1003
B(  5-O ,  6-C ) :   0.9029 B(  6-C ,  7-C ) :   1.1734 B(  6-C , 24-H ) :   0.9335
B(  6-C , 25-H ) :   0.9136 B(  7-C , 26-H ) :   0.9416 B(  7-C , 27-H ) :   0.9382
B(  7-C , 28-H ) :   0.9354 B(  8-S ,  9-C ) :   1.0122 B(  9-C , 10-S ) :   1.0063
B(  9-C , 29-H ) :   0.8862 B(  9-C , 30-H ) :   0.8828 B( 10-S , 11-P ) :   0.9616
B( 10-S , 12-S ) :   0.1078 B( 11-P , 12-S ) :   1.5806 B( 11-P , 13-O ) :   1.1060
B( 11-P , 16-O ) :   1.1190 B( 13-O , 14-C ) :   0.9083 B( 14-C , 15-C ) :   1.1663
B( 14-C , 31-H ) :   0.9163 B( 14-C , 32-H ) :   0.9338 B( 15-C , 33-H ) :   0.9359
B( 15-C , 34-H ) :   0.9377 B( 15-C , 35-H ) :   0.9446 B( 16-O , 17-C ) :   0.9071
B( 17-C , 18-C ) :   1.1606 B( 17-C , 36-H ) :   0.9176 B( 17-C , 37-H ) :   0.9249
B( 18-C , 38-H ) :   0.9392 B( 18-C , 39-H ) :   0.9453 B( 18-C , 40-H ) :   0.9338

Dispersion correction           -0.068270002
FINAL SINGLE POINT ENERGY     -2929.522278619128

DIPOLE MOMENT
-------------

Method             : SCF
Type of density    : Electron Density
Multiplicity       :   1
Irrep              :   0
Energy             : -2929.6399896800789975 Eh
Relativity type    :
Basis              : AO
                                X                 Y                 Z
Electronic contribution:      9.922666007      13.947110547      -7.778939146
Nuclear contribution   :    -10.637788063     -15.298320358       8.044269457
                        -----------------------------------------
Total Dipole Moment    :     -0.715122057      -1.351209811       0.265330311
                        -----------------------------------------
Magnitude (a.u.)       :      1.551633875
Magnitude (Debye)      :      3.943939881

Rotational constants in cm-1:             0.011931             0.005705             0.005197
Rotational constants in MHz :           357.681700           171.039009           155.795067

                             ****ORCA TERMINATED NORMALLY****
TOTAL RUN TIME: 0 days 0 hours 0 minutes 21 seconds 980 msec
