                         Program Version 6.0.0  -   RELEASE  -
|  1> ! r2scan-3c def2/J RI DEFGRID2 scfconv6 printgap
|  2> %output
|  3>     printlevel normal
|  4> end
|  5> * xyz 0 1
|  6> C 4.6739113849 -1.4985596959 -0.7906449291
|  7> C 4.6870807627 -0.0803768558 -0.2574766347
|  8> O 3.5049643792 0.2286441971 0.5002561499
|  9> P 2.0662241746 0.3554035856 -0.1668014099
| 10> S 2.0702708808 1.1743024812 -1.9514941848
| 11> O 1.2615240365 1.084322278 0.9870594427
| 12> C 1.1978905429 2.5179192199 1.1046480113
| 13> C 2.5441369747 3.1256798 1.4342788001
| 14> S 1.298269445 -1.5930101082 0.0195862904
| 15> C 0.0980837914 -1.6329288962 -1.3585381933
| 16> S -1.5818572279 -1.9853078663 -0.8003203337
| 17> P -1.9930677091 -0.1149369211 0.1236356232
| 18> S -1.406695049 1.4505436446 -0.8983577273
| 19> O -1.3878795784 -0.1333880494 1.5739029395
| 20> C -1.3371787684 -1.2605256135 2.487081202
| 21> C -2.6910288782 -1.8893521346 2.7296572183
| 22> O -3.5567642978 -0.1820361402 0.3831697977
| 23> C -4.5115445625 0.0088275859 -0.6805896277
| 24> C -5.4570348904 1.1319576923 -0.3026466295
| 25> H 4.4759155927 -2.2033492839 0.0129287555
| 26> H 3.8997944225 -1.6024909353 -1.5497335232
| 27> H 5.6369390485 -1.7211631548 -1.2387452191
| 28> H 4.765854725 0.6368659518 -1.0808732132
| 29> H 5.4999956046 0.0760414931 0.4528194862
| 30> H 0.8020104759 2.9236621055 0.1672130387
| 31> H 0.4686473124 2.6781202065 1.9006786338
| 32> H 3.2246831777 2.9979229204 0.5933107923
| 33> H 2.4183716866 4.1864316457 1.6277448367
| 34> H 2.9690742219 2.6423728135 2.3101910973
| 35> H 0.3740642745 -2.447638333 -2.0225864365
| 36> H 0.1269718859 -0.6706411839 -1.8774247432
| 37> H -0.6301223829 -1.9917735399 2.0846629313
| 38> H -0.9264703715 -0.818096633 3.395884591
| 39> H -3.0566876939 -2.3645343605 1.8218333317
| 40> H -2.5929087491 -2.6413969428 3.5065855191
| 41> H -3.4064033842 -1.1349673165 3.046145651
| 42> H -3.9792520853 0.2456841849 -1.6069052068
| 43> H -5.0395861393 -0.9396429486 -0.7960264765
| 44> H -4.9049279027 2.0639302944 -0.2049379271
| 45> H -6.2086208564 1.2431073718 -1.0773500105
| 46> H -5.9423562035 0.9089535955 0.6429199719
| 47> *
| 48>
| 49>                          ****END OF INPUT****

CARTESIAN COORDINATES (ANGSTROEM)
---------------------------------
  C      4.673911   -1.498560   -0.790645
  C      4.687081   -0.080377   -0.257477
  O      3.504964    0.228644    0.500256
  P      2.066224    0.355404   -0.166801
  S      2.070271    1.174302   -1.951494
  O      1.261524    1.084322    0.987059
  C      1.197891    2.517919    1.104648
  C      2.544137    3.125680    1.434279
  S      1.298269   -1.593010    0.019586
  C      0.098084   -1.632929   -1.358538
  S     -1.581857   -1.985308   -0.800320
  P     -1.993068   -0.114937    0.123636
  S     -1.406695    1.450544   -0.898358
  O     -1.387880   -0.133388    1.573903
  C     -1.337179   -1.260526    2.487081
  C     -2.691029   -1.889352    2.729657
  O     -3.556764   -0.182036    0.383170
  C     -4.511545    0.008828   -0.680590
  C     -5.457035    1.131958   -0.302647
  H      4.475916   -2.203349    0.012929
  H      3.899794   -1.602491   -1.549734
  H      5.636939   -1.721163   -1.238745
  H      4.765855    0.636866   -1.080873
  H      5.499996    0.076041    0.452819
  H      0.802010    2.923662    0.167213
  H      0.468647    2.678120    1.900679
  H      3.224683    2.997923    0.593311
  H      2.418372    4.186432    1.627745
  H      2.969074    2.642373    2.310191
  H      0.374064   -2.447638   -2.022586
  H      0.126972   -0.670641   -1.877425
  H     -0.630122   -1.991774    2.084663
  H     -0.926470   -0.818097    3.395885
  H     -3.056688   -2.364534    1.821833
  H     -2.592909   -2.641397    3.506586
  H     -3.406403   -1.134967    3.046146
  H     -3.979252    0.245684   -1.606905
  H     -5.039586   -0.939643   -0.796026
  H     -4.904928    2.063930   -0.204938
  H     -6.208621    1.243107   -1.077350
  H     -5.942356    0.908954    0.642920

 Total Charge           Charge          ....    0
 Multiplicity           Mult            ....    1
 Number of Electrons    NEL             ....  202
 Basis Dimension        Dim             ....  539

ORBITAL ENERGIES
----------------

  NO   OCC          E(Eh)            E(eV)
   0   2.0000     -88.577119     -2410.3060
   1   2.0000     -88.572834     -2410.1893
   2   2.0000     -88.514828     -2408.6109
   3   2.0000     -88.510586     -2408.4955
   4   2.0000     -76.911378     -2092.8650
   5   2.0000     -76.908232     -2092.7794
   6   2.0000     -18.990585      -516.7601
   7   2.0000     -18.989163      -516.7214
   8   2.0000     -18.986632      -516.6525
   9   2.0000     -18.978346      -516.4271
  10   2.0000     -10.106275      -275.0057
  11   2.0000     -10.099435      -274.8196
  12   2.0000     -10.098399      -274.7914
  13   2.0000     -10.094303      -274.6800
  14   2.0000     -10.084073      -274.4016
  15   2.0000     -10.031322      -272.9661
  16   2.0000     -10.028999      -272.9029
  17   2.0000     -10.025470      -272.8069
  18   2.0000     -10.020145      -272.6620
  19   2.0000      -7.871535      -214.1954
  20   2.0000      -7.867633      -214.0892
  21   2.0000      -7.809479      -212.5067
  22   2.0000      -7.805513      -212.3988
  23   2.0000      -6.589639      -179.3132
  24   2.0000      -6.586666      -179.2323
  25   2.0000      -5.818400      -158.3267
  26   2.0000      -5.815119      -158.2374
  27   2.0000      -5.814425      -158.2186
  28   2.0000      -5.811505      -158.1391
  29   2.0000      -5.808927      -158.0689
  30   2.0000      -5.804712      -157.9542
  31   2.0000      -5.757119      -156.6592
  32   2.0000      -5.753305      -156.5554
  33   2.0000      -5.749997      -156.4654
  34   2.0000      -5.749276      -156.4458
  35   2.0000      -5.745686      -156.3481
  36   2.0000      -5.745461      -156.3419
  37   2.0000      -4.735369      -128.8560
  38   2.0000      -4.734820      -128.8410
  39   2.0000      -4.732943      -128.7899
  40   2.0000      -4.731962      -128.7632
  41   2.0000      -4.731481      -128.7501
  42   2.0000      -4.730703      -128.7290
  43   2.0000      -1.048357       -28.5273
  44   2.0000      -1.042376       -28.3645
  45   2.0000      -1.009055       -27.4578
  46   2.0000      -1.002037       -27.2668
  47   2.0000      -0.799206       -21.7475
  48   2.0000      -0.756349       -20.5813
  49   2.0000      -0.745895       -20.2968
  50   2.0000      -0.734859       -19.9965
  51   2.0000      -0.725320       -19.7370
  52   2.0000      -0.708857       -19.2890
  53   2.0000      -0.682731       -18.5781
  54   2.0000      -0.662077       -18.0160
  55   2.0000      -0.628869       -17.1124
  56   2.0000      -0.622036       -16.9265
  57   2.0000      -0.602663       -16.3993
  58   2.0000      -0.598901       -16.2969
  59   2.0000      -0.593088       -16.1387
  60   2.0000      -0.525493       -14.2994
  61   2.0000      -0.510697       -13.8968
  62   2.0000      -0.494265       -13.4496
  63   2.0000      -0.484250       -13.1771
  64   2.0000      -0.466046       -12.6817
  65   2.0000      -0.464779       -12.6473
  66   2.0000      -0.454788       -12.3754
  67   2.0000      -0.452133       -12.3032
  68   2.0000      -0.447590       -12.1795
  69   2.0000      -0.431164       -11.7326
  70   2.0000      -0.423261       -11.5175
  71   2.0000      -0.415858       -11.3161
  72   2.0000      -0.401857       -10.9351
  73   2.0000      -0.401529       -10.9262
  74   2.0000      -0.393463       -10.7067
  75   2.0000      -0.391864       -10.6631
  76   2.0000      -0.380438       -10.3522
  77   2.0000      -0.372872       -10.1464
  78   2.0000      -0.365830        -9.9547
  79   2.0000      -0.364672        -9.9232
  80   2.0000      -0.361978        -9.8499
  81   2.0000      -0.357100        -9.7172
  82   2.0000      -0.350355        -9.5336
  83   2.0000      -0.346687        -9.4338
  84   2.0000      -0.346362        -9.4250
  85   2.0000      -0.326654        -8.8887
  86   2.0000      -0.320599        -8.7239
  87   2.0000      -0.309532        -8.4228
  88   2.0000      -0.307356        -8.3636
  89   2.0000      -0.304597        -8.2885
  90   2.0000      -0.289808        -7.8861
  91   2.0000      -0.286658        -7.8004
  92   2.0000      -0.278223        -7.5708
  93   2.0000      -0.275958        -7.5092
  94   2.0000      -0.271438        -7.3862
  95   2.0000      -0.249849        -6.7987
  96   2.0000      -0.231202        -6.2913
  97   2.0000      -0.225677        -6.1410
  98   2.0000      -0.214626        -5.8403
  99   2.0000      -0.204901        -5.5756
 100   2.0000      -0.197069        -5.3625
 101   0.0000      -0.042582        -1.1587
 102   0.0000      -0.031294        -0.8515
 103   0.0000      -0.007683        -0.2091
 104   0.0000       0.018009         0.4900
 105   0.0000       0.022177         0.6035

MULLIKEN ATOMIC CHARGES
-----------------------
   0 C :   -0.446850
   1 C :   -0.156897
   2 O :   -0.298009
   3 P :    0.654587
   4 S :   -0.460022
   5 O :   -0.265652
   6 C :   -0.156340
   7 C :   -0.448792
   8 S :   -0.137764
   9 C :   -0.219839
  10 S :   -0.165023
  11 P :    0.651318
  12 S :   -0.430180
  13 O :   -0.258609
  14 C :   -0.133670
  15 C :   -0.441576
  16 O :   -0.281096
  17 C :   -0.136498
  18 C :   -0.457054
  19 H :    0.153865
  20 H :    0.174017
  21 H :    0.146530
  22 H :    0.173080
  23 H :    0.146957
  24 H :    0.182125
  25 H :    0.156202
  26 H :    0.164464
  27 H :    0.145887
  28 H :    0.154484
  29 H :    0.195503
  30 H :    0.220192
  31 H :    0.168030
  32 H :    0.153127
  33 H :    0.159782
  34 H :    0.149240
  35 H :    0.161029
  36 H :    0.168322
  37 H :    0.147907
  38 H :    0.170126
  39 H :    0.146109
  40 H :    0.150989
Sum of atomic charges:    0.0000000

LOEWDIN ATOMIC CHARGES
----------------------
   0 C :   -0.408311
   1 C :    0.017607
   2 O :   -0.668045
   3 P :    0.372515
   4 S :   -0.123974
   5 O :   -0.670006
   6 C :    0.012085
   7 C :   -0.400791
   8 S :    0.164626
   9 C :   -0.412361
  10 S :    0.127466
  11 P :    0.377133
  12 S :   -0.077891
  13 O :   -0.646127
  14 C :    0.021888
  15 C :   -0.400688
  16 O :   -0.672479
  17 C :    0.018090
  18 C :   -0.390043
  19 H :    0.159916
  20 H :    0.164222
  21 H :    0.158156
  22 H :    0.179792
  23 H :    0.178654
  24 H :    0.184503
  25 H :    0.183267
  26 H :    0.163586
  27 H :    0.158521
  28 H :    0.160237
  29 H :    0.179662
  30 H :    0.203096
  31 H :    0.178747
  32 H :    0.183419
  33 H :    0.162975
  34 H :    0.159647
  35 H :    0.163956
  36 H :    0.182015
  37 H :    0.172256
  38 H :    0.165528
  39 H :    0.159170
  40 H :    0.157980

  Mayer bond orders larger than 0.100000
B(  0-C ,  1-C ) :   0.9208 B(  0-C , 19-H ) :   0.9677 B(  0-C , 20-H ) :   0.9658
B(  0-C , 21-H ) :   0.9595 B(  1-C ,  2-O ) :   0.8226 B(  1-C , 22-H ) :   0.9672
B(  1-C , 23-H ) :   0.9590 B(  2-O ,  3-P ) :   1.0533 B(  3-P ,  4-S ) :   1.7613
B(  3-P ,  5-O ) :   1.1684 B(  3-P ,  8-S ) :   1.1187 B(  5-O ,  6-C ) :   0.8061
B(  6-C ,  7-C ) :   0.9079 B(  6-C , 24-H ) :   0.9635 B(  6-C , 25-H ) :   0.9632
B(  7-C , 26-H ) :   0.9631 B(  7-C , 27-H ) :   0.9613 B(  7-C , 28-H ) :   0.9733
B(  8-S ,  9-C ) :   0.8880 B(  9-C , 10-S ) :   0.9125 B(  9-C , 29-H ) :   0.9124
B(  9-C , 30-H ) :   0.9057 B( 10-S , 11-P ) :   1.0072 B( 11-P , 12-S ) :   1.8213
B( 11-P , 13-O ) :   1.1683 B( 11-P , 16-O ) :   1.0411 B( 13-O , 14-C ) :   0.8033
B( 14-C , 15-C ) :   0.9182 B( 14-C , 31-H ) :   0.9614 B( 14-C , 32-H ) :   0.9590
B( 15-C , 33-H ) :   0.9623 B( 15-C , 34-H ) :   0.9575 B( 15-C , 35-H ) :   0.9701
B( 16-O , 17-C ) :   0.7456 B( 17-C , 18-C ) :   0.9625 B( 17-C , 36-H ) :   0.9555
B( 17-C , 37-H ) :   0.9541 B( 18-C , 38-H ) :   0.9690 B( 18-C , 39-H ) :   0.9663
B( 18-C , 40-H ) :   0.9744

Dispersion correction           -0.022182066
FINAL SINGLE POINT ENERGY     -2932.458127989178

DIPOLE MOMENT
-------------

Method             : SCF
Type of density    : Electron Density
Multiplicity       :   1
Irrep              :   0
Energy             : -2932.4824612736429117 Eh
Relativity type    :
Basis              : AO
                                X                 Y                 Z
Electronic contribution:      1.733956979      -2.659889185      -8.681915775
Nuclear contribution   :     -1.978814222       1.767090350       9.678032018
                        -----------------------------------------
Total Dipole Moment    :     -0.244857243      -0.892798835       0.996116242
                        -----------------------------------------
Magnitude (a.u.)       :      1.359886906
Magnitude (Debye)      :      3.456557818

Rotational constants in cm-1:             0.013164             0.005181             0.004852
Rotational constants in MHz :           394.653001           155.329430           145.452623

                             ****ORCA TERMINATED NORMALLY****
TOTAL RUN TIME: 0 days 0 hours 1 minutes 20 seconds 435 msec
