                         Program Version 6.0.0  -   RELEASE  -
|  1> ! r2scan-3c def2/J RI DEFGRID2 scfconv6 printgap
|  2> %output
|  3>     printlevel normal
|  4> end
|  5> %cpcm
|  6>     smd true
|  7>     smdsolvent "water"
|  8> end
|  9> * xyz 0 1
| 10> C 4.6739113849 -1.4985596959 -0.7906449291
| 11> C 4.6870807627 -0.0803768558 -0.2574766347
| 12> O 3.5049643792 0.2286441971 0.5002561499
| 13> P 2.0662241746 0.3554035856 -0.1668014099
| 14> S 2.0702708808 1.1743024812 -1.9514941848
| 15> O 1.2615240365 1.084322278 0.9870594427
| 16> C 1.1978905429 2.5179192199 1.1046480113
| 17> C 2.5441369747 3.1256798 1.4342788001
| 18> S 1.298269445 -1.5930101082 0.0195862904
| 19> C 0.0980837914 -1.6329288962 -1.3585381933
| 20> S -1.5818572279 -1.9853078663 -0.8003203337
| 21> P -1.9930677091 -0.1149369211 0.1236356232
| 22> S -1.406695049 1.4505436446 -0.8983577273
| 23> O -1.3878795784 -0.1333880494 1.5739029395
| 24> C -1.3371787684 -1.2605256135 2.487081202
| 25> C -2.6910288782 -1.8893521346 2.7296572183
| 26> O -3.5567642978 -0.1820361402 0.3831697977
| 27> C -4.5115445625 0.0088275859 -0.6805896277
| 28> C -5.4570348904 1.1319576923 -0.3026466295
| 29> H 4.4759155927 -2.2033492839 0.0129287555
| 30> H 3.8997944225 -1.6024909353 -1.5497335232
| 31> H 5.6369390485 -1.7211631548 -1.2387452191
| 32> H 4.765854725 0.6368659518 -1.0808732132
| 33> H 5.4999956046 0.0760414931 0.4528194862
| 34> H 0.8020104759 2.9236621055 0.1672130387
| 35> H 0.4686473124 2.6781202065 1.9006786338
| 36> H 3.2246831777 2.9979229204 0.5933107923
| 37> H 2.4183716866 4.1864316457 1.6277448367
| 38> H 2.9690742219 2.6423728135 2.3101910973
| 39> H 0.3740642745 -2.447638333 -2.0225864365
| 40> H 0.1269718859 -0.6706411839 -1.8774247432
| 41> H -0.6301223829 -1.9917735399 2.0846629313
| 42> H -0.9264703715 -0.818096633 3.395884591
| 43> H -3.0566876939 -2.3645343605 1.8218333317
| 44> H -2.5929087491 -2.6413969428 3.5065855191
| 45> H -3.4064033842 -1.1349673165 3.046145651
| 46> H -3.9792520853 0.2456841849 -1.6069052068
| 47> H -5.0395861393 -0.9396429486 -0.7960264765
| 48> H -4.9049279027 2.0639302944 -0.2049379271
| 49> H -6.2086208564 1.2431073718 -1.0773500105
| 50> H -5.9423562035 0.9089535955 0.6429199719
| 51> *
| 52>
| 53>                          ****END OF INPUT****

CARTESIAN COORDINATES (ANGSTROEM)
---------------------------------
  C      4.673911   -1.498560   -0.790645
  C      4.687081   -0.080377   -0.257477
  O      3.504964    0.228644    0.500256
  P      2.066224    0.355404   -0.166801
  S      2.070271    1.174302   -1.951494
  O      1.261524    1.084322    0.987059
  C      1.197891    2.517919    1.104648
  C      2.544137    3.125680    1.434279
  S      1.298269   -1.593010    0.019586
  C      0.098084   -1.632929   -1.358538
  S     -1.581857   -1.985308   -0.800320
  P     -1.993068   -0.114937    0.123636
  S     -1.406695    1.450544   -0.898358
  O     -1.387880   -0.133388    1.573903
  C     -1.337179   -1.260526    2.487081
  C     -2.691029   -1.889352    2.729657
  O     -3.556764   -0.182036    0.383170
  C     -4.511545    0.008828   -0.680590
  C     -5.457035    1.131958   -0.302647
  H      4.475916   -2.203349    0.012929
  H      3.899794   -1.602491   -1.549734
  H      5.636939   -1.721163   -1.238745
  H      4.765855    0.636866   -1.080873
  H      5.499996    0.076041    0.452819
  H      0.802010    2.923662    0.167213
  H      0.468647    2.678120    1.900679
  H      3.224683    2.997923    0.593311
  H      2.418372    4.186432    1.627745
  H      2.969074    2.642373    2.310191
  H      0.374064   -2.447638   -2.022586
  H      0.126972   -0.670641   -1.877425
  H     -0.630122   -1.991774    2.084663
  H     -0.926470   -0.818097    3.395885
  H     -3.056688   -2.364534    1.821833
  H     -2.592909   -2.641397    3.506586
  H     -3.406403   -1.134967    3.046146
  H     -3.979252    0.245684   -1.606905
  H     -5.039586   -0.939643   -0.796026
  H     -4.904928    2.063930   -0.204938
  H     -6.208621    1.243107   -1.077350
  H     -5.942356    0.908954    0.642920

 Total Charge           Charge          ....    0
 Multiplicity           Mult            ....    1
 Number of Electrons    NEL             ....  202
 Basis Dimension        Dim             ....  539

ORBITAL ENERGIES
----------------

  NO   OCC          E(Eh)            E(eV)
   0   2.0000     -88.580625     -2410.4013
   1   2.0000     -88.577364     -2410.3126
   2   2.0000     -88.525642     -2408.9052
   3   2.0000     -88.521271     -2408.7863
   4   2.0000     -76.918469     -2093.0580
   5   2.0000     -76.917083     -2093.0202
   6   2.0000     -18.995211      -516.8860
   7   2.0000     -18.993389      -516.8364
   8   2.0000     -18.992366      -516.8086
   9   2.0000     -18.988494      -516.7032
  10   2.0000     -10.105647      -274.9886
  11   2.0000     -10.092149      -274.6213
  12   2.0000     -10.090139      -274.5666
  13   2.0000     -10.088024      -274.5091
  14   2.0000     -10.085758      -274.4474
  15   2.0000     -10.019960      -272.6570
  16   2.0000     -10.018736      -272.6237
  17   2.0000     -10.017335      -272.5855
  18   2.0000     -10.017301      -272.5846
  19   2.0000      -7.874955      -214.2884
  20   2.0000      -7.872098      -214.2107
  21   2.0000      -7.820620      -212.8099
  22   2.0000      -7.816538      -212.6988
  23   2.0000      -6.596783      -179.5076
  24   2.0000      -6.595576      -179.4747
  25   2.0000      -5.821837      -158.4202
  26   2.0000      -5.818912      -158.3406
  27   2.0000      -5.818552      -158.3309
  28   2.0000      -5.815980      -158.2609
  29   2.0000      -5.812331      -158.1616
  30   2.0000      -5.809160      -158.0753
  31   2.0000      -5.768193      -156.9605
  32   2.0000      -5.764225      -156.8525
  33   2.0000      -5.761126      -156.7682
  34   2.0000      -5.760434      -156.7494
  35   2.0000      -5.756787      -156.6501
  36   2.0000      -5.756450      -156.6410
  37   2.0000      -4.742489      -129.0497
  38   2.0000      -4.741906      -129.0338
  39   2.0000      -4.740851      -129.0051
  40   2.0000      -4.740387      -128.9925
  41   2.0000      -4.740203      -128.9875
  42   2.0000      -4.739662      -128.9727
  43   2.0000      -1.052649       -28.6440
  44   2.0000      -1.049677       -28.5632
  45   2.0000      -1.012790       -27.5594
  46   2.0000      -1.009393       -27.4670
  47   2.0000      -0.801511       -21.8102
  48   2.0000      -0.755750       -20.5650
  49   2.0000      -0.744344       -20.2546
  50   2.0000      -0.727214       -19.7885
  51   2.0000      -0.722165       -19.6511
  52   2.0000      -0.710292       -19.3280
  53   2.0000      -0.688151       -18.7256
  54   2.0000      -0.669469       -18.2172
  55   2.0000      -0.631513       -17.1843
  56   2.0000      -0.621060       -16.8999
  57   2.0000      -0.597863       -16.2687
  58   2.0000      -0.597296       -16.2532
  59   2.0000      -0.593122       -16.1397
  60   2.0000      -0.524061       -14.2604
  61   2.0000      -0.511869       -13.9287
  62   2.0000      -0.492393       -13.3987
  63   2.0000      -0.486666       -13.2429
  64   2.0000      -0.468616       -12.7517
  65   2.0000      -0.465314       -12.6618
  66   2.0000      -0.452521       -12.3137
  67   2.0000      -0.451491       -12.2857
  68   2.0000      -0.444164       -12.0863
  69   2.0000      -0.432337       -11.7645
  70   2.0000      -0.420889       -11.4530
  71   2.0000      -0.413390       -11.2489
  72   2.0000      -0.403660       -10.9841
  73   2.0000      -0.402091       -10.9415
  74   2.0000      -0.396006       -10.7759
  75   2.0000      -0.388651       -10.5757
  76   2.0000      -0.378364       -10.2958
  77   2.0000      -0.369897       -10.0654
  78   2.0000      -0.363607        -9.8942
  79   2.0000      -0.359364        -9.7788
  80   2.0000      -0.353878        -9.6295
  81   2.0000      -0.353571        -9.6212
  82   2.0000      -0.349652        -9.5145
  83   2.0000      -0.345831        -9.4105
  84   2.0000      -0.342266        -9.3135
  85   2.0000      -0.324015        -8.8169
  86   2.0000      -0.322437        -8.7739
  87   2.0000      -0.307252        -8.3608
  88   2.0000      -0.306599        -8.3430
  89   2.0000      -0.303521        -8.2592
  90   2.0000      -0.294750        -8.0205
  91   2.0000      -0.288815        -7.8591
  92   2.0000      -0.283476        -7.7138
  93   2.0000      -0.278211        -7.5705
  94   2.0000      -0.274510        -7.4698
  95   2.0000      -0.253817        -6.9067
  96   2.0000      -0.238331        -6.4853
  97   2.0000      -0.237202        -6.4546
  98   2.0000      -0.225192        -6.1278
  99   2.0000      -0.214588        -5.8392
 100   2.0000      -0.208669        -5.6782
 101   0.0000      -0.047245        -1.2856
 102   0.0000      -0.037683        -1.0254
 103   0.0000      -0.011936        -0.3248
 104   0.0000       0.011348         0.3088
 105   0.0000       0.016886         0.4595

MULLIKEN ATOMIC CHARGES
-----------------------
   0 C :   -0.480751
   1 C :   -0.157442
   2 O :   -0.325092
   3 P :    0.694510
   4 S :   -0.516587
   5 O :   -0.295914
   6 C :   -0.155268
   7 C :   -0.492322
   8 S :   -0.134194
   9 C :   -0.218709
  10 S :   -0.162989
  11 P :    0.662050
  12 S :   -0.482180
  13 O :   -0.295283
  14 C :   -0.126553
  15 C :   -0.481676
  16 O :   -0.300205
  17 C :   -0.129314
  18 C :   -0.495102
  19 H :    0.166364
  20 H :    0.172230
  21 H :    0.171327
  22 H :    0.177286
  23 H :    0.173847
  24 H :    0.181331
  25 H :    0.177279
  26 H :    0.168351
  27 H :    0.170781
  28 H :    0.169134
  29 H :    0.237482
  30 H :    0.212737
  31 H :    0.174882
  32 H :    0.178645
  33 H :    0.165566
  34 H :    0.175599
  35 H :    0.171239
  36 H :    0.169071
  37 H :    0.176074
  38 H :    0.166167
  39 H :    0.170349
  40 H :    0.167280
Sum of atomic charges:    0.0000000

LOEWDIN ATOMIC CHARGES
----------------------
   0 C :   -0.410720
   1 C :    0.023226
   2 O :   -0.679957
   3 P :    0.377582
   4 S :   -0.158396
   5 O :   -0.689809
   6 C :    0.012531
   7 C :   -0.402976
   8 S :    0.170163
   9 C :   -0.406071
  10 S :    0.137252
  11 P :    0.378070
  12 S :   -0.116303
  13 O :   -0.668529
  14 C :    0.027148
  15 C :   -0.401608
  16 O :   -0.681857
  17 C :    0.023022
  18 C :   -0.394731
  19 H :    0.163199
  20 H :    0.161155
  21 H :    0.167271
  22 H :    0.181169
  23 H :    0.190045
  24 H :    0.183260
  25 H :    0.190427
  26 H :    0.162913
  27 H :    0.168001
  28 H :    0.164142
  29 H :    0.196516
  30 H :    0.199981
  31 H :    0.181766
  32 H :    0.193679
  33 H :    0.163076
  34 H :    0.170114
  35 H :    0.165921
  36 H :    0.182105
  37 H :    0.184048
  38 H :    0.161785
  39 H :    0.168394
  40 H :    0.162996

  Mayer bond orders larger than 0.100000
B(  0-C ,  1-C ) :   0.9096 B(  0-C , 19-H ) :   0.9652 B(  0-C , 20-H ) :   0.9658
B(  0-C , 21-H ) :   0.9542 B(  1-C ,  2-O ) :   0.8096 B(  1-C , 22-H ) :   0.9654
B(  1-C , 23-H ) :   0.9492 B(  2-O ,  3-P ) :   1.0631 B(  3-P ,  4-S ) :   1.7047
B(  3-P ,  5-O ) :   1.1655 B(  3-P ,  8-S ) :   1.1442 B(  5-O ,  6-C ) :   0.7907
B(  6-C ,  7-C ) :   0.9060 B(  6-C , 24-H ) :   0.9601 B(  6-C , 25-H ) :   0.9517
B(  7-C , 26-H ) :   0.9620 B(  7-C , 27-H ) :   0.9546 B(  7-C , 28-H ) :   0.9715
B(  8-S ,  9-C ) :   0.8824 B(  9-C , 10-S ) :   0.9050 B(  9-C , 29-H ) :   0.8963
B(  9-C , 30-H ) :   0.9101 B( 10-S , 11-P ) :   1.0300 B( 11-P , 12-S ) :   1.7962
B( 11-P , 13-O ) :   1.1658 B( 11-P , 16-O ) :   1.0489 B( 13-O , 14-C ) :   0.7918
B( 14-C , 15-C ) :   0.9126 B( 14-C , 31-H ) :   0.9535 B( 14-C , 32-H ) :   0.9469
B( 15-C , 33-H ) :   0.9599 B( 15-C , 34-H ) :   0.9506 B( 15-C , 35-H ) :   0.9694
B( 16-O , 17-C ) :   0.7330 B( 17-C , 18-C ) :   0.9544 B( 17-C , 36-H ) :   0.9524
B( 17-C , 37-H ) :   0.9441 B( 18-C , 38-H ) :   0.9702 B( 18-C , 39-H ) :   0.9607
B( 18-C , 40-H ) :   0.9707

Dispersion correction           -0.022182066
FINAL SINGLE POINT ENERGY     -2932.467472239016

DIPOLE MOMENT
-------------

Method             : SCF
Type of density    : Electron Density
Multiplicity       :   1
Irrep              :   0
Energy             : -2932.4918055234811618 Eh
Relativity type    :
Basis              : AO
                                X                 Y                 Z
Electronic contribution:      1.737936209      -3.276748993      -8.452174960
Nuclear contribution   :     -1.978814222       1.767090350       9.678032018
                        -----------------------------------------
Total Dipole Moment    :     -0.240878013      -1.509658643       1.225857058
                        -----------------------------------------
Magnitude (a.u.)       :      1.959545091
Magnitude (Debye)      :      4.980767792

Rotational constants in cm-1:             0.013164             0.005181             0.004852
Rotational constants in MHz :           394.653001           155.329430           145.452623

                             ****ORCA TERMINATED NORMALLY****
TOTAL RUN TIME: 0 days 0 hours 1 minutes 49 seconds 923 msec
