                         Program Version 6.0.0  -   RELEASE  -
|  1> ! pbe def2-sv(p) def2/J RI DEFGRID1 loosescf d4 GCP(DFT/SV(P)) printgap
|  2> %output
|  3>     printlevel normal
|  4> end
|  5> * xyz 0 1
|  6> C 2.1544051557 -1.2014086563 -0.1140927756
|  7> C 1.3895623898 0.0986951551 -0.0315577889
|  8> O 1.9521478249 1.1937458516 -0.1360015027
|  9> N 0.0710628975 0.0081026814 0.1601383163
| 10> C -0.7257826996 -1.1889371574 0.3218313725
| 11> C -2.1057023774 -0.8118481256 -0.2344847308
| 12> C -2.1466764684 0.7273092844 -0.2415982142
| 13> C -0.7805832631 1.1753020545 0.2863488282
| 14> H 3.212238799 -0.9709677394 -0.2029779808
| 15> H 1.8406654997 -1.7666912409 -0.9881985952
| 16> H 1.9859005534 -1.7981528158 0.777937613
| 17> H -0.2868646509 -2.0288641793 -0.2118831339
| 18> H -0.7904979611 -1.4408124746 1.3862996048
| 19> H -2.2201218302 -1.1965124143 -1.2461443036
| 20> H -2.8985895508 -1.2330901295 0.3785491045
| 21> H -2.3028843668 1.1004861714 -1.2518766734
| 22> H -2.9452810027 1.1128812896 0.3873921536
| 23> H -0.3402274545 2.0006548604 -0.2743160366
| 24> H -0.8370951442 1.4697539601 1.3401898503
| 25> *
| 26>
| 27>                          ****END OF INPUT****

CARTESIAN COORDINATES (ANGSTROEM)
---------------------------------
  C      2.154405   -1.201409   -0.114093
  C      1.389562    0.098695   -0.031558
  O      1.952148    1.193746   -0.136002
  N      0.071063    0.008103    0.160138
  C     -0.725783   -1.188937    0.321831
  C     -2.105702   -0.811848   -0.234485
  C     -2.146676    0.727309   -0.241598
  C     -0.780583    1.175302    0.286349
  H      3.212239   -0.970968   -0.202978
  H      1.840665   -1.766691   -0.988199
  H      1.985901   -1.798153    0.777938
  H     -0.286865   -2.028864   -0.211883
  H     -0.790498   -1.440812    1.386300
  H     -2.220122   -1.196512   -1.246144
  H     -2.898590   -1.233090    0.378549
  H     -2.302884    1.100486   -1.251877
  H     -2.945281    1.112881    0.387392
  H     -0.340227    2.000655   -0.274316
  H     -0.837095    1.469754    1.340190

 Total Charge           Charge          ....    0
 Multiplicity           Mult            ....    1
 Number of Electrons    NEL             ....   62
 Basis Dimension        Dim             ....  134

ORBITAL ENERGIES
----------------

  NO   OCC          E(Eh)            E(eV)
   0   2.0000     -18.697190      -508.7764
   1   2.0000     -14.016776      -381.4159
   2   2.0000      -9.970874      -271.3213
   3   2.0000      -9.931759      -270.2569
   4   2.0000      -9.917754      -269.8758
   5   2.0000      -9.901234      -269.4263
   6   2.0000      -9.897102      -269.3138
   7   2.0000      -9.884813      -268.9794
   8   2.0000      -0.921291       -25.0696
   9   2.0000      -0.853074       -23.2133
  10   2.0000      -0.721935       -19.6448
  11   2.0000      -0.678196       -18.4547
  12   2.0000      -0.650560       -17.7026
  13   2.0000      -0.583613       -15.8809
  14   2.0000      -0.534688       -14.5496
  15   2.0000      -0.498648       -13.5689
  16   2.0000      -0.459785       -12.5114
  17   2.0000      -0.427340       -11.6285
  18   2.0000      -0.407308       -11.0834
  19   2.0000      -0.400808       -10.9065
  20   2.0000      -0.379732       -10.3330
  21   2.0000      -0.373047       -10.1511
  22   2.0000      -0.359901        -9.7934
  23   2.0000      -0.345226        -9.3941
  24   2.0000      -0.321765        -8.7557
  25   2.0000      -0.320140        -8.7115
  26   2.0000      -0.314757        -8.5650
  27   2.0000      -0.302052        -8.2192
  28   2.0000      -0.290539        -7.9060
  29   2.0000      -0.198154        -5.3920
  30   2.0000      -0.183249        -4.9864
  31   0.0000      -0.000395        -0.0107
  32   0.0000       0.020801         0.5660
  33   0.0000       0.044872         1.2210
  34   0.0000       0.054912         1.4942
  35   0.0000       0.076113         2.0711

MULLIKEN ATOMIC CHARGES
-----------------------
   0 C :   -0.281449
   1 C :    0.044209
   2 O :   -0.249756
   3 N :   -0.247430
   4 C :   -0.035872
   5 C :   -0.170319
   6 C :   -0.177974
   7 C :   -0.022085
   8 H :    0.120408
   9 H :    0.122723
  10 H :    0.119045
  11 H :    0.104140
  12 H :    0.088998
  13 H :    0.095334
  14 H :    0.092626
  15 H :    0.098360
  16 H :    0.092270
  17 H :    0.116612
  18 H :    0.090162
Sum of atomic charges:    0.0000000

LOEWDIN ATOMIC CHARGES
----------------------
   0 C :   -0.363027
   1 C :    0.010200
   2 O :   -0.222225
   3 N :   -0.045875
   4 C :   -0.146052
   5 C :   -0.233237
   6 C :   -0.234866
   7 C :   -0.143848
   8 H :    0.138684
   9 H :    0.134927
  10 H :    0.132632
  11 H :    0.121631
  12 H :    0.110469
  13 H :    0.124685
  14 H :    0.123935
  15 H :    0.125764
  16 H :    0.123745
  17 H :    0.129817
  18 H :    0.112641

  Mayer bond orders larger than 0.100000
B(  0-C ,  1-C ) :   1.0790 B(  0-C ,  8-H ) :   0.9353 B(  0-C ,  9-H ) :   0.9251
B(  0-C , 10-H ) :   0.9289 B(  1-C ,  2-O ) :   2.0350 B(  1-C ,  3-N ) :   1.1908
B(  3-N ,  4-C ) :   1.0076 B(  3-N ,  7-C ) :   0.9866 B(  4-C ,  5-C ) :   1.1466
B(  4-C , 11-H ) :   0.9164 B(  4-C , 12-H ) :   0.9171 B(  5-C ,  6-C ) :   1.1749
B(  5-C , 13-H ) :   0.9201 B(  5-C , 14-H ) :   0.9208 B(  6-C ,  7-C ) :   1.1485
B(  6-C , 15-H ) :   0.9213 B(  6-C , 16-H ) :   0.9226 B(  7-C , 17-H ) :   0.9164
B(  7-C , 18-H ) :   0.9248

Dispersion correction           -0.016767608
FINAL SINGLE POINT ENERGY      -364.426755621517

DIPOLE MOMENT
-------------

Method             : SCF
Type of density    : Electron Density
Multiplicity       :   1
Irrep              :   0
Energy             :  -364.4945836209730032 Eh
Relativity type    :
Basis              : AO
                                X                 Y                 Z
Electronic contribution:      4.040397005       3.407823269       0.022044087
Nuclear contribution   :     -5.208228425      -4.439785302       0.087960349
                        -----------------------------------------
Total Dipole Moment    :     -1.167831420      -1.031962033       0.110004435
                        -----------------------------------------
Magnitude (a.u.)       :      1.562330579
Magnitude (Debye)      :      3.971128741

Rotational constants in cm-1:             0.133049             0.052281             0.039905
Rotational constants in MHz :          3988.704511          1567.348447          1196.325427

                             ****ORCA TERMINATED NORMALLY****
TOTAL RUN TIME: 0 days 0 hours 0 minutes 23 seconds 576 msec
