                         Program Version 6.0.0  -   RELEASE  -
|  1> ! pbe def2-sv(p) def2/J RI DEFGRID1 loosescf d4 GCP(DFT/SV(P)) printgap
|  2> %output
|  3>     printlevel normal
|  4> end
|  5> * xyz 0 1
|  6> C 3.9527664718 -1.1823535243 -2.7096207014
|  7> C 4.2587663476 -1.5629208999 -1.2754356171
|  8> O 3.0638418881 -1.701535486 -0.4872708326
|  9> P 2.1524204114 -0.4576450382 -0.0891670268
| 10> S 3.1711386953 1.1574842139 0.3708701312
| 11> O 1.2640544977 -1.1051547847 1.051859399
| 12> C 1.6824680268 -1.1418513441 2.4343207875
| 13> C 0.9393381097 -0.0906251284 3.2348777221
| 14> S 0.7211772878 -0.3316783514 -1.6276026501
| 15> C 0.1786287336 1.369479169 -1.300568022
| 16> S -0.4743561477 1.6049345998 0.3703496792
| 17> P -2.1916119484 0.3913185564 0.1831883429
| 18> S -3.0502259397 0.2974727289 -1.5810605178
| 19> O -3.0973254887 0.8732820446 1.4000891809
| 20> C -3.4844906803 2.2310165439 1.682786014
| 21> C -4.0758577655 2.9431022391 0.4839949294
| 22> O -1.7173669539 -1.0058790168 0.7605759548
| 23> C -2.2834582071 -2.273616522 0.3649032088
| 24> C -1.3663323432 -2.9992666318 -0.5996729643
| 25> H 4.8683346049 -1.2091494414 -3.2916885776
| 26> H 3.2306766283 -1.8729075907 -3.13807572
| 27> H 3.5394611128 -0.1753336874 -2.7477349685
| 28> H 4.8969101608 -0.8081486473 -0.8045203677
| 29> H 4.7314671879 -2.5437396301 -1.209640102
| 30> H 1.4401753924 -2.1495521984 2.7759159085
| 31> H 2.7636680535 -0.9849753388 2.4897125257
| 32> H 1.2252369043 0.9059303278 2.9040595373
| 33> H -0.1327576238 -0.2094829998 3.0953982783
| 34> H 1.1821778289 -0.2011558395 4.286775982
| 35> H -0.5970164068 1.5854283389 -2.0351230121
| 36> H 1.0223365982 2.0516224228 -1.394960371
| 37> H -4.2172065141 2.1255524227 2.4850091402
| 38> H -2.6039907944 2.7634743409 2.0532039853
| 39> H -4.9028741016 2.3702466932 0.0709662821
| 40> H -4.4331860823 3.9216320604 0.7883390472
| 41> H -3.3209432298 3.0669330394 -0.2911725423
| 42> H -2.3996973506 -2.8272669085 1.2980672282
| 43> H -3.2646948998 -2.1044049075 -0.0878378351
| 44> H -0.3593047055 -3.0487613173 -0.1924252999
| 45> H -1.7414499935 -4.0049928613 -0.7596444154
| 46> H -1.3310920309 -2.4760216836 -1.5529632692
| 47> *
| 48>
| 49>                          ****END OF INPUT****

CARTESIAN COORDINATES (ANGSTROEM)
---------------------------------
  C      3.952766   -1.182354   -2.709621
  C      4.258766   -1.562921   -1.275436
  O      3.063842   -1.701535   -0.487271
  P      2.152420   -0.457645   -0.089167
  S      3.171139    1.157484    0.370870
  O      1.264054   -1.105155    1.051859
  C      1.682468   -1.141851    2.434321
  C      0.939338   -0.090625    3.234878
  S      0.721177   -0.331678   -1.627603
  C      0.178629    1.369479   -1.300568
  S     -0.474356    1.604935    0.370350
  P     -2.191612    0.391319    0.183188
  S     -3.050226    0.297473   -1.581061
  O     -3.097325    0.873282    1.400089
  C     -3.484491    2.231017    1.682786
  C     -4.075858    2.943102    0.483995
  O     -1.717367   -1.005879    0.760576
  C     -2.283458   -2.273617    0.364903
  C     -1.366332   -2.999267   -0.599673
  H      4.868335   -1.209149   -3.291689
  H      3.230677   -1.872908   -3.138076
  H      3.539461   -0.175334   -2.747735
  H      4.896910   -0.808149   -0.804520
  H      4.731467   -2.543740   -1.209640
  H      1.440175   -2.149552    2.775916
  H      2.763668   -0.984975    2.489713
  H      1.225237    0.905930    2.904060
  H     -0.132758   -0.209483    3.095398
  H      1.182178   -0.201156    4.286776
  H     -0.597016    1.585428   -2.035123
  H      1.022337    2.051622   -1.394960
  H     -4.217207    2.125552    2.485009
  H     -2.603991    2.763474    2.053204
  H     -4.902874    2.370247    0.070966
  H     -4.433186    3.921632    0.788339
  H     -3.320943    3.066933   -0.291173
  H     -2.399697   -2.827267    1.298067
  H     -3.264695   -2.104405   -0.087838
  H     -0.359305   -3.048761   -0.192425
  H     -1.741450   -4.004993   -0.759644
  H     -1.331092   -2.476022   -1.552963

 Total Charge           Charge          ....    0
 Multiplicity           Mult            ....    1
 Number of Electrons    NEL             ....  202
 Basis Dimension        Dim             ....  334

ORBITAL ENERGIES
----------------

  NO   OCC          E(Eh)            E(eV)
   0   2.0000     -88.046283     -2395.8612
   1   2.0000     -88.044955     -2395.8250
   2   2.0000     -87.990283     -2394.3373
   3   2.0000     -87.986303     -2394.2290
   4   2.0000     -76.427159     -2079.6887
   5   2.0000     -76.426214     -2079.6630
   6   2.0000     -18.793527      -511.3979
   7   2.0000     -18.791010      -511.3294
   8   2.0000     -18.786622      -511.2100
   9   2.0000     -18.783437      -511.1233
  10   2.0000      -9.958011      -270.9713
  11   2.0000      -9.956598      -270.9328
  12   2.0000      -9.952011      -270.8080
  13   2.0000      -9.950464      -270.7659
  14   2.0000      -9.946462      -270.6570
  15   2.0000      -9.884356      -268.9670
  16   2.0000      -9.882535      -268.9174
  17   2.0000      -9.876399      -268.7505
  18   2.0000      -9.872529      -268.6452
  19   2.0000      -7.691036      -209.2837
  20   2.0000      -7.689888      -209.2525
  21   2.0000      -7.635185      -207.7640
  22   2.0000      -7.631262      -207.6572
  23   2.0000      -6.424653      -174.8237
  24   2.0000      -6.423366      -174.7887
  25   2.0000      -5.718855      -155.6180
  26   2.0000      -5.717796      -155.5892
  27   2.0000      -5.715510      -155.5269
  28   2.0000      -5.714503      -155.4995
  29   2.0000      -5.708081      -155.3248
  30   2.0000      -5.706653      -155.2859
  31   2.0000      -5.664012      -154.1256
  32   2.0000      -5.660131      -154.0200
  33   2.0000      -5.655947      -153.9061
  34   2.0000      -5.655344      -153.8897
  35   2.0000      -5.652089      -153.8012
  36   2.0000      -5.651286      -153.7793
  37   2.0000      -4.647099      -126.4540
  38   2.0000      -4.646367      -126.4341
  39   2.0000      -4.645802      -126.4187
  40   2.0000      -4.645302      -126.4051
  41   2.0000      -4.645297      -126.4050
  42   2.0000      -4.643859      -126.3658
  43   2.0000      -0.985615       -26.8199
  44   2.0000      -0.982411       -26.7327
  45   2.0000      -0.943329       -25.6693
  46   2.0000      -0.939729       -25.5713
  47   2.0000      -0.768187       -20.9034
  48   2.0000      -0.720926       -19.6174
  49   2.0000      -0.707486       -19.2517
  50   2.0000      -0.685479       -18.6528
  51   2.0000      -0.682159       -18.5625
  52   2.0000      -0.672798       -18.3078
  53   2.0000      -0.651447       -17.7268
  54   2.0000      -0.641276       -17.4500
  55   2.0000      -0.600585       -16.3427
  56   2.0000      -0.590040       -16.0558
  57   2.0000      -0.575338       -15.6557
  58   2.0000      -0.569933       -15.5087
  59   2.0000      -0.556669       -15.1477
  60   2.0000      -0.500443       -13.6178
  61   2.0000      -0.497356       -13.5338
  62   2.0000      -0.470100       -12.7921
  63   2.0000      -0.466064       -12.6823
  64   2.0000      -0.459954       -12.5160
  65   2.0000      -0.439266       -11.9530
  66   2.0000      -0.438683       -11.9372
  67   2.0000      -0.432842       -11.7782
  68   2.0000      -0.428532       -11.6609
  69   2.0000      -0.416941       -11.3455
  70   2.0000      -0.411538       -11.1985
  71   2.0000      -0.396060       -10.7773
  72   2.0000      -0.393893       -10.7184
  73   2.0000      -0.382791       -10.4163
  74   2.0000      -0.379795       -10.3347
  75   2.0000      -0.373086       -10.1522
  76   2.0000      -0.368212       -10.0196
  77   2.0000      -0.354442        -9.6449
  78   2.0000      -0.349533        -9.5113
  79   2.0000      -0.348036        -9.4706
  80   2.0000      -0.345277        -9.3955
  81   2.0000      -0.341153        -9.2832
  82   2.0000      -0.338395        -9.2082
  83   2.0000      -0.336367        -9.1530
  84   2.0000      -0.336027        -9.1438
  85   2.0000      -0.316541        -8.6135
  86   2.0000      -0.301788        -8.2121
  87   2.0000      -0.297173        -8.0865
  88   2.0000      -0.296323        -8.0633
  89   2.0000      -0.289565        -7.8795
  90   2.0000      -0.278969        -7.5911
  91   2.0000      -0.278178        -7.5696
  92   2.0000      -0.269854        -7.3431
  93   2.0000      -0.264662        -7.2018
  94   2.0000      -0.256985        -6.9929
  95   2.0000      -0.232009        -6.3133
  96   2.0000      -0.220121        -5.9898
  97   2.0000      -0.214506        -5.8370
  98   2.0000      -0.206958        -5.6316
  99   2.0000      -0.200678        -5.4607
 100   2.0000      -0.198672        -5.4061
 101   0.0000      -0.048060        -1.3078
 102   0.0000      -0.027254        -0.7416
 103   0.0000      -0.004573        -0.1244
 104   0.0000       0.000716         0.0195
 105   0.0000       0.004451         0.1211

MULLIKEN ATOMIC CHARGES
-----------------------
   0 C :   -0.313802
   1 C :   -0.005092
   2 O :   -0.374927
   3 P :    0.615036
   4 S :   -0.337886
   5 O :   -0.355717
   6 C :   -0.000989
   7 C :   -0.296277
   8 S :   -0.068560
   9 C :   -0.352016
  10 S :   -0.085196
  11 P :    0.621856
  12 S :   -0.335735
  13 O :   -0.376773
  14 C :   -0.008186
  15 C :   -0.310481
  16 O :   -0.358286
  17 C :   -0.003429
  18 C :   -0.294836
  19 H :    0.113266
  20 H :    0.118377
  21 H :    0.124116
  22 H :    0.111218
  23 H :    0.104981
  24 H :    0.103665
  25 H :    0.101309
  26 H :    0.126243
  27 H :    0.120777
  28 H :    0.103689
  29 H :    0.191209
  30 H :    0.189811
  31 H :    0.108424
  32 H :    0.111994
  33 H :    0.127177
  34 H :    0.110899
  35 H :    0.122544
  36 H :    0.099953
  37 H :    0.104867
  38 H :    0.118694
  39 H :    0.101450
  40 H :    0.126634
Sum of atomic charges:    0.0000000

LOEWDIN ATOMIC CHARGES
----------------------
   0 C :   -0.368702
   1 C :   -0.120467
   2 O :   -0.248107
   3 P :    0.569306
   4 S :   -0.329163
   5 O :   -0.234336
   6 C :   -0.110631
   7 C :   -0.363439
   8 S :    0.114331
   9 C :   -0.478549
  10 S :    0.102890
  11 P :    0.570861
  12 S :   -0.322769
  13 O :   -0.248997
  14 C :   -0.114338
  15 C :   -0.370038
  16 O :   -0.235849
  17 C :   -0.112694
  18 C :   -0.364760
  19 H :    0.131051
  20 H :    0.124792
  21 H :    0.120183
  22 H :    0.109861
  23 H :    0.118582
  24 H :    0.117226
  25 H :    0.107849
  26 H :    0.123115
  27 H :    0.123735
  28 H :    0.125756
  29 H :    0.131137
  30 H :    0.131987
  31 H :    0.121109
  32 H :    0.109020
  33 H :    0.129530
  34 H :    0.129696
  35 H :    0.119761
  36 H :    0.115643
  37 H :    0.107546
  38 H :    0.122477
  39 H :    0.125010
  40 H :    0.120388

  Mayer bond orders larger than 0.100000
B(  0-C ,  1-C ) :   1.1645 B(  0-C , 19-H ) :   0.9382 B(  0-C , 20-H ) :   0.9450
B(  0-C , 21-H ) :   0.9361 B(  1-C ,  2-O ) :   0.9109 B(  1-C , 22-H ) :   0.9149
B(  1-C , 23-H ) :   0.9338 B(  2-O ,  3-P ) :   1.1064 B(  3-P ,  4-S ) :   1.5818
B(  3-P ,  5-O ) :   1.1266 B(  3-P ,  8-S ) :   0.9647 B(  4-S ,  8-S ) :   0.1094
B(  5-O ,  6-C ) :   0.8955 B(  6-C ,  7-C ) :   1.1721 B(  6-C , 24-H ) :   0.9336
B(  6-C , 25-H ) :   0.9141 B(  7-C , 26-H ) :   0.9382 B(  7-C , 27-H ) :   0.9417
B(  7-C , 28-H ) :   0.9394 B(  8-S ,  9-C ) :   1.0026 B(  9-C , 10-S ) :   1.0125
B(  9-C , 29-H ) :   0.8818 B(  9-C , 30-H ) :   0.8890 B( 10-S , 11-P ) :   0.9505
B( 10-S , 12-S ) :   0.1078 B( 11-P , 12-S ) :   1.5904 B( 11-P , 13-O ) :   1.1100
B( 11-P , 16-O ) :   1.1297 B( 13-O , 14-C ) :   0.9166 B( 14-C , 15-C ) :   1.1651
B( 14-C , 31-H ) :   0.9342 B( 14-C , 32-H ) :   0.9281 B( 15-C , 33-H ) :   0.9419
B( 15-C , 34-H ) :   0.9349 B( 15-C , 35-H ) :   0.9343 B( 16-O , 17-C ) :   0.8987
B( 17-C , 18-C ) :   1.1719 B( 17-C , 36-H ) :   0.9336 B( 17-C , 37-H ) :   0.9114
B( 18-C , 38-H ) :   0.9417 B( 18-C , 39-H ) :   0.9382 B( 18-C , 40-H ) :   0.9377

Dispersion correction           -0.068301085
FINAL SINGLE POINT ENERGY     -2929.524636121735

DIPOLE MOMENT
-------------

Method             : SCF
Type of density    : Electron Density
Multiplicity       :   1
Irrep              :   0
Energy             : -2929.6412013856765952 Eh
Relativity type    :
Basis              : AO
                                X                 Y                 Z
Electronic contribution:      0.508092228       5.113436228      -3.885633290
Nuclear contribution   :     -0.361641484      -5.528162170       4.476271731
                        -----------------------------------------
Total Dipole Moment    :      0.146450744      -0.414725943       0.590638441
                        -----------------------------------------
Magnitude (a.u.)       :      0.736409666
Magnitude (Debye)      :      1.871804615

Rotational constants in cm-1:             0.012763             0.005366             0.005111
Rotational constants in MHz :           382.622863           160.879429           153.222368

                             ****ORCA TERMINATED NORMALLY****
TOTAL RUN TIME: 0 days 0 hours 0 minutes 22 seconds 84 msec
