                         Program Version 6.0.0  -   RELEASE  -
|  1> ! r2scan-3c def2/J RI DEFGRID2 scfconv6 printgap
|  2> %output
|  3>     printlevel normal
|  4> end
|  5> * xyz 0 1
|  6> C 2.8095477825 -4.3619e-06 0.0067068821
|  7> N 1.396215844 -3.8833e-06 -0.3071201421
|  8> C 0.7323752849 1.1832981427 0.2105444665
|  9> C -0.7323701848 1.1833560241 -0.2104971272
| 10> N -1.3962132127 2.93179e-05 0.3071040541
| 11> C -0.7323879909 -1.1833226607 -0.2104720523
| 12> C 0.7323761686 -1.1833204121 0.2105160257
| 13> C -2.8095455383 -2.02137e-05 -0.0067859103
| 14> H 3.2686096 -0.8854263639 -0.4291519871
| 15> H 3.0018961092 0.0001933876 1.0913967296
| 16> H 3.2686662756 0.8852230631 -0.4294899485
| 17> H 0.7885170959 1.2226874617 1.3133868069
| 18> H 1.2286504686 2.0669332187 -0.1963327647
| 19> H -1.2286111448 2.0669960359 0.1964451677
| 20> H -0.7885193647 1.2228318791 -1.3133420392
| 21> H -1.2286555018 -2.0669356217 0.1965086098
| 22> H -0.7885744471 -1.2228317614 -1.3133270517
| 23> H 0.7885961925 -1.2227738453 1.3133606255
| 24> H 1.2286179448 -2.0669558923 -0.1964279421
| 25> H -3.2686552995 0.8852073164 0.4292617703
| 26> H -3.2686507151 -0.885340918 0.4292340926
| 27> H -3.0018704188 -7.649e-07 -1.0914448883
| 28> *
| 29>
| 30>                          ****END OF INPUT****

CARTESIAN COORDINATES (ANGSTROEM)
---------------------------------
  C      2.809548   -0.000004    0.006707
  N      1.396216   -0.000004   -0.307120
  C      0.732375    1.183298    0.210544
  C     -0.732370    1.183356   -0.210497
  N     -1.396213    0.000029    0.307104
  C     -0.732388   -1.183323   -0.210472
  C      0.732376   -1.183320    0.210516
  C     -2.809546   -0.000020   -0.006786
  H      3.268610   -0.885426   -0.429152
  H      3.001896    0.000193    1.091397
  H      3.268666    0.885223   -0.429490
  H      0.788517    1.222687    1.313387
  H      1.228650    2.066933   -0.196333
  H     -1.228611    2.066996    0.196445
  H     -0.788519    1.222832   -1.313342
  H     -1.228656   -2.066936    0.196509
  H     -0.788574   -1.222832   -1.313327
  H      0.788596   -1.222774    1.313361
  H      1.228618   -2.066956   -0.196428
  H     -3.268655    0.885207    0.429262
  H     -3.268651   -0.885341    0.429234
  H     -3.001870   -0.000001   -1.091445

 Total Charge           Charge          ....    0
 Multiplicity           Mult            ....    1
 Number of Electrons    NEL             ....   64
 Basis Dimension        Dim             ....  232

ORBITAL ENERGIES
----------------

  NO   OCC          E(Eh)            E(eV)
   0   2.0000     -14.148433      -384.9984
   1   2.0000     -14.148431      -384.9984
   2   2.0000     -10.047356      -273.4025
   3   2.0000     -10.047354      -273.4024
   4   2.0000     -10.047220      -273.3988
   5   2.0000     -10.047218      -273.3987
   6   2.0000     -10.042695      -273.2756
   7   2.0000     -10.042684      -273.2753
   8   2.0000      -0.911755       -24.8101
   9   2.0000      -0.870828       -23.6964
  10   2.0000      -0.724336       -19.7102
  11   2.0000      -0.702788       -19.1238
  12   2.0000      -0.637784       -17.3550
  13   2.0000      -0.605564       -16.4782
  14   2.0000      -0.578288       -15.7360
  15   2.0000      -0.515619       -14.0307
  16   2.0000      -0.462790       -12.5931
  17   2.0000      -0.435668       -11.8551
  18   2.0000      -0.428789       -11.6679
  19   2.0000      -0.426713       -11.6114
  20   2.0000      -0.415947       -11.3185
  21   2.0000      -0.398004       -10.8302
  22   2.0000      -0.363371        -9.8878
  23   2.0000      -0.361594        -9.8395
  24   2.0000      -0.360784        -9.8174
  25   2.0000      -0.337338        -9.1794
  26   2.0000      -0.321012        -8.7352
  27   2.0000      -0.315415        -8.5829
  28   2.0000      -0.297971        -8.1082
  29   2.0000      -0.294237        -8.0066
  30   2.0000      -0.185437        -5.0460
  31   2.0000      -0.184906        -5.0316
  32   0.0000       0.079040         2.1508
  33   0.0000       0.091262         2.4834
  34   0.0000       0.111348         3.0299
  35   0.0000       0.121809         3.3146
  36   0.0000       0.127851         3.4790

MULLIKEN ATOMIC CHARGES
-----------------------
   0 C :   -0.349196
   1 N :   -0.149370
   2 C :   -0.246369
   3 C :   -0.246372
   4 N :   -0.149361
   5 C :   -0.246359
   6 C :   -0.246369
   7 C :   -0.349192
   8 H :    0.144421
   9 H :    0.133122
  10 H :    0.144436
  11 H :    0.147565
  12 H :    0.137099
  13 H :    0.137102
  14 H :    0.147555
  15 H :    0.137102
  16 H :    0.147551
  17 H :    0.147556
  18 H :    0.137100
  19 H :    0.144431
  20 H :    0.144423
  21 H :    0.133127
Sum of atomic charges:   -0.0000000

LOEWDIN ATOMIC CHARGES
----------------------
   0 C :   -0.144099
   1 N :   -0.991895
   2 C :   -0.028706
   3 C :   -0.028705
   4 N :   -0.991888
   5 C :   -0.028708
   6 C :   -0.028711
   7 C :   -0.144101
   8 H :    0.173468
   9 H :    0.153278
  10 H :    0.173467
  11 H :    0.167291
  12 H :    0.179311
  13 H :    0.179311
  14 H :    0.167288
  15 H :    0.179313
  16 H :    0.167287
  17 H :    0.167288
  18 H :    0.179310
  19 H :    0.173460
  20 H :    0.173465
  21 H :    0.153278

  Mayer bond orders larger than 0.100000
B(  0-C ,  1-N ) :   0.9469 B(  0-C ,  8-H ) :   0.9706 B(  0-C ,  9-H ) :   0.9509
B(  0-C , 10-H ) :   0.9706 B(  1-N ,  2-C ) :   1.0096 B(  1-N ,  6-C ) :   1.0096
B(  2-C ,  3-C ) :   0.9624 B(  2-C , 11-H ) :   0.9574 B(  2-C , 12-H ) :   0.9513
B(  3-C ,  4-N ) :   1.0096 B(  3-C , 13-H ) :   0.9513 B(  3-C , 14-H ) :   0.9574
B(  4-N ,  5-C ) :   1.0096 B(  4-N ,  7-C ) :   0.9469 B(  5-C ,  6-C ) :   0.9624
B(  5-C , 15-H ) :   0.9513 B(  5-C , 16-H ) :   0.9574 B(  6-C , 17-H ) :   0.9574
B(  6-C , 18-H ) :   0.9513 B(  7-C , 19-H ) :   0.9706 B(  7-C , 20-H ) :   0.9706
B(  7-C , 21-H ) :   0.9509

Dispersion correction           -0.006688259
FINAL SINGLE POINT ENERGY      -346.429761261029

DIPOLE MOMENT
-------------

Method             : SCF
Type of density    : Electron Density
Multiplicity       :   1
Irrep              :   0
Energy             :  -346.4459485711190609 Eh
Relativity type    :
Basis              : AO
                                X                 Y                 Z
Electronic contribution:     -0.000041359       0.000177807      -0.000066427
Nuclear contribution   :      0.000015771      -0.000180744       0.000072320
                        -----------------------------------------
Total Dipole Moment    :     -0.000025588      -0.000002937       0.000005893
                        -----------------------------------------
Magnitude (a.u.)       :      0.000026421
Magnitude (Debye)      :      0.000067158

Rotational constants in cm-1:             0.155062             0.047504             0.038885
Rotational constants in MHz :          4648.632269          1424.145156          1165.740546

                             ****ORCA TERMINATED NORMALLY****
TOTAL RUN TIME: 0 days 0 hours 0 minutes 37 seconds 388 msec
