                         Program Version 6.0.0  -   RELEASE  -
|  1> ! r2scan-3c def2/J RI DEFGRID2 scfconv6 printgap
|  2> %output
|  3>     printlevel normal
|  4> end
|  5> %cpcm
|  6>     smd true
|  7>     smdsolvent "water"
|  8> end
|  9> * xyz 0 1
| 10> C 2.8095477825 -4.3619e-06 0.0067068821
| 11> N 1.396215844 -3.8833e-06 -0.3071201421
| 12> C 0.7323752849 1.1832981427 0.2105444665
| 13> C -0.7323701848 1.1833560241 -0.2104971272
| 14> N -1.3962132127 2.93179e-05 0.3071040541
| 15> C -0.7323879909 -1.1833226607 -0.2104720523
| 16> C 0.7323761686 -1.1833204121 0.2105160257
| 17> C -2.8095455383 -2.02137e-05 -0.0067859103
| 18> H 3.2686096 -0.8854263639 -0.4291519871
| 19> H 3.0018961092 0.0001933876 1.0913967296
| 20> H 3.2686662756 0.8852230631 -0.4294899485
| 21> H 0.7885170959 1.2226874617 1.3133868069
| 22> H 1.2286504686 2.0669332187 -0.1963327647
| 23> H -1.2286111448 2.0669960359 0.1964451677
| 24> H -0.7885193647 1.2228318791 -1.3133420392
| 25> H -1.2286555018 -2.0669356217 0.1965086098
| 26> H -0.7885744471 -1.2228317614 -1.3133270517
| 27> H 0.7885961925 -1.2227738453 1.3133606255
| 28> H 1.2286179448 -2.0669558923 -0.1964279421
| 29> H -3.2686552995 0.8852073164 0.4292617703
| 30> H -3.2686507151 -0.885340918 0.4292340926
| 31> H -3.0018704188 -7.649e-07 -1.0914448883
| 32> *
| 33>
| 34>                          ****END OF INPUT****

CARTESIAN COORDINATES (ANGSTROEM)
---------------------------------
  C      2.809548   -0.000004    0.006707
  N      1.396216   -0.000004   -0.307120
  C      0.732375    1.183298    0.210544
  C     -0.732370    1.183356   -0.210497
  N     -1.396213    0.000029    0.307104
  C     -0.732388   -1.183323   -0.210472
  C      0.732376   -1.183320    0.210516
  C     -2.809546   -0.000020   -0.006786
  H      3.268610   -0.885426   -0.429152
  H      3.001896    0.000193    1.091397
  H      3.268666    0.885223   -0.429490
  H      0.788517    1.222687    1.313387
  H      1.228650    2.066933   -0.196333
  H     -1.228611    2.066996    0.196445
  H     -0.788519    1.222832   -1.313342
  H     -1.228656   -2.066936    0.196509
  H     -0.788574   -1.222832   -1.313327
  H      0.788596   -1.222774    1.313361
  H      1.228618   -2.066956   -0.196428
  H     -3.268655    0.885207    0.429262
  H     -3.268651   -0.885341    0.429234
  H     -3.001870   -0.000001   -1.091445

 Total Charge           Charge          ....    0
 Multiplicity           Mult            ....    1
 Number of Electrons    NEL             ....   64
 Basis Dimension        Dim             ....  232

ORBITAL ENERGIES
----------------

  NO   OCC          E(Eh)            E(eV)
   0   2.0000     -14.147361      -384.9693
   1   2.0000     -14.147359      -384.9692
   2   2.0000     -10.042210      -273.2624
   3   2.0000     -10.042207      -273.2623
   4   2.0000     -10.042073      -273.2587
   5   2.0000     -10.042072      -273.2587
   6   2.0000     -10.035371      -273.0763
   7   2.0000     -10.035360      -273.0760
   8   2.0000      -0.909155       -24.7394
   9   2.0000      -0.868123       -23.6228
  10   2.0000      -0.719989       -19.5919
  11   2.0000      -0.698086       -18.9959
  12   2.0000      -0.632165       -17.2021
  13   2.0000      -0.601054       -16.3555
  14   2.0000      -0.572809       -15.5869
  15   2.0000      -0.512275       -13.9397
  16   2.0000      -0.457721       -12.4552
  17   2.0000      -0.430831       -11.7235
  18   2.0000      -0.423406       -11.5215
  19   2.0000      -0.423153       -11.5146
  20   2.0000      -0.412010       -11.2114
  21   2.0000      -0.394000       -10.7213
  22   2.0000      -0.356084        -9.6896
  23   2.0000      -0.355557        -9.6752
  24   2.0000      -0.354872        -9.6566
  25   2.0000      -0.332184        -9.0392
  26   2.0000      -0.314723        -8.5641
  27   2.0000      -0.310768        -8.4564
  28   2.0000      -0.292101        -7.9485
  29   2.0000      -0.289111        -7.8671
  30   2.0000      -0.187129        -5.0920
  31   2.0000      -0.185550        -5.0491
  32   0.0000       0.084577         2.3015
  33   0.0000       0.096921         2.6374
  34   0.0000       0.119250         3.2450
  35   0.0000       0.129011         3.5106
  36   0.0000       0.130846         3.5605

MULLIKEN ATOMIC CHARGES
-----------------------
   0 C :   -0.383071
   1 N :   -0.161796
   2 C :   -0.279255
   3 C :   -0.279299
   4 N :   -0.161791
   5 C :   -0.279245
   6 C :   -0.279293
   7 C :   -0.383062
   8 H :    0.161733
   9 H :    0.143465
  10 H :    0.161739
  11 H :    0.156884
  12 H :    0.161355
  13 H :    0.161359
  14 H :    0.156877
  15 H :    0.161359
  16 H :    0.156870
  17 H :    0.156879
  18 H :    0.161357
  19 H :    0.161734
  20 H :    0.161731
  21 H :    0.143471
Sum of atomic charges:   -0.0000000

LOEWDIN ATOMIC CHARGES
----------------------
   0 C :   -0.148977
   1 N :   -1.011399
   2 C :   -0.031668
   3 C :   -0.031666
   4 N :   -1.011392
   5 C :   -0.031670
   6 C :   -0.031673
   7 C :   -0.148976
   8 H :    0.178285
   9 H :    0.157796
  10 H :    0.178281
  11 H :    0.168253
  12 H :    0.186426
  13 H :    0.186427
  14 H :    0.168250
  15 H :    0.186428
  16 H :    0.168249
  17 H :    0.168250
  18 H :    0.186426
  19 H :    0.178274
  20 H :    0.178280
  21 H :    0.157795

  Mayer bond orders larger than 0.100000
B(  0-C ,  1-N ) :   0.9428 B(  0-C ,  8-H ) :   0.9659 B(  0-C ,  9-H ) :   0.9501
B(  0-C , 10-H ) :   0.9659 B(  1-N ,  2-C ) :   0.9983 B(  1-N ,  6-C ) :   0.9983
B(  2-C ,  3-C ) :   0.9365 B(  2-C , 11-H ) :   0.9638 B(  2-C , 12-H ) :   0.9523
B(  3-C ,  4-N ) :   0.9983 B(  3-C , 13-H ) :   0.9523 B(  3-C , 14-H ) :   0.9638
B(  4-N ,  5-C ) :   0.9983 B(  4-N ,  7-C ) :   0.9428 B(  5-C ,  6-C ) :   0.9365
B(  5-C , 15-H ) :   0.9523 B(  5-C , 16-H ) :   0.9638 B(  6-C , 17-H ) :   0.9638
B(  6-C , 18-H ) :   0.9523 B(  7-C , 19-H ) :   0.9659 B(  7-C , 20-H ) :   0.9659
B(  7-C , 21-H ) :   0.9501

Dispersion correction           -0.006688259
FINAL SINGLE POINT ENERGY      -346.441272216707

DIPOLE MOMENT
-------------

Method             : SCF
Type of density    : Electron Density
Multiplicity       :   1
Irrep              :   0
Energy             :  -346.4574595267973223 Eh
Relativity type    :
Basis              : AO
                                X                 Y                 Z
Electronic contribution:     -0.000041113       0.000170154      -0.000057825
Nuclear contribution   :      0.000015771      -0.000180744       0.000072320
                        -----------------------------------------
Total Dipole Moment    :     -0.000025342      -0.000010589       0.000014496
                        -----------------------------------------
Magnitude (a.u.)       :      0.000031056
Magnitude (Debye)      :      0.000078938

Rotational constants in cm-1:             0.155062             0.047504             0.038885
Rotational constants in MHz :          4648.632269          1424.145156          1165.740546

                             ****ORCA TERMINATED NORMALLY****
TOTAL RUN TIME: 0 days 0 hours 0 minutes 49 seconds 474 msec
