                         Program Version 6.0.1  -  RELEASE   -
|  1> ! r2scan-3c def2/J RI DEFGRID2 scfconv6 printgap
|  2> %output
|  3>     printlevel normal
|  4> end
|  5> * xyz 0 1
|  6> C 4.1786179048 -3.254955425 -2.5240148605
|  7> C 2.8439933754 -3.2712667414 -1.8052683154
|  8> O 2.7511823125 -2.0761519818 -1.0036721718
|  9> C 1.8267188769 -2.0256075303 -0.0711498538
| 10> O 1.0501414002 -2.9234643985 0.1737326488
| 11> C 1.8176338297 -0.6852384452 0.6373031741
| 12> C 1.2373970398 0.3752919874 -0.3006294765
| 13> H 1.9291244923 0.5450639918 -1.1328185922
| 14> C 1.0403822305 1.7020893643 0.4168496703
| 15> O 1.8379921305 2.1236807324 1.2183952007
| 16> O -0.0551904664 2.3260558301 0.0295070826
| 17> C -0.3369971565 3.6197303571 0.6012778984
| 18> C 0.3461552476 4.7188153305 -0.1937860057
| 19> S -0.2911138588 -0.1880681463 -1.1215959255
| 20> P -1.7255171077 0.0986097802 0.422995812
| 21> S -1.1412524151 0.3471365049 2.2772543841
| 22> O -2.6877000402 1.2551602183 -0.0556749607
| 23> C -3.3102670398 1.2533148806 -1.3568264153
| 24> O -2.6722125869 -1.1766521431 0.2084150061
| 25> C -2.2850410032 -2.4753102978 0.6693703747
| 26> H 4.9917770242 -3.2432431173 -1.8042940919
| 27> H 4.2623634604 -4.1418899304 -3.1429691617
| 28> H 4.2525177608 -2.3717790229 -3.150962647
| 29> H 2.7423902928 -4.138769736 -1.1461381647
| 30> H 2.0058825741 -3.2683282399 -2.508634693
| 31> H 2.8315390799 -0.3923569657 0.9095043454
| 32> H 1.209448551 -0.7678450653 1.5401059534
| 33> H -1.4236255183 3.7018920129 0.5607941337
| 34> H -0.0012338077 3.6133442382 1.6422043188
| 35> H 1.4263219211 4.615578799 -0.1218323799
| 36> H 0.0501250909 4.6661382616 -1.2377802453
| 37> H 0.0566263436 5.6816964927 0.2134224933
| 38> H -3.8398107407 2.2003298254 -1.4187901403
| 39> H -4.0015451667 0.4166669686 -1.4351555328
| 40> H -2.5475068513 1.1834339038 -2.1322730977
| 41> H -1.3435937517 -2.7867431891 0.213992223
| 42> H -3.091396073 -3.141415986 0.3751556278
| 43> H -2.1712939035 -2.4653037962 1.754044721
| 44> *
| 45>
| 46>                          ****END OF INPUT****

CARTESIAN COORDINATES (ANGSTROEM)
---------------------------------
  C      4.178618   -3.254955   -2.524015
  C      2.843993   -3.271267   -1.805268
  O      2.751182   -2.076152   -1.003672
  C      1.826719   -2.025608   -0.071150
  O      1.050141   -2.923464    0.173733
  C      1.817634   -0.685238    0.637303
  C      1.237397    0.375292   -0.300629
  H      1.929124    0.545064   -1.132819
  C      1.040382    1.702089    0.416850
  O      1.837992    2.123681    1.218395
  O     -0.055190    2.326056    0.029507
  C     -0.336997    3.619730    0.601278
  C      0.346155    4.718815   -0.193786
  S     -0.291114   -0.188068   -1.121596
  P     -1.725517    0.098610    0.422996
  S     -1.141252    0.347137    2.277254
  O     -2.687700    1.255160   -0.055675
  C     -3.310267    1.253315   -1.356826
  O     -2.672213   -1.176652    0.208415
  C     -2.285041   -2.475310    0.669370
  H      4.991777   -3.243243   -1.804294
  H      4.262363   -4.141890   -3.142969
  H      4.252518   -2.371779   -3.150963
  H      2.742390   -4.138770   -1.146138
  H      2.005883   -3.268328   -2.508635
  H      2.831539   -0.392357    0.909504
  H      1.209449   -0.767845    1.540106
  H     -1.423626    3.701892    0.560794
  H     -0.001234    3.613344    1.642204
  H      1.426322    4.615579   -0.121832
  H      0.050125    4.666138   -1.237780
  H      0.056626    5.681696    0.213422
  H     -3.839811    2.200330   -1.418790
  H     -4.001545    0.416667   -1.435156
  H     -2.547507    1.183434   -2.132273
  H     -1.343594   -2.786743    0.213992
  H     -3.091396   -3.141416    0.375156
  H     -2.171294   -2.465304    1.754045

 Total Charge           Charge          ....    0
 Multiplicity           Mult            ....    1
 Number of Electrons    NEL             ....  174
 Basis Dimension        Dim             ....  510

ORBITAL ENERGIES
----------------

  NO   OCC          E(Eh)            E(eV)
   0   2.0000     -88.573840     -2410.2167
   1   2.0000     -88.517848     -2408.6931
   2   2.0000     -76.913683     -2092.9277
   3   2.0000     -19.007169      -517.2114
   4   2.0000     -19.003419      -517.1093
   5   2.0000     -18.994250      -516.8598
   6   2.0000     -18.986068      -516.6372
   7   2.0000     -18.938349      -515.3387
   8   2.0000     -18.934172      -515.2250
   9   2.0000     -10.166317      -276.6396
  10   2.0000     -10.159713      -276.4598
  11   2.0000     -10.103463      -274.9292
  12   2.0000     -10.098726      -274.8003
  13   2.0000     -10.098662      -274.7986
  14   2.0000     -10.090884      -274.5869
  15   2.0000     -10.078091      -274.2388
  16   2.0000     -10.049970      -273.4736
  17   2.0000     -10.037653      -273.1384
  18   2.0000     -10.030612      -272.9468
  19   2.0000      -7.868521      -214.1134
  20   2.0000      -7.812581      -212.5911
  21   2.0000      -6.591813      -179.3724
  22   2.0000      -5.815553      -158.2492
  23   2.0000      -5.812352      -158.1621
  24   2.0000      -5.805416      -157.9734
  25   2.0000      -5.760548      -156.7525
  26   2.0000      -5.752806      -156.5418
  27   2.0000      -5.752332      -156.5289
  28   2.0000      -4.737508      -128.9141
  29   2.0000      -4.736866      -128.8967
  30   2.0000      -4.735344      -128.8553
  31   2.0000      -1.083492       -29.4833
  32   2.0000      -1.082391       -29.4534
  33   2.0000      -1.048581       -28.5333
  34   2.0000      -1.005528       -27.3618
  35   2.0000      -0.988909       -26.9096
  36   2.0000      -0.983454       -26.7611
  37   2.0000      -0.812700       -22.1147
  38   2.0000      -0.759867       -20.6770
  39   2.0000      -0.741981       -20.1903
  40   2.0000      -0.731400       -19.9024
  41   2.0000      -0.696211       -18.9449
  42   2.0000      -0.670793       -18.2532
  43   2.0000      -0.658888       -17.9293
  44   2.0000      -0.651014       -17.7150
  45   2.0000      -0.627577       -17.0772
  46   2.0000      -0.599360       -16.3094
  47   2.0000      -0.545132       -14.8338
  48   2.0000      -0.537686       -14.6312
  49   2.0000      -0.527261       -14.3475
  50   2.0000      -0.503579       -13.7031
  51   2.0000      -0.491765       -13.3816
  52   2.0000      -0.472823       -12.8662
  53   2.0000      -0.463873       -12.6226
  54   2.0000      -0.460665       -12.5353
  55   2.0000      -0.452675       -12.3179
  56   2.0000      -0.448375       -12.2009
  57   2.0000      -0.441643       -12.0177
  58   2.0000      -0.436029       -11.8650
  59   2.0000      -0.424789       -11.5591
  60   2.0000      -0.420883       -11.4528
  61   2.0000      -0.417964       -11.3734
  62   2.0000      -0.414418       -11.2769
  63   2.0000      -0.403674       -10.9845
  64   2.0000      -0.390840       -10.6353
  65   2.0000      -0.381853       -10.3907
  66   2.0000      -0.376807       -10.2534
  67   2.0000      -0.373086       -10.1522
  68   2.0000      -0.357747        -9.7348
  69   2.0000      -0.356203        -9.6928
  70   2.0000      -0.351752        -9.5716
  71   2.0000      -0.344834        -9.3834
  72   2.0000      -0.335597        -9.1321
  73   2.0000      -0.330897        -9.0042
  74   2.0000      -0.322360        -8.7719
  75   2.0000      -0.320473        -8.7205
  76   2.0000      -0.312677        -8.5084
  77   2.0000      -0.309903        -8.4329
  78   2.0000      -0.287870        -7.8333
  79   2.0000      -0.281473        -7.6593
  80   2.0000      -0.278292        -7.5727
  81   2.0000      -0.273871        -7.4524
  82   2.0000      -0.255132        -6.9425
  83   2.0000      -0.241003        -6.5580
  84   2.0000      -0.227619        -6.1938
  85   2.0000      -0.215380        -5.8608
  86   2.0000      -0.214730        -5.8431
  87   0.0000      -0.044452        -1.2096
  88   0.0000      -0.032796        -0.8924
  89   0.0000      -0.014595        -0.3972
  90   0.0000       0.003615         0.0984
  91   0.0000       0.013478         0.3668

MULLIKEN ATOMIC CHARGES
-----------------------
   0 C :   -0.441597
   1 C :   -0.153071
   2 O :   -0.153769
   3 C :    0.404647
   4 O :   -0.395516
   5 C :   -0.460783
   6 C :    0.003068
   7 H :    0.200211
   8 C :    0.270453
   9 O :   -0.396831
  10 O :   -0.142590
  11 C :   -0.151310
  12 C :   -0.471881
  13 S :   -0.190927
  14 P :    0.787371
  15 S :   -0.434984
  16 O :   -0.315833
  17 C :   -0.293654
  18 O :   -0.362463
  19 C :   -0.300918
  20 H :    0.155576
  21 H :    0.149129
  22 H :    0.151351
  23 H :    0.169448
  24 H :    0.154257
  25 H :    0.187606
  26 H :    0.218814
  27 H :    0.165054
  28 H :    0.181071
  29 H :    0.170849
  30 H :    0.151770
  31 H :    0.150669
  32 H :    0.154776
  33 H :    0.171192
  34 H :    0.166977
  35 H :    0.188770
  36 H :    0.143860
  37 H :    0.169210
Sum of atomic charges:    0.0000000

LOEWDIN ATOMIC CHARGES
----------------------
   0 C :   -0.385410
   1 C :    0.035419
   2 O :   -0.590769
   3 C :    0.337185
   4 O :   -0.438882
   5 C :   -0.207075
   6 C :   -0.187207
   7 H :    0.205860
   8 C :    0.339796
   9 O :   -0.411011
  10 O :   -0.635218
  11 C :    0.031619
  12 C :   -0.387723
  13 S :    0.219283
  14 P :    0.411284
  15 S :   -0.056485
  16 O :   -0.654260
  17 C :   -0.052350
  18 O :   -0.684957
  19 C :   -0.057731
  20 H :    0.160418
  21 H :    0.160518
  22 H :    0.159113
  23 H :    0.186103
  24 H :    0.177806
  25 H :    0.193518
  26 H :    0.201090
  27 H :    0.185630
  28 H :    0.194793
  29 H :    0.164617
  30 H :    0.156915
  31 H :    0.160455
  32 H :    0.179071
  33 H :    0.174762
  34 H :    0.173301
  35 H :    0.191002
  36 H :    0.173504
  37 H :    0.176022

  Mayer bond orders larger than 0.100000
B(  0-C ,  1-C ) :   0.9482 B(  0-C , 20-H ) :   0.9739 B(  0-C , 21-H ) :   0.9674
B(  0-C , 22-H ) :   0.9693 B(  1-C ,  2-O ) :   0.7867 B(  1-C , 23-H ) :   0.9599
B(  1-C , 24-H ) :   0.9464 B(  2-O ,  3-C ) :   1.0603 B(  3-C ,  4-O ) :   1.8008
B(  3-C ,  5-C ) :   0.8925 B(  5-C ,  6-C ) :   0.9009 B(  5-C , 25-H ) :   0.9445
B(  5-C , 26-H ) :   0.9801 B(  6-C ,  7-H ) :   0.8829 B(  6-C ,  8-C ) :   0.9497
B(  6-C , 13-S ) :   0.8505 B(  8-C ,  9-O ) :   1.8635 B(  8-C , 10-O ) :   1.1008
B( 10-O , 11-C ) :   0.7924 B( 11-C , 12-C ) :   0.9229 B( 11-C , 27-H ) :   0.9566
B( 11-C , 28-H ) :   0.9632 B( 12-C , 29-H ) :   0.9726 B( 12-C , 30-H ) :   0.9766
B( 12-C , 31-H ) :   0.9657 B( 13-S , 14-P ) :   1.0107 B( 14-P , 15-S ) :   1.7637
B( 14-P , 16-O ) :   1.1419 B( 14-P , 18-O ) :   1.0380 B( 16-O , 17-C ) :   0.8016
B( 17-C , 32-H ) :   0.9655 B( 17-C , 33-H ) :   0.9609 B( 17-C , 34-H ) :   0.9552
B( 18-O , 19-C ) :   0.8321 B( 19-C , 35-H ) :   0.9412 B( 19-C , 36-H ) :   0.9680
B( 19-C , 37-H ) :   0.9575

Dispersion correction           -0.017812299
FINAL SINGLE POINT ENERGY     -1981.452556156620

DIPOLE MOMENT
-------------

Method             : SCF
Type of density    : Electron Density
Multiplicity       :   1
Irrep              :   0
Energy             : -1981.4721425785205611 Eh
Relativity type    :
Basis              : AO
                                X                 Y                 Z
Electronic contribution:     -8.467627524       0.216209537       9.695874886
Nuclear contribution   :      8.470951497      -0.187441979     -11.682046623
                        -----------------------------------------
Total Dipole Moment    :      0.003323973       0.028767558      -1.986171737
                        -----------------------------------------
Magnitude (a.u.)       :      1.986382840
Magnitude (Debye)      :      5.048983931

Rotational constants in cm-1:             0.012869             0.007316             0.005810
Rotational constants in MHz :           385.793165           219.317654           174.188756

                             ****ORCA TERMINATED NORMALLY****
TOTAL RUN TIME: 0 days 0 hours 1 minutes 17 seconds 986 msec
