                         Program Version 6.0.1  -  RELEASE   -
|  1> ! r2scan-3c def2/J RI DEFGRID2 scfconv6 printgap
|  2> %output
|  3>     printlevel normal
|  4> end
|  5> %cpcm
|  6>     smd true
|  7>     smdsolvent "water"
|  8> end
|  9> * xyz 0 1
| 10> C 4.1786179048 -3.254955425 -2.5240148605
| 11> C 2.8439933754 -3.2712667414 -1.8052683154
| 12> O 2.7511823125 -2.0761519818 -1.0036721718
| 13> C 1.8267188769 -2.0256075303 -0.0711498538
| 14> O 1.0501414002 -2.9234643985 0.1737326488
| 15> C 1.8176338297 -0.6852384452 0.6373031741
| 16> C 1.2373970398 0.3752919874 -0.3006294765
| 17> H 1.9291244923 0.5450639918 -1.1328185922
| 18> C 1.0403822305 1.7020893643 0.4168496703
| 19> O 1.8379921305 2.1236807324 1.2183952007
| 20> O -0.0551904664 2.3260558301 0.0295070826
| 21> C -0.3369971565 3.6197303571 0.6012778984
| 22> C 0.3461552476 4.7188153305 -0.1937860057
| 23> S -0.2911138588 -0.1880681463 -1.1215959255
| 24> P -1.7255171077 0.0986097802 0.422995812
| 25> S -1.1412524151 0.3471365049 2.2772543841
| 26> O -2.6877000402 1.2551602183 -0.0556749607
| 27> C -3.3102670398 1.2533148806 -1.3568264153
| 28> O -2.6722125869 -1.1766521431 0.2084150061
| 29> C -2.2850410032 -2.4753102978 0.6693703747
| 30> H 4.9917770242 -3.2432431173 -1.8042940919
| 31> H 4.2623634604 -4.1418899304 -3.1429691617
| 32> H 4.2525177608 -2.3717790229 -3.150962647
| 33> H 2.7423902928 -4.138769736 -1.1461381647
| 34> H 2.0058825741 -3.2683282399 -2.508634693
| 35> H 2.8315390799 -0.3923569657 0.9095043454
| 36> H 1.209448551 -0.7678450653 1.5401059534
| 37> H -1.4236255183 3.7018920129 0.5607941337
| 38> H -0.0012338077 3.6133442382 1.6422043188
| 39> H 1.4263219211 4.615578799 -0.1218323799
| 40> H 0.0501250909 4.6661382616 -1.2377802453
| 41> H 0.0566263436 5.6816964927 0.2134224933
| 42> H -3.8398107407 2.2003298254 -1.4187901403
| 43> H -4.0015451667 0.4166669686 -1.4351555328
| 44> H -2.5475068513 1.1834339038 -2.1322730977
| 45> H -1.3435937517 -2.7867431891 0.213992223
| 46> H -3.091396073 -3.141415986 0.3751556278
| 47> H -2.1712939035 -2.4653037962 1.754044721
| 48> *
| 49>
| 50>                          ****END OF INPUT****

CARTESIAN COORDINATES (ANGSTROEM)
---------------------------------
  C      4.178618   -3.254955   -2.524015
  C      2.843993   -3.271267   -1.805268
  O      2.751182   -2.076152   -1.003672
  C      1.826719   -2.025608   -0.071150
  O      1.050141   -2.923464    0.173733
  C      1.817634   -0.685238    0.637303
  C      1.237397    0.375292   -0.300629
  H      1.929124    0.545064   -1.132819
  C      1.040382    1.702089    0.416850
  O      1.837992    2.123681    1.218395
  O     -0.055190    2.326056    0.029507
  C     -0.336997    3.619730    0.601278
  C      0.346155    4.718815   -0.193786
  S     -0.291114   -0.188068   -1.121596
  P     -1.725517    0.098610    0.422996
  S     -1.141252    0.347137    2.277254
  O     -2.687700    1.255160   -0.055675
  C     -3.310267    1.253315   -1.356826
  O     -2.672213   -1.176652    0.208415
  C     -2.285041   -2.475310    0.669370
  H      4.991777   -3.243243   -1.804294
  H      4.262363   -4.141890   -3.142969
  H      4.252518   -2.371779   -3.150963
  H      2.742390   -4.138770   -1.146138
  H      2.005883   -3.268328   -2.508635
  H      2.831539   -0.392357    0.909504
  H      1.209449   -0.767845    1.540106
  H     -1.423626    3.701892    0.560794
  H     -0.001234    3.613344    1.642204
  H      1.426322    4.615579   -0.121832
  H      0.050125    4.666138   -1.237780
  H      0.056626    5.681696    0.213422
  H     -3.839811    2.200330   -1.418790
  H     -4.001545    0.416667   -1.435156
  H     -2.547507    1.183434   -2.132273
  H     -1.343594   -2.786743    0.213992
  H     -3.091396   -3.141416    0.375156
  H     -2.171294   -2.465304    1.754045

 Total Charge           Charge          ....    0
 Multiplicity           Mult            ....    1
 Number of Electrons    NEL             ....  174
 Basis Dimension        Dim             ....  510

ORBITAL ENERGIES
----------------

  NO   OCC          E(Eh)            E(eV)
   0   2.0000     -88.579600     -2410.3735
   1   2.0000     -88.531518     -2409.0651
   2   2.0000     -76.922859     -2093.1774
   3   2.0000     -19.011388      -517.3262
   4   2.0000     -19.009128      -517.2647
   5   2.0000     -18.998274      -516.9693
   6   2.0000     -18.994303      -516.8613
   7   2.0000     -18.954663      -515.7826
   8   2.0000     -18.947546      -515.5889
   9   2.0000     -10.179498      -276.9982
  10   2.0000     -10.169541      -276.7273
  11   2.0000     -10.104299      -274.9519
  12   2.0000     -10.087358      -274.4910
  13   2.0000     -10.086667      -274.4722
  14   2.0000     -10.085316      -274.4354
  15   2.0000     -10.079446      -274.2757
  16   2.0000     -10.052929      -273.5541
  17   2.0000     -10.020167      -272.6626
  18   2.0000     -10.019738      -272.6509
  19   2.0000      -7.874161      -214.2668
  20   2.0000      -7.826608      -212.9728
  21   2.0000      -6.601084      -179.6246
  22   2.0000      -5.821228      -158.4037
  23   2.0000      -5.817998      -158.3158
  24   2.0000      -5.811035      -158.1263
  25   2.0000      -5.774434      -157.1303
  26   2.0000      -5.766876      -156.9247
  27   2.0000      -5.766385      -156.9113
  28   2.0000      -4.746728      -129.1650
  29   2.0000      -4.746105      -129.1481
  30   2.0000      -4.744727      -129.1106
  31   2.0000      -1.092208       -29.7205
  32   2.0000      -1.087334       -29.5879
  33   2.0000      -1.054112       -28.6839
  34   2.0000      -1.011477       -27.5237
  35   2.0000      -1.003413       -27.3043
  36   2.0000      -0.994511       -27.0620
  37   2.0000      -0.815911       -22.2021
  38   2.0000      -0.753675       -20.5085
  39   2.0000      -0.739238       -20.1157
  40   2.0000      -0.731783       -19.9128
  41   2.0000      -0.696030       -18.9399
  42   2.0000      -0.670406       -18.2427
  43   2.0000      -0.662654       -18.0317
  44   2.0000      -0.653846       -17.7921
  45   2.0000      -0.621701       -16.9173
  46   2.0000      -0.596264       -16.2252
  47   2.0000      -0.544450       -14.8152
  48   2.0000      -0.536044       -14.5865
  49   2.0000      -0.528051       -14.3690
  50   2.0000      -0.507728       -13.8160
  51   2.0000      -0.493220       -13.4212
  52   2.0000      -0.471957       -12.8426
  53   2.0000      -0.469764       -12.7829
  54   2.0000      -0.464862       -12.6495
  55   2.0000      -0.461074       -12.5465
  56   2.0000      -0.450614       -12.2618
  57   2.0000      -0.445626       -12.1261
  58   2.0000      -0.439324       -11.9546
  59   2.0000      -0.427271       -11.6266
  60   2.0000      -0.422279       -11.4908
  61   2.0000      -0.416664       -11.3380
  62   2.0000      -0.410786       -11.1781
  63   2.0000      -0.406082       -11.0501
  64   2.0000      -0.390033       -10.6133
  65   2.0000      -0.379529       -10.3275
  66   2.0000      -0.368492       -10.0272
  67   2.0000      -0.366242        -9.9660
  68   2.0000      -0.359652        -9.7866
  69   2.0000      -0.355440        -9.6720
  70   2.0000      -0.348619        -9.4864
  71   2.0000      -0.345892        -9.4122
  72   2.0000      -0.332905        -9.0588
  73   2.0000      -0.329959        -8.9786
  74   2.0000      -0.323324        -8.7981
  75   2.0000      -0.318112        -8.6563
  76   2.0000      -0.315368        -8.5816
  77   2.0000      -0.310534        -8.4501
  78   2.0000      -0.291407        -7.9296
  79   2.0000      -0.285054        -7.7567
  80   2.0000      -0.284279        -7.7356
  81   2.0000      -0.280813        -7.6413
  82   2.0000      -0.268122        -7.2960
  83   2.0000      -0.255483        -6.9521
  84   2.0000      -0.238505        -6.4901
  85   2.0000      -0.229910        -6.2562
  86   2.0000      -0.227761        -6.1977
  87   0.0000      -0.052371        -1.4251
  88   0.0000      -0.041995        -1.1428
  89   0.0000      -0.022794        -0.6202
  90   0.0000      -0.000638        -0.0174
  91   0.0000       0.006102         0.1660

MULLIKEN ATOMIC CHARGES
-----------------------
   0 C :   -0.490469
   1 C :   -0.151206
   2 O :   -0.160107
   3 C :    0.429892
   4 O :   -0.464400
   5 C :   -0.478888
   6 C :    0.023143
   7 H :    0.250816
   8 C :    0.287497
   9 O :   -0.465031
  10 O :   -0.155629
  11 C :   -0.146465
  12 C :   -0.499561
  13 S :   -0.187740
  14 P :    0.810100
  15 S :   -0.491872
  16 O :   -0.351053
  17 C :   -0.298848
  18 O :   -0.381531
  19 C :   -0.321865
  20 H :    0.167167
  21 H :    0.170446
  22 H :    0.165358
  23 H :    0.175824
  24 H :    0.177605
  25 H :    0.207704
  26 H :    0.215884
  27 H :    0.182697
  28 H :    0.179077
  29 H :    0.171080
  30 H :    0.169013
  31 H :    0.173524
  32 H :    0.183958
  33 H :    0.186260
  34 H :    0.178683
  35 H :    0.181807
  36 H :    0.177309
  37 H :    0.179824
Sum of atomic charges:    0.0000000

LOEWDIN ATOMIC CHARGES
----------------------
   0 C :   -0.388425
   1 C :    0.040051
   2 O :   -0.584998
   3 C :    0.345442
   4 O :   -0.487993
   5 C :   -0.207265
   6 C :   -0.181566
   7 H :    0.225928
   8 C :    0.348590
   9 O :   -0.460539
  10 O :   -0.634939
  11 C :    0.034953
  12 C :   -0.387598
  13 S :    0.231647
  14 P :    0.412074
  15 S :   -0.098987
  16 O :   -0.671517
  17 C :   -0.042865
  18 O :   -0.693283
  19 C :   -0.057206
  20 H :    0.163007
  21 H :    0.169068
  22 H :    0.163084
  23 H :    0.188882
  24 H :    0.186076
  25 H :    0.203018
  26 H :    0.196950
  27 H :    0.193171
  28 H :    0.193393
  29 H :    0.163939
  30 H :    0.163736
  31 H :    0.169156
  32 H :    0.191793
  33 H :    0.181838
  34 H :    0.179428
  35 H :    0.186896
  36 H :    0.187425
  37 H :    0.177638

  Mayer bond orders larger than 0.100000
B(  0-C ,  1-C ) :   0.9455 B(  0-C , 20-H ) :   0.9730 B(  0-C , 21-H ) :   0.9611
B(  0-C , 22-H ) :   0.9664 B(  1-C ,  2-O ) :   0.7742 B(  1-C , 23-H ) :   0.9546
B(  1-C , 24-H ) :   0.9365 B(  2-O ,  3-C ) :   1.0955 B(  3-C ,  4-O ) :   1.7463
B(  3-C ,  5-C ) :   0.9111 B(  5-C ,  6-C ) :   0.8780 B(  5-C , 25-H ) :   0.9231
B(  5-C , 26-H ) :   0.9902 B(  6-C ,  7-H ) :   0.8612 B(  6-C ,  8-C ) :   0.9593
B(  6-C , 13-S ) :   0.8286 B(  8-C ,  9-O ) :   1.8153 B(  8-C , 10-O ) :   1.1214
B( 10-O , 11-C ) :   0.7727 B( 11-C , 12-C ) :   0.9319 B( 11-C , 27-H ) :   0.9475
B( 11-C , 28-H ) :   0.9547 B( 12-C , 29-H ) :   0.9692 B( 12-C , 30-H ) :   0.9720
B( 12-C , 31-H ) :   0.9597 B( 13-S , 14-P ) :   1.0278 B( 14-P , 15-S ) :   1.7333
B( 14-P , 16-O ) :   1.1469 B( 14-P , 18-O ) :   1.0340 B( 16-O , 17-C ) :   0.7926
B( 17-C , 32-H ) :   0.9542 B( 17-C , 33-H ) :   0.9521 B( 17-C , 34-H ) :   0.9465
B( 18-O , 19-C ) :   0.8236 B( 19-C , 35-H ) :   0.9421 B( 19-C , 36-H ) :   0.9573
B( 19-C , 37-H ) :   0.9547

Dispersion correction           -0.017812299
FINAL SINGLE POINT ENERGY     -1981.466353801502

DIPOLE MOMENT
-------------

Method             : SCF
Type of density    : Electron Density
Multiplicity       :   1
Irrep              :   0
Energy             : -1981.4859402234019399 Eh
Relativity type    :
Basis              : AO
                                X                 Y                 Z
Electronic contribution:     -8.429302927       0.313424320       8.722384262
Nuclear contribution   :      8.470951497      -0.187441979     -11.682046623
                        -----------------------------------------
Total Dipole Moment    :      0.041648569       0.125982341      -2.959662361
                        -----------------------------------------
Magnitude (a.u.)       :      2.962635219
Magnitude (Debye)      :      7.530420275

Rotational constants in cm-1:             0.012869             0.007316             0.005810
Rotational constants in MHz :           385.793165           219.317654           174.188756

                             ****ORCA TERMINATED NORMALLY****
TOTAL RUN TIME: 0 days 0 hours 1 minutes 47 seconds 640 msec
