                         Program Version 6.0.0  -   RELEASE  -
|  1> ! pbe def2-sv(p) def2/J RI DEFGRID1 loosescf d4 GCP(DFT/SV(P)) printgap
|  2> %output
|  3>     printlevel normal
|  4> end
|  5> * xyz 0 1
|  6> C 4.0184644634 2.0412379126 -1.043883952
|  7> C 2.7509631906 1.5129201638 -1.6802098526
|  8> O 2.4481472756 0.1725620988 -1.2440678072
|  9> P 2.1027480699 -0.1883643371 0.2499104049
| 10> S 1.2214671616 1.1473350717 1.38871034
| 11> O 3.5442797888 -0.6087198729 0.7815509907
| 12> C 3.7497163965 -1.0280620872 2.1437334495
| 13> C 5.2426294974 -1.060914882 2.4011954841
| 14> S 1.1162413744 -2.041981168 0.0268078615
| 15> C -0.3881406125 -1.7629594899 1.0287477892
| 16> S -1.927348294 -1.8941795601 0.0872601495
| 17> P -2.0805572281 0.0675663973 -0.6606968592
| 18> S -0.6596566255 0.8291128057 -1.7722204055
| 19> O -2.3322789098 0.8466730564 0.7126085033
| 20> C -2.1151674847 2.2603492776 0.8442530813
| 21> C -3.1850307298 3.0542189574 0.1246896013
| 22> O -3.4215652346 0.0344479684 -1.5018179237
| 23> C -4.5926979444 -0.7652807228 -1.2120599359
| 24> C -5.2659349098 -0.3644666602 0.0834068761
| 25> H 4.251246579 3.0150789922 -1.4629543978
| 26> H 3.8777393919 2.1419842268 0.0319825933
| 27> H 4.8424412664 1.3570410423 -1.2289996175
| 28> H 2.8430066174 1.4142210771 -2.7625521455
| 29> H 1.8921051035 2.1517141041 -1.4504662852
| 30> H 3.2422239658 -0.3188033639 2.8065733595
| 31> H 3.3019518764 -2.0184680099 2.2688520249
| 32> H 5.6665601462 -0.0687927501 2.2754707789
| 33> H 5.4213687158 -1.4016644808 3.4156273604
| 34> H 5.7225539408 -1.7396216584 1.7022047813
| 35> H -0.3238088518 -0.7780146178 1.4993479957
| 36> H -0.4344922463 -2.5560671426 1.7699664121
| 37> H -2.1256703037 2.4330140207 1.9213288694
| 38> H -1.1223722103 2.5022720264 0.4514582451
| 39> H -2.9930218594 4.1147277444 0.2531480711
| 40> H -3.1629831422 2.8147786578 -0.9386298234
| 41> H -4.1666464304 2.8143984604 0.5240348898
| 42> H -5.2369425602 -0.5842786235 -2.0741773442
| 43> H -4.2936790538 -1.8160391673 -1.1881114792
| 44> H -6.1559613501 -0.9708394464 0.2194048053
| 45> H -4.5944761699 -0.5271327882 0.9234382579
| 46> H -5.5503204692 0.6839982502 0.0526002028
| 47> *
| 48>
| 49>                          ****END OF INPUT****

CARTESIAN COORDINATES (ANGSTROEM)
---------------------------------
  C      4.018464    2.041238   -1.043884
  C      2.750963    1.512920   -1.680210
  O      2.448147    0.172562   -1.244068
  P      2.102748   -0.188364    0.249910
  S      1.221467    1.147335    1.388710
  O      3.544280   -0.608720    0.781551
  C      3.749716   -1.028062    2.143733
  C      5.242629   -1.060915    2.401195
  S      1.116241   -2.041981    0.026808
  C     -0.388141   -1.762959    1.028748
  S     -1.927348   -1.894180    0.087260
  P     -2.080557    0.067566   -0.660697
  S     -0.659657    0.829113   -1.772220
  O     -2.332279    0.846673    0.712609
  C     -2.115167    2.260349    0.844253
  C     -3.185031    3.054219    0.124690
  O     -3.421565    0.034448   -1.501818
  C     -4.592698   -0.765281   -1.212060
  C     -5.265935   -0.364467    0.083407
  H      4.251247    3.015079   -1.462954
  H      3.877739    2.141984    0.031983
  H      4.842441    1.357041   -1.229000
  H      2.843007    1.414221   -2.762552
  H      1.892105    2.151714   -1.450466
  H      3.242224   -0.318803    2.806573
  H      3.301952   -2.018468    2.268852
  H      5.666560   -0.068793    2.275471
  H      5.421369   -1.401664    3.415627
  H      5.722554   -1.739622    1.702205
  H     -0.323809   -0.778015    1.499348
  H     -0.434492   -2.556067    1.769966
  H     -2.125670    2.433014    1.921329
  H     -1.122372    2.502272    0.451458
  H     -2.993022    4.114728    0.253148
  H     -3.162983    2.814779   -0.938630
  H     -4.166646    2.814398    0.524035
  H     -5.236943   -0.584279   -2.074177
  H     -4.293679   -1.816039   -1.188111
  H     -6.155961   -0.970839    0.219405
  H     -4.594476   -0.527133    0.923438
  H     -5.550320    0.683998    0.052600

 Total Charge           Charge          ....    0
 Multiplicity           Mult            ....    1
 Number of Electrons    NEL             ....  202
 Basis Dimension        Dim             ....  334

ORBITAL ENERGIES
----------------

  NO   OCC          E(Eh)            E(eV)
   0   2.0000     -88.043220     -2395.7778
   1   2.0000     -88.038615     -2395.6525
   2   2.0000     -87.987292     -2394.2559
   3   2.0000     -87.973676     -2393.8854
   4   2.0000     -76.423304     -2079.5838
   5   2.0000     -76.420558     -2079.5091
   6   2.0000     -18.790852      -511.3251
   7   2.0000     -18.785324      -511.1747
   8   2.0000     -18.785056      -511.1674
   9   2.0000     -18.784911      -511.1634
  10   2.0000      -9.959136      -271.0019
  11   2.0000      -9.956947      -270.9423
  12   2.0000      -9.948698      -270.7178
  13   2.0000      -9.945824      -270.6396
  14   2.0000      -9.940396      -270.4919
  15   2.0000      -9.889165      -269.0978
  16   2.0000      -9.886340      -269.0210
  17   2.0000      -9.879226      -268.8274
  18   2.0000      -9.878871      -268.8178
  19   2.0000      -7.688788      -209.2225
  20   2.0000      -7.684108      -209.0952
  21   2.0000      -7.632003      -207.6774
  22   2.0000      -7.618731      -207.3162
  23   2.0000      -6.420803      -174.7189
  24   2.0000      -6.418267      -174.6499
  25   2.0000      -5.716685      -155.5589
  26   2.0000      -5.713138      -155.4624
  27   2.0000      -5.711988      -155.4311
  28   2.0000      -5.708657      -155.3404
  29   2.0000      -5.705782      -155.2622
  30   2.0000      -5.700966      -155.1312
  31   2.0000      -5.660654      -154.0342
  32   2.0000      -5.653140      -153.8298
  33   2.0000      -5.651877      -153.7954
  34   2.0000      -5.647784      -153.6840
  35   2.0000      -5.639551      -153.4600
  36   2.0000      -5.638500      -153.4314
  37   2.0000      -4.642992      -126.3422
  38   2.0000      -4.642456      -126.3276
  39   2.0000      -4.641709      -126.3073
  40   2.0000      -4.641183      -126.2930
  41   2.0000      -4.639993      -126.2606
  42   2.0000      -4.638453      -126.2187
  43   2.0000      -0.982324       -26.7304
  44   2.0000      -0.979893       -26.6642
  45   2.0000      -0.942111       -25.6361
  46   2.0000      -0.939684       -25.5701
  47   2.0000      -0.760462       -20.6932
  48   2.0000      -0.719918       -19.5900
  49   2.0000      -0.708624       -19.2826
  50   2.0000      -0.689307       -18.7570
  51   2.0000      -0.684376       -18.6228
  52   2.0000      -0.670794       -18.2532
  53   2.0000      -0.648934       -17.6584
  54   2.0000      -0.633727       -17.2446
  55   2.0000      -0.598589       -16.2884
  56   2.0000      -0.587731       -15.9930
  57   2.0000      -0.574950       -15.6452
  58   2.0000      -0.563393       -15.3307
  59   2.0000      -0.559261       -15.2183
  60   2.0000      -0.501285       -13.6406
  61   2.0000      -0.491846       -13.3838
  62   2.0000      -0.473445       -12.8831
  63   2.0000      -0.470867       -12.8129
  64   2.0000      -0.452207       -12.3052
  65   2.0000      -0.446821       -12.1586
  66   2.0000      -0.437311       -11.8998
  67   2.0000      -0.430230       -11.7072
  68   2.0000      -0.424413       -11.5489
  69   2.0000      -0.415001       -11.2928
  70   2.0000      -0.408884       -11.1263
  71   2.0000      -0.395342       -10.7578
  72   2.0000      -0.393290       -10.7020
  73   2.0000      -0.385329       -10.4853
  74   2.0000      -0.381562       -10.3828
  75   2.0000      -0.371428       -10.1071
  76   2.0000      -0.362734        -9.8705
  77   2.0000      -0.354873        -9.6566
  78   2.0000      -0.352938        -9.6039
  79   2.0000      -0.347905        -9.4670
  80   2.0000      -0.344663        -9.3788
  81   2.0000      -0.341365        -9.2890
  82   2.0000      -0.340250        -9.2587
  83   2.0000      -0.336382        -9.1534
  84   2.0000      -0.331846        -9.0300
  85   2.0000      -0.311227        -8.4689
  86   2.0000      -0.309758        -8.4289
  87   2.0000      -0.304703        -8.2914
  88   2.0000      -0.297148        -8.0858
  89   2.0000      -0.282591        -7.6897
  90   2.0000      -0.275186        -7.4882
  91   2.0000      -0.269941        -7.3455
  92   2.0000      -0.268464        -7.3053
  93   2.0000      -0.260128        -7.0785
  94   2.0000      -0.256394        -6.9768
  95   2.0000      -0.236270        -6.4292
  96   2.0000      -0.219951        -5.9852
  97   2.0000      -0.209673        -5.7055
  98   2.0000      -0.205338        -5.5875
  99   2.0000      -0.190993        -5.1972
 100   2.0000      -0.180277        -4.9056
 101   0.0000      -0.037050        -1.0082
 102   0.0000      -0.027896        -0.7591
 103   0.0000      -0.012896        -0.3509
 104   0.0000       0.008802         0.2395
 105   0.0000       0.023073         0.6278

MULLIKEN ATOMIC CHARGES
-----------------------
   0 C :   -0.307085
   1 C :   -0.003621
   2 O :   -0.358869
   3 P :    0.625719
   4 S :   -0.333496
   5 O :   -0.374037
   6 C :   -0.006746
   7 C :   -0.279613
   8 S :   -0.074277
   9 C :   -0.348870
  10 S :   -0.109536
  11 P :    0.622525
  12 S :   -0.314092
  13 O :   -0.385463
  14 C :   -0.018598
  15 C :   -0.313895
  16 O :   -0.370386
  17 C :   -0.027984
  18 C :   -0.315242
  19 H :    0.110502
  20 H :    0.123322
  21 H :    0.116404
  22 H :    0.108397
  23 H :    0.121938
  24 H :    0.099869
  25 H :    0.092484
  26 H :    0.118149
  27 H :    0.109764
  28 H :    0.117530
  29 H :    0.202585
  30 H :    0.181292
  31 H :    0.100509
  32 H :    0.131387
  33 H :    0.110343
  34 H :    0.127241
  35 H :    0.114280
  36 H :    0.114927
  37 H :    0.125029
  38 H :    0.112685
  39 H :    0.129087
  40 H :    0.125844
Sum of atomic charges:   -0.0000000

LOEWDIN ATOMIC CHARGES
----------------------
   0 C :   -0.366892
   1 C :   -0.113696
   2 O :   -0.228567
   3 P :    0.576233
   4 S :   -0.305482
   5 O :   -0.249781
   6 C :   -0.124367
   7 C :   -0.350070
   8 S :    0.085882
   9 C :   -0.476788
  10 S :    0.081387
  11 P :    0.566568
  12 S :   -0.305470
  13 O :   -0.250133
  14 C :   -0.126647
  15 C :   -0.365801
  16 O :   -0.241786
  17 C :   -0.116477
  18 C :   -0.367884
  19 H :    0.130066
  20 H :    0.121128
  21 H :    0.126057
  22 H :    0.121671
  23 H :    0.110810
  24 H :    0.104792
  25 H :    0.104402
  26 H :    0.127426
  27 H :    0.129669
  28 H :    0.127384
  29 H :    0.123910
  30 H :    0.136620
  31 H :    0.116499
  32 H :    0.107796
  33 H :    0.130302
  34 H :    0.125025
  35 H :    0.119940
  36 H :    0.124305
  37 H :    0.109729
  38 H :    0.131470
  39 H :    0.123952
  40 H :    0.126815

  Mayer bond orders larger than 0.100000
B(  0-C ,  1-C ) :   1.1636 B(  0-C , 19-H ) :   0.9380 B(  0-C , 20-H ) :   0.9340
B(  0-C , 21-H ) :   0.9448 B(  1-C ,  2-O ) :   0.8959 B(  1-C , 22-H ) :   0.9355
B(  1-C , 23-H ) :   0.9155 B(  2-O ,  3-P ) :   1.1603 B(  3-P ,  4-S ) :   1.5773
B(  3-P ,  5-O ) :   1.0922 B(  3-P ,  8-S ) :   0.9618 B(  4-S ,  8-S ) :   0.1170
B(  4-S , 29-H ) :   0.1076 B(  5-O ,  6-C ) :   0.9131 B(  6-C ,  7-C ) :   1.1610
B(  6-C , 24-H ) :   0.9101 B(  6-C , 25-H ) :   0.9224 B(  7-C , 26-H ) :   0.9522
B(  7-C , 27-H ) :   0.9423 B(  7-C , 28-H ) :   0.9505 B(  8-S ,  9-C ) :   1.0058
B(  9-C , 10-S ) :   1.0009 B(  9-C , 29-H ) :   0.8459 B(  9-C , 30-H ) :   0.9126
B( 10-S , 11-P ) :   0.9607 B( 10-S , 12-S ) :   0.1054 B( 11-P , 12-S ) :   1.6521
B( 11-P , 13-O ) :   1.0697 B( 11-P , 16-O ) :   1.1149 B( 13-O , 14-C ) :   0.9018
B( 14-C , 15-C ) :   1.1592 B( 14-C , 31-H ) :   0.9354 B( 14-C , 32-H ) :   0.9022
B( 15-C , 33-H ) :   0.9395 B( 15-C , 34-H ) :   0.9358 B( 15-C , 35-H ) :   0.9405
B( 16-O , 17-C ) :   0.9061 B( 17-C , 18-C ) :   1.1634 B( 17-C , 36-H ) :   0.9342
B( 17-C , 37-H ) :   0.9200 B( 18-C , 38-H ) :   0.9358 B( 18-C , 39-H ) :   0.9348
B( 18-C , 40-H ) :   0.9398

Dispersion correction           -0.066327141
FINAL SINGLE POINT ENERGY     -2929.517391954942

DIPOLE MOMENT
-------------

Method             : SCF
Type of density    : Electron Density
Multiplicity       :   1
Irrep              :   0
Energy             : -2929.6363947581362481 Eh
Relativity type    :
Basis              : AO
                                X                 Y                 Z
Electronic contribution:     -1.212141700     -12.133331141      -7.906717259
Nuclear contribution   :      0.836048894      12.051796559       8.808804501
                        -----------------------------------------
Total Dipole Moment    :     -0.376092807      -0.081534581       0.902087242
                        -----------------------------------------
Magnitude (a.u.)       :      0.980742107
Magnitude (Debye)      :      2.492848325

Rotational constants in cm-1:             0.013997             0.004856             0.004404
Rotational constants in MHz :           419.614098           145.589598           132.036817

                             ****ORCA TERMINATED NORMALLY****
TOTAL RUN TIME: 0 days 0 hours 0 minutes 21 seconds 87 msec
