                         Program Version 6.0.0  -   RELEASE  -
|  1> ! pbe def2-sv(p) def2/J RI DEFGRID1 loosescf d4 GCP(DFT/SV(P)) printgap
|  2> %output
|  3>     printlevel normal
|  4> end
|  5> * xyz 0 1
|  6> C 4.2839250331 -0.9499634621 1.4155666878
|  7> C 4.7485084659 -0.3499207027 0.1057596586
|  8> O 3.7318528358 -0.4024180869 -0.9262248287
|  9> P 2.3180518406 0.2930324595 -0.8684667155
| 10> S 1.6102539512 0.5495397263 -2.6768478608
| 11> O 2.6516792097 1.6090739575 -0.0411215564
| 12> C 1.7242778323 2.6879324513 0.1697674282
| 13> C 1.1053586363 2.6038530732 1.5512070435
| 14> S 1.1098912227 -0.9109927471 0.4066487232
| 15> C -0.0144992678 -1.6475459178 -0.8238157456
| 16> S -1.6433103974 -1.9745977909 -0.1281538096
| 17> P -2.1760786519 0.0391906514 0.3362419413
| 18> S -1.5617356107 1.4351598321 -0.8893552913
| 19> O -1.6768137038 0.284022925 1.8098453339
| 20> C -2.0315913403 -0.5909550642 2.9158707343
| 21> C -0.7725686557 -1.1726695661 3.5250457622
| 22> O -3.7522176458 -0.0487143606 0.5447421258
| 23> C -4.6984372648 0.1132651802 -0.5253995553
| 24> C -4.6010961647 -0.9911838392 -1.5580784624
| 25> H 3.9440972714 -1.9716743614 1.2682511698
| 26> H 5.1112073491 -0.9452180012 2.1184526722
| 27> H 3.4638256697 -0.3653477304 1.8288944183
| 28> H 5.5702985175 -0.9200748325 -0.3302292203
| 29> H 5.0461620483 0.6921254061 0.2354449142
| 30> H 2.323530471 3.594065681 0.060332723
| 31> H 0.9575674695 2.6685590839 -0.6114424728
| 32> H 0.4658006215 1.7274401319 1.6328065948
| 33> H 1.8841491702 2.5506183853 2.3066674631
| 34> H 0.4991853984 3.4886655877 1.717527526
| 35> H 0.3799402987 -2.6089949454 -1.1436116285
| 36> H -0.0956753975 -0.9548494778 -1.6667425913
| 37> H -2.5670023808 0.0410850385 3.6256502108
| 38> H -2.6968868146 -1.3763813088 2.5500652661
| 39> H -0.1126589503 -0.3751485747 3.8532629302
| 40> H -1.0440027542 -1.7884820274 4.3762465923
| 41> H -0.2435264594 -1.7812016988 2.7950845899
| 42> H -5.664427216 0.1060527063 -0.0183700419
| 43> H -4.5295864598 1.0897475317 -0.9899535313
| 44> H -3.6606073862 -0.9127187037 -2.1019912368
| 45> H -4.6495305519 -1.9654806828 -1.0782087892
| 46> H -5.4203271285 -0.894341573 -2.2633534236
| 47> *
| 48>
| 49>                          ****END OF INPUT****

CARTESIAN COORDINATES (ANGSTROEM)
---------------------------------
  C      4.283925   -0.949963    1.415567
  C      4.748508   -0.349921    0.105760
  O      3.731853   -0.402418   -0.926225
  P      2.318052    0.293032   -0.868467
  S      1.610254    0.549540   -2.676848
  O      2.651679    1.609074   -0.041122
  C      1.724278    2.687932    0.169767
  C      1.105359    2.603853    1.551207
  S      1.109891   -0.910993    0.406649
  C     -0.014499   -1.647546   -0.823816
  S     -1.643310   -1.974598   -0.128154
  P     -2.176079    0.039191    0.336242
  S     -1.561736    1.435160   -0.889355
  O     -1.676814    0.284023    1.809845
  C     -2.031591   -0.590955    2.915871
  C     -0.772569   -1.172670    3.525046
  O     -3.752218   -0.048714    0.544742
  C     -4.698437    0.113265   -0.525400
  C     -4.601096   -0.991184   -1.558078
  H      3.944097   -1.971674    1.268251
  H      5.111207   -0.945218    2.118453
  H      3.463826   -0.365348    1.828894
  H      5.570299   -0.920075   -0.330229
  H      5.046162    0.692125    0.235445
  H      2.323530    3.594066    0.060333
  H      0.957567    2.668559   -0.611442
  H      0.465801    1.727440    1.632807
  H      1.884149    2.550618    2.306667
  H      0.499185    3.488666    1.717528
  H      0.379940   -2.608995   -1.143612
  H     -0.095675   -0.954849   -1.666743
  H     -2.567002    0.041085    3.625650
  H     -2.696887   -1.376381    2.550065
  H     -0.112659   -0.375149    3.853263
  H     -1.044003   -1.788482    4.376247
  H     -0.243526   -1.781202    2.795085
  H     -5.664427    0.106053   -0.018370
  H     -4.529586    1.089748   -0.989954
  H     -3.660607   -0.912719   -2.101991
  H     -4.649531   -1.965481   -1.078209
  H     -5.420327   -0.894342   -2.263353

 Total Charge           Charge          ....    0
 Multiplicity           Mult            ....    1
 Number of Electrons    NEL             ....  202
 Basis Dimension        Dim             ....  334

ORBITAL ENERGIES
----------------

  NO   OCC          E(Eh)            E(eV)
   0   2.0000     -88.047618     -2395.8975
   1   2.0000     -88.038520     -2395.6499
   2   2.0000     -87.985815     -2394.2157
   3   2.0000     -87.976168     -2393.9532
   4   2.0000     -76.427872     -2079.7081
   5   2.0000     -76.420524     -2079.5082
   6   2.0000     -18.794441      -511.4227
   7   2.0000     -18.792955      -511.3823
   8   2.0000     -18.789120      -511.2779
   9   2.0000     -18.784057      -511.1402
  10   2.0000      -9.959083      -271.0004
  11   2.0000      -9.954832      -270.8848
  12   2.0000      -9.954155      -270.8663
  13   2.0000      -9.950339      -270.7625
  14   2.0000      -9.942337      -270.5448
  15   2.0000      -9.888759      -269.0868
  16   2.0000      -9.888118      -269.0694
  17   2.0000      -9.885153      -268.9887
  18   2.0000      -9.872490      -268.6441
  19   2.0000      -7.692347      -209.3194
  20   2.0000      -7.682690      -209.0566
  21   2.0000      -7.630664      -207.6409
  22   2.0000      -7.621444      -207.3900
  23   2.0000      -6.425106      -174.8360
  24   2.0000      -6.417899      -174.6399
  25   2.0000      -5.720200      -155.6546
  26   2.0000      -5.716746      -155.5606
  27   2.0000      -5.710553      -155.3920
  28   2.0000      -5.709526      -155.3641
  29   2.0000      -5.707244      -155.3020
  30   2.0000      -5.699758      -155.0983
  31   2.0000      -5.659713      -154.0086
  32   2.0000      -5.651014      -153.7719
  33   2.0000      -5.650953      -153.7703
  34   2.0000      -5.650485      -153.7575
  35   2.0000      -5.641953      -153.5254
  36   2.0000      -5.641532      -153.5139
  37   2.0000      -4.647922      -126.4764
  38   2.0000      -4.646859      -126.4475
  39   2.0000      -4.645405      -126.4079
  40   2.0000      -4.640875      -126.2846
  41   2.0000      -4.639488      -126.2469
  42   2.0000      -4.638184      -126.2114
  43   2.0000      -0.990128       -26.9427
  44   2.0000      -0.982701       -26.7406
  45   2.0000      -0.946412       -25.7532
  46   2.0000      -0.937765       -25.5179
  47   2.0000      -0.761344       -20.7172
  48   2.0000      -0.720124       -19.5956
  49   2.0000      -0.710772       -19.3411
  50   2.0000      -0.690854       -18.7991
  51   2.0000      -0.685609       -18.6564
  52   2.0000      -0.675372       -18.3778
  53   2.0000      -0.650123       -17.6907
  54   2.0000      -0.629971       -17.1424
  55   2.0000      -0.596674       -16.2363
  56   2.0000      -0.587972       -15.9995
  57   2.0000      -0.576973       -15.7002
  58   2.0000      -0.571587       -15.5537
  59   2.0000      -0.557696       -15.1757
  60   2.0000      -0.505910       -13.7665
  61   2.0000      -0.493033       -13.4161
  62   2.0000      -0.474277       -12.9057
  63   2.0000      -0.469414       -12.7734
  64   2.0000      -0.450682       -12.2637
  65   2.0000      -0.447249       -12.1703
  66   2.0000      -0.442938       -12.0530
  67   2.0000      -0.438341       -11.9279
  68   2.0000      -0.432535       -11.7699
  69   2.0000      -0.420280       -11.4364
  70   2.0000      -0.411467       -11.1966
  71   2.0000      -0.396090       -10.7782
  72   2.0000      -0.389932       -10.6106
  73   2.0000      -0.382206       -10.4004
  74   2.0000      -0.377793       -10.2803
  75   2.0000      -0.368873       -10.0375
  76   2.0000      -0.364185        -9.9100
  77   2.0000      -0.360033        -9.7970
  78   2.0000      -0.355905        -9.6847
  79   2.0000      -0.351394        -9.5619
  80   2.0000      -0.347182        -9.4473
  81   2.0000      -0.343418        -9.3449
  82   2.0000      -0.341469        -9.2918
  83   2.0000      -0.337083        -9.1725
  84   2.0000      -0.327106        -8.9010
  85   2.0000      -0.315506        -8.5854
  86   2.0000      -0.311686        -8.4814
  87   2.0000      -0.304052        -8.2737
  88   2.0000      -0.294967        -8.0265
  89   2.0000      -0.291755        -7.9391
  90   2.0000      -0.284050        -7.7294
  91   2.0000      -0.274898        -7.4804
  92   2.0000      -0.269788        -7.3413
  93   2.0000      -0.263538        -7.1712
  94   2.0000      -0.253261        -6.8916
  95   2.0000      -0.232736        -6.3331
  96   2.0000      -0.221787        -6.0351
  97   2.0000      -0.207240        -5.6393
  98   2.0000      -0.201385        -5.4800
  99   2.0000      -0.193852        -5.2750
 100   2.0000      -0.185239        -5.0406
 101   0.0000      -0.044124        -1.2007
 102   0.0000      -0.033424        -0.9095
 103   0.0000      -0.011053        -0.3008
 104   0.0000       0.008330         0.2267
 105   0.0000       0.014416         0.3923

MULLIKEN ATOMIC CHARGES
-----------------------
   0 C :   -0.326500
   1 C :    0.008596
   2 O :   -0.365082
   3 P :    0.625738
   4 S :   -0.299967
   5 O :   -0.387324
   6 C :   -0.010678
   7 C :   -0.321780
   8 S :   -0.146737
   9 C :   -0.333791
  10 S :   -0.113803
  11 P :    0.593340
  12 S :   -0.296401
  13 O :   -0.351110
  14 C :   -0.011943
  15 C :   -0.286769
  16 O :   -0.380146
  17 C :    0.002078
  18 C :   -0.321467
  19 H :    0.124557
  20 H :    0.113820
  21 H :    0.127622
  22 H :    0.109286
  23 H :    0.110327
  24 H :    0.100481
  25 H :    0.126425
  26 H :    0.152948
  27 H :    0.101244
  28 H :    0.108091
  29 H :    0.180046
  30 H :    0.213628
  31 H :    0.111973
  32 H :    0.105612
  33 H :    0.120859
  34 H :    0.108951
  35 H :    0.124489
  36 H :    0.104643
  37 H :    0.113288
  38 H :    0.133533
  39 H :    0.116768
  40 H :    0.115155
Sum of atomic charges:    0.0000000

LOEWDIN ATOMIC CHARGES
----------------------
   0 C :   -0.370186
   1 C :   -0.107969
   2 O :   -0.243424
   3 P :    0.567734
   4 S :   -0.293478
   5 O :   -0.245212
   6 C :   -0.116996
   7 C :   -0.369137
   8 S :    0.068180
   9 C :   -0.481483
  10 S :    0.076381
  11 P :    0.566660
  12 S :   -0.288464
  13 O :   -0.233595
  14 C :   -0.111984
  15 C :   -0.357537
  16 O :   -0.250984
  17 C :   -0.115797
  18 C :   -0.371226
  19 H :    0.126681
  20 H :    0.131324
  21 H :    0.116702
  22 H :    0.122066
  23 H :    0.114983
  24 H :    0.116055
  25 H :    0.109015
  26 H :    0.121870
  27 H :    0.117818
  28 H :    0.130699
  29 H :    0.134488
  30 H :    0.123419
  31 H :    0.121096
  32 H :    0.106775
  33 H :    0.128478
  34 H :    0.129102
  35 H :    0.117387
  36 H :    0.118604
  37 H :    0.113594
  38 H :    0.123704
  39 H :    0.122551
  40 H :    0.132108

  Mayer bond orders larger than 0.100000
B(  0-C ,  1-C ) :   1.1696 B(  0-C , 19-H ) :   0.9422 B(  0-C , 20-H ) :   0.9357
B(  0-C , 21-H ) :   0.9356 B(  1-C ,  2-O ) :   0.9054 B(  1-C , 22-H ) :   0.9346
B(  1-C , 23-H ) :   0.9276 B(  2-O ,  3-P ) :   1.1293 B(  3-P ,  4-S ) :   1.6653
B(  3-P ,  5-O ) :   1.0868 B(  3-P ,  8-S ) :   0.9343 B(  4-S ,  8-S ) :   0.1183
B(  4-S , 30-H ) :   0.1016 B(  5-O ,  6-C ) :   0.8961 B(  6-C ,  7-C ) :   1.1717
B(  6-C , 24-H ) :   0.9345 B(  6-C , 25-H ) :   0.9014 B(  7-C , 26-H ) :   0.9228
B(  7-C , 27-H ) :   0.9456 B(  7-C , 28-H ) :   0.9396 B(  8-S ,  9-C ) :   0.9912
B(  9-C , 10-S ) :   1.0070 B(  9-C , 29-H ) :   0.9094 B(  9-C , 30-H ) :   0.8411
B( 10-S , 11-P ) :   0.9331 B( 10-S , 12-S ) :   0.1085 B( 11-P , 12-S ) :   1.6493
B( 11-P , 13-O ) :   1.1235 B( 11-P , 16-O ) :   1.0886 B( 13-O , 14-C ) :   0.8857
B( 14-C , 15-C ) :   1.1655 B( 14-C , 31-H ) :   0.9335 B( 14-C , 32-H ) :   0.9156
B( 15-C , 33-H ) :   0.9471 B( 15-C , 34-H ) :   0.9393 B( 15-C , 35-H ) :   0.9344
B( 16-O , 17-C ) :   0.9067 B( 17-C , 18-C ) :   1.1661 B( 17-C , 36-H ) :   0.9346
B( 17-C , 37-H ) :   0.9187 B( 18-C , 38-H ) :   0.9352 B( 18-C , 39-H ) :   0.9434
B( 18-C , 40-H ) :   0.9370

Dispersion correction           -0.067042298
FINAL SINGLE POINT ENERGY     -2929.517419700678

DIPOLE MOMENT
-------------

Method             : SCF
Type of density    : Electron Density
Multiplicity       :   1
Irrep              :   0
Energy             : -2929.6362063523347388 Eh
Relativity type    :
Basis              : AO
                                X                 Y                 Z
Electronic contribution:      0.712673260       0.467523104     -15.862952218
Nuclear contribution   :     -1.072941626      -1.095221871      17.632949270
                        -----------------------------------------
Total Dipole Moment    :     -0.360268367      -0.627698767       1.769997053
                        -----------------------------------------
Magnitude (a.u.)       :      1.912247004
Magnitude (Debye)      :      4.860545610

Rotational constants in cm-1:             0.012374             0.005328             0.004926
Rotational constants in MHz :           370.977523           159.741210           147.677250

                             ****ORCA TERMINATED NORMALLY****
TOTAL RUN TIME: 0 days 0 hours 0 minutes 21 seconds 957 msec
