                         Program Version 6.0.0  -   RELEASE  -
|  1> ! pbe def2-sv(p) def2/J RI DEFGRID1 loosescf d4 GCP(DFT/SV(P)) printgap
|  2> %output
|  3>     printlevel normal
|  4> end
|  5> * xyz 0 1
|  6> C 1.4824600047 -1.3981497132 -2.9570055457
|  7> C 2.4094984666 -0.7578890004 -1.9450762505
|  8> O 1.6237185509 0.1094314776 -1.0826946075
|  9> P 1.892445791 0.2321928135 0.4649435711
| 10> S 0.8382252918 1.6265005241 1.338241411
| 11> O 3.4670956993 0.4421516133 0.5043495113
| 12> C 4.1641398867 0.9457256462 1.6596420684
| 13> C 4.092062791 -0.0028017752 2.8383186296
| 14> S 1.611060246 -1.7283975919 1.2308006348
| 15> C -0.1893876661 -1.6371395637 1.3769447606
| 16> S -1.0566588211 -1.7606284035 -0.2238710557
| 17> P -1.9184852122 0.1421843906 -0.5479521034
| 18> S -1.0983487919 1.5165940823 -1.6918913244
| 19> O -2.2422300016 0.5305193748 0.9513442385
| 20> C -2.7645729133 1.8354110823 1.2874257618
| 21> C -2.5938867296 2.0343058528 2.7782576301
| 22> O -3.3731329092 -0.244446507 -1.0825968652
| 23> C -3.6560257698 -0.3929545193 -2.4812942151
| 24> C -2.9576747655 -1.60531436 -3.0623636904
| 25> H 2.0733369468 -1.943688379 -3.6853148633
| 26> H 0.7959960774 -2.0834305402 -2.4648002267
| 27> H 0.9071977647 -0.6266179521 -3.4636657045
| 28> H 3.1535239171 -0.121910284 -2.4272347313
| 29> H 2.9126471002 -1.5083158104 -1.3286214975
| 30> H 5.187878526 1.072630673 1.3047165017
| 31> H 3.7377574861 1.9190903645 1.9209581528
| 32> H 4.7451498151 0.3591495851 3.6258627743
| 33> H 3.0731906296 -0.0486289489 3.2191693348
| 34> H 4.4021128468 -1.0015079517 2.5413740785
| 35> H -0.4678443641 -0.7028311676 1.8630761567
| 36> H -0.4932957055 -2.4999135445 1.9632386444
| 37> H -2.2097423329 2.5889721233 0.7176118561
| 38> H -3.8157255469 1.8608299066 0.9903383806
| 39> H -3.0259553496 2.9889223259 3.0591371593
| 40> H -3.0928683357 1.2357307745 3.319377225
| 41> H -1.5361095121 2.0340266657 3.0307537854
| 42> H -4.7416871603 -0.4868351873 -2.5248038502
| 43> H -3.3373917944 0.5197749152 -2.9962502557
| 44> H -1.8779426042 -1.4658123034 -2.9983824501
| 45> H -3.2265175271 -2.5004159233 -2.5077016756
| 46> H -3.2378849488 -1.7232197445 -4.1039276365
| 47> *
| 48>
| 49>                          ****END OF INPUT****

CARTESIAN COORDINATES (ANGSTROEM)
---------------------------------
  C      1.482460   -1.398150   -2.957006
  C      2.409498   -0.757889   -1.945076
  O      1.623719    0.109431   -1.082695
  P      1.892446    0.232193    0.464944
  S      0.838225    1.626501    1.338241
  O      3.467096    0.442152    0.504350
  C      4.164140    0.945726    1.659642
  C      4.092063   -0.002802    2.838319
  S      1.611060   -1.728398    1.230801
  C     -0.189388   -1.637140    1.376945
  S     -1.056659   -1.760628   -0.223871
  P     -1.918485    0.142184   -0.547952
  S     -1.098349    1.516594   -1.691891
  O     -2.242230    0.530519    0.951344
  C     -2.764573    1.835411    1.287426
  C     -2.593887    2.034306    2.778258
  O     -3.373133   -0.244447   -1.082597
  C     -3.656026   -0.392955   -2.481294
  C     -2.957675   -1.605314   -3.062364
  H      2.073337   -1.943688   -3.685315
  H      0.795996   -2.083431   -2.464800
  H      0.907198   -0.626618   -3.463666
  H      3.153524   -0.121910   -2.427235
  H      2.912647   -1.508316   -1.328621
  H      5.187879    1.072631    1.304717
  H      3.737757    1.919090    1.920958
  H      4.745150    0.359150    3.625863
  H      3.073191   -0.048629    3.219169
  H      4.402113   -1.001508    2.541374
  H     -0.467844   -0.702831    1.863076
  H     -0.493296   -2.499914    1.963239
  H     -2.209742    2.588972    0.717612
  H     -3.815726    1.860830    0.990338
  H     -3.025955    2.988922    3.059137
  H     -3.092868    1.235731    3.319377
  H     -1.536110    2.034027    3.030754
  H     -4.741687   -0.486835   -2.524804
  H     -3.337392    0.519775   -2.996250
  H     -1.877943   -1.465812   -2.998382
  H     -3.226518   -2.500416   -2.507702
  H     -3.237885   -1.723220   -4.103928

 Total Charge           Charge          ....    0
 Multiplicity           Mult            ....    1
 Number of Electrons    NEL             ....  202
 Basis Dimension        Dim             ....  334

ORBITAL ENERGIES
----------------

  NO   OCC          E(Eh)            E(eV)
   0   2.0000     -88.042633     -2395.7618
   1   2.0000     -88.038012     -2395.6361
   2   2.0000     -87.985119     -2394.1968
   3   2.0000     -87.972913     -2393.8647
   4   2.0000     -76.424479     -2079.6158
   5   2.0000     -76.416842     -2079.4080
   6   2.0000     -18.794036      -511.4117
   7   2.0000     -18.784704      -511.1578
   8   2.0000     -18.784137      -511.1423
   9   2.0000     -18.779388      -511.0131
  10   2.0000      -9.956910      -270.9413
  11   2.0000      -9.954347      -270.8715
  12   2.0000      -9.950052      -270.7547
  13   2.0000      -9.943604      -270.5792
  14   2.0000      -9.943579      -270.5785
  15   2.0000      -9.885723      -269.0042
  16   2.0000      -9.882159      -268.9072
  17   2.0000      -9.878581      -268.8098
  18   2.0000      -9.877260      -268.7739
  19   2.0000      -7.687842      -209.1968
  20   2.0000      -7.683260      -209.0721
  21   2.0000      -7.630112      -207.6259
  22   2.0000      -7.617819      -207.2914
  23   2.0000      -6.421989      -174.7512
  24   2.0000      -6.414504      -174.5475
  25   2.0000      -5.715549      -155.5280
  26   2.0000      -5.712310      -155.4399
  27   2.0000      -5.711557      -155.4194
  28   2.0000      -5.707540      -155.3101
  29   2.0000      -5.704998      -155.2409
  30   2.0000      -5.699949      -155.1035
  31   2.0000      -5.658947      -153.9878
  32   2.0000      -5.650644      -153.7618
  33   2.0000      -5.650370      -153.7544
  34   2.0000      -5.646803      -153.6573
  35   2.0000      -5.638703      -153.4369
  36   2.0000      -5.637666      -153.4087
  37   2.0000      -4.644890      -126.3939
  38   2.0000      -4.643677      -126.3609
  39   2.0000      -4.642236      -126.3217
  40   2.0000      -4.637151      -126.1833
  41   2.0000      -4.636352      -126.1615
  42   2.0000      -4.634778      -126.1187
  43   2.0000      -0.986260       -26.8375
  44   2.0000      -0.978057       -26.6143
  45   2.0000      -0.941396       -25.6167
  46   2.0000      -0.936389       -25.4804
  47   2.0000      -0.760719       -20.7002
  48   2.0000      -0.717379       -19.5209
  49   2.0000      -0.706382       -19.2216
  50   2.0000      -0.687792       -18.7158
  51   2.0000      -0.681213       -18.5367
  52   2.0000      -0.671317       -18.2675
  53   2.0000      -0.648760       -17.6537
  54   2.0000      -0.629161       -17.1203
  55   2.0000      -0.596878       -16.2419
  56   2.0000      -0.584701       -15.9105
  57   2.0000      -0.567830       -15.4514
  58   2.0000      -0.563965       -15.3463
  59   2.0000      -0.558342       -15.1933
  60   2.0000      -0.501943       -13.6586
  61   2.0000      -0.496355       -13.5065
  62   2.0000      -0.472358       -12.8535
  63   2.0000      -0.465133       -12.6569
  64   2.0000      -0.450633       -12.2623
  65   2.0000      -0.444243       -12.0885
  66   2.0000      -0.438642       -11.9360
  67   2.0000      -0.433115       -11.7857
  68   2.0000      -0.424849       -11.5607
  69   2.0000      -0.421385       -11.4665
  70   2.0000      -0.413091       -11.2408
  71   2.0000      -0.390548       -10.6273
  72   2.0000      -0.385399       -10.4872
  73   2.0000      -0.382321       -10.4035
  74   2.0000      -0.378695       -10.3048
  75   2.0000      -0.365988        -9.9590
  76   2.0000      -0.363605        -9.8942
  77   2.0000      -0.353770        -9.6266
  78   2.0000      -0.350013        -9.5244
  79   2.0000      -0.349264        -9.5040
  80   2.0000      -0.347418        -9.4537
  81   2.0000      -0.339169        -9.2293
  82   2.0000      -0.337061        -9.1719
  83   2.0000      -0.331551        -9.0220
  84   2.0000      -0.326246        -8.8776
  85   2.0000      -0.312909        -8.5147
  86   2.0000      -0.304467        -8.2850
  87   2.0000      -0.298916        -8.1339
  88   2.0000      -0.294658        -8.0181
  89   2.0000      -0.289997        -7.8912
  90   2.0000      -0.282596        -7.6898
  91   2.0000      -0.267000        -7.2654
  92   2.0000      -0.266285        -7.2460
  93   2.0000      -0.260890        -7.0992
  94   2.0000      -0.252774        -6.8783
  95   2.0000      -0.235269        -6.4020
  96   2.0000      -0.218852        -5.9553
  97   2.0000      -0.210553        -5.7294
  98   2.0000      -0.201360        -5.4793
  99   2.0000      -0.188505        -5.1295
 100   2.0000      -0.176503        -4.8029
 101   0.0000      -0.041969        -1.1420
 102   0.0000      -0.027874        -0.7585
 103   0.0000      -0.021806        -0.5934
 104   0.0000       0.003136         0.0853
 105   0.0000       0.018297         0.4979

MULLIKEN ATOMIC CHARGES
-----------------------
   0 C :   -0.305906
   1 C :   -0.003673
   2 O :   -0.337542
   3 P :    0.596727
   4 S :   -0.305010
   5 O :   -0.380708
   6 C :    0.000931
   7 C :   -0.319554
   8 S :   -0.100139
   9 C :   -0.356909
  10 S :   -0.107182
  11 P :    0.612737
  12 S :   -0.305310
  13 O :   -0.376578
  14 C :   -0.001233
  15 C :   -0.290749
  16 O :   -0.377336
  17 C :    0.000443
  18 C :   -0.336647
  19 H :    0.102306
  20 H :    0.133024
  21 H :    0.133627
  22 H :    0.108359
  23 H :    0.097248
  24 H :    0.105405
  25 H :    0.113181
  26 H :    0.114470
  27 H :    0.127599
  28 H :    0.117452
  29 H :    0.214255
  30 H :    0.183591
  31 H :    0.114033
  32 H :    0.100966
  33 H :    0.108421
  34 H :    0.110617
  35 H :    0.131965
  36 H :    0.101330
  37 H :    0.106543
  38 H :    0.135032
  39 H :    0.120677
  40 H :    0.113538
Sum of atomic charges:   -0.0000000

LOEWDIN ATOMIC CHARGES
----------------------
   0 C :   -0.361092
   1 C :   -0.110016
   2 O :   -0.226694
   3 P :    0.569907
   4 S :   -0.292694
   5 O :   -0.248029
   6 C :   -0.115618
   7 C :   -0.371796
   8 S :    0.068685
   9 C :   -0.477811
  10 S :    0.082246
  11 P :    0.564510
  12 S :   -0.300410
  13 O :   -0.241960
  14 C :   -0.116221
  15 C :   -0.354507
  16 O :   -0.250757
  17 C :   -0.124732
  18 C :   -0.371555
  19 H :    0.126257
  20 H :    0.119655
  21 H :    0.130654
  22 H :    0.117901
  23 H :    0.101870
  24 H :    0.119046
  25 H :    0.113409
  26 H :    0.131857
  27 H :    0.121303
  28 H :    0.123144
  29 H :    0.132526
  30 H :    0.139193
  31 H :    0.111366
  32 H :    0.111495
  33 H :    0.129630
  34 H :    0.124070
  35 H :    0.124961
  36 H :    0.117008
  37 H :    0.106404
  38 H :    0.120473
  39 H :    0.124931
  40 H :    0.131390

  Mayer bond orders larger than 0.100000
B(  0-C ,  1-C ) :   1.1646 B(  0-C , 19-H ) :   0.9365 B(  0-C , 20-H ) :   0.9348
B(  0-C , 21-H ) :   0.9406 B(  1-C ,  2-O ) :   0.8858 B(  1-C , 22-H ) :   0.9339
B(  1-C , 23-H ) :   0.9129 B(  2-O ,  3-P ) :   1.1565 B(  3-P ,  4-S ) :   1.6313
B(  3-P ,  5-O ) :   1.0895 B(  3-P ,  8-S ) :   0.9399 B(  4-S ,  8-S ) :   0.1060
B(  5-O ,  6-C ) :   0.9065 B(  6-C ,  7-C ) :   1.1659 B(  6-C , 24-H ) :   0.9344
B(  6-C , 25-H ) :   0.9185 B(  7-C , 26-H ) :   0.9370 B(  7-C , 27-H ) :   0.9342
B(  7-C , 28-H ) :   0.9437 B(  8-S ,  9-C ) :   1.0021 B(  9-C , 10-S ) :   0.9954
B(  9-C , 29-H ) :   0.8604 B(  9-C , 30-H ) :   0.9108 B( 10-S , 11-P ) :   0.9478
B( 10-S , 12-S ) :   0.1087 B( 11-P , 12-S ) :   1.6448 B( 11-P , 13-O ) :   1.1176
B( 11-P , 16-O ) :   1.0781 B( 13-O , 14-C ) :   0.8894 B( 14-C , 15-C ) :   1.1635
B( 14-C , 31-H ) :   0.9099 B( 14-C , 32-H ) :   0.9314 B( 15-C , 33-H ) :   0.9411
B( 15-C , 34-H ) :   0.9492 B( 15-C , 35-H ) :   0.9437 B( 16-O , 17-C ) :   0.9213
B( 17-C , 18-C ) :   1.1618 B( 17-C , 36-H ) :   0.9318 B( 17-C , 37-H ) :   0.9076
B( 18-C , 38-H ) :   0.9286 B( 18-C , 39-H ) :   0.9431 B( 18-C , 40-H ) :   0.9386

Dispersion correction           -0.068697912
FINAL SINGLE POINT ENERGY     -2929.512816391764

DIPOLE MOMENT
-------------

Method             : SCF
Type of density    : Electron Density
Multiplicity       :   1
Irrep              :   0
Energy             : -2929.6299199043260160 Eh
Relativity type    :
Basis              : AO
                                X                 Y                 Z
Electronic contribution:      0.408213418       1.533658830       1.107831085
Nuclear contribution   :     -0.062608728      -2.314147359      -0.841907149
                        -----------------------------------------
Total Dipole Moment    :      0.345604691      -0.780488528       0.265923936
                        -----------------------------------------
Magnitude (a.u.)       :      0.894047250
Magnitude (Debye)      :      2.272487512

Rotational constants in cm-1:             0.011570             0.006172             0.005182
Rotational constants in MHz :           346.854427           185.026652           155.361194

                             ****ORCA TERMINATED NORMALLY****
TOTAL RUN TIME: 0 days 0 hours 0 minutes 22 seconds 168 msec
