                         Program Version 6.0.1  -  RELEASE   -
|  1> ! pbe def2-sv(p) def2/J RI DEFGRID1 loosescf d4 GCP(DFT/SV(P)) printgap
|  2> %output
|  3>     printlevel normal
|  4> end
|  5> * xyz 0 1
|  6> C 3.3810314012 -3.1836242237 0.2802760541
|  7> C 2.9763677483 -1.8101190798 0.791325404
|  8> O 2.7084002845 -0.9070546296 -0.2979405056
|  9> C 1.5395162274 -0.964094617 -0.8932720004
| 10> O 0.6435216679 -1.7298303012 -0.5938336742
| 11> C 1.4172109883 0.0554194279 -2.0058304622
| 12> C 0.2195771189 0.9718450149 -1.7646507055
| 13> H 0.0964444559 1.6493922603 -2.6155058562
| 14> C 0.3214604149 1.8197507274 -0.5088314567
| 15> O -0.6604546707 2.2736817592 0.0472193479
| 16> O 1.5553467367 2.019427476 -0.1378134506
| 17> C 1.788734911 2.785682077 1.0625659061
| 18> C 3.2809999136 3.019180009 1.1773503921
| 19> S -1.3690152271 0.0706396237 -1.6918788166
| 20> P -1.6637083784 -0.2834648839 0.3890754695
| 21> S -0.3044737902 -0.2299749806 1.8002502271
| 22> O -2.8445499298 0.6806478659 0.8201112179
| 23> C -4.0607917166 0.8381111123 0.0702666249
| 24> O -2.48614404 -1.6572938912 0.3332088258
| 25> C -1.9275273831 -2.9512326351 0.1019588921
| 26> H 4.2385024521 -3.0980403296 -0.3815757386
| 27> H 3.6398183412 -3.8147958061 1.12381893
| 28> H 2.5562850048 -3.6407560734 -0.261495378
| 29> H 3.7890292857 -1.3346974092 1.3401178713
| 30> H 2.0846497028 -1.8668962655 1.4229810453
| 31> H 1.2583062948 -0.4791052185 -2.9435669957
| 32> H 2.3321065032 0.6440038406 -2.0525281532
| 33> H 1.2246690222 3.7203566974 0.9901928118
| 34> H 1.3959144462 2.2078889061 1.9059986187
| 35> H 3.6370888002 3.594863838 0.3284820466
| 36> H 3.4856356859 3.5636534295 2.0927773376
| 37> H 3.8006521351 2.0662670187 1.2029171189
| 38> H -3.833558392 1.1508596186 -0.94918367
| 39> H -4.6148412912 1.612855291 0.5937223584
| 40> H -4.6139779796 -0.0996195371 0.0617915379
| 41> H -1.0829254146 -3.1204732211 0.7690396935
| 42> H -1.5933523907 -3.0345562276 -0.9309303809
| 43> H -2.7319547999 -3.6521302091 0.3111125283
| 44> *
| 45>
| 46>                          ****END OF INPUT****

CARTESIAN COORDINATES (ANGSTROEM)
---------------------------------
  C      3.381031   -3.183624    0.280276
  C      2.976368   -1.810119    0.791325
  O      2.708400   -0.907055   -0.297941
  C      1.539516   -0.964095   -0.893272
  O      0.643522   -1.729830   -0.593834
  C      1.417211    0.055419   -2.005830
  C      0.219577    0.971845   -1.764651
  H      0.096444    1.649392   -2.615506
  C      0.321460    1.819751   -0.508831
  O     -0.660455    2.273682    0.047219
  O      1.555347    2.019427   -0.137813
  C      1.788735    2.785682    1.062566
  C      3.281000    3.019180    1.177350
  S     -1.369015    0.070640   -1.691879
  P     -1.663708   -0.283465    0.389075
  S     -0.304474   -0.229975    1.800250
  O     -2.844550    0.680648    0.820111
  C     -4.060792    0.838111    0.070267
  O     -2.486144   -1.657294    0.333209
  C     -1.927527   -2.951233    0.101959
  H      4.238502   -3.098040   -0.381576
  H      3.639818   -3.814796    1.123819
  H      2.556285   -3.640756   -0.261495
  H      3.789029   -1.334697    1.340118
  H      2.084650   -1.866896    1.422981
  H      1.258306   -0.479105   -2.943567
  H      2.332107    0.644004   -2.052528
  H      1.224669    3.720357    0.990193
  H      1.395914    2.207889    1.905999
  H      3.637089    3.594864    0.328482
  H      3.485636    3.563653    2.092777
  H      3.800652    2.066267    1.202917
  H     -3.833558    1.150860   -0.949184
  H     -4.614841    1.612855    0.593722
  H     -4.613978   -0.099620    0.061792
  H     -1.082925   -3.120473    0.769040
  H     -1.593352   -3.034556   -0.930930
  H     -2.731955   -3.652130    0.311113

 Total Charge           Charge          ....    0
 Multiplicity           Mult            ....    1
 Number of Electrons    NEL             ....  174
 Basis Dimension        Dim             ....  316

ORBITAL ENERGIES
----------------

  NO   OCC          E(Eh)            E(eV)
   0   2.0000     -88.031141     -2395.4491
   1   2.0000     -87.968356     -2393.7407
   2   2.0000     -76.415668     -2079.3761
   3   2.0000     -18.810371      -511.8562
   4   2.0000     -18.804118      -511.6861
   5   2.0000     -18.778016      -510.9758
   6   2.0000     -18.770838      -510.7805
   7   2.0000     -18.737474      -509.8726
   8   2.0000     -18.736156      -509.8367
   9   2.0000     -10.015545      -272.5368
  10   2.0000     -10.010640      -272.4034
  11   2.0000      -9.952348      -270.8172
  12   2.0000      -9.945692      -270.6360
  13   2.0000      -9.943425      -270.5743
  14   2.0000      -9.931982      -270.2630
  15   2.0000      -9.928178      -270.1595
  16   2.0000      -9.911693      -269.7109
  17   2.0000      -9.888521      -269.0803
  18   2.0000      -9.885347      -268.9940
  19   2.0000      -7.676056      -208.8761
  20   2.0000      -7.613555      -207.1754
  21   2.0000      -6.411350      -174.4617
  22   2.0000      -5.704311      -155.2222
  23   2.0000      -5.700756      -155.1255
  24   2.0000      -5.692429      -154.8989
  25   2.0000      -5.642940      -153.5522
  26   2.0000      -5.634088      -153.3113
  27   2.0000      -5.633177      -153.2865
  28   2.0000      -4.634092      -126.1001
  29   2.0000      -4.633499      -126.0839
  30   2.0000      -4.631722      -126.0356
  31   2.0000      -1.018938       -27.7267
  32   2.0000      -1.010713       -27.5029
  33   2.0000      -0.968836       -26.3634
  34   2.0000      -0.923885       -25.1402
  35   2.0000      -0.917603       -24.9692
  36   2.0000      -0.915420       -24.9098
  37   2.0000      -0.763704       -20.7814
  38   2.0000      -0.708835       -19.2884
  39   2.0000      -0.707438       -19.2504
  40   2.0000      -0.685652       -18.6575
  41   2.0000      -0.654355       -17.8059
  42   2.0000      -0.622829       -16.9480
  43   2.0000      -0.616522       -16.7764
  44   2.0000      -0.604723       -16.4553
  45   2.0000      -0.594209       -16.1693
  46   2.0000      -0.563753       -15.3405
  47   2.0000      -0.512419       -13.9436
  48   2.0000      -0.501568       -13.6484
  49   2.0000      -0.496122       -13.5002
  50   2.0000      -0.478697       -13.0260
  51   2.0000      -0.461074       -12.5465
  52   2.0000      -0.451039       -12.2734
  53   2.0000      -0.449759       -12.2386
  54   2.0000      -0.433979       -11.8092
  55   2.0000      -0.431169       -11.7327
  56   2.0000      -0.417731       -11.3670
  57   2.0000      -0.411072       -11.1858
  58   2.0000      -0.408524       -11.1165
  59   2.0000      -0.398702       -10.8492
  60   2.0000      -0.394456       -10.7337
  61   2.0000      -0.392663       -10.6849
  62   2.0000      -0.384524       -10.4634
  63   2.0000      -0.379960       -10.3392
  64   2.0000      -0.372929       -10.1479
  65   2.0000      -0.367572       -10.0021
  66   2.0000      -0.359839        -9.7917
  67   2.0000      -0.353748        -9.6260
  68   2.0000      -0.351042        -9.5523
  69   2.0000      -0.336679        -9.1615
  70   2.0000      -0.334404        -9.0996
  71   2.0000      -0.320948        -8.7334
  72   2.0000      -0.319612        -8.6971
  73   2.0000      -0.305535        -8.3140
  74   2.0000      -0.302307        -8.2262
  75   2.0000      -0.293380        -7.9833
  76   2.0000      -0.284101        -7.7308
  77   2.0000      -0.281476        -7.6593
  78   2.0000      -0.265490        -7.2244
  79   2.0000      -0.261588        -7.1182
  80   2.0000      -0.253269        -6.8918
  81   2.0000      -0.248465        -6.7611
  82   2.0000      -0.236280        -6.4295
  83   2.0000      -0.224871        -6.1191
  84   2.0000      -0.196584        -5.3493
  85   2.0000      -0.187295        -5.0966
  86   2.0000      -0.177887        -4.8405
  87   0.0000      -0.042651        -1.1606
  88   0.0000      -0.034404        -0.9362
  89   0.0000      -0.027459        -0.7472
  90   0.0000       0.007695         0.2094
  91   0.0000       0.031647         0.8612

MULLIKEN ATOMIC CHARGES
-----------------------
   0 C :   -0.308010
   1 C :   -0.026606
   2 O :   -0.217174
   3 C :    0.094292
   4 O :   -0.204570
   5 C :    0.008456
   6 C :   -0.313471
   7 H :    0.154992
   8 C :    0.165803
   9 O :   -0.186045
  10 O :   -0.216170
  11 C :   -0.030660
  12 C :   -0.277630
  13 S :   -0.097871
  14 P :    0.641600
  15 S :   -0.328789
  16 O :   -0.354070
  17 C :   -0.103059
  18 O :   -0.395874
  19 C :   -0.087208
  20 H :    0.109748
  21 H :    0.113217
  22 H :    0.125888
  23 H :    0.099538
  24 H :    0.130168
  25 H :    0.113937
  26 H :    0.108779
  27 H :    0.108096
  28 H :    0.126368
  29 H :    0.110989
  30 H :    0.113084
  31 H :    0.118951
  32 H :    0.116015
  33 H :    0.125835
  34 H :    0.114521
  35 H :    0.118335
  36 H :    0.115341
  37 H :    0.113253
Sum of atomic charges:    0.0000000

LOEWDIN ATOMIC CHARGES
----------------------
   0 C :   -0.357748
   1 C :   -0.114575
   2 O :   -0.044237
   3 C :    0.027289
   4 O :   -0.172777
   5 C :   -0.251643
   6 C :   -0.257570
   7 H :    0.152664
   8 C :   -0.008146
   9 O :   -0.161309
  10 O :   -0.038975
  11 C :   -0.106236
  12 C :   -0.351125
  13 S :    0.106634
  14 P :    0.593120
  15 S :   -0.302241
  16 O :   -0.234935
  17 C :   -0.213301
  18 O :   -0.258169
  19 C :   -0.209953
  20 H :    0.122670
  21 H :    0.131038
  22 H :    0.128939
  23 H :    0.116195
  24 H :    0.120201
  25 H :    0.143977
  26 H :    0.138978
  27 H :    0.118559
  28 H :    0.121176
  29 H :    0.124362
  30 H :    0.131888
  31 H :    0.127573
  32 H :    0.105617
  33 H :    0.123740
  34 H :    0.111011
  35 H :    0.111987
  36 H :    0.110401
  37 H :    0.114919

  Mayer bond orders larger than 0.100000
B(  0-C ,  1-C ) :   1.1674 B(  0-C , 20-H ) :   0.9478 B(  0-C , 21-H ) :   0.9445
B(  0-C , 22-H ) :   0.9456 B(  1-C ,  2-O ) :   0.9124 B(  1-C , 23-H ) :   0.9374
B(  1-C , 24-H ) :   0.9074 B(  2-O ,  3-C ) :   1.2572 B(  3-C ,  4-O ) :   1.9585
B(  3-C ,  5-C ) :   1.0062 B(  5-C ,  6-C ) :   1.0325 B(  5-C , 25-H ) :   0.8820
B(  5-C , 26-H ) :   0.8810 B(  6-C ,  7-H ) :   0.8707 B(  6-C ,  8-C ) :   0.8970
B(  6-C , 13-S ) :   1.0329 B(  8-C ,  9-O ) :   2.0279 B(  8-C , 10-O ) :   1.2775
B( 10-O , 11-C ) :   0.8870 B( 11-C , 12-C ) :   1.1525 B( 11-C , 27-H ) :   0.9283
B( 11-C , 28-H ) :   0.9197 B( 12-C , 29-H ) :   0.9509 B( 12-C , 30-H ) :   0.9433
B( 12-C , 31-H ) :   0.9474 B( 13-S , 14-P ) :   0.9323 B( 13-S , 15-S ) :   0.1208
B( 14-P , 15-S ) :   1.5678 B( 14-P , 16-O ) :   1.1295 B( 14-P , 18-O ) :   1.0791
B( 16-O , 17-C ) :   0.9297 B( 17-C , 32-H ) :   0.9351 B( 17-C , 33-H ) :   0.9605
B( 17-C , 34-H ) :   0.9473 B( 18-O , 19-C ) :   0.9316 B( 19-C , 35-H ) :   0.9423
B( 19-C , 36-H ) :   0.9493 B( 19-C , 37-H ) :   0.9559

Dispersion correction           -0.055971698
FINAL SINGLE POINT ENERGY     -1979.003430099088

DIPOLE MOMENT
-------------

Method             : SCF
Type of density    : Electron Density
Multiplicity       :   1
Irrep              :   0
Energy             : -1979.1315432996862000 Eh
Relativity type    :
Basis              : AO
                                X                 Y                 Z
Electronic contribution:    -14.666109635       3.349650989      -2.432458612
Nuclear contribution   :     15.655754230      -3.419930360       1.535756571
                        -----------------------------------------
Total Dipole Moment    :      0.989644595      -0.070279371      -0.896702041
                        -----------------------------------------
Magnitude (a.u.)       :      1.337314535
Magnitude (Debye)      :      3.399183410

Rotational constants in cm-1:             0.012677             0.009221             0.007113
Rotational constants in MHz :           380.040904           276.444572           213.241488

                             ****ORCA TERMINATED NORMALLY****
TOTAL RUN TIME: 0 days 0 hours 1 minutes 32 seconds 365 msec
