                         Program Version 6.0.1  -  RELEASE   -
|  1> ! pbe def2-sv(p) def2/J RI DEFGRID1 loosescf d4 GCP(DFT/SV(P)) printgap
|  2> %output
|  3>     printlevel normal
|  4> end
|  5> * xyz 0 1
|  6> C 1.8904825389 -3.6642787559 -2.1717205443
|  7> C 3.1232081993 -2.8848694401 -1.7426084743
|  8> O 2.7459329802 -1.6171392025 -1.1736154522
|  9> C 2.4231341207 -1.5718483003 0.1037370067
| 10> O 2.4963519993 -2.5081894362 0.8671150981
| 11> C 1.9609004989 -0.1871953296 0.520990246
| 12> C 1.1062119111 0.4700563916 -0.5605880283
| 13> H 1.7001590884 0.6200496986 -1.4659563956
| 14> C 0.5434338496 1.7981417115 -0.0960418471
| 15> O -0.6508089638 2.0228549721 -0.0684599665
| 16> O 1.4783835492 2.6272174318 0.2695472103
| 17> C 1.0873060147 3.9255824303 0.7701907422
| 18> C 0.8387374764 4.8975949414 -0.3708338728
| 19> S -0.285699611 -0.5783976037 -1.0866805744
| 20> P -1.6860321321 -0.2579969383 0.4950581649
| 21> S -1.153067342 0.3219691696 2.2912526325
| 22> O -2.9952286193 0.3999874819 -0.1428273645
| 23> C -3.3905992939 1.7707091527 -0.1266911806
| 24> O -2.2275296359 -1.7499363833 0.6584356358
| 25> C -2.8007666329 -2.5063241721 -0.4198636407
| 26> H 2.1958116579 -4.5772042581 -2.6717488386
| 27> H 1.2912672142 -3.9204841815 -1.3007485649
| 28> H 1.2867861982 -3.0632945438 -2.8464803335
| 29> H 3.7476360175 -2.6237649643 -2.5967853177
| 30> H 3.7001120685 -3.4452690516 -1.0015589057
| 31> H 2.8398324146 0.4344627188 0.7054105065
| 32> H 1.406650984 -0.2863364734 1.4577682075
| 33> H 0.1934089412 3.8024505152 1.3877025613
| 34> H 1.9317588959 4.2368205894 1.3844884875
| 35> H 0.6117048125 5.8758388699 0.0395311962
| 36> H 1.7210768413 4.9695375174 -1.0005312779
| 37> H -0.0032359072 4.5653413693 -0.9733184123
| 38> H -2.9533121906 2.2892083968 -0.9774360173
| 39> H -3.0688433837 2.246973957 0.7990226159
| 40> H -4.4764479163 1.7593742799 -0.1937977579
| 41> H -2.1104550386 -2.5386654906 -1.2635091393
| 42> H -3.744099827 -2.0579102632 -0.7259987042
| 43> H -2.9586453735 -3.5032502324 -0.016185455
| 44> *
| 45>
| 46>                          ****END OF INPUT****

CARTESIAN COORDINATES (ANGSTROEM)
---------------------------------
  C      1.890483   -3.664279   -2.171721
  C      3.123208   -2.884869   -1.742608
  O      2.745933   -1.617139   -1.173615
  C      2.423134   -1.571848    0.103737
  O      2.496352   -2.508189    0.867115
  C      1.960900   -0.187195    0.520990
  C      1.106212    0.470056   -0.560588
  H      1.700159    0.620050   -1.465956
  C      0.543434    1.798142   -0.096042
  O     -0.650809    2.022855   -0.068460
  O      1.478384    2.627217    0.269547
  C      1.087306    3.925582    0.770191
  C      0.838737    4.897595   -0.370834
  S     -0.285700   -0.578398   -1.086681
  P     -1.686032   -0.257997    0.495058
  S     -1.153067    0.321969    2.291253
  O     -2.995229    0.399987   -0.142827
  C     -3.390599    1.770709   -0.126691
  O     -2.227530   -1.749936    0.658436
  C     -2.800767   -2.506324   -0.419864
  H      2.195812   -4.577204   -2.671749
  H      1.291267   -3.920484   -1.300749
  H      1.286786   -3.063295   -2.846480
  H      3.747636   -2.623765   -2.596785
  H      3.700112   -3.445269   -1.001559
  H      2.839832    0.434463    0.705411
  H      1.406651   -0.286336    1.457768
  H      0.193409    3.802451    1.387703
  H      1.931759    4.236821    1.384488
  H      0.611705    5.875839    0.039531
  H      1.721077    4.969538   -1.000531
  H     -0.003236    4.565341   -0.973318
  H     -2.953312    2.289208   -0.977436
  H     -3.068843    2.246974    0.799023
  H     -4.476448    1.759374   -0.193798
  H     -2.110455   -2.538665   -1.263509
  H     -3.744100   -2.057910   -0.725999
  H     -2.958645   -3.503250   -0.016185

 Total Charge           Charge          ....    0
 Multiplicity           Mult            ....    1
 Number of Electrons    NEL             ....  174
 Basis Dimension        Dim             ....  316

ORBITAL ENERGIES
----------------

  NO   OCC          E(Eh)            E(eV)
   0   2.0000     -88.034804     -2395.5488
   1   2.0000     -87.969923     -2393.7833
   2   2.0000     -76.419090     -2079.4692
   3   2.0000     -18.827282      -512.3164
   4   2.0000     -18.802261      -511.6355
   5   2.0000     -18.782732      -511.1041
   6   2.0000     -18.772626      -510.8291
   7   2.0000     -18.760439      -510.4975
   8   2.0000     -18.733523      -509.7651
   9   2.0000     -10.031699      -272.9764
  10   2.0000     -10.007151      -272.3084
  11   2.0000      -9.962258      -271.0868
  12   2.0000      -9.952821      -270.8300
  13   2.0000      -9.947785      -270.6930
  14   2.0000      -9.938381      -270.4371
  15   2.0000      -9.935384      -270.3555
  16   2.0000      -9.905309      -269.5372
  17   2.0000      -9.899171      -269.3701
  18   2.0000      -9.884317      -268.9659
  19   2.0000      -7.679614      -208.9729
  20   2.0000      -7.615258      -207.2217
  21   2.0000      -6.414828      -174.5563
  22   2.0000      -5.707670      -155.3136
  23   2.0000      -5.704233      -155.2201
  24   2.0000      -5.696294      -155.0040
  25   2.0000      -5.644723      -153.6007
  26   2.0000      -5.636035      -153.3643
  27   2.0000      -5.634646      -153.3265
  28   2.0000      -4.637689      -126.1979
  29   2.0000      -4.636741      -126.1721
  30   2.0000      -4.635333      -126.1338
  31   2.0000      -1.036373       -28.2011
  32   2.0000      -1.009419       -27.4677
  33   2.0000      -0.971894       -26.4466
  34   2.0000      -0.941087       -25.6083
  35   2.0000      -0.926205       -25.2033
  36   2.0000      -0.911366       -24.7995
  37   2.0000      -0.768336       -20.9075
  38   2.0000      -0.719091       -19.5675
  39   2.0000      -0.706934       -19.2367
  40   2.0000      -0.687636       -18.7115
  41   2.0000      -0.653205       -17.7746
  42   2.0000      -0.631780       -17.1916
  43   2.0000      -0.629528       -17.1303
  44   2.0000      -0.607367       -16.5273
  45   2.0000      -0.595963       -16.2170
  46   2.0000      -0.571504       -15.5514
  47   2.0000      -0.515622       -14.0308
  48   2.0000      -0.505776       -13.7629
  49   2.0000      -0.498526       -13.5656
  50   2.0000      -0.486655       -13.2426
  51   2.0000      -0.468541       -12.7497
  52   2.0000      -0.457614       -12.4523
  53   2.0000      -0.450218       -12.2510
  54   2.0000      -0.441832       -12.0229
  55   2.0000      -0.434429       -11.8214
  56   2.0000      -0.428022       -11.6471
  57   2.0000      -0.419988       -11.4285
  58   2.0000      -0.411675       -11.2022
  59   2.0000      -0.408171       -11.1069
  60   2.0000      -0.401073       -10.9137
  61   2.0000      -0.395510       -10.7624
  62   2.0000      -0.388231       -10.5643
  63   2.0000      -0.385981       -10.5031
  64   2.0000      -0.382973       -10.4212
  65   2.0000      -0.369984       -10.0678
  66   2.0000      -0.361530        -9.8377
  67   2.0000      -0.354418        -9.6442
  68   2.0000      -0.352653        -9.5962
  69   2.0000      -0.339112        -9.2277
  70   2.0000      -0.337242        -9.1768
  71   2.0000      -0.329555        -8.9677
  72   2.0000      -0.324622        -8.8334
  73   2.0000      -0.311594        -8.4789
  74   2.0000      -0.306942        -8.3523
  75   2.0000      -0.293507        -7.9867
  76   2.0000      -0.291431        -7.9302
  77   2.0000      -0.288423        -7.8484
  78   2.0000      -0.283525        -7.7151
  79   2.0000      -0.261704        -7.1213
  80   2.0000      -0.259559        -7.0630
  81   2.0000      -0.250949        -6.8287
  82   2.0000      -0.248081        -6.7506
  83   2.0000      -0.216559        -5.8929
  84   2.0000      -0.212250        -5.7756
  85   2.0000      -0.190984        -5.1969
  86   2.0000      -0.182285        -4.9602
  87   0.0000      -0.047546        -1.2938
  88   0.0000      -0.037853        -1.0300
  89   0.0000      -0.016337        -0.4446
  90   0.0000      -0.002227        -0.0606
  91   0.0000       0.032667         0.8889

MULLIKEN ATOMIC CHARGES
-----------------------
   0 C :   -0.304526
   1 C :   -0.011962
   2 O :   -0.242877
   3 C :    0.135084
   4 O :   -0.186020
   5 C :   -0.102973
   6 C :   -0.288362
   7 H :    0.149712
   8 C :    0.220870
   9 O :   -0.193983
  10 O :   -0.218255
  11 C :   -0.011175
  12 C :   -0.310348
  13 S :   -0.116787
  14 P :    0.637464
  15 S :   -0.326310
  16 O :   -0.399020
  17 C :   -0.078532
  18 O :   -0.368142
  19 C :   -0.111945
  20 H :    0.110691
  21 H :    0.131705
  22 H :    0.114029
  23 H :    0.099833
  24 H :    0.110193
  25 H :    0.123461
  26 H :    0.128634
  27 H :    0.123433
  28 H :    0.111258
  29 H :    0.120326
  30 H :    0.117529
  31 H :    0.128222
  32 H :    0.112361
  33 H :    0.115270
  34 H :    0.115695
  35 H :    0.118538
  36 H :    0.117567
  37 H :    0.129340
Sum of atomic charges:   -0.0000000

LOEWDIN ATOMIC CHARGES
----------------------
   0 C :   -0.357184
   1 C :   -0.110102
   2 O :   -0.065779
   3 C :    0.026899
   4 O :   -0.155213
   5 C :   -0.256534
   6 C :   -0.263211
   7 H :    0.150542
   8 C :    0.025049
   9 O :   -0.156830
  10 O :   -0.034221
  11 C :   -0.105110
  12 C :   -0.356313
  13 S :    0.094999
  14 P :    0.586570
  15 S :   -0.321915
  16 O :   -0.254229
  17 C :   -0.206032
  18 O :   -0.253731
  19 C :   -0.214102
  20 H :    0.128998
  21 H :    0.132287
  22 H :    0.122619
  23 H :    0.116247
  24 H :    0.120749
  25 H :    0.146829
  26 H :    0.138953
  27 H :    0.127014
  28 H :    0.122803
  29 H :    0.134698
  30 H :    0.126717
  31 H :    0.130192
  32 H :    0.111036
  33 H :    0.111405
  34 H :    0.115663
  35 H :    0.102874
  36 H :    0.112594
  37 H :    0.124768

  Mayer bond orders larger than 0.100000
B(  0-C ,  1-C ) :   1.1763 B(  0-C , 20-H ) :   0.9430 B(  0-C , 21-H ) :   0.9440
B(  0-C , 22-H ) :   0.9465 B(  1-C ,  2-O ) :   0.9169 B(  1-C , 23-H ) :   0.9377
B(  1-C , 24-H ) :   0.9145 B(  2-O ,  3-C ) :   1.2022 B(  3-C ,  4-O ) :   2.0808
B(  3-C ,  5-C ) :   1.0208 B(  5-C ,  6-C ) :   1.0458 B(  5-C , 25-H ) :   0.8682
B(  5-C , 26-H ) :   0.8795 B(  6-C ,  7-H ) :   0.8532 B(  6-C ,  8-C ) :   0.9174
B(  6-C , 13-S ) :   1.0410 B(  8-C ,  9-O ) :   1.9324 B(  8-C , 10-O ) :   1.2816
B(  9-O , 14-P ) :   0.1004 B( 10-O , 11-C ) :   0.8984 B( 11-C , 12-C ) :   1.1733
B( 11-C , 27-H ) :   0.9155 B( 11-C , 28-H ) :   0.9362 B( 12-C , 29-H ) :   0.9432
B( 12-C , 30-H ) :   0.9473 B( 12-C , 31-H ) :   0.9452 B( 13-S , 14-P ) :   0.9156
B( 13-S , 15-S ) :   0.1099 B( 14-P , 15-S ) :   1.5857 B( 14-P , 16-O ) :   1.0852
B( 14-P , 18-O ) :   1.1026 B( 16-O , 17-C ) :   0.9300 B( 17-C , 32-H ) :   0.9533
B( 17-C , 33-H ) :   0.9421 B( 17-C , 34-H ) :   0.9539 B( 18-O , 19-C ) :   0.9356
B( 19-C , 35-H ) :   0.9362 B( 19-C , 36-H ) :   0.9466 B( 19-C , 37-H ) :   0.9605

Dispersion correction           -0.052130776
FINAL SINGLE POINT ENERGY     -1979.009703714341

DIPOLE MOMENT
-------------

Method             : SCF
Type of density    : Electron Density
Multiplicity       :   1
Irrep              :   0
Energy             : -1979.1403438607994758 Eh
Relativity type    :
Basis              : AO
                                X                 Y                 Z
Electronic contribution:     -4.282432576      -3.456919674       9.216147890
Nuclear contribution   :      4.667117185       4.713821499     -11.035066123
                        -----------------------------------------
Total Dipole Moment    :      0.384684609       1.256901825      -1.818918233
                        -----------------------------------------
Magnitude (a.u.)       :      2.244158636
Magnitude (Debye)      :      5.704197933

Rotational constants in cm-1:             0.011261             0.008243             0.005823
Rotational constants in MHz :           337.588983           247.116044           174.578140

                             ****ORCA TERMINATED NORMALLY****
TOTAL RUN TIME: 0 days 0 hours 0 minutes 37 seconds 372 msec
