                         Program Version 6.0.1  -  RELEASE   -
|  1> ! pbe def2-sv(p) def2/J RI DEFGRID1 loosescf d4 GCP(DFT/SV(P)) printgap
|  2> %output
|  3>     printlevel normal
|  4> end
|  5> * xyz 0 1
|  6> C 3.4757845878 -3.0568873817 0.443545803
|  7> C 2.9163110077 -1.7339359518 0.9402606906
|  8> O 2.7073932738 -0.8187705437 -0.153109861
|  9> C 1.6081521029 -0.9209450857 -0.8691040411
| 10> O 0.7151479256 -1.7188982475 -0.6581231295
| 11> C 1.5659195788 0.1038442594 -1.9832697594
| 12> C 0.3317336533 0.997855945 -1.8327389601
| 13> H 0.2839048889 1.6994702548 -2.6697863972
| 14> C 0.3434764023 1.7768528047 -0.5327607105
| 15> O -0.6316180665 1.8262945786 0.198543128
| 16> O 1.4840081026 2.3462551298 -0.2892107737
| 17> C 1.6536194608 3.0454088496 0.9660636827
| 18> C 3.1410910577 3.2232037995 1.1930272333
| 19> S -1.2423845644 0.0715062218 -1.9000365531
| 20> P -1.6371266174 -0.4160444827 0.1257494019
| 21> S -0.5503279771 -0.5569849182 1.770649376
| 22> O -3.0309531844 0.323564355 0.4319508819
| 23> C -3.2117922784 1.4426287107 1.2954428132
| 24> O -2.226710089 -1.8373755576 -0.3203121432
| 25> C -2.7671963677 -2.7655519993 0.6204623401
| 26> H 4.388447315 -2.8882148922 -0.1214077311
| 27> H 3.6912206542 -3.6941929245 1.2946491453
| 28> H 2.748087557 -3.5549007249 -0.1934851623
| 29> H 3.6250492387 -1.2202075896 1.5894840981
| 30> H 1.966641532 -1.8779157776 1.4642584655
| 31> H 1.4929075955 -0.4258975568 -2.9334454277
| 32> H 2.4706539385 0.7095789392 -1.9491372832
| 33> H 1.1354033933 4.0050325604 0.8894143187
| 34> H 1.1829574554 2.4519985898 1.75620863
| 35> H 3.5748960931 3.8015736142 0.3834383271
| 36> H 3.2979503137 3.7437358199 2.1316174527
| 37> H 3.6293722332 2.254062455 1.236755925
| 38> H -4.2352560572 1.3757158782 1.657242843
| 39> H -3.0544311534 2.3648956669 0.7394289506
| 40> H -2.505681161 1.3916932814 2.1262653464
| 41> H -2.826295101 -3.7155804492 0.0953785962
| 42> H -3.7564614974 -2.4378996739 0.9409706104
| 43> H -2.107248546 -2.8509487062 1.486881891
| 44> *
| 45>
| 46>                          ****END OF INPUT****

CARTESIAN COORDINATES (ANGSTROEM)
---------------------------------
  C      3.475785   -3.056887    0.443546
  C      2.916311   -1.733936    0.940261
  O      2.707393   -0.818771   -0.153110
  C      1.608152   -0.920945   -0.869104
  O      0.715148   -1.718898   -0.658123
  C      1.565920    0.103844   -1.983270
  C      0.331734    0.997856   -1.832739
  H      0.283905    1.699470   -2.669786
  C      0.343476    1.776853   -0.532761
  O     -0.631618    1.826295    0.198543
  O      1.484008    2.346255   -0.289211
  C      1.653619    3.045409    0.966064
  C      3.141091    3.223204    1.193027
  S     -1.242385    0.071506   -1.900037
  P     -1.637127   -0.416044    0.125749
  S     -0.550328   -0.556985    1.770649
  O     -3.030953    0.323564    0.431951
  C     -3.211792    1.442629    1.295443
  O     -2.226710   -1.837376   -0.320312
  C     -2.767196   -2.765552    0.620462
  H      4.388447   -2.888215   -0.121408
  H      3.691221   -3.694193    1.294649
  H      2.748088   -3.554901   -0.193485
  H      3.625049   -1.220208    1.589484
  H      1.966642   -1.877916    1.464258
  H      1.492908   -0.425898   -2.933445
  H      2.470654    0.709579   -1.949137
  H      1.135403    4.005033    0.889414
  H      1.182957    2.451999    1.756209
  H      3.574896    3.801574    0.383438
  H      3.297950    3.743736    2.131617
  H      3.629372    2.254062    1.236756
  H     -4.235256    1.375716    1.657243
  H     -3.054431    2.364896    0.739429
  H     -2.505681    1.391693    2.126265
  H     -2.826295   -3.715580    0.095379
  H     -3.756461   -2.437900    0.940971
  H     -2.107249   -2.850949    1.486882

 Total Charge           Charge          ....    0
 Multiplicity           Mult            ....    1
 Number of Electrons    NEL             ....  174
 Basis Dimension        Dim             ....  316

ORBITAL ENERGIES
----------------

  NO   OCC          E(Eh)            E(eV)
   0   2.0000     -88.023916     -2395.2525
   1   2.0000     -87.963230     -2393.6012
   2   2.0000     -76.410897     -2079.2462
   3   2.0000     -18.826727      -512.3013
   4   2.0000     -18.801739      -511.6213
   5   2.0000     -18.764703      -510.6135
   6   2.0000     -18.763982      -510.5939
   7   2.0000     -18.760101      -510.4883
   8   2.0000     -18.732832      -509.7463
   9   2.0000     -10.031740      -272.9775
  10   2.0000     -10.007077      -272.3064
  11   2.0000      -9.960824      -271.0478
  12   2.0000      -9.954744      -270.8824
  13   2.0000      -9.940219      -270.4871
  14   2.0000      -9.920784      -269.9583
  15   2.0000      -9.920715      -269.9564
  16   2.0000      -9.913204      -269.7520
  17   2.0000      -9.898005      -269.3384
  18   2.0000      -9.882455      -268.9153
  19   2.0000      -7.669300      -208.6923
  20   2.0000      -7.608117      -207.0274
  21   2.0000      -6.405631      -174.3061
  22   2.0000      -5.697822      -155.0456
  23   2.0000      -5.694278      -154.9492
  24   2.0000      -5.685021      -154.6973
  25   2.0000      -5.637379      -153.4009
  26   2.0000      -5.628791      -153.1672
  27   2.0000      -5.627812      -153.1406
  28   2.0000      -4.628355      -125.9439
  29   2.0000      -4.627856      -125.9304
  30   2.0000      -4.626160      -125.8842
  31   2.0000      -1.037962       -28.2444
  32   2.0000      -1.007478       -27.4149
  33   2.0000      -0.957009       -26.0415
  34   2.0000      -0.941101       -25.6087
  35   2.0000      -0.913075       -24.8460
  36   2.0000      -0.910666       -24.7805
  37   2.0000      -0.766518       -20.8580
  38   2.0000      -0.719842       -19.5879
  39   2.0000      -0.705931       -19.2094
  40   2.0000      -0.681476       -18.5439
  41   2.0000      -0.646504       -17.5923
  42   2.0000      -0.621566       -16.9137
  43   2.0000      -0.609988       -16.5986
  44   2.0000      -0.607560       -16.5325
  45   2.0000      -0.592970       -16.1355
  46   2.0000      -0.563989       -15.3469
  47   2.0000      -0.523746       -14.2519
  48   2.0000      -0.499886       -13.6026
  49   2.0000      -0.493842       -13.4381
  50   2.0000      -0.482104       -13.1187
  51   2.0000      -0.464731       -12.6460
  52   2.0000      -0.457376       -12.4458
  53   2.0000      -0.450406       -12.2562
  54   2.0000      -0.436121       -11.8675
  55   2.0000      -0.432541       -11.7700
  56   2.0000      -0.423123       -11.5138
  57   2.0000      -0.405726       -11.0404
  58   2.0000      -0.404003       -10.9935
  59   2.0000      -0.397719       -10.8225
  60   2.0000      -0.388961       -10.5842
  61   2.0000      -0.384672       -10.4675
  62   2.0000      -0.382850       -10.4179
  63   2.0000      -0.380475       -10.3533
  64   2.0000      -0.375207       -10.2099
  65   2.0000      -0.369878       -10.0649
  66   2.0000      -0.367470        -9.9994
  67   2.0000      -0.358529        -9.7561
  68   2.0000      -0.352521        -9.5926
  69   2.0000      -0.336459        -9.1555
  70   2.0000      -0.335943        -9.1415
  71   2.0000      -0.327940        -8.9237
  72   2.0000      -0.320688        -8.7264
  73   2.0000      -0.316848        -8.6219
  74   2.0000      -0.296054        -8.0560
  75   2.0000      -0.289985        -7.8909
  76   2.0000      -0.283056        -7.7024
  77   2.0000      -0.280979        -7.6458
  78   2.0000      -0.266649        -7.2559
  79   2.0000      -0.257022        -6.9939
  80   2.0000      -0.252670        -6.8755
  81   2.0000      -0.246669        -6.7122
  82   2.0000      -0.239972        -6.5300
  83   2.0000      -0.222716        -6.0604
  84   2.0000      -0.191636        -5.2147
  85   2.0000      -0.179529        -4.8852
  86   2.0000      -0.172230        -4.6866
  87   0.0000      -0.050798        -1.3823
  88   0.0000      -0.043191        -1.1753
  89   0.0000      -0.027069        -0.7366
  90   0.0000       0.011830         0.3219
  91   0.0000       0.027191         0.7399

MULLIKEN ATOMIC CHARGES
-----------------------
   0 C :   -0.307242
   1 C :   -0.027418
   2 O :   -0.227631
   3 C :    0.087838
   4 O :   -0.187978
   5 C :   -0.013162
   6 C :   -0.336220
   7 H :    0.155289
   8 C :    0.221958
   9 O :   -0.196766
  10 O :   -0.214112
  11 C :   -0.035279
  12 C :   -0.281443
  13 S :   -0.052634
  14 P :    0.659207
  15 S :   -0.359962
  16 O :   -0.392947
  17 C :   -0.083014
  18 O :   -0.385678
  19 C :   -0.090788
  20 H :    0.107679
  21 H :    0.112646
  22 H :    0.129663
  23 H :    0.095699
  24 H :    0.134072
  25 H :    0.124130
  26 H :    0.110896
  27 H :    0.109504
  28 H :    0.131758
  29 H :    0.115913
  30 H :    0.116849
  31 H :    0.125122
  32 H :    0.109156
  33 H :    0.105380
  34 H :    0.108110
  35 H :    0.116194
  36 H :    0.103525
  37 H :    0.111688
Sum of atomic charges:    0.0000000

LOEWDIN ATOMIC CHARGES
----------------------
   0 C :   -0.357099
   1 C :   -0.116068
   2 O :   -0.052914
   3 C :    0.020207
   4 O :   -0.161985
   5 C :   -0.249651
   6 C :   -0.263381
   7 H :    0.152068
   8 C :    0.019542
   9 O :   -0.149368
  10 O :   -0.032669
  11 C :   -0.103426
  12 C :   -0.350509
  13 S :    0.128918
  14 P :    0.604477
  15 S :   -0.333072
  16 O :   -0.262489
  17 C :   -0.215122
  18 O :   -0.258764
  19 C :   -0.214586
  20 H :    0.121489
  21 H :    0.130847
  22 H :    0.131293
  23 H :    0.114429
  24 H :    0.121134
  25 H :    0.146958
  26 H :    0.136306
  27 H :    0.119427
  28 H :    0.127386
  29 H :    0.127013
  30 H :    0.133887
  31 H :    0.130551
  32 H :    0.112669
  33 H :    0.107477
  34 H :    0.103501
  35 H :    0.117841
  36 H :    0.107412
  37 H :    0.106269

  Mayer bond orders larger than 0.100000
B(  0-C ,  1-C ) :   1.1684 B(  0-C , 20-H ) :   0.9481 B(  0-C , 21-H ) :   0.9446
B(  0-C , 22-H ) :   0.9453 B(  1-C ,  2-O ) :   0.9099 B(  1-C , 23-H ) :   0.9378
B(  1-C , 24-H ) :   0.9029 B(  2-O ,  3-C ) :   1.2404 B(  3-C ,  4-O ) :   1.9907
B(  3-C ,  5-C ) :   0.9984 B(  5-C ,  6-C ) :   1.0105 B(  5-C , 25-H ) :   0.8887
B(  5-C , 26-H ) :   0.8853 B(  6-C ,  7-H ) :   0.8737 B(  6-C ,  8-C ) :   0.9066
B(  6-C , 13-S ) :   1.0668 B(  8-C ,  9-O ) :   1.9136 B(  8-C , 10-O ) :   1.2880
B(  9-O , 14-P ) :   0.1279 B( 10-O , 11-C ) :   0.8820 B( 11-C , 12-C ) :   1.1591
B( 11-C , 27-H ) :   0.9340 B( 11-C , 28-H ) :   0.9190 B( 12-C , 29-H ) :   0.9486
B( 12-C , 30-H ) :   0.9421 B( 12-C , 31-H ) :   0.9484 B( 13-S , 14-P ) :   0.9124
B( 13-S , 15-S ) :   0.1161 B( 14-P , 15-S ) :   1.4942 B( 14-P , 16-O ) :   1.0812
B( 14-P , 18-O ) :   1.0864 B( 16-O , 17-C ) :   0.9431 B( 17-C , 32-H ) :   0.9566
B( 17-C , 33-H ) :   0.9518 B( 17-C , 34-H ) :   0.9302 B( 18-O , 19-C ) :   0.9438
B( 19-C , 35-H ) :   0.9603 B( 19-C , 36-H ) :   0.9515 B( 19-C , 37-H ) :   0.9310

Dispersion correction           -0.055036980
FINAL SINGLE POINT ENERGY     -1978.995311837088

DIPOLE MOMENT
-------------

Method             : SCF
Type of density    : Electron Density
Multiplicity       :   1
Irrep              :   0
Energy             : -1979.1241104888017617 Eh
Relativity type    :
Basis              : AO
                                X                 Y                 Z
Electronic contribution:    -14.259324958      -0.373353166      -9.156528283
Nuclear contribution   :     15.574683278       1.449594322       9.190783247
                        -----------------------------------------
Total Dipole Moment    :      1.315358320       1.076241156       0.034254964
                        -----------------------------------------
Magnitude (a.u.)       :      1.699892920
Magnitude (Debye)      :      4.320784424

Rotational constants in cm-1:             0.012102             0.009143             0.007172
Rotational constants in MHz :           362.798135           274.112405           215.011531

                             ****ORCA TERMINATED NORMALLY****
TOTAL RUN TIME: 0 days 0 hours 0 minutes 44 seconds 127 msec
