                         Program Version 6.0.1  -  RELEASE   -
|  1> ! pbe def2-sv(p) def2/J RI DEFGRID1 loosescf d4 GCP(DFT/SV(P)) printgap
|  2> %output
|  3>     printlevel normal
|  4> end
|  5> * xyz 0 1
|  6> C 2.5675175007 -3.7477923856 0.3395123691
|  7> C 3.2647982794 -2.4331842596 0.6494316071
|  8> O 3.1363873077 -1.5069758304 -0.4495331345
|  9> C 2.0565679922 -0.7785434396 -0.5483558126
| 10> O 1.1420594059 -0.8018927616 0.2637374187
| 11> C 2.052042314 0.1047472301 -1.7664462383
| 12> C 0.8427592948 1.0232451089 -1.7536089908
| 13> H 0.7833332491 1.6113518763 -2.6722288856
| 14> C 0.8230174199 1.9715386649 -0.5659284855
| 15> O 1.6783195463 1.9850182762 0.2931080768
| 16> O -0.2103702686 2.7764954962 -0.6240546665
| 17> C -0.4323127524 3.7292442917 0.4337290211
| 18> C -1.9239844098 3.8093381903 0.6991940637
| 19> S -0.7451365373 0.0908451468 -1.798780413
| 20> P -1.2242865293 -0.5484773817 0.1611511833
| 21> S -1.1547019444 -2.4214710956 0.7647340821
| 22> O -0.9078241836 0.556823323 1.2838012517
| 23> C -0.0784264839 0.3483878865 2.4233981611
| 24> O -2.7590361916 -0.1451807234 -0.1451009769
| 25> C -3.834271108 -0.5161952241 0.7172509119
| 26> H 1.4908717717 -3.6017684356 0.2676613322
| 27> H 2.9338525826 -4.1552423668 -0.5985414576
| 28> H 2.7651222946 -4.4542551723 1.1387242897
| 29> H 4.340862952 -2.5684865765 0.7570653817
| 30> H 2.8441667433 -1.9745989652 1.5483224304
| 31> H 2.0337783973 -0.5263261735 -2.6564147339
| 32> H 2.9761764617 0.6856388823 -1.7708159888
| 33> H 0.1245852838 3.4064130157 1.3179326413
| 34> H -0.0376411428 4.688037486 0.0868207538
| 35> H -2.2993075767 2.8335060936 0.9978957421
| 36> H -2.1120143673 4.5251454609 1.4923761302
| 37> H -2.4450986384 4.1192896947 -0.2015272685
| 38> H -0.5656928508 0.8588363028 3.2517623508
| 39> H 0.9079511922 0.7724783046 2.2340044052
| 40> H 0.0115123757 -0.7190735795 2.631717378
| 41> H -3.7319359033 -1.5615346221 1.018102162
| 42> H -4.7417262498 -0.375603957 0.135448064
| 43> H -3.8430932648 0.1204246891 1.6021930752
| 44> *
| 45>
| 46>                          ****END OF INPUT****

CARTESIAN COORDINATES (ANGSTROEM)
---------------------------------
  C      2.567518   -3.747792    0.339512
  C      3.264798   -2.433184    0.649432
  O      3.136387   -1.506976   -0.449533
  C      2.056568   -0.778543   -0.548356
  O      1.142059   -0.801893    0.263737
  C      2.052042    0.104747   -1.766446
  C      0.842759    1.023245   -1.753609
  H      0.783333    1.611352   -2.672229
  C      0.823017    1.971539   -0.565928
  O      1.678320    1.985018    0.293108
  O     -0.210370    2.776495   -0.624055
  C     -0.432313    3.729244    0.433729
  C     -1.923984    3.809338    0.699194
  S     -0.745137    0.090845   -1.798780
  P     -1.224287   -0.548477    0.161151
  S     -1.154702   -2.421471    0.764734
  O     -0.907824    0.556823    1.283801
  C     -0.078426    0.348388    2.423398
  O     -2.759036   -0.145181   -0.145101
  C     -3.834271   -0.516195    0.717251
  H      1.490872   -3.601768    0.267661
  H      2.933853   -4.155242   -0.598541
  H      2.765122   -4.454255    1.138724
  H      4.340863   -2.568487    0.757065
  H      2.844167   -1.974599    1.548322
  H      2.033778   -0.526326   -2.656415
  H      2.976176    0.685639   -1.770816
  H      0.124585    3.406413    1.317933
  H     -0.037641    4.688037    0.086821
  H     -2.299308    2.833506    0.997896
  H     -2.112014    4.525145    1.492376
  H     -2.445099    4.119290   -0.201527
  H     -0.565693    0.858836    3.251762
  H      0.907951    0.772478    2.234004
  H      0.011512   -0.719074    2.631717
  H     -3.731936   -1.561535    1.018102
  H     -4.741726   -0.375604    0.135448
  H     -3.843093    0.120425    1.602193

 Total Charge           Charge          ....    0
 Multiplicity           Mult            ....    1
 Number of Electrons    NEL             ....  174
 Basis Dimension        Dim             ....  316

ORBITAL ENERGIES
----------------

  NO   OCC          E(Eh)            E(eV)
   0   2.0000     -88.032525     -2395.4868
   1   2.0000     -87.964782     -2393.6434
   2   2.0000     -76.417073     -2079.4143
   3   2.0000     -18.816058      -512.0110
   4   2.0000     -18.807612      -511.7811
   5   2.0000     -18.784815      -511.1608
   6   2.0000     -18.767197      -510.6814
   7   2.0000     -18.759694      -510.4772
   8   2.0000     -18.745588      -510.0934
   9   2.0000     -10.026822      -272.8437
  10   2.0000     -10.021819      -272.7076
  11   2.0000      -9.952877      -270.8315
  12   2.0000      -9.952764      -270.8285
  13   2.0000      -9.949310      -270.7345
  14   2.0000      -9.927798      -270.1491
  15   2.0000      -9.925999      -270.1002
  16   2.0000      -9.920208      -269.9426
  17   2.0000      -9.883575      -268.9458
  18   2.0000      -9.881143      -268.8796
  19   2.0000      -7.677342      -208.9111
  20   2.0000      -7.609947      -207.0772
  21   2.0000      -6.412362      -174.4893
  22   2.0000      -5.706086      -155.2705
  23   2.0000      -5.701847      -155.1552
  24   2.0000      -5.693444      -154.9265
  25   2.0000      -5.639134      -153.4486
  26   2.0000      -5.630649      -153.2178
  27   2.0000      -5.629664      -153.1909
  28   2.0000      -4.635400      -126.1356
  29   2.0000      -4.634384      -126.1080
  30   2.0000      -4.632666      -126.0612
  31   2.0000      -1.026895       -27.9432
  32   2.0000      -1.017221       -27.6800
  33   2.0000      -0.967415       -26.3247
  34   2.0000      -0.934872       -25.4392
  35   2.0000      -0.923250       -25.1229
  36   2.0000      -0.922788       -25.1103
  37   2.0000      -0.765864       -20.8402
  38   2.0000      -0.719279       -19.5726
  39   2.0000      -0.704065       -19.1586
  40   2.0000      -0.689637       -18.7660
  41   2.0000      -0.652144       -17.7457
  42   2.0000      -0.621705       -16.9174
  43   2.0000      -0.614243       -16.7144
  44   2.0000      -0.607028       -16.5181
  45   2.0000      -0.599844       -16.3226
  46   2.0000      -0.562210       -15.2985
  47   2.0000      -0.511836       -13.9278
  48   2.0000      -0.506279       -13.7765
  49   2.0000      -0.499989       -13.6054
  50   2.0000      -0.488047       -13.2804
  51   2.0000      -0.471035       -12.8175
  52   2.0000      -0.461341       -12.5537
  53   2.0000      -0.451493       -12.2857
  54   2.0000      -0.442729       -12.0473
  55   2.0000      -0.436590       -11.8802
  56   2.0000      -0.420623       -11.4457
  57   2.0000      -0.415602       -11.3091
  58   2.0000      -0.410470       -11.1695
  59   2.0000      -0.403847       -10.9892
  60   2.0000      -0.397143       -10.8068
  61   2.0000      -0.391689       -10.6584
  62   2.0000      -0.388941       -10.5836
  63   2.0000      -0.382371       -10.4049
  64   2.0000      -0.374891       -10.2013
  65   2.0000      -0.365547        -9.9470
  66   2.0000      -0.356763        -9.7080
  67   2.0000      -0.355273        -9.6675
  68   2.0000      -0.350556        -9.5391
  69   2.0000      -0.341230        -9.2853
  70   2.0000      -0.330656        -8.9976
  71   2.0000      -0.326653        -8.8887
  72   2.0000      -0.322024        -8.7627
  73   2.0000      -0.309581        -8.4241
  74   2.0000      -0.302184        -8.2229
  75   2.0000      -0.298031        -8.1098
  76   2.0000      -0.290080        -7.8935
  77   2.0000      -0.274489        -7.4692
  78   2.0000      -0.270100        -7.3498
  79   2.0000      -0.264464        -7.1964
  80   2.0000      -0.259852        -7.0709
  81   2.0000      -0.250281        -6.8105
  82   2.0000      -0.241912        -6.5828
  83   2.0000      -0.232472        -6.3259
  84   2.0000      -0.209912        -5.7120
  85   2.0000      -0.184086        -5.0092
  86   2.0000      -0.177518        -4.8305
  87   0.0000      -0.047456        -1.2913
  88   0.0000      -0.044649        -1.2150
  89   0.0000      -0.024244        -0.6597
  90   0.0000      -0.000109        -0.0030
  91   0.0000       0.034902         0.9497

MULLIKEN ATOMIC CHARGES
-----------------------
   0 C :   -0.323468
   1 C :   -0.013138
   2 O :   -0.217229
   3 C :    0.160709
   4 O :   -0.222377
   5 C :   -0.045914
   6 C :   -0.321668
   7 H :    0.149670
   8 C :    0.193786
   9 O :   -0.195074
  10 O :   -0.218494
  11 C :   -0.023453
  12 C :   -0.294062
  13 S :   -0.063030
  14 P :    0.661840
  15 S :   -0.335458
  16 O :   -0.401065
  17 C :   -0.114213
  18 O :   -0.396888
  19 C :   -0.101233
  20 H :    0.153708
  21 H :    0.109859
  22 H :    0.112228
  23 H :    0.104877
  24 H :    0.115222
  25 H :    0.127441
  26 H :    0.127498
  27 H :    0.114914
  28 H :    0.103317
  29 H :    0.134406
  30 H :    0.106146
  31 H :    0.114286
  32 H :    0.108851
  33 H :    0.136299
  34 H :    0.118843
  35 H :    0.113953
  36 H :    0.116627
  37 H :    0.102286
Sum of atomic charges:   -0.0000000

LOEWDIN ATOMIC CHARGES
----------------------
   0 C :   -0.362443
   1 C :   -0.105363
   2 O :   -0.039067
   3 C :    0.058999
   4 O :   -0.161363
   5 C :   -0.250842
   6 C :   -0.264354
   7 H :    0.151907
   8 C :    0.010737
   9 O :   -0.159151
  10 O :   -0.046844
  11 C :   -0.105172
  12 C :   -0.354093
  13 S :    0.126012
  14 P :    0.591205
  15 S :   -0.330944
  16 O :   -0.247850
  17 C :   -0.226748
  18 O :   -0.273271
  19 C :   -0.221203
  20 H :    0.130659
  21 H :    0.123646
  22 H :    0.131892
  23 H :    0.119153
  24 H :    0.122519
  25 H :    0.149655
  26 H :    0.151445
  27 H :    0.119409
  28 H :    0.116005
  29 H :    0.130267
  30 H :    0.127485
  31 H :    0.126772
  32 H :    0.112338
  33 H :    0.113489
  34 H :    0.107166
  35 H :    0.104698
  36 H :    0.117816
  37 H :    0.105434

  Mayer bond orders larger than 0.100000
B(  0-C ,  1-C ) :   1.1760 B(  0-C , 20-H ) :   0.9232 B(  0-C , 21-H ) :   0.9466
B(  0-C , 22-H ) :   0.9419 B(  1-C ,  2-O ) :   0.8992 B(  1-C , 23-H ) :   0.9369
B(  1-C , 24-H ) :   0.9166 B(  2-O ,  3-C ) :   1.2826 B(  3-C ,  4-O ) :   1.8433
B(  3-C ,  5-C ) :   1.0189 B(  4-O , 14-P ) :   0.1504 B(  5-C ,  6-C ) :   1.0202
B(  5-C , 25-H ) :   0.8831 B(  5-C , 26-H ) :   0.8755 B(  6-C ,  7-H ) :   0.8759
B(  6-C ,  8-C ) :   0.8956 B(  6-C , 13-S ) :   1.0181 B(  8-C ,  9-O ) :   2.0352
B(  8-C , 10-O ) :   1.2601 B(  9-O , 10-O ) :   0.1010 B( 10-O , 11-C ) :   0.9001
B( 11-C , 12-C ) :   1.1670 B( 11-C , 27-H ) :   0.9138 B( 11-C , 28-H ) :   0.9360
B( 12-C , 29-H ) :   0.9394 B( 12-C , 30-H ) :   0.9430 B( 12-C , 31-H ) :   0.9473
B( 13-S , 14-P ) :   0.9524 B( 14-P , 15-S ) :   1.5756 B( 14-P , 16-O ) :   1.0394
B( 14-P , 18-O ) :   1.0430 B( 16-O , 17-C ) :   0.9262 B( 17-C , 32-H ) :   0.9522
B( 17-C , 33-H ) :   0.9338 B( 17-C , 34-H ) :   0.9264 B( 18-O , 19-C ) :   0.9481
B( 19-C , 35-H ) :   0.9276 B( 19-C , 36-H ) :   0.9599 B( 19-C , 37-H ) :   0.9502

Dispersion correction           -0.055926782
FINAL SINGLE POINT ENERGY     -1979.006904440552

DIPOLE MOMENT
-------------

Method             : SCF
Type of density    : Electron Density
Multiplicity       :   1
Irrep              :   0
Energy             : -1979.1386421530792177 Eh
Relativity type    :
Basis              : AO
                                X                 Y                 Z
Electronic contribution:     -1.697704566      -3.109988710      -9.697372379
Nuclear contribution   :      2.526639704       4.056398088       9.821475581
                        -----------------------------------------
Total Dipole Moment    :      0.828935138       0.946409378       0.124103202
                        -----------------------------------------
Magnitude (a.u.)       :      1.264209547
Magnitude (Debye)      :      3.213365298

Rotational constants in cm-1:             0.013078             0.009217             0.006970
Rotational constants in MHz :           392.064331           276.316183           208.954430

                             ****ORCA TERMINATED NORMALLY****
TOTAL RUN TIME: 0 days 0 hours 0 minutes 42 seconds 581 msec
