                         Program Version 6.0.0  -   RELEASE  -
|  1> ! pbe def2-sv(p) def2/J RI DEFGRID1 loosescf d4 GCP(DFT/SV(P)) printgap
|  2> %output
|  3>     printlevel normal
|  4> end
|  5> * xyz 0 1
|  6> C 2.9440255125 -1.2248483455 -2.9731715286
|  7> C 3.2285102555 -0.3234735069 -1.7893117925
|  8> O 2.6585694661 -0.9299197691 -0.6069656359
|  9> P 1.9483710606 -0.1295166034 0.5510783276
| 10> S 1.2378622531 1.6555875147 0.0965988386
| 11> O 3.107993137 -0.0320993198 1.6358525672
| 12> C 3.0537679653 0.8202765121 2.7955323453
| 13> C 4.4675032008 1.2502182315 3.1341112207
| 14> S 0.7539932018 -1.6397732387 1.3974001944
| 15> C -0.2728984636 -2.1815940713 -0.0236746167
| 16> S -0.4371408712 -0.9719215586 -1.3559155175
| 17> P -1.9310150626 0.2750048423 -0.5236472984
| 18> S -2.2677968308 1.9835491501 -1.4140206636
| 19> O -1.4719164524 0.2880653115 0.9933223201
| 20> C -1.8446038006 1.3478769006 1.8942964197
| 21> C -3.3330347509 1.3565383861 2.166719654
| 22> O -3.2092518187 -0.6771617679 -0.4143854594
| 23> C -4.1915775639 -0.761669887 -1.4576387315
| 24> C -3.6521976466 -1.4541683114 -2.6933414179
| 25> H 1.8713836028 -1.305917768 -3.1325637672
| 26> H 3.4070208507 -0.8019689582 -3.8587369782
| 27> H 3.3514235052 -2.2146587998 -2.7902512964
| 28> H 2.7870977033 0.6701318566 -1.9250397182
| 29> H 4.3007592094 -0.2195536274 -1.6107581486
| 30> H 2.4193884395 1.6839322502 2.566872017
| 31> H 2.6059713147 0.2456363953 3.6101922842
| 32> H 4.8873416601 1.8305728732 2.3170437813
| 33> H 4.4488697052 1.858338369 4.0325402188
| 34> H 5.0892033968 0.3755967594 3.301709453
| 35> H -1.2553533041 -2.4232257429 0.3768223484
| 36> H 0.2038391263 -3.0517920814 -0.4685637137
| 37> H -1.2656253328 1.1355268299 2.795067627
| 38> H -1.5152848295 2.299052182 1.4626285514
| 39> H -3.6548264692 0.380695149 2.5208014868
| 40> H -3.5549418991 2.1081174817 2.9176746135
| 41> H -3.8727857537 1.5994917493 1.2520101505
| 42> H -5.0109410855 -1.3214545555 -1.0046282165
| 43> H -4.5215549416 0.252902891 -1.7029192932
| 44> H -2.8524636285 -0.8570344937 -3.1314298948
| 45> H -3.2599035896 -2.4359299523 -2.4415706449
| 46> H -4.4500232715 -1.5606739406 -3.4212202317
| 47> *
| 48>
| 49>                          ****END OF INPUT****

CARTESIAN COORDINATES (ANGSTROEM)
---------------------------------
  C      2.944026   -1.224848   -2.973172
  C      3.228510   -0.323474   -1.789312
  O      2.658569   -0.929920   -0.606966
  P      1.948371   -0.129517    0.551078
  S      1.237862    1.655588    0.096599
  O      3.107993   -0.032099    1.635853
  C      3.053768    0.820277    2.795532
  C      4.467503    1.250218    3.134111
  S      0.753993   -1.639773    1.397400
  C     -0.272898   -2.181594   -0.023675
  S     -0.437141   -0.971922   -1.355916
  P     -1.931015    0.275005   -0.523647
  S     -2.267797    1.983549   -1.414021
  O     -1.471916    0.288065    0.993322
  C     -1.844604    1.347877    1.894296
  C     -3.333035    1.356538    2.166720
  O     -3.209252   -0.677162   -0.414385
  C     -4.191578   -0.761670   -1.457639
  C     -3.652198   -1.454168   -2.693341
  H      1.871384   -1.305918   -3.132564
  H      3.407021   -0.801969   -3.858737
  H      3.351424   -2.214659   -2.790251
  H      2.787098    0.670132   -1.925040
  H      4.300759   -0.219554   -1.610758
  H      2.419388    1.683932    2.566872
  H      2.605971    0.245636    3.610192
  H      4.887342    1.830573    2.317044
  H      4.448870    1.858338    4.032540
  H      5.089203    0.375597    3.301709
  H     -1.255353   -2.423226    0.376822
  H      0.203839   -3.051792   -0.468564
  H     -1.265625    1.135527    2.795068
  H     -1.515285    2.299052    1.462629
  H     -3.654826    0.380695    2.520801
  H     -3.554942    2.108117    2.917675
  H     -3.872786    1.599492    1.252010
  H     -5.010941   -1.321455   -1.004628
  H     -4.521555    0.252903   -1.702919
  H     -2.852464   -0.857034   -3.131430
  H     -3.259904   -2.435930   -2.441571
  H     -4.450023   -1.560674   -3.421220

 Total Charge           Charge          ....    0
 Multiplicity           Mult            ....    1
 Number of Electrons    NEL             ....  202
 Basis Dimension        Dim             ....  334

ORBITAL ENERGIES
----------------

  NO   OCC          E(Eh)            E(eV)
   0   2.0000     -88.046057     -2395.8550
   1   2.0000     -88.035618     -2395.5709
   2   2.0000     -87.985885     -2394.2177
   3   2.0000     -87.977022     -2393.9765
   4   2.0000     -76.424384     -2079.6132
   5   2.0000     -76.422115     -2079.5515
   6   2.0000     -18.788740      -511.2676
   7   2.0000     -18.788727      -511.2673
   8   2.0000     -18.784626      -511.1557
   9   2.0000     -18.784390      -511.1492
  10   2.0000      -9.961249      -271.0594
  11   2.0000      -9.950035      -270.7542
  12   2.0000      -9.948178      -270.7037
  13   2.0000      -9.947814      -270.6938
  14   2.0000      -9.944544      -270.6048
  15   2.0000      -9.884171      -268.9620
  16   2.0000      -9.883722      -268.9497
  17   2.0000      -9.883625      -268.9471
  18   2.0000      -9.878645      -268.8116
  19   2.0000      -7.690460      -209.2681
  20   2.0000      -7.681156      -209.0149
  21   2.0000      -7.631015      -207.6505
  22   2.0000      -7.621614      -207.3947
  23   2.0000      -6.421688      -174.7430
  24   2.0000      -6.419142      -174.6737
  25   2.0000      -5.718792      -155.6162
  26   2.0000      -5.714764      -155.5066
  27   2.0000      -5.709378      -155.3601
  28   2.0000      -5.707173      -155.3001
  29   2.0000      -5.705673      -155.2593
  30   2.0000      -5.697697      -155.0422
  31   2.0000      -5.660031      -154.0173
  32   2.0000      -5.651790      -153.7930
  33   2.0000      -5.650938      -153.7698
  34   2.0000      -5.650577      -153.7600
  35   2.0000      -5.642229      -153.5328
  36   2.0000      -5.641778      -153.5206
  37   2.0000      -4.643935      -126.3679
  38   2.0000      -4.643657      -126.3603
  39   2.0000      -4.642314      -126.3238
  40   2.0000      -4.641778      -126.3092
  41   2.0000      -4.641032      -126.2889
  42   2.0000      -4.639487      -126.2468
  43   2.0000      -0.983097       -26.7514
  44   2.0000      -0.981094       -26.6969
  45   2.0000      -0.940896       -25.6031
  46   2.0000      -0.940544       -25.5935
  47   2.0000      -0.762988       -20.7620
  48   2.0000      -0.719955       -19.5910
  49   2.0000      -0.706010       -19.2115
  50   2.0000      -0.685519       -18.6539
  51   2.0000      -0.683058       -18.5870
  52   2.0000      -0.670601       -18.2480
  53   2.0000      -0.649586       -17.6761
  54   2.0000      -0.634102       -17.2548
  55   2.0000      -0.597168       -16.2498
  56   2.0000      -0.588571       -16.0158
  57   2.0000      -0.568336       -15.4652
  58   2.0000      -0.566985       -15.4284
  59   2.0000      -0.560945       -15.2641
  60   2.0000      -0.503434       -13.6991
  61   2.0000      -0.490064       -13.3353
  62   2.0000      -0.478192       -13.0123
  63   2.0000      -0.468902       -12.7595
  64   2.0000      -0.455258       -12.3882
  65   2.0000      -0.439262       -11.9529
  66   2.0000      -0.436365       -11.8741
  67   2.0000      -0.431888       -11.7523
  68   2.0000      -0.425306       -11.5732
  69   2.0000      -0.414656       -11.2834
  70   2.0000      -0.411142       -11.1877
  71   2.0000      -0.391197       -10.6450
  72   2.0000      -0.390132       -10.6160
  73   2.0000      -0.386989       -10.5305
  74   2.0000      -0.377322       -10.2675
  75   2.0000      -0.375364       -10.2142
  76   2.0000      -0.366326        -9.9682
  77   2.0000      -0.354736        -9.6528
  78   2.0000      -0.353983        -9.6324
  79   2.0000      -0.349905        -9.5214
  80   2.0000      -0.345151        -9.3920
  81   2.0000      -0.343278        -9.3411
  82   2.0000      -0.337901        -9.1948
  83   2.0000      -0.335398        -9.1266
  84   2.0000      -0.327392        -8.9088
  85   2.0000      -0.320931        -8.7330
  86   2.0000      -0.311018        -8.4632
  87   2.0000      -0.295467        -8.0401
  88   2.0000      -0.293028        -7.9737
  89   2.0000      -0.284556        -7.7432
  90   2.0000      -0.281932        -7.6718
  91   2.0000      -0.270791        -7.3686
  92   2.0000      -0.268427        -7.3043
  93   2.0000      -0.259860        -7.0712
  94   2.0000      -0.256499        -6.9797
  95   2.0000      -0.229042        -6.2325
  96   2.0000      -0.218453        -5.9444
  97   2.0000      -0.208240        -5.6665
  98   2.0000      -0.200723        -5.4619
  99   2.0000      -0.191227        -5.2036
 100   2.0000      -0.183559        -4.9949
 101   0.0000      -0.050571        -1.3761
 102   0.0000      -0.028292        -0.7699
 103   0.0000      -0.012507        -0.3403
 104   0.0000      -0.002774        -0.0755
 105   0.0000       0.024570         0.6686

MULLIKEN ATOMIC CHARGES
-----------------------
   0 C :   -0.295703
   1 C :   -0.002908
   2 O :   -0.374281
   3 P :    0.617277
   4 S :   -0.321161
   5 O :   -0.376157
   6 C :   -0.006819
   7 C :   -0.282069
   8 S :   -0.108156
   9 C :   -0.312525
  10 S :   -0.094375
  11 P :    0.628354
  12 S :   -0.304435
  13 O :   -0.371537
  14 C :    0.002893
  15 C :   -0.303951
  16 O :   -0.377646
  17 C :   -0.006829
  18 C :   -0.305401
  19 H :    0.126310
  20 H :    0.111139
  21 H :    0.112679
  22 H :    0.114479
  23 H :    0.103829
  24 H :    0.102316
  25 H :    0.097209
  26 H :    0.117355
  27 H :    0.109211
  28 H :    0.115661
  29 H :    0.183701
  30 H :    0.185242
  31 H :    0.097297
  32 H :    0.118617
  33 H :    0.111586
  34 H :    0.110050
  35 H :    0.121388
  36 H :    0.102478
  37 H :    0.109768
  38 H :    0.123531
  39 H :    0.109746
  40 H :    0.111836
Sum of atomic charges:    0.0000000

LOEWDIN ATOMIC CHARGES
----------------------
   0 C :   -0.355530
   1 C :   -0.115343
   2 O :   -0.244690
   3 P :    0.558044
   4 S :   -0.308693
   5 O :   -0.252441
   6 C :   -0.121847
   7 C :   -0.351134
   8 S :    0.067522
   9 C :   -0.465779
  10 S :    0.111754
  11 P :    0.576219
  12 S :   -0.304170
  13 O :   -0.238199
  14 C :   -0.115887
  15 C :   -0.366458
  16 O :   -0.251318
  17 C :   -0.122692
  18 C :   -0.367227
  19 H :    0.121193
  20 H :    0.130758
  21 H :    0.124517
  22 H :    0.109920
  23 H :    0.115010
  24 H :    0.103901
  25 H :    0.109348
  26 H :    0.127730
  27 H :    0.129372
  28 H :    0.126065
  29 H :    0.133237
  30 H :    0.137151
  31 H :    0.115491
  32 H :    0.112448
  33 H :    0.124095
  34 H :    0.129518
  35 H :    0.120853
  36 H :    0.117021
  37 H :    0.108927
  38 H :    0.119868
  39 H :    0.121381
  40 H :    0.130065

  Mayer bond orders larger than 0.100000
B(  0-C ,  1-C ) :   1.1619 B(  0-C , 19-H ) :   0.9449 B(  0-C , 20-H ) :   0.9411
B(  0-C , 21-H ) :   0.9500 B(  1-C ,  2-O ) :   0.8911 B(  1-C , 22-H ) :   0.9034
B(  1-C , 23-H ) :   0.9343 B(  2-O ,  3-P ) :   1.1256 B(  3-P ,  4-S ) :   1.5917
B(  3-P ,  5-O ) :   1.1056 B(  3-P ,  8-S ) :   0.9914 B(  4-S ,  8-S ) :   0.1171
B(  5-O ,  6-C ) :   0.9115 B(  6-C ,  7-C ) :   1.1620 B(  6-C , 24-H ) :   0.9002
B(  6-C , 25-H ) :   0.9317 B(  7-C , 26-H ) :   0.9509 B(  7-C , 27-H ) :   0.9420
B(  7-C , 28-H ) :   0.9511 B(  8-S ,  9-C ) :   0.9630 B(  9-C , 10-S ) :   1.0161
B(  9-C , 29-H ) :   0.9023 B(  9-C , 30-H ) :   0.9097 B( 10-S , 11-P ) :   0.9396
B( 11-P , 12-S ) :   1.6395 B( 11-P , 13-O ) :   1.1191 B( 11-P , 16-O ) :   1.0677
B( 13-O , 14-C ) :   0.8974 B( 14-C , 15-C ) :   1.1614 B( 14-C , 31-H ) :   0.9332
B( 14-C , 32-H ) :   0.9180 B( 15-C , 33-H ) :   0.9451 B( 15-C , 34-H ) :   0.9392
B( 15-C , 35-H ) :   0.9345 B( 16-O , 17-C ) :   0.9170 B( 17-C , 18-C ) :   1.1654
B( 17-C , 36-H ) :   0.9340 B( 17-C , 37-H ) :   0.9131 B( 18-C , 38-H ) :   0.9362
B( 18-C , 39-H ) :   0.9459 B( 18-C , 40-H ) :   0.9387

Dispersion correction           -0.067227505
FINAL SINGLE POINT ENERGY     -2929.512085867344

DIPOLE MOMENT
-------------

Method             : SCF
Type of density    : Electron Density
Multiplicity       :   1
Irrep              :   0
Energy             : -2929.6288257223159235 Eh
Relativity type    :
Basis              : AO
                                X                 Y                 Z
Electronic contribution:     -0.203147553       0.773700068      -1.177461674
Nuclear contribution   :      0.169997730      -1.823625061       1.598931830
                        -----------------------------------------
Total Dipole Moment    :     -0.033149824      -1.049924993       0.421470156
                        -----------------------------------------
Magnitude (a.u.)       :      1.131847381
Magnitude (Debye)      :      2.876927409

Rotational constants in cm-1:             0.011755             0.005714             0.004887
Rotational constants in MHz :           352.403011           171.301625           146.512871

                             ****ORCA TERMINATED NORMALLY****
TOTAL RUN TIME: 0 days 0 hours 0 minutes 21 seconds 263 msec
