                         Program Version 6.0.0  -   RELEASE  -
|  1> ! pbe def2-sv(p) def2/J RI DEFGRID1 loosescf d4 GCP(DFT/SV(P)) printgap
|  2> %output
|  3>     printlevel normal
|  4> end
|  5> * xyz 0 1
|  6> C 3.0258483258 0.6417263913 -2.6256775636
|  7> C 2.0629853876 -0.5207916633 -2.5136997767
|  8> O 1.3280932616 -0.5089262604 -1.2727065241
|  9> P 1.9771407969 -0.4774936932 0.1715180188
| 10> S 2.562550256 1.2720512033 0.8541432541
| 11> O 3.0992847601 -1.5935503084 0.004608969
| 12> C 3.7489981391 -2.3206886738 1.0656074753
| 13> C 4.3121830713 -1.4284837601 2.1512282448
| 14> S 0.5039708957 -1.4298413072 1.3401446287
| 15> C -0.2920077059 0.016610122 2.1094015151
| 16> S -2.0457653956 0.1437351143 1.711233621
| 17> P -1.8636061468 0.6348663596 -0.3543952338
| 18> S -0.5668809556 2.0253568612 -0.8145914654
| 19> O -3.3785092499 0.872713962 -0.7714041588
| 20> C -4.3123414159 1.7149721074 -0.069355709
| 21> C -3.7999776927 3.1254363906 0.1305330559
| 22> O -1.5220685509 -0.700789809 -1.1180306762
| 23> C -2.3088778305 -1.9139282061 -1.0061105863
| 24> C -3.2279151346 -2.0636477458 -2.2006617669
| 25> H 3.4893617499 0.6377186599 -3.6071135685
| 26> H 2.4954890401 1.5814704536 -2.4797646591
| 27> H 3.7991595316 0.5606776854 -1.8621471729
| 28> H 2.5887725099 -1.4756618692 -2.5877435128
| 29> H 1.2777965781 -0.4622712492 -3.2699013209
| 30> H 3.0239145129 -3.0251293429 1.4820756679
| 31> H 4.5411910529 -2.8659633894 0.5489388177
| 32> H 4.8603104177 -2.0365821818 2.8636290432
| 33> H 4.9790656264 -0.682430301 1.7257151338
| 34> H 3.5079749979 -0.9098669399 2.6704513667
| 35> H 0.237584886 0.917598667 1.7830896866
| 36> H -0.2381797505 -0.1011189104 3.188726032
| 37> H -5.1986858649 1.7009608298 -0.7060867954
| 38> H -4.5364432856 1.2453120753 0.8922687302
| 39> H -3.5174107225 3.5661309584 -0.8228645628
| 40> H -4.5750599812 3.7290860152 0.5914208922
| 41> H -2.9229818942 3.1199994957 0.7765643936
| 42> H -1.570190417 -2.7171714416 -0.9631132113
| 43> H -2.8748028683 -1.88768119 -0.0704331786
| 44> H -2.6489524517 -2.0651278679 -3.1200016808
| 45> H -3.769190523 -3.0006739837 -2.1152474451
| 46> H -3.9358727973 -1.2398364289 -2.2354890656
| 47> *
| 48>
| 49>                          ****END OF INPUT****

CARTESIAN COORDINATES (ANGSTROEM)
---------------------------------
  C      3.025848    0.641726   -2.625678
  C      2.062985   -0.520792   -2.513700
  O      1.328093   -0.508926   -1.272707
  P      1.977141   -0.477494    0.171518
  S      2.562550    1.272051    0.854143
  O      3.099285   -1.593550    0.004609
  C      3.748998   -2.320689    1.065607
  C      4.312183   -1.428484    2.151228
  S      0.503971   -1.429841    1.340145
  C     -0.292008    0.016610    2.109402
  S     -2.045765    0.143735    1.711234
  P     -1.863606    0.634866   -0.354395
  S     -0.566881    2.025357   -0.814591
  O     -3.378509    0.872714   -0.771404
  C     -4.312341    1.714972   -0.069356
  C     -3.799978    3.125436    0.130533
  O     -1.522069   -0.700790   -1.118031
  C     -2.308878   -1.913928   -1.006111
  C     -3.227915   -2.063648   -2.200662
  H      3.489362    0.637719   -3.607114
  H      2.495489    1.581470   -2.479765
  H      3.799160    0.560678   -1.862147
  H      2.588773   -1.475662   -2.587744
  H      1.277797   -0.462271   -3.269901
  H      3.023915   -3.025129    1.482076
  H      4.541191   -2.865963    0.548939
  H      4.860310   -2.036582    2.863629
  H      4.979066   -0.682430    1.725715
  H      3.507975   -0.909867    2.670451
  H      0.237585    0.917599    1.783090
  H     -0.238180   -0.101119    3.188726
  H     -5.198686    1.700961   -0.706087
  H     -4.536443    1.245312    0.892269
  H     -3.517411    3.566131   -0.822865
  H     -4.575060    3.729086    0.591421
  H     -2.922982    3.119999    0.776564
  H     -1.570190   -2.717171   -0.963113
  H     -2.874803   -1.887681   -0.070433
  H     -2.648952   -2.065128   -3.120002
  H     -3.769191   -3.000674   -2.115247
  H     -3.935873   -1.239836   -2.235489

 Total Charge           Charge          ....    0
 Multiplicity           Mult            ....    1
 Number of Electrons    NEL             ....  202
 Basis Dimension        Dim             ....  334

ORBITAL ENERGIES
----------------

  NO   OCC          E(Eh)            E(eV)
   0   2.0000     -88.043225     -2395.7780
   1   2.0000     -88.041557     -2395.7325
   2   2.0000     -87.975528     -2393.9358
   3   2.0000     -87.972980     -2393.8665
   4   2.0000     -76.421331     -2079.5301
   5   2.0000     -76.420183     -2079.4989
   6   2.0000     -18.792294      -511.3643
   7   2.0000     -18.790837      -511.3247
   8   2.0000     -18.783536      -511.1260
   9   2.0000     -18.773482      -510.8524
  10   2.0000      -9.957980      -270.9704
  11   2.0000      -9.956345      -270.9259
  12   2.0000      -9.953768      -270.8558
  13   2.0000      -9.949283      -270.7338
  14   2.0000      -9.943766      -270.5836
  15   2.0000      -9.883509      -268.9440
  16   2.0000      -9.880630      -268.8656
  17   2.0000      -9.880561      -268.8637
  18   2.0000      -9.871524      -268.6178
  19   2.0000      -7.688246      -209.2078
  20   2.0000      -7.686656      -209.1646
  21   2.0000      -7.620567      -207.3662
  22   2.0000      -7.618134      -207.3000
  23   2.0000      -6.418109      -174.6456
  24   2.0000      -6.417344      -174.6248
  25   2.0000      -5.715975      -155.5396
  26   2.0000      -5.714415      -155.4971
  27   2.0000      -5.712525      -155.4457
  28   2.0000      -5.711107      -155.4071
  29   2.0000      -5.705625      -155.2579
  30   2.0000      -5.703766      -155.2074
  31   2.0000      -5.649569      -153.7326
  32   2.0000      -5.647256      -153.6697
  33   2.0000      -5.641450      -153.5117
  34   2.0000      -5.640371      -153.4823
  35   2.0000      -5.638651      -153.4355
  36   2.0000      -5.638155      -153.4220
  37   2.0000      -4.641095      -126.2906
  38   2.0000      -4.640213      -126.2666
  39   2.0000      -4.639904      -126.2582
  40   2.0000      -4.639493      -126.2470
  41   2.0000      -4.638288      -126.2142
  42   2.0000      -4.637201      -126.1847
  43   2.0000      -0.984441       -26.7880
  44   2.0000      -0.979839       -26.6628
  45   2.0000      -0.940505       -25.5924
  46   2.0000      -0.933399       -25.3991
  47   2.0000      -0.761587       -20.7238
  48   2.0000      -0.716835       -19.5061
  49   2.0000      -0.706533       -19.2257
  50   2.0000      -0.688441       -18.7334
  51   2.0000      -0.684877       -18.6364
  52   2.0000      -0.671313       -18.2673
  53   2.0000      -0.646966       -17.6048
  54   2.0000      -0.631194       -17.1757
  55   2.0000      -0.588445       -16.0124
  56   2.0000      -0.583567       -15.8797
  57   2.0000      -0.574660       -15.6373
  58   2.0000      -0.570459       -15.5230
  59   2.0000      -0.563265       -15.3272
  60   2.0000      -0.500167       -13.6102
  61   2.0000      -0.490345       -13.3430
  62   2.0000      -0.471321       -12.8253
  63   2.0000      -0.459919       -12.5150
  64   2.0000      -0.453649       -12.3444
  65   2.0000      -0.449691       -12.2367
  66   2.0000      -0.434558       -11.8249
  67   2.0000      -0.430904       -11.7255
  68   2.0000      -0.421918       -11.4810
  69   2.0000      -0.413002       -11.2384
  70   2.0000      -0.408061       -11.1039
  71   2.0000      -0.404502       -11.0071
  72   2.0000      -0.394588       -10.7373
  73   2.0000      -0.391389       -10.6502
  74   2.0000      -0.382774       -10.4158
  75   2.0000      -0.357550        -9.7294
  76   2.0000      -0.354156        -9.6371
  77   2.0000      -0.352712        -9.5978
  78   2.0000      -0.346982        -9.4418
  79   2.0000      -0.344006        -9.3609
  80   2.0000      -0.343860        -9.3569
  81   2.0000      -0.338698        -9.2164
  82   2.0000      -0.336682        -9.1616
  83   2.0000      -0.333787        -9.0828
  84   2.0000      -0.326325        -8.8798
  85   2.0000      -0.317055        -8.6275
  86   2.0000      -0.314075        -8.5464
  87   2.0000      -0.294267        -8.0074
  88   2.0000      -0.293809        -7.9950
  89   2.0000      -0.288141        -7.8407
  90   2.0000      -0.278400        -7.5757
  91   2.0000      -0.272146        -7.4055
  92   2.0000      -0.263242        -7.1632
  93   2.0000      -0.257720        -7.0129
  94   2.0000      -0.253265        -6.8917
  95   2.0000      -0.235936        -6.4201
  96   2.0000      -0.221946        -6.0394
  97   2.0000      -0.205496        -5.5918
  98   2.0000      -0.192211        -5.2303
  99   2.0000      -0.185451        -5.0464
 100   2.0000      -0.175441        -4.7740
 101   0.0000      -0.037740        -1.0270
 102   0.0000      -0.029494        -0.8026
 103   0.0000      -0.010969        -0.2985
 104   0.0000       0.013802         0.3756
 105   0.0000       0.017745         0.4829

MULLIKEN ATOMIC CHARGES
-----------------------
   0 C :   -0.320632
   1 C :    0.012540
   2 O :   -0.350426
   3 P :    0.629098
   4 S :   -0.307718
   5 O :   -0.392034
   6 C :   -0.002546
   7 C :   -0.307846
   8 S :   -0.111564
   9 C :   -0.345233
  10 S :   -0.121580
  11 P :    0.581079
  12 S :   -0.282790
  13 O :   -0.380660
  14 C :   -0.014442
  15 C :   -0.307411
  16 O :   -0.339546
  17 C :   -0.008224
  18 C :   -0.282811
  19 H :    0.104479
  20 H :    0.135054
  21 H :    0.122132
  22 H :    0.098357
  23 H :    0.105078
  24 H :    0.108291
  25 H :    0.105221
  26 H :    0.108344
  27 H :    0.125673
  28 H :    0.121624
  29 H :    0.209714
  30 H :    0.180905
  31 H :    0.108164
  32 H :    0.113266
  33 H :    0.127119
  34 H :    0.109563
  35 H :    0.128363
  36 H :    0.105463
  37 H :    0.094888
  38 H :    0.116281
  39 H :    0.106350
  40 H :    0.118418
Sum of atomic charges:   -0.0000000

LOEWDIN ATOMIC CHARGES
----------------------
   0 C :   -0.369003
   1 C :   -0.107422
   2 O :   -0.232828
   3 P :    0.573669
   4 S :   -0.299321
   5 O :   -0.251968
   6 C :   -0.112371
   7 C :   -0.370458
   8 S :    0.072828
   9 C :   -0.478849
  10 S :    0.061193
  11 P :    0.558964
  12 S :   -0.290622
  13 O :   -0.248273
  14 C :   -0.115616
  15 C :   -0.369706
  16 O :   -0.226127
  17 C :   -0.118599
  18 C :   -0.358243
  19 H :    0.126284
  20 H :    0.132853
  21 H :    0.119680
  22 H :    0.107915
  23 H :    0.120436
  24 H :    0.108245
  25 H :    0.119328
  26 H :    0.128505
  27 H :    0.129075
  28 H :    0.120034
  29 H :    0.126722
  30 H :    0.136416
  31 H :    0.120481
  32 H :    0.107181
  33 H :    0.130769
  34 H :    0.129203
  35 H :    0.122497
  36 H :    0.116639
  37 H :    0.100393
  38 H :    0.126947
  39 H :    0.127721
  40 H :    0.125431

  Mayer bond orders larger than 0.100000
B(  0-C ,  1-C ) :   1.1690 B(  0-C , 19-H ) :   0.9357 B(  0-C , 20-H ) :   0.9420
B(  0-C , 21-H ) :   0.9355 B(  1-C ,  2-O ) :   0.9116 B(  1-C , 22-H ) :   0.9307
B(  1-C , 23-H ) :   0.9316 B(  2-O ,  3-P ) :   1.1399 B(  3-P ,  4-S ) :   1.6200
B(  3-P ,  5-O ) :   1.0721 B(  3-P ,  8-S ) :   0.9471 B(  4-S ,  8-S ) :   0.1243
B(  5-O ,  6-C ) :   0.9152 B(  6-C ,  7-C ) :   1.1664 B(  6-C , 24-H ) :   0.9287
B(  6-C , 25-H ) :   0.9349 B(  7-C , 26-H ) :   0.9335 B(  7-C , 27-H ) :   0.9427
B(  7-C , 28-H ) :   0.9334 B(  8-S ,  9-C ) :   0.9960 B(  9-C , 10-S ) :   1.0057
B(  9-C , 29-H ) :   0.8402 B(  9-C , 30-H ) :   0.9119 B( 10-S , 11-P ) :   0.9293
B( 10-S , 12-S ) :   0.1078 B( 11-P , 12-S ) :   1.6815 B( 11-P , 13-O ) :   1.0702
B( 11-P , 16-O ) :   1.1384 B( 13-O , 14-C ) :   0.9157 B( 14-C , 15-C ) :   1.1669
B( 14-C , 31-H ) :   0.9334 B( 14-C , 32-H ) :   0.9262 B( 15-C , 33-H ) :   0.9426
B( 15-C , 34-H ) :   0.9344 B( 15-C , 35-H ) :   0.9316 B( 16-O , 17-C ) :   0.8944
B( 17-C , 18-C ) :   1.1628 B( 17-C , 36-H ) :   0.9321 B( 17-C , 37-H ) :   0.9110
B( 18-C , 38-H ) :   0.9478 B( 18-C , 39-H ) :   0.9409 B( 18-C , 40-H ) :   0.9432

Dispersion correction           -0.067971690
FINAL SINGLE POINT ENERGY     -2929.508791634338

DIPOLE MOMENT
-------------

Method             : SCF
Type of density    : Electron Density
Multiplicity       :   1
Irrep              :   0
Energy             : -2929.6264995579062997 Eh
Relativity type    :
Basis              : AO
                                X                 Y                 Z
Electronic contribution:      0.334649789       3.799339605       6.901104642
Nuclear contribution   :     -1.047706430      -5.303461913      -6.837463614
                        -----------------------------------------
Total Dipole Moment    :     -0.713056641      -1.504122308       0.063641029
                        -----------------------------------------
Magnitude (a.u.)       :      1.665798268
Magnitude (Debye)      :      4.234122707

Rotational constants in cm-1:             0.012664             0.005263             0.005205
Rotational constants in MHz :           379.655364           157.773949           156.043087

                             ****ORCA TERMINATED NORMALLY****
TOTAL RUN TIME: 0 days 0 hours 0 minutes 21 seconds 666 msec
