                         Program Version 6.0.0  -   RELEASE  -
|  1> ! pbe def2-sv(p) def2/J RI DEFGRID1 loosescf d4 GCP(DFT/SV(P)) printgap
|  2> %output
|  3>     printlevel normal
|  4> end
|  5> * xyz 0 1
|  6> C 3.7557952317 -1.2943515543 -2.3730573236
|  7> C 4.1675850303 0.0727269382 -1.8639724623
|  8> O 3.6897379712 0.332228619 -0.5353285992
|  9> P 2.1451482469 0.5043054387 -0.1734841344
| 10> S 1.1490890837 1.490147369 -1.5396836344
| 11> O 2.2452404605 1.2808571971 1.1889856819
| 12> C 2.5137244026 0.7186289265 2.4936812734
| 13> C 3.780052294 -0.1081880885 2.5239192787
| 14> S 1.4597382309 -1.4648854669 0.2642624393
| 15> C 0.143268138 -1.6457492494 -0.9790877971
| 16> S -1.4867126727 -1.9816925836 -0.2623548499
| 17> P -2.042913241 -0.0568071329 0.3633747573
| 18> S -0.9272268951 0.9273554095 1.6332456841
| 19> O -3.4868018223 -0.2583266114 0.9831331641
| 20> C -4.5711760891 -0.9081203375 0.2735892276
| 21> C -4.7699896964 -2.3207777212 0.7844094902
| 22> O -2.2207932492 0.6219872361 -1.0759065156
| 23> C -2.2802228512 2.0479050749 -1.2441038546
| 24> C -3.6043069383 2.6108795038 -0.7709610652
| 25> H 4.2677574586 -1.4951772697 -3.3086969212
| 26> H 4.0141120228 -2.0620902214 -1.6482743843
| 27> H 2.6815297762 -1.316646204 -2.5490653063
| 28> H 3.7915557877 0.858965691 -2.5266404617
| 29> H 5.2511928173 0.1564045093 -1.7690297794
| 30> H 2.5863285406 1.6011876573 3.1308962435
| 31> H 1.6415365537 0.1305088195 2.7931071381
| 32> H 4.6207241563 0.4807250712 2.1663940424
| 33> H 3.9685526425 -0.4275084368 3.5441725204
| 34> H 3.6701961003 -0.9886027297 1.8924204735
| 35> H 0.3738481979 -2.5184358976 -1.5846712456
| 36> H 0.0984505966 -0.7338796749 -1.5816938956
| 37> H -5.444802103 -0.2875109133 0.4812951265
| 38> H -4.3550891276 -0.8982945946 -0.7975925626
| 39> H -3.8970692702 -2.9319436429 0.5657410624
| 40> H -4.9283541279 -2.3069905328 1.8591008496
| 41> H -5.6388309624 -2.7534599091 0.298642426
| 42> H -1.4461836365 2.5006558402 -0.6977830276
| 43> H -2.1255715657 2.1960740552 -2.3139703759
| 44> H -3.6275611364 3.678317653 -0.9665492902
| 45> H -4.4276033767 2.1305149548 -1.2932959501
| 46> H -3.7138078631 2.4456109084 0.3006553692
| 47> *
| 48>
| 49>                          ****END OF INPUT****

CARTESIAN COORDINATES (ANGSTROEM)
---------------------------------
  C      3.755795   -1.294352   -2.373057
  C      4.167585    0.072727   -1.863972
  O      3.689738    0.332229   -0.535329
  P      2.145148    0.504305   -0.173484
  S      1.149089    1.490147   -1.539684
  O      2.245240    1.280857    1.188986
  C      2.513724    0.718629    2.493681
  C      3.780052   -0.108188    2.523919
  S      1.459738   -1.464885    0.264262
  C      0.143268   -1.645749   -0.979088
  S     -1.486713   -1.981693   -0.262355
  P     -2.042913   -0.056807    0.363375
  S     -0.927227    0.927355    1.633246
  O     -3.486802   -0.258327    0.983133
  C     -4.571176   -0.908120    0.273589
  C     -4.769990   -2.320778    0.784409
  O     -2.220793    0.621987   -1.075907
  C     -2.280223    2.047905   -1.244104
  C     -3.604307    2.610880   -0.770961
  H      4.267757   -1.495177   -3.308697
  H      4.014112   -2.062090   -1.648274
  H      2.681530   -1.316646   -2.549065
  H      3.791556    0.858966   -2.526640
  H      5.251193    0.156405   -1.769030
  H      2.586329    1.601188    3.130896
  H      1.641537    0.130509    2.793107
  H      4.620724    0.480725    2.166394
  H      3.968553   -0.427508    3.544173
  H      3.670196   -0.988603    1.892420
  H      0.373848   -2.518436   -1.584671
  H      0.098451   -0.733880   -1.581694
  H     -5.444802   -0.287511    0.481295
  H     -4.355089   -0.898295   -0.797593
  H     -3.897069   -2.931944    0.565741
  H     -4.928354   -2.306991    1.859101
  H     -5.638831   -2.753460    0.298642
  H     -1.446184    2.500656   -0.697783
  H     -2.125572    2.196074   -2.313970
  H     -3.627561    3.678318   -0.966549
  H     -4.427603    2.130515   -1.293296
  H     -3.713808    2.445611    0.300655

 Total Charge           Charge          ....    0
 Multiplicity           Mult            ....    1
 Number of Electrons    NEL             ....  202
 Basis Dimension        Dim             ....  334

ORBITAL ENERGIES
----------------

  NO   OCC          E(Eh)            E(eV)
   0   2.0000     -88.042648     -2395.7622
   1   2.0000     -88.041030     -2395.7182
   2   2.0000     -87.982663     -2394.1300
   3   2.0000     -87.976150     -2393.9527
   4   2.0000     -76.423103     -2079.5784
   5   2.0000     -76.419410     -2079.4779
   6   2.0000     -18.790823      -511.3243
   7   2.0000     -18.784742      -511.1588
   8   2.0000     -18.783773      -511.1324
   9   2.0000     -18.782486      -511.0974
  10   2.0000      -9.957261      -270.9509
  11   2.0000      -9.956697      -270.9355
  12   2.0000      -9.949291      -270.7340
  13   2.0000      -9.948950      -270.7247
  14   2.0000      -9.939084      -270.4562
  15   2.0000      -9.889242      -269.1000
  16   2.0000      -9.885032      -268.9854
  17   2.0000      -9.884685      -268.9759
  18   2.0000      -9.879684      -268.8399
  19   2.0000      -7.688248      -209.2079
  20   2.0000      -7.685723      -209.1391
  21   2.0000      -7.627647      -207.5588
  22   2.0000      -7.621112      -207.3810
  23   2.0000      -6.420231      -174.7034
  24   2.0000      -6.417417      -174.6268
  25   2.0000      -5.716107      -155.5432
  26   2.0000      -5.713672      -155.4769
  27   2.0000      -5.712654      -155.4492
  28   2.0000      -5.710245      -155.3837
  29   2.0000      -5.705212      -155.2467
  30   2.0000      -5.702667      -155.1775
  31   2.0000      -5.656495      -153.9211
  32   2.0000      -5.650181      -153.7493
  33   2.0000      -5.648540      -153.7046
  34   2.0000      -5.647508      -153.6765
  35   2.0000      -5.641692      -153.5182
  36   2.0000      -5.641129      -153.5029
  37   2.0000      -4.642824      -126.3377
  38   2.0000      -4.641974      -126.3145
  39   2.0000      -4.640775      -126.2819
  40   2.0000      -4.640390      -126.2714
  41   2.0000      -4.638963      -126.2326
  42   2.0000      -4.637693      -126.1980
  43   2.0000      -0.980798       -26.6889
  44   2.0000      -0.980461       -26.6797
  45   2.0000      -0.939656       -25.5693
  46   2.0000      -0.937950       -25.5229
  47   2.0000      -0.761283       -20.7156
  48   2.0000      -0.718180       -19.5427
  49   2.0000      -0.708962       -19.2918
  50   2.0000      -0.689440       -18.7606
  51   2.0000      -0.686615       -18.6837
  52   2.0000      -0.673669       -18.3315
  53   2.0000      -0.648438       -17.6449
  54   2.0000      -0.633072       -17.2268
  55   2.0000      -0.598277       -16.2799
  56   2.0000      -0.582643       -15.8545
  57   2.0000      -0.576084       -15.6760
  58   2.0000      -0.571402       -15.5486
  59   2.0000      -0.561834       -15.2883
  60   2.0000      -0.498753       -13.5717
  61   2.0000      -0.488099       -13.2819
  62   2.0000      -0.473062       -12.8727
  63   2.0000      -0.465883       -12.6773
  64   2.0000      -0.451871       -12.2960
  65   2.0000      -0.448598       -12.2070
  66   2.0000      -0.438834       -11.9413
  67   2.0000      -0.436604       -11.8806
  68   2.0000      -0.425970       -11.5912
  69   2.0000      -0.416930       -11.3452
  70   2.0000      -0.406932       -11.0732
  71   2.0000      -0.394895       -10.7456
  72   2.0000      -0.393985       -10.7209
  73   2.0000      -0.386627       -10.5206
  74   2.0000      -0.378298       -10.2940
  75   2.0000      -0.366401        -9.9703
  76   2.0000      -0.364292        -9.9129
  77   2.0000      -0.357138        -9.7182
  78   2.0000      -0.355727        -9.6798
  79   2.0000      -0.351046        -9.5524
  80   2.0000      -0.349483        -9.5099
  81   2.0000      -0.344172        -9.3654
  82   2.0000      -0.341479        -9.2921
  83   2.0000      -0.335739        -9.1359
  84   2.0000      -0.333828        -9.0839
  85   2.0000      -0.310723        -8.4552
  86   2.0000      -0.306702        -8.3458
  87   2.0000      -0.303161        -8.2494
  88   2.0000      -0.290194        -7.8966
  89   2.0000      -0.286264        -7.7897
  90   2.0000      -0.273664        -7.4468
  91   2.0000      -0.269952        -7.3458
  92   2.0000      -0.267164        -7.2699
  93   2.0000      -0.261942        -7.1278
  94   2.0000      -0.257311        -7.0018
  95   2.0000      -0.238273        -6.4837
  96   2.0000      -0.216671        -5.8959
  97   2.0000      -0.204538        -5.5658
  98   2.0000      -0.201740        -5.4896
  99   2.0000      -0.191010        -5.1976
 100   2.0000      -0.184388        -5.0174
 101   0.0000      -0.039027        -1.0620
 102   0.0000      -0.029991        -0.8161
 103   0.0000      -0.012511        -0.3404
 104   0.0000       0.008560         0.2329
 105   0.0000       0.022210         0.6044

MULLIKEN ATOMIC CHARGES
-----------------------
   0 C :   -0.319561
   1 C :    0.003826
   2 O :   -0.374430
   3 P :    0.609531
   4 S :   -0.313797
   5 O :   -0.352057
   6 C :   -0.007998
   7 C :   -0.315772
   8 S :   -0.105783
   9 C :   -0.347059
  10 S :   -0.103382
  11 P :    0.613786
  12 S :   -0.305355
  13 O :   -0.366252
  14 C :   -0.034620
  15 C :   -0.290783
  16 O :   -0.385448
  17 C :   -0.018688
  18 C :   -0.308496
  19 H :    0.111408
  20 H :    0.118566
  21 H :    0.119999
  22 H :    0.110304
  23 H :    0.102683
  24 H :    0.110732
  25 H :    0.128385
  26 H :    0.123093
  27 H :    0.115142
  28 H :    0.124933
  29 H :    0.184158
  30 H :    0.202424
  31 H :    0.111272
  32 H :    0.111214
  33 H :    0.131144
  34 H :    0.123501
  35 H :    0.111219
  36 H :    0.132439
  37 H :    0.101796
  38 H :    0.113181
  39 H :    0.106961
  40 H :    0.127782
Sum of atomic charges:    0.0000000

LOEWDIN ATOMIC CHARGES
----------------------
   0 C :   -0.369877
   1 C :   -0.118196
   2 O :   -0.249018
   3 P :    0.577726
   4 S :   -0.295393
   5 O :   -0.223976
   6 C :   -0.115411
   7 C :   -0.367115
   8 S :    0.073669
   9 C :   -0.480854
  10 S :    0.084693
  11 P :    0.562163
  12 S :   -0.301226
  13 O :   -0.241446
  14 C :   -0.121349
  15 C :   -0.359727
  16 O :   -0.252031
  17 C :   -0.126968
  18 C :   -0.365566
  19 H :    0.129841
  20 H :    0.124066
  21 H :    0.118468
  22 H :    0.110223
  23 H :    0.117895
  24 H :    0.123980
  25 H :    0.111886
  26 H :    0.129159
  27 H :    0.132494
  28 H :    0.115705
  29 H :    0.136182
  30 H :    0.124112
  31 H :    0.120649
  32 H :    0.109568
  33 H :    0.119716
  34 H :    0.130874
  35 H :    0.130939
  36 H :    0.111114
  37 H :    0.116650
  38 H :    0.131396
  39 H :    0.119673
  40 H :    0.125314

  Mayer bond orders larger than 0.100000
B(  0-C ,  1-C ) :   1.1625 B(  0-C , 19-H ) :   0.9376 B(  0-C , 20-H ) :   0.9428
B(  0-C , 21-H ) :   0.9378 B(  1-C ,  2-O ) :   0.9223 B(  1-C , 22-H ) :   0.9155
B(  1-C , 23-H ) :   0.9344 B(  2-O ,  3-P ) :   1.0766 B(  3-P ,  4-S ) :   1.5989
B(  3-P ,  5-O ) :   1.1601 B(  3-P ,  8-S ) :   0.9444 B(  4-S ,  8-S ) :   0.1121
B(  4-S , 30-H ) :   0.1146 B(  5-O ,  6-C ) :   0.8964 B(  6-C ,  7-C ) :   1.1660
B(  6-C , 24-H ) :   0.9343 B(  6-C , 25-H ) :   0.9141 B(  7-C , 26-H ) :   0.9418
B(  7-C , 27-H ) :   0.9355 B(  7-C , 28-H ) :   0.9369 B(  8-S ,  9-C ) :   1.0037
B(  9-C , 10-S ) :   0.9979 B(  9-C , 29-H ) :   0.9085 B(  9-C , 30-H ) :   0.8414
B( 10-S , 11-P ) :   0.9667 B( 10-S , 12-S ) :   0.1085 B( 11-P , 12-S ) :   1.6645
B( 11-P , 13-O ) :   1.1119 B( 11-P , 16-O ) :   1.0733 B( 13-O , 14-C ) :   0.8970
B( 14-C , 15-C ) :   1.1670 B( 14-C , 31-H ) :   0.9322 B( 14-C , 32-H ) :   0.9142
B( 15-C , 33-H ) :   0.9369 B( 15-C , 34-H ) :   0.9454 B( 15-C , 35-H ) :   0.9390
B( 16-O , 17-C ) :   0.9026 B( 17-C , 18-C ) :   1.1563 B( 17-C , 36-H ) :   0.9045
B( 17-C , 37-H ) :   0.9359 B( 18-C , 38-H ) :   0.9407 B( 18-C , 39-H ) :   0.9455
B( 18-C , 40-H ) :   0.9374

Dispersion correction           -0.067865784
FINAL SINGLE POINT ENERGY     -2929.514012649393

DIPOLE MOMENT
-------------

Method             : SCF
Type of density    : Electron Density
Multiplicity       :   1
Irrep              :   0
Energy             : -2929.6324108274152422 Eh
Relativity type    :
Basis              : AO
                                X                 Y                 Z
Electronic contribution:      2.424319749       1.874204184       3.370591513
Nuclear contribution   :     -2.569539826      -2.725211092      -3.921350999
                        -----------------------------------------
Total Dipole Moment    :     -0.145220076      -0.851006907      -0.550759486
                        -----------------------------------------
Magnitude (a.u.)       :      1.024030096
Magnitude (Debye)      :      2.602877650

Rotational constants in cm-1:             0.013044             0.005008             0.004909
Rotational constants in MHz :           391.063739           150.126346           147.161828

                             ****ORCA TERMINATED NORMALLY****
TOTAL RUN TIME: 0 days 0 hours 0 minutes 21 seconds 354 msec
