                         Program Version 6.0.0  -   RELEASE  -
|  1> ! pbe def2-sv(p) def2/J RI DEFGRID1 loosescf d4 GCP(DFT/SV(P)) printgap
|  2> %output
|  3>     printlevel normal
|  4> end
|  5> * xyz 0 1
|  6> C -1.0426748463 -2.9162696821 -0.0001835745
|  7> C -1.0104148645 -1.4171758963 -1.12162e-05
|  8> C -2.1779527426 -0.7009441908 0.0001276423
|  9> C -2.1784075308 0.6995383777 0.0001388237
| 10> C -1.0113373839 1.4165202968 -1.67359e-05
| 11> C 0.2234100859 0.7116772341 -2.9862e-05
| 12> C 0.2238795439 -0.7115133893 6.374e-06
| 13> C 1.4649792171 -1.3849454639 7.60829e-05
| 14> C 2.6474068412 -0.6994761769 7.92723e-05
| 15> C 2.6469368403 0.7011737156 -9.0352e-06
| 16> C 1.464067172 1.3858966233 -4.72946e-05
| 17> C -1.0447483867 2.9155914072 -0.0001063041
| 18> H -2.0708451996 -3.2688049706 -0.0006311178
| 19> H -0.5423010447 -3.3125247862 -0.8825334332
| 20> H -0.543013759 -3.3127080831 0.8824920394
| 21> H -3.1260035854 -1.2201965928 0.0002178916
| 22> H -3.1268185397 1.2181297694 0.0002573555
| 23> H 1.4782984761 -2.4632888696 0.0001375163
| 24> H 3.5865812554 -1.2330400884 0.0001496158
| 25> H 3.585746477 1.2353838999 1.04272e-05
| 26> H 1.4767805372 2.4642495373 -3.23544e-05
| 27> H -0.5454791359 3.3123019848 0.8826792178
| 28> H -0.5444339599 3.3122487013 -0.8823133598
| 29> H -2.0731825511 3.2673812891 -0.000721862
| 30> *
| 31>
| 32>                          ****END OF INPUT****

CARTESIAN COORDINATES (ANGSTROEM)
---------------------------------
  C     -1.042675   -2.916270   -0.000184
  C     -1.010415   -1.417176   -0.000011
  C     -2.177953   -0.700944    0.000128
  C     -2.178408    0.699538    0.000139
  C     -1.011337    1.416520   -0.000017
  C      0.223410    0.711677   -0.000030
  C      0.223880   -0.711513    0.000006
  C      1.464979   -1.384945    0.000076
  C      2.647407   -0.699476    0.000079
  C      2.646937    0.701174   -0.000009
  C      1.464067    1.385897   -0.000047
  C     -1.044748    2.915591   -0.000106
  H     -2.070845   -3.268805   -0.000631
  H     -0.542301   -3.312525   -0.882533
  H     -0.543014   -3.312708    0.882492
  H     -3.126004   -1.220197    0.000218
  H     -3.126819    1.218130    0.000257
  H      1.478298   -2.463289    0.000138
  H      3.586581   -1.233040    0.000150
  H      3.585746    1.235384    0.000010
  H      1.476781    2.464250   -0.000032
  H     -0.545479    3.312302    0.882679
  H     -0.544434    3.312249   -0.882313
  H     -2.073183    3.267381   -0.000722

 Total Charge           Charge          ....    0
 Multiplicity           Mult            ....    1
 Number of Electrons    NEL             ....   84
 Basis Dimension        Dim             ....  192

ORBITAL ENERGIES
----------------

  NO   OCC          E(Eh)            E(eV)
   0   2.0000      -9.899344      -269.3748
   1   2.0000      -9.899323      -269.3743
   2   2.0000      -9.899206      -269.3711
   3   2.0000      -9.899175      -269.3703
   4   2.0000      -9.889868      -269.1170
   5   2.0000      -9.889757      -269.1140
   6   2.0000      -9.888741      -269.0863
   7   2.0000      -9.888570      -269.0817
   8   2.0000      -9.885236      -268.9910
   9   2.0000      -9.885054      -268.9860
  10   2.0000      -9.882549      -268.9178
  11   2.0000      -9.882527      -268.9172
  12   2.0000      -0.793843       -21.6016
  13   2.0000      -0.743760       -20.2387
  14   2.0000      -0.719404       -19.5760
  15   2.0000      -0.662643       -18.0314
  16   2.0000      -0.658372       -17.9152
  17   2.0000      -0.647112       -17.6088
  18   2.0000      -0.583120       -15.8675
  19   2.0000      -0.554867       -15.0987
  20   2.0000      -0.549025       -14.9397
  21   2.0000      -0.505936       -13.7672
  22   2.0000      -0.454641       -12.3714
  23   2.0000      -0.448976       -12.2173
  24   2.0000      -0.435009       -11.8372
  25   2.0000      -0.405394       -11.0313
  26   2.0000      -0.386711       -10.5229
  27   2.0000      -0.385768       -10.4973
  28   2.0000      -0.374036       -10.1780
  29   2.0000      -0.368799       -10.0355
  30   2.0000      -0.361317        -9.8319
  31   2.0000      -0.349390        -9.5074
  32   2.0000      -0.338655        -9.2153
  33   2.0000      -0.333653        -9.0792
  34   2.0000      -0.332282        -9.0418
  35   2.0000      -0.320745        -8.7279
  36   2.0000      -0.287964        -7.8359
  37   2.0000      -0.287590        -7.8257
  38   2.0000      -0.280325        -7.6280
  39   2.0000      -0.244017        -6.6400
  40   2.0000      -0.221513        -6.0277
  41   2.0000      -0.188881        -5.1397
  42   0.0000      -0.065775        -1.7898
  43   0.0000      -0.036556        -0.9948
  44   0.0000       0.004021         0.1094
  45   0.0000       0.043541         1.1848
  46   0.0000       0.054628         1.4865

MULLIKEN ATOMIC CHARGES
-----------------------
   0 C :   -0.208635
   1 C :   -0.009645
   2 C :   -0.147334
   3 C :   -0.147333
   4 C :   -0.009647
   5 C :    0.113370
   6 C :    0.113340
   7 C :   -0.168015
   8 C :   -0.028834
   9 C :   -0.028841
  10 C :   -0.168034
  11 C :   -0.208632
  12 H :    0.101589
  13 H :    0.115858
  14 H :    0.115856
  15 H :    0.030849
  16 H :    0.030850
  17 H :    0.037021
  18 H :    0.047949
  19 H :    0.047949
  20 H :    0.037015
  21 H :    0.115850
  22 H :    0.115852
  23 H :    0.101603
Sum of atomic charges:   -0.0000000

LOEWDIN ATOMIC CHARGES
----------------------
   0 C :   -0.323872
   1 C :   -0.041153
   2 C :   -0.127618
   3 C :   -0.127617
   4 C :   -0.041150
   5 C :   -0.022156
   6 C :   -0.022151
   7 C :   -0.115858
   8 C :   -0.123854
   9 C :   -0.123853
  10 C :   -0.115858
  11 C :   -0.323864
  12 H :    0.125232
  13 H :    0.131132
  14 H :    0.131138
  15 H :    0.120334
  16 H :    0.120334
  17 H :    0.123629
  18 H :    0.123039
  19 H :    0.123037
  20 H :    0.123627
  21 H :    0.131139
  22 H :    0.131127
  23 H :    0.125234

  Mayer bond orders larger than 0.100000
B(  0-C ,  1-C ) :   1.1464 B(  0-C , 12-H ) :   0.9376 B(  0-C , 13-H ) :   0.9182
B(  0-C , 14-H ) :   0.9182 B(  1-C ,  2-C ) :   1.4852 B(  1-C ,  6-C ) :   1.2500
B(  2-C ,  3-C ) :   1.2249 B(  2-C , 15-H ) :   0.9559 B(  3-C ,  4-C ) :   1.4852
B(  3-C , 16-H ) :   0.9559 B(  4-C ,  5-C ) :   1.2500 B(  4-C , 11-C ) :   1.1464
B(  5-C ,  6-C ) :   1.2404 B(  5-C , 10-C ) :   1.2705 B(  6-C ,  7-C ) :   1.2705
B(  7-C ,  8-C ) :   1.4527 B(  7-C , 17-H ) :   0.9457 B(  8-C ,  9-C ) :   1.2661
B(  8-C , 18-H ) :   0.9607 B(  9-C , 10-C ) :   1.4528 B(  9-C , 19-H ) :   0.9607
B( 10-C , 20-H ) :   0.9457 B( 11-C , 21-H ) :   0.9182 B( 11-C , 22-H ) :   0.9182
B( 11-C , 23-H ) :   0.9376

Dispersion correction           -0.029755999
FINAL SINGLE POINT ENERGY      -463.486568968601

DIPOLE MOMENT
-------------

Method             : SCF
Type of density    : Electron Density
Multiplicity       :   1
Irrep              :   0
Energy             :  -463.5463330570738663 Eh
Relativity type    :
Basis              : AO
                                X                 Y                 Z
Electronic contribution:      2.278673213       0.000808007       0.000325403
Nuclear contribution   :     -2.293515089      -0.000814527      -0.000270252
                        -----------------------------------------
Total Dipole Moment    :     -0.014841876      -0.000006520       0.000055150
                        -----------------------------------------
Magnitude (a.u.)       :      0.014841980
Magnitude (Debye)      :      0.037725314

Rotational constants in cm-1:             0.039992             0.037564             0.019511
Rotational constants in MHz :          1198.936325          1126.150379           584.923080

                             ****ORCA TERMINATED NORMALLY****
TOTAL RUN TIME: 0 days 0 hours 0 minutes 14 seconds 986 msec
