                         Program Version 6.0.0  -   RELEASE  -
|  1> ! pbe def2-sv(p) def2/J RI DEFGRID1 loosescf d4 GCP(DFT/SV(P)) printgap
|  2> %output
|  3>     printlevel normal
|  4> end
|  5> * xyz 0 1
|  6> C 4.2494585562 -0.5119495588 -2.0144068052
|  7> C 2.8383749969 -0.0581876792 -2.3200122712
|  8> O 2.2126972395 0.6692579153 -1.2346887244
|  9> P 2.0656824596 0.2361228895 0.2710374639
| 10> S 0.7861973613 1.4368240043 1.1420189749
| 11> O 3.5519854111 0.3251749566 0.8180061927
| 12> C 4.0469780024 -0.3167358973 2.0083959591
| 13> C 3.1952969075 -0.0403056875 3.22923549
| 14> S 1.6882581831 -1.8583939074 0.3151994541
| 15> C 0.0321322778 -1.925752732 -0.4113891141
| 16> S -1.2995315646 -1.3321787108 0.6783110784
| 17> P -2.0357480869 0.2921577489 -0.4938201182
| 18> S -1.028333511 0.6981853252 -2.1208207315
| 19> O -2.2718355194 1.5211932855 0.4466563711
| 20> C -2.9602415758 1.4186659691 1.7228108709
| 21> C -2.505168828 2.5752380666 2.5858341479
| 22> O -3.5446279908 -0.1531326637 -0.7731914531
| 23> C -3.8556908934 -1.2536524064 -1.6493148723
| 24> C -5.3472493022 -1.229670649 -1.9149235618
| 25> H 4.6874782916 -0.916448957 -2.9218738325
| 26> H 4.8478076736 0.3276323125 -1.6704566455
| 27> H 4.2469792213 -1.2845868344 -1.2488040671
| 28> H 2.1987978154 -0.9081841242 -2.5719732151
| 29> H 2.8133105773 0.6628607601 -3.1389701314
| 30> H 4.1046895116 -1.3913683855 1.8142164055
| 31> H 5.0513747126 0.0950508638 2.1216326832
| 32> H 3.6610014956 -0.4864940057 4.1019809939
| 33> H 3.0889745076 1.0310714213 3.383340881
| 34> H 2.2013137192 -0.4667742834 3.0994996274
| 35> H -0.148133937 -2.9794457045 -0.6083013139
| 36> H 0.0023933383 -1.3327335921 -1.3303483167
| 37> H -4.0322526073 1.4543636444 1.5195947264
| 38> H -2.7048490134 0.4587756581 2.1811708199
| 39> H -2.7609557105 3.5186232461 2.1123131755
| 40> H -2.9883066468 2.509947733 3.5551070714
| 41> H -1.4255683015 2.5329017456 2.7130649482
| 42> H -3.2802478234 -1.1343277796 -2.5734067045
| 43> H -3.5537883653 -2.1807326689 -1.1529271775
| 44> H -5.8922891776 -1.3284105174 -0.9807894425
| 45> H -5.625788062 -0.2921290805 -2.3877753748
| 46> H -5.6048713815 -2.053679482 -2.5719729052
| 47> *
| 48>
| 49>                          ****END OF INPUT****

CARTESIAN COORDINATES (ANGSTROEM)
---------------------------------
  C      4.249459   -0.511950   -2.014407
  C      2.838375   -0.058188   -2.320012
  O      2.212697    0.669258   -1.234689
  P      2.065682    0.236123    0.271037
  S      0.786197    1.436824    1.142019
  O      3.551985    0.325175    0.818006
  C      4.046978   -0.316736    2.008396
  C      3.195297   -0.040306    3.229235
  S      1.688258   -1.858394    0.315199
  C      0.032132   -1.925753   -0.411389
  S     -1.299532   -1.332179    0.678311
  P     -2.035748    0.292158   -0.493820
  S     -1.028334    0.698185   -2.120821
  O     -2.271836    1.521193    0.446656
  C     -2.960242    1.418666    1.722811
  C     -2.505169    2.575238    2.585834
  O     -3.544628   -0.153133   -0.773191
  C     -3.855691   -1.253652   -1.649315
  C     -5.347249   -1.229671   -1.914924
  H      4.687478   -0.916449   -2.921874
  H      4.847808    0.327632   -1.670457
  H      4.246979   -1.284587   -1.248804
  H      2.198798   -0.908184   -2.571973
  H      2.813311    0.662861   -3.138970
  H      4.104690   -1.391368    1.814216
  H      5.051375    0.095051    2.121633
  H      3.661001   -0.486494    4.101981
  H      3.088975    1.031071    3.383341
  H      2.201314   -0.466774    3.099500
  H     -0.148134   -2.979446   -0.608301
  H      0.002393   -1.332734   -1.330348
  H     -4.032253    1.454364    1.519595
  H     -2.704849    0.458776    2.181171
  H     -2.760956    3.518623    2.112313
  H     -2.988307    2.509948    3.555107
  H     -1.425568    2.532902    2.713065
  H     -3.280248   -1.134328   -2.573407
  H     -3.553788   -2.180733   -1.152927
  H     -5.892289   -1.328411   -0.980789
  H     -5.625788   -0.292129   -2.387775
  H     -5.604871   -2.053679   -2.571973

 Total Charge           Charge          ....    0
 Multiplicity           Mult            ....    1
 Number of Electrons    NEL             ....  202
 Basis Dimension        Dim             ....  334

ORBITAL ENERGIES
----------------

  NO   OCC          E(Eh)            E(eV)
   0   2.0000     -88.044445     -2395.8111
   1   2.0000     -88.038307     -2395.6441
   2   2.0000     -87.980354     -2394.0672
   3   2.0000     -87.969592     -2393.7743
   4   2.0000     -76.419801     -2079.4885
   5   2.0000     -76.419664     -2079.4848
   6   2.0000     -18.786634      -511.2103
   7   2.0000     -18.786586      -511.2090
   8   2.0000     -18.781364      -511.0669
   9   2.0000     -18.780988      -511.0567
  10   2.0000      -9.957036      -270.9447
  11   2.0000      -9.956894      -270.9409
  12   2.0000      -9.953639      -270.8523
  13   2.0000      -9.952026      -270.8084
  14   2.0000      -9.947342      -270.6809
  15   2.0000      -9.885495      -268.9980
  16   2.0000      -9.884714      -268.9767
  17   2.0000      -9.880827      -268.8710
  18   2.0000      -9.880083      -268.8507
  19   2.0000      -7.689302      -209.2366
  20   2.0000      -7.683123      -209.0684
  21   2.0000      -7.625572      -207.5024
  22   2.0000      -7.614599      -207.2038
  23   2.0000      -6.417069      -174.6173
  24   2.0000      -6.416682      -174.6068
  25   2.0000      -5.716898      -155.5647
  26   2.0000      -5.713688      -155.4774
  27   2.0000      -5.710984      -155.4038
  28   2.0000      -5.707659      -155.3133
  29   2.0000      -5.706711      -155.2875
  30   2.0000      -5.700143      -155.1088
  31   2.0000      -5.654519      -153.8673
  32   2.0000      -5.646452      -153.6478
  33   2.0000      -5.645363      -153.6181
  34   2.0000      -5.643704      -153.5730
  35   2.0000      -5.635038      -153.3372
  36   2.0000      -5.634736      -153.3290
  37   2.0000      -4.639702      -126.2527
  38   2.0000      -4.639536      -126.2482
  39   2.0000      -4.639034      -126.2345
  40   2.0000      -4.638805      -126.2283
  41   2.0000      -4.637503      -126.1929
  42   2.0000      -4.636425      -126.1635
  43   2.0000      -0.982091       -26.7241
  44   2.0000      -0.980404       -26.6781
  45   2.0000      -0.938784       -25.5456
  46   2.0000      -0.936552       -25.4849
  47   2.0000      -0.759455       -20.6658
  48   2.0000      -0.717463       -19.5232
  49   2.0000      -0.710143       -19.3240
  50   2.0000      -0.688193       -18.7267
  51   2.0000      -0.686615       -18.6838
  52   2.0000      -0.674936       -18.3659
  53   2.0000      -0.645785       -17.5727
  54   2.0000      -0.631591       -17.1865
  55   2.0000      -0.584463       -15.9040
  56   2.0000      -0.580646       -15.8002
  57   2.0000      -0.575424       -15.6581
  58   2.0000      -0.568082       -15.4583
  59   2.0000      -0.563550       -15.3350
  60   2.0000      -0.507624       -13.8132
  61   2.0000      -0.491772       -13.3818
  62   2.0000      -0.477465       -12.9925
  63   2.0000      -0.468584       -12.7508
  64   2.0000      -0.452536       -12.3141
  65   2.0000      -0.448919       -12.2157
  66   2.0000      -0.435386       -11.8475
  67   2.0000      -0.433641       -11.8000
  68   2.0000      -0.430638       -11.7183
  69   2.0000      -0.414258       -11.2725
  70   2.0000      -0.407415       -11.0863
  71   2.0000      -0.399993       -10.8844
  72   2.0000      -0.394268       -10.7286
  73   2.0000      -0.389807       -10.6072
  74   2.0000      -0.373353       -10.1595
  75   2.0000      -0.362144        -9.8544
  76   2.0000      -0.356980        -9.7139
  77   2.0000      -0.351611        -9.5678
  78   2.0000      -0.348643        -9.4870
  79   2.0000      -0.347495        -9.4558
  80   2.0000      -0.343545        -9.3483
  81   2.0000      -0.342826        -9.3288
  82   2.0000      -0.338088        -9.1998
  83   2.0000      -0.336199        -9.1484
  84   2.0000      -0.330844        -9.0027
  85   2.0000      -0.317574        -8.6416
  86   2.0000      -0.311735        -8.4828
  87   2.0000      -0.296330        -8.0636
  88   2.0000      -0.292748        -7.9661
  89   2.0000      -0.290138        -7.8951
  90   2.0000      -0.280730        -7.6390
  91   2.0000      -0.270870        -7.3707
  92   2.0000      -0.267417        -7.2768
  93   2.0000      -0.257714        -7.0127
  94   2.0000      -0.252725        -6.8770
  95   2.0000      -0.240092        -6.5332
  96   2.0000      -0.219203        -5.9648
  97   2.0000      -0.201229        -5.4757
  98   2.0000      -0.197952        -5.3865
  99   2.0000      -0.182091        -4.9550
 100   2.0000      -0.177898        -4.8408
 101   0.0000      -0.039262        -1.0684
 102   0.0000      -0.028067        -0.7637
 103   0.0000      -0.011678        -0.3178
 104   0.0000       0.001327         0.0361
 105   0.0000       0.023340         0.6351

MULLIKEN ATOMIC CHARGES
-----------------------
   0 C :   -0.309060
   1 C :    0.003976
   2 O :   -0.346744
   3 P :    0.601744
   4 S :   -0.307191
   5 O :   -0.374400
   6 C :   -0.013500
   7 C :   -0.308785
   8 S :   -0.135735
   9 C :   -0.335607
  10 S :   -0.107358
  11 P :    0.606701
  12 S :   -0.293421
  13 O :   -0.346562
  14 C :   -0.016632
  15 C :   -0.287383
  16 O :   -0.387746
  17 C :   -0.003251
  18 C :   -0.279256
  19 H :    0.111136
  20 H :    0.124450
  21 H :    0.113411
  22 H :    0.105505
  23 H :    0.113379
  24 H :    0.111177
  25 H :    0.109698
  26 H :    0.108259
  27 H :    0.128349
  28 H :    0.127216
  29 H :    0.178454
  30 H :    0.190792
  31 H :    0.109423
  32 H :    0.110323
  33 H :    0.121120
  34 H :    0.107297
  35 H :    0.140308
  36 H :    0.096861
  37 H :    0.090249
  38 H :    0.113005
  39 H :    0.120957
  40 H :    0.108841
Sum of atomic charges:    0.0000000

LOEWDIN ATOMIC CHARGES
----------------------
   0 C :   -0.368013
   1 C :   -0.108216
   2 O :   -0.226240
   3 P :    0.562318
   4 S :   -0.304029
   5 O :   -0.243408
   6 C :   -0.114234
   7 C :   -0.371365
   8 S :    0.056459
   9 C :   -0.483293
  10 S :    0.063550
  11 P :    0.573264
  12 S :   -0.291694
  13 O :   -0.222906
  14 C :   -0.109529
  15 C :   -0.351812
  16 O :   -0.259469
  17 C :   -0.124669
  18 C :   -0.350379
  19 H :    0.130059
  20 H :    0.129414
  21 H :    0.116237
  22 H :    0.108710
  23 H :    0.124723
  24 H :    0.106492
  25 H :    0.121636
  26 H :    0.128520
  27 H :    0.130638
  28 H :    0.121647
  29 H :    0.136039
  30 H :    0.117664
  31 H :    0.115734
  32 H :    0.106732
  33 H :    0.130145
  34 H :    0.128898
  35 H :    0.130721
  36 H :    0.104962
  37 H :    0.101360
  38 H :    0.125176
  39 H :    0.129006
  40 H :    0.129154

  Mayer bond orders larger than 0.100000
B(  0-C ,  1-C ) :   1.1657 B(  0-C , 19-H ) :   0.9360 B(  0-C , 20-H ) :   0.9424
B(  0-C , 21-H ) :   0.9397 B(  1-C ,  2-O ) :   0.9030 B(  1-C , 22-H ) :   0.9216
B(  1-C , 23-H ) :   0.9356 B(  2-O ,  3-P ) :   1.1433 B(  3-P ,  4-S ) :   1.6610
B(  3-P ,  5-O ) :   1.0868 B(  3-P ,  8-S ) :   0.9289 B(  4-S ,  8-S ) :   0.1148
B(  5-O ,  6-C ) :   0.9158 B(  6-C ,  7-C ) :   1.1678 B(  6-C , 24-H ) :   0.9263
B(  6-C , 25-H ) :   0.9338 B(  7-C , 26-H ) :   0.9338 B(  7-C , 27-H ) :   0.9409
B(  7-C , 28-H ) :   0.9319 B(  8-S ,  9-C ) :   0.9921 B(  9-C , 10-S ) :   1.0096
B(  9-C , 29-H ) :   0.9110 B(  9-C , 30-H ) :   0.8391 B( 10-S , 11-P ) :   0.9380
B( 10-S , 12-S ) :   0.1166 B( 11-P , 12-S ) :   1.6292 B( 11-P , 13-O ) :   1.1602
B( 11-P , 16-O ) :   1.0625 B( 12-S , 30-H ) :   0.1349 B( 13-O , 14-C ) :   0.8852
B( 14-C , 15-C ) :   1.1649 B( 14-C , 31-H ) :   0.9305 B( 14-C , 32-H ) :   0.9152
B( 15-C , 33-H ) :   0.9489 B( 15-C , 34-H ) :   0.9398 B( 15-C , 35-H ) :   0.9416
B( 16-O , 17-C ) :   0.9181 B( 17-C , 18-C ) :   1.1610 B( 17-C , 36-H ) :   0.9110
B( 17-C , 37-H ) :   0.9207 B( 18-C , 38-H ) :   0.9514 B( 18-C , 39-H ) :   0.9514
B( 18-C , 40-H ) :   0.9425

Dispersion correction           -0.066460405
FINAL SINGLE POINT ENERGY     -2929.507663856502

DIPOLE MOMENT
-------------

Method             : SCF
Type of density    : Electron Density
Multiplicity       :   1
Irrep              :   0
Energy             : -2929.6255823259839417 Eh
Relativity type    :
Basis              : AO
                                X                 Y                 Z
Electronic contribution:      1.190192748       2.845728177      -3.144712291
Nuclear contribution   :     -1.075876421      -4.313106930       3.418990562
                        -----------------------------------------
Total Dipole Moment    :      0.114316327      -1.467378753       0.274278271
                        -----------------------------------------
Magnitude (a.u.)       :      1.497163049
Magnitude (Debye)      :      3.805486044

Rotational constants in cm-1:             0.012256             0.005321             0.004627
Rotational constants in MHz :           367.431976           159.512991           138.700680

                             ****ORCA TERMINATED NORMALLY****
TOTAL RUN TIME: 0 days 0 hours 0 minutes 20 seconds 953 msec
