                         Program Version 6.0.0  -   RELEASE  -
|  1> ! pbe def2-sv(p) def2/J RI DEFGRID1 loosescf d4 GCP(DFT/SV(P)) printgap
|  2> %output
|  3>     printlevel normal
|  4> end
|  5> * xyz 0 1
|  6> C 1.5875028384 -2.6682970876 1.4537683919
|  7> C 1.5867632332 -1.2132886644 1.8773635774
|  8> O 2.6534382019 -0.4638435519 1.2729854807
|  9> P 2.7294908213 -0.0313189845 -0.2594034424
| 10> S 3.0455675965 -1.4163849312 -1.6009625224
| 11> O 3.9277246561 0.9859610588 -0.2423324136
| 12> C 3.9833620201 2.1542958684 0.6147423499
| 13> C 4.8126106053 1.8732044322 1.8510919356
| 14> S 0.9865972305 1.1909061798 -0.5493047027
| 15> C 0.1545869191 0.1717606474 -1.7867867861
| 16> S -0.7678399342 -1.2036424066 -1.0536499823
| 17> P -2.2650502085 -0.0293053452 -0.1165044381
| 18> S -2.799033613 1.5512177319 -1.1580343745
| 19> O -1.6153965083 0.2044777599 1.3078404679
| 20> C -2.3687694437 0.4614926372 2.5171374872
| 21> C -3.2775919785 1.664710358 2.3863128068
| 22> O -3.4108452368 -1.0749045709 0.2224418003
| 23> C -4.3706563264 -1.5102253367 -0.7626507078
| 24> C -5.6580358997 -0.7186754614 -0.6378087742
| 25> H 1.3642209041 -2.7583998717 0.3922712848
| 26> H 2.5613188413 -3.1130258026 1.6415277159
| 27> H 0.830587156 -3.2044806374 2.0171593084
| 28> H 1.7772251333 -1.1147973167 2.9479770912
| 29> H 0.6335377123 -0.7352324532 1.6309062671
| 30> H 4.4435288975 2.9251429681 -0.0059481023
| 31> H 2.9638923729 2.4531762981 0.8740437862
| 32> H 4.8881401902 2.7807538845 2.4418620869
| 33> H 4.3498704917 1.0916997234 2.4472989754
| 34> H 5.8083202382 1.5482699599 1.5623559804
| 35> H 0.8940222381 -0.2687343424 -2.4561986493
| 36> H -0.5364659661 0.826694023 -2.3176175732
| 37> H -2.9394917971 -0.437735173 2.7572834984
| 38> H -1.5940632198 0.6255989248 3.2678713036
| 39> H -2.7064661308 2.5402232337 2.085414355
| 40> H -4.04143752 1.477524734 1.6326651296
| 41> H -3.7595686745 1.8591347997 3.339346598
| 42> H -3.940910343 -1.4009581064 -1.7617752076
| 43> H -4.5286706373 -2.5684696014 -0.5478341077
| 44> H -6.3865236133 -1.1087327637 -1.3411672003
| 45> H -6.0531886887 -0.801108597 0.3708145664
| 46> H -5.4761626 0.3299723287 -0.8638299315
| 47> *
| 48>
| 49>                          ****END OF INPUT****

CARTESIAN COORDINATES (ANGSTROEM)
---------------------------------
  C      1.587503   -2.668297    1.453768
  C      1.586763   -1.213289    1.877364
  O      2.653438   -0.463844    1.272985
  P      2.729491   -0.031319   -0.259403
  S      3.045568   -1.416385   -1.600963
  O      3.927725    0.985961   -0.242332
  C      3.983362    2.154296    0.614742
  C      4.812611    1.873204    1.851092
  S      0.986597    1.190906   -0.549305
  C      0.154587    0.171761   -1.786787
  S     -0.767840   -1.203642   -1.053650
  P     -2.265050   -0.029305   -0.116504
  S     -2.799034    1.551218   -1.158034
  O     -1.615397    0.204478    1.307840
  C     -2.368769    0.461493    2.517137
  C     -3.277592    1.664710    2.386313
  O     -3.410845   -1.074905    0.222442
  C     -4.370656   -1.510225   -0.762651
  C     -5.658036   -0.718675   -0.637809
  H      1.364221   -2.758400    0.392271
  H      2.561319   -3.113026    1.641528
  H      0.830587   -3.204481    2.017159
  H      1.777225   -1.114797    2.947977
  H      0.633538   -0.735232    1.630906
  H      4.443529    2.925143   -0.005948
  H      2.963892    2.453176    0.874044
  H      4.888140    2.780754    2.441862
  H      4.349870    1.091700    2.447299
  H      5.808320    1.548270    1.562356
  H      0.894022   -0.268734   -2.456199
  H     -0.536466    0.826694   -2.317618
  H     -2.939492   -0.437735    2.757283
  H     -1.594063    0.625599    3.267871
  H     -2.706466    2.540223    2.085414
  H     -4.041438    1.477525    1.632665
  H     -3.759569    1.859135    3.339347
  H     -3.940910   -1.400958   -1.761775
  H     -4.528671   -2.568470   -0.547834
  H     -6.386524   -1.108733   -1.341167
  H     -6.053189   -0.801109    0.370815
  H     -5.476163    0.329972   -0.863830

 Total Charge           Charge          ....    0
 Multiplicity           Mult            ....    1
 Number of Electrons    NEL             ....  202
 Basis Dimension        Dim             ....  334

ORBITAL ENERGIES
----------------

  NO   OCC          E(Eh)            E(eV)
   0   2.0000     -88.042761     -2395.7653
   1   2.0000     -88.037566     -2395.6240
   2   2.0000     -87.991751     -2394.3773
   3   2.0000     -87.982652     -2394.1297
   4   2.0000     -76.432866     -2079.8440
   5   2.0000     -76.423282     -2079.5832
   6   2.0000     -18.802765      -511.6493
   7   2.0000     -18.796954      -511.4911
   8   2.0000     -18.789447      -511.2868
   9   2.0000     -18.789182      -511.2796
  10   2.0000      -9.963038      -271.1080
  11   2.0000      -9.961937      -271.0781
  12   2.0000      -9.957966      -270.9700
  13   2.0000      -9.948830      -270.7214
  14   2.0000      -9.946992      -270.6714
  15   2.0000      -9.890096      -269.1232
  16   2.0000      -9.888745      -269.0864
  17   2.0000      -9.886571      -269.0273
  18   2.0000      -9.873601      -268.6743
  19   2.0000      -7.687725      -209.1936
  20   2.0000      -7.682330      -209.0468
  21   2.0000      -7.636744      -207.8064
  22   2.0000      -7.627933      -207.5666
  23   2.0000      -6.430216      -174.9751
  24   2.0000      -6.420687      -174.7158
  25   2.0000      -5.715539      -155.5277
  26   2.0000      -5.712292      -155.4394
  27   2.0000      -5.710171      -155.3816
  28   2.0000      -5.706936      -155.2936
  29   2.0000      -5.704736      -155.2337
  30   2.0000      -5.699317      -155.0863
  31   2.0000      -5.665551      -154.1675
  32   2.0000      -5.657367      -153.9448
  33   2.0000      -5.657040      -153.9359
  34   2.0000      -5.656966      -153.9339
  35   2.0000      -5.648518      -153.7040
  36   2.0000      -5.647945      -153.6884
  37   2.0000      -4.653267      -126.6218
  38   2.0000      -4.651780      -126.5814
  39   2.0000      -4.650466      -126.5456
  40   2.0000      -4.643404      -126.3535
  41   2.0000      -4.642575      -126.3309
  42   2.0000      -4.640926      -126.2860
  43   2.0000      -0.995913       -27.1002
  44   2.0000      -0.985394       -26.8139
  45   2.0000      -0.952018       -25.9057
  46   2.0000      -0.941576       -25.6216
  47   2.0000      -0.762568       -20.7505
  48   2.0000      -0.723625       -19.6908
  49   2.0000      -0.711669       -19.3655
  50   2.0000      -0.695650       -18.9296
  51   2.0000      -0.685906       -18.6644
  52   2.0000      -0.674425       -18.3520
  53   2.0000      -0.651674       -17.7329
  54   2.0000      -0.638949       -17.3867
  55   2.0000      -0.599025       -16.3003
  56   2.0000      -0.585635       -15.9359
  57   2.0000      -0.582892       -15.8613
  58   2.0000      -0.573233       -15.5985
  59   2.0000      -0.563923       -15.3451
  60   2.0000      -0.510547       -13.8927
  61   2.0000      -0.498061       -13.5529
  62   2.0000      -0.480486       -13.0747
  63   2.0000      -0.472762       -12.8645
  64   2.0000      -0.460467       -12.5299
  65   2.0000      -0.446575       -12.1519
  66   2.0000      -0.443199       -12.0601
  67   2.0000      -0.437408       -11.9025
  68   2.0000      -0.425289       -11.5727
  69   2.0000      -0.420706       -11.4480
  70   2.0000      -0.410471       -11.1695
  71   2.0000      -0.400894       -10.9089
  72   2.0000      -0.396648       -10.7934
  73   2.0000      -0.390988       -10.6393
  74   2.0000      -0.382499       -10.4083
  75   2.0000      -0.372269       -10.1300
  76   2.0000      -0.362780        -9.8717
  77   2.0000      -0.356225        -9.6934
  78   2.0000      -0.355131        -9.6636
  79   2.0000      -0.354581        -9.6486
  80   2.0000      -0.348100        -9.4723
  81   2.0000      -0.346457        -9.4276
  82   2.0000      -0.341145        -9.2830
  83   2.0000      -0.338992        -9.2244
  84   2.0000      -0.332447        -9.0463
  85   2.0000      -0.326273        -8.8783
  86   2.0000      -0.315399        -8.5824
  87   2.0000      -0.305715        -8.3189
  88   2.0000      -0.299373        -8.1463
  89   2.0000      -0.288690        -7.8557
  90   2.0000      -0.287156        -7.8139
  91   2.0000      -0.282518        -7.6877
  92   2.0000      -0.275301        -7.4913
  93   2.0000      -0.264780        -7.2050
  94   2.0000      -0.256609        -6.9827
  95   2.0000      -0.238557        -6.4915
  96   2.0000      -0.215062        -5.8521
  97   2.0000      -0.213065        -5.7978
  98   2.0000      -0.201857        -5.4928
  99   2.0000      -0.200419        -5.4537
 100   2.0000      -0.196703        -5.3526
 101   0.0000      -0.047064        -1.2807
 102   0.0000      -0.027389        -0.7453
 103   0.0000      -0.005527        -0.1504
 104   0.0000      -0.001590        -0.0433
 105   0.0000       0.012236         0.3330

MULLIKEN ATOMIC CHARGES
-----------------------
   0 C :   -0.303094
   1 C :   -0.043977
   2 O :   -0.378497
   3 P :    0.603614
   4 S :   -0.308207
   5 O :   -0.354962
   6 C :   -0.017194
   7 C :   -0.287399
   8 S :   -0.113192
   9 C :   -0.356040
  10 S :   -0.081946
  11 P :    0.623013
  12 S :   -0.328641
  13 O :   -0.363175
  14 C :    0.002915
  15 C :   -0.321572
  16 O :   -0.384828
  17 C :   -0.007757
  18 C :   -0.297616
  19 H :    0.136219
  20 H :    0.113220
  21 H :    0.101137
  22 H :    0.095837
  23 H :    0.140520
  24 H :    0.114153
  25 H :    0.107724
  26 H :    0.108524
  27 H :    0.123036
  28 H :    0.121600
  29 H :    0.194512
  30 H :    0.196194
  31 H :    0.110447
  32 H :    0.106449
  33 H :    0.129661
  34 H :    0.132374
  35 H :    0.112312
  36 H :    0.107305
  37 H :    0.110261
  38 H :    0.112603
  39 H :    0.112103
  40 H :    0.132365
Sum of atomic charges:    0.0000000

LOEWDIN ATOMIC CHARGES
----------------------
   0 C :   -0.367791
   1 C :   -0.126566
   2 O :   -0.246055
   3 P :    0.567624
   4 S :   -0.297302
   5 O :   -0.235622
   6 C :   -0.111382
   7 C :   -0.358523
   8 S :    0.063457
   9 C :   -0.487065
  10 S :    0.091442
  11 P :    0.570878
  12 S :   -0.313057
  13 O :   -0.240302
  14 C :   -0.107969
  15 C :   -0.367966
  16 O :   -0.248489
  17 C :   -0.114184
  18 C :   -0.363003
  19 H :    0.117206
  20 H :    0.125321
  21 H :    0.126438
  22 H :    0.114198
  23 H :    0.105920
  24 H :    0.123235
  25 H :    0.105049
  26 H :    0.128748
  27 H :    0.127144
  28 H :    0.130113
  29 H :    0.128374
  30 H :    0.128331
  31 H :    0.113776
  32 H :    0.119723
  33 H :    0.132066
  34 H :    0.122857
  35 H :    0.130480
  36 H :    0.111681
  37 H :    0.120089
  38 H :    0.131359
  39 H :    0.124072
  40 H :    0.125698

  Mayer bond orders larger than 0.100000
B(  0-C ,  1-C ) :   1.1656 B(  0-C , 19-H ) :   0.9280 B(  0-C , 20-H ) :   0.9452
B(  0-C , 21-H ) :   0.9383 B(  1-C ,  2-O ) :   0.9110 B(  1-C , 22-H ) :   0.9343
B(  1-C , 23-H ) :   0.8967 B(  2-O ,  3-P ) :   1.0776 B(  3-P ,  4-S ) :   1.6523
B(  3-P ,  5-O ) :   1.1440 B(  3-P ,  8-S ) :   0.9375 B(  4-S ,  8-S ) :   0.1138
B(  5-O ,  6-C ) :   0.8938 B(  6-C ,  7-C ) :   1.1653 B(  6-C , 24-H ) :   0.9358
B(  6-C , 25-H ) :   0.9163 B(  7-C , 26-H ) :   0.9396 B(  7-C , 27-H ) :   0.9417
B(  7-C , 28-H ) :   0.9467 B(  8-S ,  9-C ) :   1.0167 B(  9-C , 10-S ) :   1.0018
B(  9-C , 29-H ) :   0.8652 B(  9-C , 30-H ) :   0.8712 B( 10-S , 11-P ) :   0.9600
B( 10-S , 12-S ) :   0.1189 B( 11-P , 12-S ) :   1.6130 B( 11-P , 13-O ) :   1.1161
B( 11-P , 16-O ) :   1.0898 B( 13-O , 14-C ) :   0.9012 B( 14-C , 15-C ) :   1.1692
B( 14-C , 31-H ) :   0.9305 B( 14-C , 32-H ) :   0.9334 B( 15-C , 33-H ) :   0.9433
B( 15-C , 34-H ) :   0.9347 B( 15-C , 35-H ) :   0.9346 B( 16-O , 17-C ) :   0.8974
B( 17-C , 18-C ) :   1.1693 B( 17-C , 36-H ) :   0.9143 B( 17-C , 37-H ) :   0.9351
B( 18-C , 38-H ) :   0.9394 B( 18-C , 39-H ) :   0.9464 B( 18-C , 40-H ) :   0.9321

Dispersion correction           -0.064570859
FINAL SINGLE POINT ENERGY     -2929.519469513252

DIPOLE MOMENT
-------------

Method             : SCF
Type of density    : Electron Density
Multiplicity       :   1
Irrep              :   0
Energy             : -2929.6401651787682567 Eh
Relativity type    :
Basis              : AO
                                X                 Y                 Z
Electronic contribution:      9.978628383      -0.780679743     -17.614540881
Nuclear contribution   :    -11.145878562       0.933470071      19.370858461
                        -----------------------------------------
Total Dipole Moment    :     -1.167250179       0.152790328       1.756317580
                        -----------------------------------------
Magnitude (a.u.)       :      2.114348435
Magnitude (Debye)      :      5.374246625

Rotational constants in cm-1:             0.013603             0.004482             0.004266
Rotational constants in MHz :           407.816612           134.369629           127.900604

                             ****ORCA TERMINATED NORMALLY****
TOTAL RUN TIME: 0 days 0 hours 0 minutes 21 seconds 147 msec
