                         Program Version 6.0.1  -  RELEASE   -
|  1> ! pbe def2-sv(p) def2/J RI DEFGRID1 loosescf d4 GCP(DFT/SV(P)) printgap
|  2> %output
|  3>     printlevel normal
|  4> end
|  5> * xyz 0 1
|  6> C 5.76321496 -1.5203777404 -0.6086591126
|  7> C 4.7039593146 -2.5507051168 -0.9657096684
|  8> O 3.5689332544 -2.4482468492 -0.0825404575
|  9> C 2.6163997851 -1.5894903129 -0.3755387021
| 10> O 2.5955840801 -0.8894072144 -1.367460818
| 11> C 1.5323968158 -1.5756138034 0.6824037348
| 12> C 0.3473739843 -0.7929663926 0.1511497381
| 13> H -0.1432226082 -1.3028860745 -0.6838260079
| 14> C 0.6986546625 0.6124550127 -0.2891151064
| 15> O 0.0724093424 1.1880934145 -1.1557040697
| 16> O 1.6531224997 1.1464907382 0.4344772763
| 17> C 1.9559097293 2.5422067404 0.2391673319
| 18> C 1.1234638096 3.3925827292 1.1858223543
| 19> S -0.9156897205 -0.5195044402 1.4508917373
| 20> P -2.4029624854 0.2788573821 0.2001234611
| 21> S -2.6565257707 -0.5393153528 -1.5671012573
| 22> O -3.7075267001 0.1858201079 1.1199803869
| 23> C -4.4098670566 -1.0503013966 1.2988828745
| 24> O -2.1535769985 1.8473902986 0.2916303252
| 25> C -2.6476328075 2.7383690888 -0.7217513943
| 26> H 6.053929433 -1.6281845651 0.4324594949
| 27> H 6.6326549529 -1.665914596 -1.2411366652
| 28> H 5.375617556 -0.5166893813 -0.7682309733
| 29> H 5.0704549936 -3.5665222787 -0.8185709464
| 30> H 4.359614222 -2.4132396393 -1.9946679561
| 31> H 1.9338779441 -1.0962979612 1.5773197489
| 32> H 1.24920447 -2.5958251506 0.9377127408
| 33> H 3.0209699213 2.6276315979 0.4549143716
| 34> H 1.75726372 2.798371474 -0.8050426929
| 35> H 1.3350739534 3.1215853381 2.2163799437
| 36> H 1.3597359066 4.4400200566 1.0315320296
| 37> H 0.0640490556 3.2337766343 0.9935390774
| 38> H -3.8767782734 -1.6767667716 2.0128401869
| 39> H -4.5028948154 -1.568004816 0.3424301935
| 40> H -5.3899143301 -0.778609748 1.6824608708
| 41> H -3.7305374727 2.6570097887 -0.8021938957
| 42> H -2.1798372854 2.4970718682 -1.6771480348
| 43> H -2.3588012713 3.7343945959 -0.3963421521
| 44> *
| 45>
| 46>                          ****END OF INPUT****

CARTESIAN COORDINATES (ANGSTROEM)
---------------------------------
  C      5.763215   -1.520378   -0.608659
  C      4.703959   -2.550705   -0.965710
  O      3.568933   -2.448247   -0.082540
  C      2.616400   -1.589490   -0.375539
  O      2.595584   -0.889407   -1.367461
  C      1.532397   -1.575614    0.682404
  C      0.347374   -0.792966    0.151150
  H     -0.143223   -1.302886   -0.683826
  C      0.698655    0.612455   -0.289115
  O      0.072409    1.188093   -1.155704
  O      1.653122    1.146491    0.434477
  C      1.955910    2.542207    0.239167
  C      1.123464    3.392583    1.185822
  S     -0.915690   -0.519504    1.450892
  P     -2.402962    0.278857    0.200123
  S     -2.656526   -0.539315   -1.567101
  O     -3.707527    0.185820    1.119980
  C     -4.409867   -1.050301    1.298883
  O     -2.153577    1.847390    0.291630
  C     -2.647633    2.738369   -0.721751
  H      6.053929   -1.628185    0.432459
  H      6.632655   -1.665915   -1.241137
  H      5.375618   -0.516689   -0.768231
  H      5.070455   -3.566522   -0.818571
  H      4.359614   -2.413240   -1.994668
  H      1.933878   -1.096298    1.577320
  H      1.249204   -2.595825    0.937713
  H      3.020970    2.627632    0.454914
  H      1.757264    2.798371   -0.805043
  H      1.335074    3.121585    2.216380
  H      1.359736    4.440020    1.031532
  H      0.064049    3.233777    0.993539
  H     -3.876778   -1.676767    2.012840
  H     -4.502895   -1.568005    0.342430
  H     -5.389914   -0.778610    1.682461
  H     -3.730537    2.657010   -0.802194
  H     -2.179837    2.497072   -1.677148
  H     -2.358801    3.734395   -0.396342

 Total Charge           Charge          ....    0
 Multiplicity           Mult            ....    1
 Number of Electrons    NEL             ....  174
 Basis Dimension        Dim             ....  316

ORBITAL ENERGIES
----------------

  NO   OCC          E(Eh)            E(eV)
   0   2.0000     -88.042726     -2395.7644
   1   2.0000     -87.975026     -2393.9222
   2   2.0000     -76.419366     -2079.4767
   3   2.0000     -18.811818      -511.8956
   4   2.0000     -18.800321      -511.5827
   5   2.0000     -18.786253      -511.1999
   6   2.0000     -18.785771      -511.1868
   7   2.0000     -18.748835      -510.1817
   8   2.0000     -18.725443      -509.5452
   9   2.0000     -10.020457      -272.6705
  10   2.0000     -10.006847      -272.3002
  11   2.0000      -9.955381      -270.8997
  12   2.0000      -9.944484      -270.6032
  13   2.0000      -9.939883      -270.4780
  14   2.0000      -9.939405      -270.4649
  15   2.0000      -9.936028      -270.3731
  16   2.0000      -9.916702      -269.8472
  17   2.0000      -9.893611      -269.2189
  18   2.0000      -9.882512      -268.9168
  19   2.0000      -7.687622      -209.1908
  20   2.0000      -7.620285      -207.3585
  21   2.0000      -6.416739      -174.6084
  22   2.0000      -5.715237      -155.5195
  23   2.0000      -5.712379      -155.4417
  24   2.0000      -5.704631      -155.2309
  25   2.0000      -5.649260      -153.7242
  26   2.0000      -5.640981      -153.4989
  27   2.0000      -5.640281      -153.4799
  28   2.0000      -4.639057      -126.2352
  29   2.0000      -4.638539      -126.2211
  30   2.0000      -4.637404      -126.1902
  31   2.0000      -1.020391       -27.7662
  32   2.0000      -1.007989       -27.4288
  33   2.0000      -0.978427       -26.6244
  34   2.0000      -0.936321       -25.4786
  35   2.0000      -0.925705       -25.1897
  36   2.0000      -0.907593       -24.6969
  37   2.0000      -0.766572       -20.8595
  38   2.0000      -0.719373       -19.5751
  39   2.0000      -0.702764       -19.1232
  40   2.0000      -0.689540       -18.7633
  41   2.0000      -0.658040       -17.9062
  42   2.0000      -0.624474       -16.9928
  43   2.0000      -0.623224       -16.9588
  44   2.0000      -0.613268       -16.6879
  45   2.0000      -0.598456       -16.2848
  46   2.0000      -0.562631       -15.3100
  47   2.0000      -0.508978       -13.8500
  48   2.0000      -0.506148       -13.7730
  49   2.0000      -0.495151       -13.4737
  50   2.0000      -0.476166       -12.9571
  51   2.0000      -0.468067       -12.7367
  52   2.0000      -0.463144       -12.6028
  53   2.0000      -0.441659       -12.0182
  54   2.0000      -0.433361       -11.7924
  55   2.0000      -0.430674       -11.7192
  56   2.0000      -0.422676       -11.5016
  57   2.0000      -0.420311       -11.4372
  58   2.0000      -0.411760       -11.2046
  59   2.0000      -0.407890       -11.0993
  60   2.0000      -0.401483       -10.9249
  61   2.0000      -0.398983       -10.8569
  62   2.0000      -0.388663       -10.5760
  63   2.0000      -0.381666       -10.3857
  64   2.0000      -0.375081       -10.2065
  65   2.0000      -0.369826       -10.0635
  66   2.0000      -0.358381        -9.7521
  67   2.0000      -0.356503        -9.7009
  68   2.0000      -0.349233        -9.5031
  69   2.0000      -0.339348        -9.2341
  70   2.0000      -0.334520        -9.1027
  71   2.0000      -0.330648        -8.9974
  72   2.0000      -0.323829        -8.8118
  73   2.0000      -0.306028        -8.3274
  74   2.0000      -0.301244        -8.1973
  75   2.0000      -0.299022        -8.1368
  76   2.0000      -0.291036        -7.9195
  77   2.0000      -0.284803        -7.7499
  78   2.0000      -0.270777        -7.3682
  79   2.0000      -0.267121        -7.2687
  80   2.0000      -0.258331        -7.0295
  81   2.0000      -0.248686        -6.7671
  82   2.0000      -0.235051        -6.3961
  83   2.0000      -0.231783        -6.3071
  84   2.0000      -0.217614        -5.9216
  85   2.0000      -0.195765        -5.3270
  86   2.0000      -0.184889        -5.0311
  87   0.0000      -0.046247        -1.2585
  88   0.0000      -0.030463        -0.8289
  89   0.0000      -0.009985        -0.2717
  90   0.0000       0.019374         0.5272
  91   0.0000       0.025627         0.6973

MULLIKEN ATOMIC CHARGES
-----------------------
   0 C :   -0.305952
   1 C :   -0.014380
   2 O :   -0.227223
   3 C :    0.123242
   4 O :   -0.198535
   5 C :   -0.042001
   6 C :   -0.339204
   7 H :    0.154874
   8 C :    0.213367
   9 O :   -0.192595
  10 O :   -0.237303
  11 C :   -0.013355
  12 C :   -0.314470
  13 S :   -0.091672
  14 P :    0.616219
  15 S :   -0.319912
  16 O :   -0.378175
  17 C :   -0.100974
  18 O :   -0.369240
  19 C :   -0.097556
  20 H :    0.115867
  21 H :    0.116676
  22 H :    0.127657
  23 H :    0.106679
  24 H :    0.115104
  25 H :    0.125091
  26 H :    0.122032
  27 H :    0.098858
  28 H :    0.114122
  29 H :    0.111627
  30 H :    0.108342
  31 H :    0.140349
  32 H :    0.112124
  33 H :    0.117205
  34 H :    0.123831
  35 H :    0.116736
  36 H :    0.142782
  37 H :    0.119763
Sum of atomic charges:   -0.0000000

LOEWDIN ATOMIC CHARGES
----------------------
   0 C :   -0.355657
   1 C :   -0.109114
   2 O :   -0.055931
   3 C :    0.042994
   4 O :   -0.152152
   5 C :   -0.255460
   6 C :   -0.260396
   7 H :    0.139148
   8 C :    0.002531
   9 O :   -0.162386
  10 O :   -0.053913
  11 C :   -0.107444
  12 C :   -0.358596
  13 S :    0.111171
  14 P :    0.576294
  15 S :   -0.311095
  16 O :   -0.259922
  17 C :   -0.217442
  18 O :   -0.245427
  19 C :   -0.208204
  20 H :    0.125711
  21 H :    0.132541
  22 H :    0.130824
  23 H :    0.119816
  24 H :    0.122693
  25 H :    0.147738
  26 H :    0.144580
  27 H :    0.115677
  28 H :    0.122430
  29 H :    0.124610
  30 H :    0.128059
  31 H :    0.132032
  32 H :    0.110007
  33 H :    0.109258
  34 H :    0.121667
  35 H :    0.112235
  36 H :    0.122790
  37 H :    0.118336

  Mayer bond orders larger than 0.100000
B(  0-C ,  1-C ) :   1.1746 B(  0-C , 20-H ) :   0.9487 B(  0-C , 21-H ) :   0.9438
B(  0-C , 22-H ) :   0.9460 B(  1-C ,  2-O ) :   0.9096 B(  1-C , 23-H ) :   0.9370
B(  1-C , 24-H ) :   0.9147 B(  2-O ,  3-C ) :   1.2510 B(  3-C ,  4-O ) :   2.0082
B(  3-C ,  5-C ) :   1.0154 B(  5-C ,  6-C ) :   1.0332 B(  5-C , 25-H ) :   0.8701
B(  5-C , 26-H ) :   0.8901 B(  6-C ,  7-H ) :   0.8640 B(  6-C ,  8-C ) :   0.9017
B(  6-C , 13-S ) :   1.0249 B(  8-C ,  9-O ) :   1.9988 B(  8-C , 10-O ) :   1.2314
B( 10-O , 11-C ) :   0.9114 B( 11-C , 12-C ) :   1.1745 B( 11-C , 27-H ) :   0.9375
B( 11-C , 28-H ) :   0.9118 B( 12-C , 29-H ) :   0.9480 B( 12-C , 30-H ) :   0.9437
B( 12-C , 31-H ) :   0.9341 B( 13-S , 14-P ) :   0.9641 B( 13-S , 15-S ) :   0.1170
B( 14-P , 15-S ) :   1.6327 B( 14-P , 16-O ) :   1.0952 B( 14-P , 18-O ) :   1.1121
B( 16-O , 17-C ) :   0.9326 B( 17-C , 32-H ) :   0.9515 B( 17-C , 33-H ) :   0.9288
B( 17-C , 34-H ) :   0.9595 B( 18-O , 19-C ) :   0.9121 B( 19-C , 35-H ) :   0.9504
B( 19-C , 36-H ) :   0.9403 B( 19-C , 37-H ) :   0.9551

Dispersion correction           -0.051142921
FINAL SINGLE POINT ENERGY     -1979.020083965145

DIPOLE MOMENT
-------------

Method             : SCF
Type of density    : Electron Density
Multiplicity       :   1
Irrep              :   0
Energy             : -1979.1518620788169756 Eh
Relativity type    :
Basis              : AO
                                X                 Y                 Z
Electronic contribution:    -16.219882301      -5.775382812      -1.140864331
Nuclear contribution   :     17.319840462       5.708090012       2.153504786
                        -----------------------------------------
Total Dipole Moment    :      1.099958161      -0.067292800       1.012640456
                        -----------------------------------------
Magnitude (a.u.)       :      1.496621853
Magnitude (Debye)      :      3.804110432

Rotational constants in cm-1:             0.016457             0.005708             0.004991
Rotational constants in MHz :           493.370461           171.110098           149.633331

                             ****ORCA TERMINATED NORMALLY****
TOTAL RUN TIME: 0 days 0 hours 0 minutes 32 seconds 484 msec
