                         Program Version 6.0.1  -  RELEASE   -
|  1> ! pbe def2-sv(p) def2/J RI DEFGRID1 loosescf d4 GCP(DFT/SV(P)) printgap
|  2> %output
|  3>     printlevel normal
|  4> end
|  5> * xyz 0 1
|  6> C 1.9015096459 -3.6007575208 -2.2275224367
|  7> C 3.1436240209 -2.9046189388 -1.6945892732
|  8> O 2.8033894931 -1.6263977797 -1.125245929
|  9> C 2.369302604 -1.5885213758 0.1190521283
| 10> O 2.3066588782 -2.54506566 0.8576656412
| 11> C 1.962028742 -0.1837343663 0.5273974073
| 12> C 1.1150340445 0.4758016551 -0.5600479254
| 13> H 1.7146968036 0.6228935406 -1.4620746636
| 14> C 0.5512707108 1.8048398161 -0.0985798945
| 15> O -0.6430726854 2.028826655 -0.0733065711
| 16> O 1.4855257247 2.6339009062 0.2685146847
| 17> C 1.0930549216 3.9315966224 0.7698833961
| 18> C 0.8417513 4.9038190012 -0.370369741
| 19> S -0.2768530878 -0.5696995527 -1.093204047
| 20> P -1.6749393626 -0.2614129903 0.4929828388
| 21> S -1.1485461799 0.3277548743 2.2878054427
| 22> O -2.9874767511 0.3877163036 -0.1465837047
| 23> C -3.3850429474 1.7580018602 -0.13941054
| 24> O -2.2057615164 -1.7564704715 0.6586678336
| 25> C -2.7751332245 -2.518228559 -0.4178093683
| 26> H 2.1887421432 -4.5204412017 -2.7258372985
| 27> H 1.2275619644 -3.8375627966 -1.4071639485
| 28> H 1.38276622 -2.952841668 -2.9289296541
| 29> H 3.8430539258 -2.6662286413 -2.4956216646
| 30> H 3.6308809871 -3.5125778255 -0.9270896485
| 31> H 2.8605342613 0.4149766634 0.6889145108
| 32> H 1.4120569847 -0.2526665966 1.4690297025
| 33> H 0.1999265892 3.806845602 1.3882119732
| 34> H 1.9377054602 4.243732509 1.3834367749
| 35> H 0.6143708737 5.881650011 0.0407848016
| 36> H 1.7230025829 4.9769061567 -1.0014544975
| 37> H -0.000877793 4.5709654491 -0.9716001182
| 38> H -3.0705175201 2.2386759971 0.7865406822
| 39> H -4.4703324327 1.7444467231 -0.2143250185
| 40> H -2.9424825254 2.2737509446 -0.9891105963
| 41> H -2.0908718449 -2.5374537929 -1.266852455
| 42> H -3.7274420504 -2.0831968384 -0.7153873588
| 43> H -2.9146414693 -3.5187644529 -0.0163027543
| 44> *
| 45>
| 46>                          ****END OF INPUT****

CARTESIAN COORDINATES (ANGSTROEM)
---------------------------------
  C      1.901510   -3.600758   -2.227522
  C      3.143624   -2.904619   -1.694589
  O      2.803389   -1.626398   -1.125246
  C      2.369303   -1.588521    0.119052
  O      2.306659   -2.545066    0.857666
  C      1.962029   -0.183734    0.527397
  C      1.115034    0.475802   -0.560048
  H      1.714697    0.622894   -1.462075
  C      0.551271    1.804840   -0.098580
  O     -0.643073    2.028827   -0.073307
  O      1.485526    2.633901    0.268515
  C      1.093055    3.931597    0.769883
  C      0.841751    4.903819   -0.370370
  S     -0.276853   -0.569700   -1.093204
  P     -1.674939   -0.261413    0.492983
  S     -1.148546    0.327755    2.287805
  O     -2.987477    0.387716   -0.146584
  C     -3.385043    1.758002   -0.139411
  O     -2.205762   -1.756470    0.658668
  C     -2.775133   -2.518229   -0.417809
  H      2.188742   -4.520441   -2.725837
  H      1.227562   -3.837563   -1.407164
  H      1.382766   -2.952842   -2.928930
  H      3.843054   -2.666229   -2.495622
  H      3.630881   -3.512578   -0.927090
  H      2.860534    0.414977    0.688915
  H      1.412057   -0.252667    1.469030
  H      0.199927    3.806846    1.388212
  H      1.937705    4.243733    1.383437
  H      0.614371    5.881650    0.040785
  H      1.723003    4.976906   -1.001454
  H     -0.000878    4.570965   -0.971600
  H     -3.070518    2.238676    0.786541
  H     -4.470332    1.744447   -0.214325
  H     -2.942483    2.273751   -0.989111
  H     -2.090872   -2.537454   -1.266852
  H     -3.727442   -2.083197   -0.715387
  H     -2.914641   -3.518764   -0.016303

 Total Charge           Charge          ....    0
 Multiplicity           Mult            ....    1
 Number of Electrons    NEL             ....  174
 Basis Dimension        Dim             ....  316

ORBITAL ENERGIES
----------------

  NO   OCC          E(Eh)            E(eV)
   0   2.0000     -88.034979     -2395.5536
   1   2.0000     -87.969955     -2393.7842
   2   2.0000     -76.418998     -2079.4667
   3   2.0000     -18.827112      -512.3118
   4   2.0000     -18.801495      -511.6147
   5   2.0000     -18.782722      -511.1039
   6   2.0000     -18.772541      -510.8268
   7   2.0000     -18.760132      -510.4892
   8   2.0000     -18.733316      -509.7595
   9   2.0000     -10.031506      -272.9712
  10   2.0000     -10.006508      -272.2909
  11   2.0000      -9.962110      -271.0828
  12   2.0000      -9.953272      -270.8423
  13   2.0000      -9.947521      -270.6858
  14   2.0000      -9.938223      -270.4328
  15   2.0000      -9.935255      -270.3520
  16   2.0000      -9.904680      -269.5200
  17   2.0000      -9.899009      -269.3657
  18   2.0000      -9.884028      -268.9581
  19   2.0000      -7.679753      -208.9767
  20   2.0000      -7.615288      -207.2225
  21   2.0000      -6.414771      -174.5548
  22   2.0000      -5.707806      -155.3173
  23   2.0000      -5.704383      -155.2241
  24   2.0000      -5.696424      -155.0076
  25   2.0000      -5.644755      -153.6016
  26   2.0000      -5.636054      -153.3648
  27   2.0000      -5.634686      -153.3276
  28   2.0000      -4.637623      -126.1961
  29   2.0000      -4.636691      -126.1708
  30   2.0000      -4.635271      -126.1321
  31   2.0000      -1.036176       -28.1958
  32   2.0000      -1.008755       -27.4496
  33   2.0000      -0.971889       -26.4464
  34   2.0000      -0.940855       -25.6020
  35   2.0000      -0.926220       -25.2037
  36   2.0000      -0.910877       -24.7862
  37   2.0000      -0.768315       -20.9069
  38   2.0000      -0.718924       -19.5629
  39   2.0000      -0.706703       -19.2304
  40   2.0000      -0.687501       -18.7078
  41   2.0000      -0.652867       -17.7654
  42   2.0000      -0.631665       -17.1885
  43   2.0000      -0.629410       -17.1271
  44   2.0000      -0.607329       -16.5263
  45   2.0000      -0.595807       -16.2127
  46   2.0000      -0.571146       -15.5417
  47   2.0000      -0.515534       -14.0284
  48   2.0000      -0.505618       -13.7586
  49   2.0000      -0.497855       -13.5473
  50   2.0000      -0.486433       -13.2365
  51   2.0000      -0.468324       -12.7438
  52   2.0000      -0.456989       -12.4353
  53   2.0000      -0.450055       -12.2466
  54   2.0000      -0.441909       -12.0249
  55   2.0000      -0.433794       -11.8041
  56   2.0000      -0.427934       -11.6447
  57   2.0000      -0.420031       -11.4296
  58   2.0000      -0.411518       -11.1980
  59   2.0000      -0.407296       -11.0831
  60   2.0000      -0.400920       -10.9096
  61   2.0000      -0.395927       -10.7737
  62   2.0000      -0.388468       -10.5707
  63   2.0000      -0.385574       -10.4920
  64   2.0000      -0.382484       -10.4079
  65   2.0000      -0.369880       -10.0649
  66   2.0000      -0.360781        -9.8173
  67   2.0000      -0.354313        -9.6413
  68   2.0000      -0.352663        -9.5964
  69   2.0000      -0.338909        -9.2222
  70   2.0000      -0.336061        -9.1447
  71   2.0000      -0.330438        -8.9917
  72   2.0000      -0.324041        -8.8176
  73   2.0000      -0.311322        -8.4715
  74   2.0000      -0.307285        -8.3616
  75   2.0000      -0.293336        -7.9821
  76   2.0000      -0.291246        -7.9252
  77   2.0000      -0.288333        -7.8460
  78   2.0000      -0.283336        -7.7100
  79   2.0000      -0.261398        -7.1130
  80   2.0000      -0.259032        -7.0486
  81   2.0000      -0.251124        -6.8334
  82   2.0000      -0.247820        -6.7435
  83   2.0000      -0.215956        -5.8765
  84   2.0000      -0.212370        -5.7789
  85   2.0000      -0.190921        -5.1952
  86   2.0000      -0.182300        -4.9606
  87   0.0000      -0.047770        -1.2999
  88   0.0000      -0.038404        -1.0450
  89   0.0000      -0.015433        -0.4200
  90   0.0000      -0.002177        -0.0592
  91   0.0000       0.033002         0.8980

MULLIKEN ATOMIC CHARGES
-----------------------
   0 C :   -0.306299
   1 C :   -0.010860
   2 O :   -0.243211
   3 C :    0.129452
   4 O :   -0.183112
   5 C :   -0.089805
   6 C :   -0.296810
   7 H :    0.150508
   8 C :    0.220589
   9 O :   -0.193296
  10 O :   -0.218027
  11 C :   -0.011015
  12 C :   -0.310429
  13 S :   -0.116883
  14 P :    0.638220
  15 S :   -0.325386
  16 O :   -0.398936
  17 C :   -0.078726
  18 O :   -0.367177
  19 C :   -0.111805
  20 H :    0.110578
  21 H :    0.132796
  22 H :    0.113128
  23 H :    0.099881
  24 H :    0.109599
  25 H :    0.120776
  26 H :    0.126363
  27 H :    0.123338
  28 H :    0.111133
  29 H :    0.120252
  30 H :    0.117473
  31 H :    0.128312
  32 H :    0.115237
  33 H :    0.115676
  34 H :    0.112626
  35 H :    0.118724
  36 H :    0.117457
  37 H :    0.129659
Sum of atomic charges:   -0.0000000

LOEWDIN ATOMIC CHARGES
----------------------
   0 C :   -0.358019
   1 C :   -0.109992
   2 O :   -0.066737
   3 C :    0.024828
   4 O :   -0.153443
   5 C :   -0.255803
   6 C :   -0.262233
   7 H :    0.150360
   8 C :    0.024619
   9 O :   -0.156809
  10 O :   -0.034287
  11 C :   -0.105108
  12 C :   -0.356359
  13 S :    0.095936
  14 P :    0.586988
  15 S :   -0.320344
  16 O :   -0.254218
  17 C :   -0.206050
  18 O :   -0.252853
  19 C :   -0.213880
  20 H :    0.128984
  21 H :    0.132087
  22 H :    0.122398
  23 H :    0.116210
  24 H :    0.120665
  25 H :    0.145389
  26 H :    0.137697
  27 H :    0.126998
  28 H :    0.122756
  29 H :    0.134668
  30 H :    0.126692
  31 H :    0.130221
  32 H :    0.111437
  33 H :    0.115679
  34 H :    0.111075
  35 H :    0.102873
  36 H :    0.112632
  37 H :    0.124945

  Mayer bond orders larger than 0.100000
B(  0-C ,  1-C ) :   1.1764 B(  0-C , 20-H ) :   0.9427 B(  0-C , 21-H ) :   0.9431
B(  0-C , 22-H ) :   0.9467 B(  1-C ,  2-O ) :   0.9176 B(  1-C , 23-H ) :   0.9379
B(  1-C , 24-H ) :   0.9149 B(  2-O ,  3-C ) :   1.1990 B(  3-C ,  4-O ) :   2.0832
B(  3-C ,  5-C ) :   1.0216 B(  5-C ,  6-C ) :   1.0453 B(  5-C , 25-H ) :   0.8692
B(  5-C , 26-H ) :   0.8792 B(  6-C ,  7-H ) :   0.8543 B(  6-C ,  8-C ) :   0.9181
B(  6-C , 13-S ) :   1.0429 B(  8-C ,  9-O ) :   1.9345 B(  8-C , 10-O ) :   1.2819
B( 10-O , 11-C ) :   0.8985 B( 11-C , 12-C ) :   1.1732 B( 11-C , 27-H ) :   0.9156
B( 11-C , 28-H ) :   0.9362 B( 12-C , 29-H ) :   0.9432 B( 12-C , 30-H ) :   0.9473
B( 12-C , 31-H ) :   0.9452 B( 13-S , 14-P ) :   0.9137 B( 13-S , 15-S ) :   0.1103
B( 14-P , 15-S ) :   1.5874 B( 14-P , 16-O ) :   1.0855 B( 14-P , 18-O ) :   1.1043
B( 16-O , 17-C ) :   0.9299 B( 17-C , 32-H ) :   0.9422 B( 17-C , 33-H ) :   0.9539
B( 17-C , 34-H ) :   0.9531 B( 18-O , 19-C ) :   0.9353 B( 19-C , 35-H ) :   0.9359
B( 19-C , 36-H ) :   0.9467 B( 19-C , 37-H ) :   0.9604

Dispersion correction           -0.052292529
FINAL SINGLE POINT ENERGY     -1979.009564800142

DIPOLE MOMENT
-------------

Method             : SCF
Type of density    : Electron Density
Multiplicity       :   1
Irrep              :   0
Energy             : -1979.1400245405043279 Eh
Relativity type    :
Basis              : AO
                                X                 Y                 Z
Electronic contribution:     -4.407937719      -3.565723243       9.336262778
Nuclear contribution   :      4.849688991       4.818157834     -11.130712263
                        -----------------------------------------
Total Dipole Moment    :      0.441751271       1.252434591      -1.794449485
                        -----------------------------------------
Magnitude (a.u.)       :      2.232439371
Magnitude (Debye)      :      5.674409928

Rotational constants in cm-1:             0.011302             0.008284             0.005851
Rotational constants in MHz :           338.819715           248.340592           175.411386

                             ****ORCA TERMINATED NORMALLY****
TOTAL RUN TIME: 0 days 0 hours 0 minutes 37 seconds 350 msec
