                         Program Version 6.0.0  -   RELEASE  -
|  1> ! pbe def2-sv(p) def2/J RI DEFGRID1 loosescf d4 GCP(DFT/SV(P)) printgap
|  2> %output
|  3>     printlevel normal
|  4> end
|  5> * xyz 0 1
|  6> C 3.2831231614 2.0662207889 -1.8210268186
|  7> C 3.3692368064 1.6238660612 -0.3745366333
|  8> O 3.0258236442 0.2246963853 -0.2750695041
|  9> P 2.0123412333 -0.3887778116 0.7702004879
| 10> S 1.0670759308 0.924752172 1.8824599356
| 11> O 2.9982380599 -1.3507896862 1.5604951415
| 12> C 2.637110477 -2.5664256162 2.2384885062
| 13> C 1.4544811627 -2.3923782615 3.1689523175
| 14> S 0.8723909266 -1.7592138661 -0.4054473058
| 15> C 0.6008563793 -0.7306931739 -1.8767332874
| 16> S -0.0928865491 0.8969615241 -1.5141220366
| 17> P -2.0677348097 0.3088811775 -0.9660163781
| 18> S -2.6874657683 -1.3091166932 -1.8718425215
| 19> O -2.9238725056 1.5817000819 -1.3264527743
| 20> C -3.0394181575 2.7809575468 -0.5200854748
| 21> C -1.7020028938 3.4309527548 -0.2387605888
| 22> O -2.1280762445 0.2827506628 0.6240021376
| 23> C -2.1205874171 -0.9081513799 1.4269308766
| 24> C -3.5288828161 -1.235754824 1.8806304549
| 25> H 2.2561715585 2.0081964484 -2.1755555669
| 26> H 3.6238550345 3.0937693563 -1.8932898285
| 27> H 3.9135938918 1.4360224076 -2.4419755174
| 28> H 2.691856167 2.2029280784 0.2623491431
| 29> H 4.3885375162 1.7144734913 0.0064721965
| 30> H 2.4236793266 -3.3271670901 1.4820056987
| 31> H 3.5422299586 -2.8332353516 2.7870456019
| 32> H 0.5616989378 -2.15329644 2.5914970686
| 33> H 1.2846912835 -3.314900332 3.7146358386
| 34> H 1.6416332179 -1.5850252619 3.8733337466
| 35> H -0.09537961 -1.2921186461 -2.5017584301
| 36> H 1.5493782114 -0.5670705236 -2.3821914667
| 37> H -3.6802304645 3.4223785347 -1.1269890498
| 38> H -3.5458038358 2.5180972736 0.410456713
| 39> H -1.0940884205 2.7915966104 0.4006362835
| 40> H -1.1655413661 3.6166851182 -1.1665115106
| 41> H -1.8670114525 4.3740825622 0.2729829078
| 42> H -1.7018640033 -1.7384857508 0.8496367137
| 43> H -1.4683978374 -0.6730495871 2.2715582104
| 44> H -4.1538652002 -1.4504133744 1.0157842948
| 45> H -3.5016124393 -2.1088155534 2.5243824335
| 46> H -3.9527539306 -0.397893933 2.4268719423
| 47> *
| 48>
| 49>                          ****END OF INPUT****

CARTESIAN COORDINATES (ANGSTROEM)
---------------------------------
  C      3.283123    2.066221   -1.821027
  C      3.369237    1.623866   -0.374537
  O      3.025824    0.224696   -0.275070
  P      2.012341   -0.388778    0.770200
  S      1.067076    0.924752    1.882460
  O      2.998238   -1.350790    1.560495
  C      2.637110   -2.566426    2.238489
  C      1.454481   -2.392378    3.168952
  S      0.872391   -1.759214   -0.405447
  C      0.600856   -0.730693   -1.876733
  S     -0.092887    0.896962   -1.514122
  P     -2.067735    0.308881   -0.966016
  S     -2.687466   -1.309117   -1.871843
  O     -2.923873    1.581700   -1.326453
  C     -3.039418    2.780958   -0.520085
  C     -1.702003    3.430953   -0.238761
  O     -2.128076    0.282751    0.624002
  C     -2.120587   -0.908151    1.426931
  C     -3.528883   -1.235755    1.880630
  H      2.256172    2.008196   -2.175556
  H      3.623855    3.093769   -1.893290
  H      3.913594    1.436022   -2.441976
  H      2.691856    2.202928    0.262349
  H      4.388538    1.714473    0.006472
  H      2.423679   -3.327167    1.482006
  H      3.542230   -2.833235    2.787046
  H      0.561699   -2.153296    2.591497
  H      1.284691   -3.314900    3.714636
  H      1.641633   -1.585025    3.873334
  H     -0.095380   -1.292119   -2.501758
  H      1.549378   -0.567071   -2.382191
  H     -3.680230    3.422379   -1.126989
  H     -3.545804    2.518097    0.410457
  H     -1.094088    2.791597    0.400636
  H     -1.165541    3.616685   -1.166512
  H     -1.867011    4.374083    0.272983
  H     -1.701864   -1.738486    0.849637
  H     -1.468398   -0.673050    2.271558
  H     -4.153865   -1.450413    1.015784
  H     -3.501612   -2.108816    2.524382
  H     -3.952754   -0.397894    2.426872

 Total Charge           Charge          ....    0
 Multiplicity           Mult            ....    1
 Number of Electrons    NEL             ....  202
 Basis Dimension        Dim             ....  334

ORBITAL ENERGIES
----------------

  NO   OCC          E(Eh)            E(eV)
   0   2.0000     -88.044149     -2395.8031
   1   2.0000     -88.040933     -2395.7156
   2   2.0000     -87.985370     -2394.2036
   3   2.0000     -87.984555     -2394.1815
   4   2.0000     -76.430275     -2079.7735
   5   2.0000     -76.425901     -2079.6545
   6   2.0000     -18.795793      -511.4595
   7   2.0000     -18.791118      -511.3323
   8   2.0000     -18.789725      -511.2944
   9   2.0000     -18.788018      -511.2480
  10   2.0000      -9.960314      -271.0339
  11   2.0000      -9.957461      -270.9563
  12   2.0000      -9.956658      -270.9344
  13   2.0000      -9.953778      -270.8561
  14   2.0000      -9.941980      -270.5350
  15   2.0000      -9.889513      -269.1073
  16   2.0000      -9.889092      -269.0959
  17   2.0000      -9.886125      -269.0151
  18   2.0000      -9.877240      -268.7734
  19   2.0000      -7.688847      -209.2242
  20   2.0000      -7.685279      -209.1271
  21   2.0000      -7.630279      -207.6304
  22   2.0000      -7.629746      -207.6159
  23   2.0000      -6.427128      -174.8911
  24   2.0000      -6.423196      -174.7840
  25   2.0000      -5.716856      -155.5636
  26   2.0000      -5.713332      -155.4677
  27   2.0000      -5.713302      -155.4668
  28   2.0000      -5.709794      -155.3714
  29   2.0000      -5.705780      -155.2622
  30   2.0000      -5.702206      -155.1649
  31   2.0000      -5.659079      -153.9914
  32   2.0000      -5.658694      -153.9809
  33   2.0000      -5.651041      -153.7726
  34   2.0000      -5.650393      -153.7550
  35   2.0000      -5.650279      -153.7519
  36   2.0000      -5.649922      -153.7422
  37   2.0000      -4.649816      -126.5279
  38   2.0000      -4.649228      -126.5119
  39   2.0000      -4.647256      -126.4583
  40   2.0000      -4.646113      -126.4272
  41   2.0000      -4.644623      -126.3866
  42   2.0000      -4.643739      -126.3626
  43   2.0000      -0.988538       -26.8995
  44   2.0000      -0.985026       -26.8039
  45   2.0000      -0.947315       -25.7778
  46   2.0000      -0.940592       -25.5948
  47   2.0000      -0.763897       -20.7867
  48   2.0000      -0.723452       -19.6861
  49   2.0000      -0.712060       -19.3761
  50   2.0000      -0.691254       -18.8100
  51   2.0000      -0.687809       -18.7162
  52   2.0000      -0.672815       -18.3082
  53   2.0000      -0.653317       -17.7777
  54   2.0000      -0.638264       -17.3680
  55   2.0000      -0.598277       -16.2799
  56   2.0000      -0.592987       -16.1360
  57   2.0000      -0.576394       -15.6845
  58   2.0000      -0.572867       -15.5885
  59   2.0000      -0.563720       -15.3396
  60   2.0000      -0.505669       -13.7600
  61   2.0000      -0.493811       -13.4373
  62   2.0000      -0.474607       -12.9147
  63   2.0000      -0.472743       -12.8640
  64   2.0000      -0.462533       -12.5862
  65   2.0000      -0.444250       -12.0887
  66   2.0000      -0.441082       -12.0025
  67   2.0000      -0.435677       -11.8554
  68   2.0000      -0.425986       -11.5917
  69   2.0000      -0.420502       -11.4424
  70   2.0000      -0.413842       -11.2612
  71   2.0000      -0.399611       -10.8740
  72   2.0000      -0.390728       -10.6322
  73   2.0000      -0.387298       -10.5389
  74   2.0000      -0.381786       -10.3889
  75   2.0000      -0.379946       -10.3389
  76   2.0000      -0.368242       -10.0204
  77   2.0000      -0.358205        -9.7473
  78   2.0000      -0.354052        -9.6342
  79   2.0000      -0.351733        -9.5711
  80   2.0000      -0.348636        -9.4869
  81   2.0000      -0.345162        -9.3923
  82   2.0000      -0.341263        -9.2862
  83   2.0000      -0.339593        -9.2408
  84   2.0000      -0.335699        -9.1348
  85   2.0000      -0.321064        -8.7366
  86   2.0000      -0.309037        -8.4093
  87   2.0000      -0.299698        -8.1552
  88   2.0000      -0.296892        -8.0788
  89   2.0000      -0.290881        -7.9153
  90   2.0000      -0.286232        -7.7888
  91   2.0000      -0.279417        -7.6033
  92   2.0000      -0.271646        -7.3919
  93   2.0000      -0.261229        -7.1084
  94   2.0000      -0.254324        -6.9205
  95   2.0000      -0.242094        -6.5877
  96   2.0000      -0.217497        -5.9184
  97   2.0000      -0.205553        -5.5934
  98   2.0000      -0.204492        -5.5645
  99   2.0000      -0.198487        -5.4011
 100   2.0000      -0.190196        -5.1755
 101   0.0000      -0.051036        -1.3888
 102   0.0000      -0.027003        -0.7348
 103   0.0000      -0.022425        -0.6102
 104   0.0000       0.001581         0.0430
 105   0.0000       0.008818         0.2400

MULLIKEN ATOMIC CHARGES
-----------------------
   0 C :   -0.310211
   1 C :   -0.006418
   2 O :   -0.367463
   3 P :    0.600947
   4 S :   -0.313279
   5 O :   -0.363017
   6 C :   -0.006590
   7 C :   -0.333235
   8 S :   -0.120711
   9 C :   -0.328583
  10 S :   -0.127360
  11 P :    0.646495
  12 S :   -0.318558
  13 O :   -0.369005
  14 C :    0.010827
  15 C :   -0.360569
  16 O :   -0.377204
  17 C :   -0.041308
  18 C :   -0.281460
  19 H :    0.132868
  20 H :    0.113748
  21 H :    0.117172
  22 H :    0.115683
  23 H :    0.106607
  24 H :    0.114465
  25 H :    0.112301
  26 H :    0.134984
  27 H :    0.113913
  28 H :    0.130420
  29 H :    0.194339
  30 H :    0.185918
  31 H :    0.110420
  32 H :    0.110081
  33 H :    0.157209
  34 H :    0.126503
  35 H :    0.117578
  36 H :    0.118736
  37 H :    0.123503
  38 H :    0.117783
  39 H :    0.105200
  40 H :    0.107273
Sum of atomic charges:    0.0000000

LOEWDIN ATOMIC CHARGES
----------------------
   0 C :   -0.359826
   1 C :   -0.117700
   2 O :   -0.239440
   3 P :    0.568434
   4 S :   -0.308509
   5 O :   -0.243539
   6 C :   -0.114839
   7 C :   -0.371606
   8 S :    0.072805
   9 C :   -0.477313
  10 S :    0.086220
  11 P :    0.578396
  12 S :   -0.310115
  13 O :   -0.239943
  14 C :   -0.106545
  15 C :   -0.379946
  16 O :   -0.239443
  17 C :   -0.129291
  18 C :   -0.358710
  19 H :    0.116239
  20 H :    0.132944
  21 H :    0.125774
  22 H :    0.107895
  23 H :    0.117454
  24 H :    0.109547
  25 H :    0.123299
  26 H :    0.119672
  27 H :    0.131234
  28 H :    0.131247
  29 H :    0.131235
  30 H :    0.133471
  31 H :    0.122354
  32 H :    0.115681
  33 H :    0.126480
  34 H :    0.124254
  35 H :    0.134428
  36 H :    0.101077
  37 H :    0.112752
  38 H :    0.124386
  39 H :    0.128026
  40 H :    0.121466

  Mayer bond orders larger than 0.100000
B(  0-C ,  1-C ) :   1.1634 B(  0-C , 19-H ) :   0.9334 B(  0-C , 20-H ) :   0.9391
B(  0-C , 21-H ) :   0.9468 B(  1-C ,  2-O ) :   0.8983 B(  1-C , 22-H ) :   0.8984
B(  1-C , 23-H ) :   0.9333 B(  2-O ,  3-P ) :   1.1243 B(  3-P ,  4-S ) :   1.6278
B(  3-P ,  5-O ) :   1.1199 B(  3-P ,  8-S ) :   0.9374 B(  4-S ,  8-S ) :   0.1079
B(  5-O ,  6-C ) :   0.9209 B(  6-C ,  7-C ) :   1.1635 B(  6-C , 24-H ) :   0.9232
B(  6-C , 25-H ) :   0.9341 B(  7-C , 26-H ) :   0.9302 B(  7-C , 27-H ) :   0.9338
B(  7-C , 28-H ) :   0.9406 B(  8-S ,  9-C ) :   0.9933 B(  9-C , 10-S ) :   1.0280
B(  9-C , 29-H ) :   0.8725 B(  9-C , 30-H ) :   0.9006 B( 10-S , 11-P ) :   0.9249
B( 10-S , 12-S ) :   0.1034 B( 11-P , 12-S ) :   1.6328 B( 11-P , 13-O ) :   1.1486
B( 11-P , 16-O ) :   1.0873 B( 13-O , 14-C ) :   0.8947 B( 14-C , 15-C ) :   1.1707
B( 14-C , 31-H ) :   0.9340 B( 14-C , 32-H ) :   0.9284 B( 15-C , 33-H ) :   0.9233
B( 15-C , 34-H ) :   0.9382 B( 15-C , 35-H ) :   0.9337 B( 16-O , 17-C ) :   0.8940
B( 17-C , 18-C ) :   1.1582 B( 17-C , 36-H ) :   0.9011 B( 17-C , 37-H ) :   0.9121
B( 18-C , 38-H ) :   0.9412 B( 18-C , 39-H ) :   0.9417 B( 18-C , 40-H ) :   0.9479

Dispersion correction           -0.068095877
FINAL SINGLE POINT ENERGY     -2929.515206133268

DIPOLE MOMENT
-------------

Method             : SCF
Type of density    : Electron Density
Multiplicity       :   1
Irrep              :   0
Energy             : -2929.6326060015321673 Eh
Relativity type    :
Basis              : AO
                                X                 Y                 Z
Electronic contribution:     -0.804148709      -5.111981218     -10.134157694
Nuclear contribution   :      1.636944915       5.500474007      10.747671902
                        -----------------------------------------
Total Dipole Moment    :      0.832796206       0.388492789       0.613514208
                        -----------------------------------------
Magnitude (a.u.)       :      1.104932510
Magnitude (Debye)      :      2.808515243

Rotational constants in cm-1:             0.010402             0.006306             0.005350
Rotational constants in MHz :           311.829973           189.036161           160.386773

                             ****ORCA TERMINATED NORMALLY****
TOTAL RUN TIME: 0 days 0 hours 0 minutes 22 seconds 65 msec
