                         Program Version 6.0.1  -  RELEASE   -
|  1> ! pbe def2-sv(p) def2/J RI DEFGRID1 loosescf d4 GCP(DFT/SV(P)) printgap
|  2> %output
|  3>     printlevel normal
|  4> end
|  5> * xyz 0 1
|  6> C 2.1067153791 -3.1404535344 -2.8681213768
|  7> C 3.0758567089 -3.0439776655 -1.7004264643
|  8> O 2.9024079712 -1.7925127709 -1.0078934624
|  9> C 2.040950385 -1.7383916991 -0.0138602078
| 10> O 1.426781274 -2.6854224477 0.4244596122
| 11> C 1.8799067933 -0.31832182 0.4980151534
| 12> C 1.0761870138 0.4764693071 -0.5334764904
| 13> H 1.6794471452 0.6343118893 -1.4325692472
| 14> C 0.6134116046 1.8274168921 -0.0130380535
| 15> O -0.518534893 2.2349393751 -0.1778783669
| 16> O 1.5714784761 2.4640186649 0.6008851761
| 17> C 1.2795617782 3.7621627769 1.1618683661
| 18> C 1.4001280815 4.8509788558 0.1088556389
| 19> S -0.3940555431 -0.4249943588 -1.1292263646
| 20> P -1.7594080975 -0.0695155589 0.4606422784
| 21> S -1.1180248687 0.4312924451 2.2422007586
| 22> O -2.9222455894 0.8603032083 -0.0617173158
| 23> C -3.5775315004 0.6576529846 -1.3286066813
| 24> O -2.5317439527 -1.4805596233 0.4681111344
| 25> C -1.9373076921 -2.6459703305 1.0456129685
| 26> H 2.2612140049 -4.0805286448 -3.3869579806
| 27> H 1.081250905 -3.0967199258 -2.507509586
| 28> H 2.2671238154 -2.3179554432 -3.5590593803
| 29> H 4.1114310623 -3.0324028875 -2.0404640491
| 30> H 2.9155278439 -3.8606877054 -0.9912226247
| 31> H 2.8553042322 0.1501615306 0.6228931327
| 32> H 1.3547777123 -0.3476025246 1.4544882085
| 33> H 0.2727249141 3.7348126625 1.5883127759
| 34> H 2.0214336094 3.8815882205 1.9510387785
| 35> H 1.2455969956 5.8170924117 0.5775783413
| 36> H 2.3871887541 4.8258095139 -0.3442732899
| 37> H 0.6477491922 4.7109063678 -0.6639630491
| 38> H -4.3030998777 1.4635956396 -1.4002602958
| 39> H -4.0690205807 -0.3136759227 -1.3414685928
| 40> H -2.8488197347 0.7232483816 -2.1365805595
| 41> H -0.9790984266 -2.8701113946 0.5741614603
| 42> H -2.6462915498 -3.4511840813 0.8744582714
| 43> H -1.7810129169 -2.4909010507 2.1138705547
| 44> *
| 45>
| 46>                          ****END OF INPUT****

CARTESIAN COORDINATES (ANGSTROEM)
---------------------------------
  C      2.106715   -3.140454   -2.868121
  C      3.075857   -3.043978   -1.700426
  O      2.902408   -1.792513   -1.007893
  C      2.040950   -1.738392   -0.013860
  O      1.426781   -2.685422    0.424460
  C      1.879907   -0.318322    0.498015
  C      1.076187    0.476469   -0.533476
  H      1.679447    0.634312   -1.432569
  C      0.613412    1.827417   -0.013038
  O     -0.518535    2.234939   -0.177878
  O      1.571478    2.464019    0.600885
  C      1.279562    3.762163    1.161868
  C      1.400128    4.850979    0.108856
  S     -0.394056   -0.424994   -1.129226
  P     -1.759408   -0.069516    0.460642
  S     -1.118025    0.431292    2.242201
  O     -2.922246    0.860303   -0.061717
  C     -3.577532    0.657653   -1.328607
  O     -2.531744   -1.480560    0.468111
  C     -1.937308   -2.645970    1.045613
  H      2.261214   -4.080529   -3.386958
  H      1.081251   -3.096720   -2.507510
  H      2.267124   -2.317955   -3.559059
  H      4.111431   -3.032403   -2.040464
  H      2.915528   -3.860688   -0.991223
  H      2.855304    0.150162    0.622893
  H      1.354778   -0.347603    1.454488
  H      0.272725    3.734813    1.588313
  H      2.021434    3.881588    1.951039
  H      1.245597    5.817092    0.577578
  H      2.387189    4.825810   -0.344273
  H      0.647749    4.710906   -0.663963
  H     -4.303100    1.463596   -1.400260
  H     -4.069021   -0.313676   -1.341469
  H     -2.848820    0.723248   -2.136581
  H     -0.979098   -2.870111    0.574161
  H     -2.646292   -3.451184    0.874458
  H     -1.781013   -2.490901    2.113871

 Total Charge           Charge          ....    0
 Multiplicity           Mult            ....    1
 Number of Electrons    NEL             ....  174
 Basis Dimension        Dim             ....  316

ORBITAL ENERGIES
----------------

  NO   OCC          E(Eh)            E(eV)
   0   2.0000     -88.037576     -2395.6242
   1   2.0000     -87.975150     -2393.9255
   2   2.0000     -76.419206     -2079.4723
   3   2.0000     -18.816500      -512.0230
   4   2.0000     -18.805998      -511.7372
   5   2.0000     -18.782216      -511.0901
   6   2.0000     -18.777404      -510.9591
   7   2.0000     -18.744564      -510.0655
   8   2.0000     -18.740705      -509.9605
   9   2.0000     -10.022001      -272.7125
  10   2.0000     -10.011093      -272.4157
  11   2.0000      -9.953705      -270.8541
  12   2.0000      -9.953070      -270.8368
  13   2.0000      -9.950747      -270.7736
  14   2.0000      -9.941614      -270.5251
  15   2.0000      -9.924631      -270.0630
  16   2.0000      -9.903950      -269.5002
  17   2.0000      -9.891304      -269.1561
  18   2.0000      -9.889768      -269.1143
  19   2.0000      -7.682220      -209.0438
  20   2.0000      -7.620370      -207.3608
  21   2.0000      -6.415632      -174.5782
  22   2.0000      -5.710227      -155.3832
  23   2.0000      -5.706764      -155.2889
  24   2.0000      -5.699015      -155.0781
  25   2.0000      -5.649630      -153.7343
  26   2.0000      -5.641047      -153.5007
  27   2.0000      -5.640046      -153.4734
  28   2.0000      -4.638302      -126.2146
  29   2.0000      -4.637639      -126.1966
  30   2.0000      -4.636071      -126.1539
  31   2.0000      -1.024726       -27.8842
  32   2.0000      -1.013812       -27.5872
  33   2.0000      -0.974754       -26.5244
  34   2.0000      -0.929700       -25.2984
  35   2.0000      -0.926206       -25.2034
  36   2.0000      -0.917280       -24.9604
  37   2.0000      -0.767154       -20.8753
  38   2.0000      -0.713253       -19.4086
  39   2.0000      -0.709216       -19.2987
  40   2.0000      -0.686702       -18.6861
  41   2.0000      -0.655112       -17.8265
  42   2.0000      -0.627698       -17.0805
  43   2.0000      -0.620542       -16.8858
  44   2.0000      -0.613669       -16.6988
  45   2.0000      -0.596052       -16.2194
  46   2.0000      -0.569141       -15.4871
  47   2.0000      -0.511117       -13.9082
  48   2.0000      -0.502862       -13.6836
  49   2.0000      -0.499556       -13.5936
  50   2.0000      -0.482876       -13.1397
  51   2.0000      -0.463144       -12.6028
  52   2.0000      -0.456145       -12.4123
  53   2.0000      -0.445565       -12.1244
  54   2.0000      -0.437042       -11.8925
  55   2.0000      -0.430673       -11.7192
  56   2.0000      -0.426432       -11.6038
  57   2.0000      -0.420657       -11.4467
  58   2.0000      -0.409876       -11.1533
  59   2.0000      -0.400903       -10.9091
  60   2.0000      -0.398114       -10.8332
  61   2.0000      -0.396515       -10.7897
  62   2.0000      -0.390029       -10.6132
  63   2.0000      -0.389249       -10.5920
  64   2.0000      -0.379722       -10.3328
  65   2.0000      -0.365389        -9.9427
  66   2.0000      -0.360903        -9.8207
  67   2.0000      -0.355165        -9.6645
  68   2.0000      -0.349544        -9.5116
  69   2.0000      -0.336767        -9.1639
  70   2.0000      -0.333730        -9.0813
  71   2.0000      -0.330659        -8.9977
  72   2.0000      -0.327262        -8.9052
  73   2.0000      -0.311810        -8.4848
  74   2.0000      -0.303184        -8.2501
  75   2.0000      -0.297668        -8.1000
  76   2.0000      -0.291595        -7.9347
  77   2.0000      -0.285584        -7.7711
  78   2.0000      -0.270100        -7.3498
  79   2.0000      -0.265167        -7.2156
  80   2.0000      -0.262336        -7.1385
  81   2.0000      -0.248295        -6.7565
  82   2.0000      -0.239504        -6.5172
  83   2.0000      -0.220456        -5.9989
  84   2.0000      -0.216448        -5.8899
  85   2.0000      -0.194941        -5.3046
  86   2.0000      -0.189309        -5.1514
  87   0.0000      -0.043978        -1.1967
  88   0.0000      -0.032925        -0.8959
  89   0.0000      -0.018255        -0.4967
  90   0.0000       0.004957         0.1349
  91   0.0000       0.026404         0.7185

MULLIKEN ATOMIC CHARGES
-----------------------
   0 C :   -0.305534
   1 C :   -0.016668
   2 O :   -0.234973
   3 C :    0.118263
   4 O :   -0.188213
   5 C :   -0.035013
   6 C :   -0.333796
   7 H :    0.153435
   8 C :    0.203788
   9 O :   -0.182864
  10 O :   -0.220448
  11 C :   -0.007524
  12 C :   -0.310197
  13 S :   -0.099324
  14 P :    0.622651
  15 S :   -0.322317
  16 O :   -0.353868
  17 C :   -0.103786
  18 O :   -0.394194
  19 C :   -0.123926
  20 H :    0.113612
  21 H :    0.129745
  22 H :    0.111898
  23 H :    0.104181
  24 H :    0.112528
  25 H :    0.110886
  26 H :    0.118005
  27 H :    0.124504
  28 H :    0.106873
  29 H :    0.117808
  30 H :    0.113020
  31 H :    0.130272
  32 H :    0.130043
  33 H :    0.121562
  34 H :    0.120416
  35 H :    0.140058
  36 H :    0.112537
  37 H :    0.116562
Sum of atomic charges:    0.0000000

LOEWDIN ATOMIC CHARGES
----------------------
   0 C :   -0.356923
   1 C :   -0.111927
   2 O :   -0.061723
   3 C :    0.023423
   4 O :   -0.159290
   5 C :   -0.254535
   6 C :   -0.259268
   7 H :    0.149876
   8 C :    0.006840
   9 O :   -0.161081
  10 O :   -0.038233
  11 C :   -0.105386
  12 C :   -0.356950
  13 S :    0.107229
  14 P :    0.589942
  15 S :   -0.308111
  16 O :   -0.231095
  17 C :   -0.208689
  18 O :   -0.266759
  19 C :   -0.225443
  20 H :    0.130932
  21 H :    0.129123
  22 H :    0.123484
  23 H :    0.117975
  24 H :    0.121327
  25 H :    0.141213
  26 H :    0.133905
  27 H :    0.127975
  28 H :    0.120591
  29 H :    0.133445
  30 H :    0.124361
  31 H :    0.131613
  32 H :    0.125966
  33 H :    0.114468
  34 H :    0.110172
  35 H :    0.113091
  36 H :    0.116617
  37 H :    0.111845

  Mayer bond orders larger than 0.100000
B(  0-C ,  1-C ) :   1.1749 B(  0-C , 20-H ) :   0.9432 B(  0-C , 21-H ) :   0.9422
B(  0-C , 22-H ) :   0.9498 B(  1-C ,  2-O ) :   0.9119 B(  1-C , 23-H ) :   0.9370
B(  1-C , 24-H ) :   0.9110 B(  2-O ,  3-C ) :   1.2166 B(  3-C ,  4-O ) :   2.0130
B(  3-C ,  5-C ) :   1.0242 B(  5-C ,  6-C ) :   1.0485 B(  5-C , 25-H ) :   0.8722
B(  5-C , 26-H ) :   0.8741 B(  6-C ,  7-H ) :   0.8584 B(  6-C ,  8-C ) :   0.9056
B(  6-C , 13-S ) :   1.0321 B(  8-C ,  9-O ) :   2.0126 B(  8-C , 10-O ) :   1.2706
B( 10-O , 11-C ) :   0.9020 B( 11-C , 12-C ) :   1.1733 B( 11-C , 27-H ) :   0.9139
B( 11-C , 28-H ) :   0.9370 B( 12-C , 29-H ) :   0.9438 B( 12-C , 30-H ) :   0.9477
B( 12-C , 31-H ) :   0.9447 B( 13-S , 14-P ) :   0.9362 B( 13-S , 15-S ) :   0.1130
B( 14-P , 15-S ) :   1.6002 B( 14-P , 16-O ) :   1.1405 B( 14-P , 18-O ) :   1.0682
B( 16-O , 17-C ) :   0.9221 B( 17-C , 32-H ) :   0.9600 B( 17-C , 33-H ) :   0.9464
B( 17-C , 34-H ) :   0.9391 B( 18-O , 19-C ) :   0.9261 B( 19-C , 35-H ) :   0.9246
B( 19-C , 36-H ) :   0.9564 B( 19-C , 37-H ) :   0.9432

Dispersion correction           -0.053047024
FINAL SINGLE POINT ENERGY     -1979.016821646123

DIPOLE MOMENT
-------------

Method             : SCF
Type of density    : Electron Density
Multiplicity       :   1
Irrep              :   0
Energy             : -1979.1461118456145414 Eh
Relativity type    :
Basis              : AO
                                X                 Y                 Z
Electronic contribution:     -8.544013419       0.096005507       8.463406757
Nuclear contribution   :      9.564277399       0.130843434      -9.866465190
                        -----------------------------------------
Total Dipole Moment    :      1.020263980       0.226848941      -1.403058433
                        -----------------------------------------
Magnitude (a.u.)       :      1.749563374
Magnitude (Debye)      :      4.447036684

Rotational constants in cm-1:             0.010917             0.008430             0.006039
Rotational constants in MHz :           327.274812           252.724296           181.036799

                             ****ORCA TERMINATED NORMALLY****
TOTAL RUN TIME: 0 days 0 hours 0 minutes 45 seconds 524 msec
