                         Program Version 6.0.0  -   RELEASE  -
|  1> ! pbe def2-sv(p) def2/J RI DEFGRID1 loosescf d4 GCP(DFT/SV(P)) printgap
|  2> %output
|  3>     printlevel normal
|  4> end
|  5> * xyz 0 1
|  6> C 4.5899703277 -1.4251540108 -0.8933315364
|  7> C 4.6732114918 0.0367858014 -0.505667607
|  8> O 3.5311151983 0.4767035744 0.2514695157
|  9> P 2.0636786324 0.540938097 -0.3636487808
| 10> S 1.9781777252 1.110899858 -2.2302871358
| 11> O 1.3428426441 1.5203153069 0.6404590114
| 12> C 1.4324057268 1.379992074 2.0801676987
| 13> C 2.464095091 2.331398773 2.6491866021
| 14> S 1.3092426269 -1.4070595416 0.0665247341
| 15> C 0.1968968342 -1.649733683 -1.3524136888
| 16> S -1.5093612112 -1.979004112 -0.8602590338
| 17> P -1.9410190348 -0.0785422358 -0.0063156461
| 18> S -1.4092974879 1.4727339188 -1.0756342577
| 19> O -1.3007976099 -0.0725065539 1.4318157301
| 20> C -1.5790685358 -1.0962677595 2.4268882922
| 21> C -2.6264041483 -0.613124311 3.4073825945
| 22> O -3.4932750896 -0.1989109326 0.2998146606
| 23> C -4.4652921496 -0.1826905081 -0.7663151518
| 24> C -5.8203221774 0.1120124795 -0.1559680016
| 25> H 3.7979078087 -1.5699109174 -1.626340175
| 26> H 5.5339180361 -1.7294633081 -1.3339538791
| 27> H 4.3826010135 -2.0394720674 -0.0208557827
| 28> H 4.7544277547 0.6654243009 -1.3975005072
| 29> H 5.5141140869 0.2280158891 0.162549935
| 30> H 0.428134747 1.6170148377 2.43707562
| 31> H 1.6745315847 0.3402722561 2.3183607854
| 32> H 3.4556855761 2.0733812556 2.2875897476
| 33> H 2.2341901785 3.3496512047 2.3471768316
| 34> H 2.4465653393 2.2646767164 3.7325201106
| 35> H 0.5271666222 -2.5311831833 -1.8960141412
| 36> H 0.2387316393 -0.7572902944 -1.9837483767
| 37> H -1.9031709185 -2.006822057 1.915998158
| 38> H -0.6187481702 -1.2721819791 2.9151148165
| 39> H -2.3011554396 0.3084938624 3.8819536513
| 40> H -3.5656387128 -0.4294044112 2.8927508035
| 41> H -2.7755391517 -1.3740250684 4.167004018
| 42> H -4.1736369083 0.5847784897 -1.4908845634
| 43> H -4.4491974909 -1.1606970258 -1.2543385978
| 44> H -6.0743073815 -0.6520491981 0.5728206323
| 45> H -5.8056339922 1.0806713048 0.3357689928
| 46> H -6.5685618891 0.1216629888 -0.9415750179
| 47> *
| 48>
| 49>                          ****END OF INPUT****

CARTESIAN COORDINATES (ANGSTROEM)
---------------------------------
  C      4.589970   -1.425154   -0.893332
  C      4.673211    0.036786   -0.505668
  O      3.531115    0.476704    0.251470
  P      2.063679    0.540938   -0.363649
  S      1.978178    1.110900   -2.230287
  O      1.342843    1.520315    0.640459
  C      1.432406    1.379992    2.080168
  C      2.464095    2.331399    2.649187
  S      1.309243   -1.407060    0.066525
  C      0.196897   -1.649734   -1.352414
  S     -1.509361   -1.979004   -0.860259
  P     -1.941019   -0.078542   -0.006316
  S     -1.409297    1.472734   -1.075634
  O     -1.300798   -0.072507    1.431816
  C     -1.579069   -1.096268    2.426888
  C     -2.626404   -0.613124    3.407383
  O     -3.493275   -0.198911    0.299815
  C     -4.465292   -0.182691   -0.766315
  C     -5.820322    0.112012   -0.155968
  H      3.797908   -1.569911   -1.626340
  H      5.533918   -1.729463   -1.333954
  H      4.382601   -2.039472   -0.020856
  H      4.754428    0.665424   -1.397501
  H      5.514114    0.228016    0.162550
  H      0.428135    1.617015    2.437076
  H      1.674532    0.340272    2.318361
  H      3.455686    2.073381    2.287590
  H      2.234190    3.349651    2.347177
  H      2.446565    2.264677    3.732520
  H      0.527167   -2.531183   -1.896014
  H      0.238732   -0.757290   -1.983748
  H     -1.903171   -2.006822    1.915998
  H     -0.618748   -1.272182    2.915115
  H     -2.301155    0.308494    3.881954
  H     -3.565639   -0.429404    2.892751
  H     -2.775539   -1.374025    4.167004
  H     -4.173637    0.584778   -1.490885
  H     -4.449197   -1.160697   -1.254339
  H     -6.074307   -0.652049    0.572821
  H     -5.805634    1.080671    0.335769
  H     -6.568562    0.121663   -0.941575

 Total Charge           Charge          ....    0
 Multiplicity           Mult            ....    1
 Number of Electrons    NEL             ....  202
 Basis Dimension        Dim             ....  334

ORBITAL ENERGIES
----------------

  NO   OCC          E(Eh)            E(eV)
   0   2.0000     -88.041115     -2395.7205
   1   2.0000     -88.038291     -2395.6437
   2   2.0000     -87.979836     -2394.0531
   3   2.0000     -87.976362     -2393.9585
   4   2.0000     -76.421783     -2079.5424
   5   2.0000     -76.420696     -2079.5129
   6   2.0000     -18.794465      -511.4234
   7   2.0000     -18.793116      -511.3867
   8   2.0000     -18.789578      -511.2904
   9   2.0000     -18.781404      -511.0680
  10   2.0000      -9.956943      -270.9422
  11   2.0000      -9.954530      -270.8765
  12   2.0000      -9.952205      -270.8133
  13   2.0000      -9.950288      -270.7611
  14   2.0000      -9.948785      -270.7202
  15   2.0000      -9.890496      -269.1341
  16   2.0000      -9.889215      -269.0992
  17   2.0000      -9.881566      -268.8911
  18   2.0000      -9.880886      -268.8726
  19   2.0000      -7.686388      -209.1572
  20   2.0000      -7.683023      -209.0657
  21   2.0000      -7.625046      -207.4881
  22   2.0000      -7.621409      -207.3891
  23   2.0000      -6.419472      -174.6827
  24   2.0000      -6.418097      -174.6453
  25   2.0000      -5.714127      -155.4893
  26   2.0000      -5.710877      -155.4009
  27   2.0000      -5.710728      -155.3968
  28   2.0000      -5.707553      -155.3104
  29   2.0000      -5.703669      -155.2047
  30   2.0000      -5.700015      -155.1053
  31   2.0000      -5.654107      -153.8561
  32   2.0000      -5.650479      -153.7573
  33   2.0000      -5.645574      -153.6239
  34   2.0000      -5.645105      -153.6111
  35   2.0000      -5.641925      -153.5246
  36   2.0000      -5.641532      -153.5139
  37   2.0000      -4.642388      -126.3258
  38   2.0000      -4.641357      -126.2977
  39   2.0000      -4.640914      -126.2857
  40   2.0000      -4.639695      -126.2525
  41   2.0000      -4.639405      -126.2446
  42   2.0000      -4.638520      -126.2206
  43   2.0000      -0.989746       -26.9324
  44   2.0000      -0.982406       -26.7326
  45   2.0000      -0.946871       -25.7657
  46   2.0000      -0.937689       -25.5158
  47   2.0000      -0.759534       -20.6680
  48   2.0000      -0.719227       -19.5712
  49   2.0000      -0.708802       -19.2875
  50   2.0000      -0.694519       -18.8988
  51   2.0000      -0.686292       -18.6750
  52   2.0000      -0.673671       -18.3315
  53   2.0000      -0.645875       -17.5752
  54   2.0000      -0.630703       -17.1623
  55   2.0000      -0.592632       -16.1263
  56   2.0000      -0.586468       -15.9586
  57   2.0000      -0.571877       -15.5616
  58   2.0000      -0.569197       -15.4886
  59   2.0000      -0.562614       -15.3095
  60   2.0000      -0.509576       -13.8663
  61   2.0000      -0.495166       -13.4742
  62   2.0000      -0.483207       -13.1487
  63   2.0000      -0.469371       -12.7722
  64   2.0000      -0.447355       -12.1732
  65   2.0000      -0.446730       -12.1561
  66   2.0000      -0.442222       -12.0335
  67   2.0000      -0.437824       -11.9138
  68   2.0000      -0.429219       -11.6796
  69   2.0000      -0.421882       -11.4800
  70   2.0000      -0.407046       -11.0763
  71   2.0000      -0.392582       -10.6827
  72   2.0000      -0.389387       -10.5958
  73   2.0000      -0.382579       -10.4105
  74   2.0000      -0.381736       -10.3876
  75   2.0000      -0.365206        -9.9378
  76   2.0000      -0.362219        -9.8565
  77   2.0000      -0.358672        -9.7600
  78   2.0000      -0.354766        -9.6537
  79   2.0000      -0.351185        -9.5562
  80   2.0000      -0.349224        -9.5029
  81   2.0000      -0.347577        -9.4580
  82   2.0000      -0.340560        -9.2671
  83   2.0000      -0.336048        -9.1443
  84   2.0000      -0.334381        -9.0990
  85   2.0000      -0.318023        -8.6538
  86   2.0000      -0.310788        -8.4570
  87   2.0000      -0.300605        -8.1799
  88   2.0000      -0.295311        -8.0358
  89   2.0000      -0.292375        -7.9559
  90   2.0000      -0.287919        -7.8347
  91   2.0000      -0.276240        -7.5169
  92   2.0000      -0.263658        -7.1745
  93   2.0000      -0.260919        -7.1000
  94   2.0000      -0.254929        -6.9370
  95   2.0000      -0.234501        -6.3811
  96   2.0000      -0.216911        -5.9025
  97   2.0000      -0.211884        -5.7657
  98   2.0000      -0.198874        -5.4116
  99   2.0000      -0.187472        -5.1014
 100   2.0000      -0.181437        -4.9372
 101   0.0000      -0.038313        -1.0425
 102   0.0000      -0.029781        -0.8104
 103   0.0000      -0.006696        -0.1822
 104   0.0000       0.011836         0.3221
 105   0.0000       0.020537         0.5588

MULLIKEN ATOMIC CHARGES
-----------------------
   0 C :   -0.310591
   1 C :    0.001961
   2 O :   -0.387258
   3 P :    0.604928
   4 S :   -0.288405
   5 O :   -0.341576
   6 C :   -0.022548
   7 C :   -0.279507
   8 S :   -0.121885
   9 C :   -0.348753
  10 S :   -0.113431
  11 P :    0.578423
  12 S :   -0.274313
  13 O :   -0.350924
  14 C :   -0.011383
  15 C :   -0.288570
  16 O :   -0.384365
  17 C :   -0.012114
  18 C :   -0.283753
  19 H :    0.121176
  20 H :    0.111197
  21 H :    0.115413
  22 H :    0.111796
  23 H :    0.101658
  24 H :    0.118440
  25 H :    0.096574
  26 H :    0.117918
  27 H :    0.121737
  28 H :    0.103415
  29 H :    0.180067
  30 H :    0.208506
  31 H :    0.103252
  32 H :    0.107029
  33 H :    0.116937
  34 H :    0.123691
  35 H :    0.109638
  36 H :    0.107972
  37 H :    0.105035
  38 H :    0.115041
  39 H :    0.123223
  40 H :    0.114348
Sum of atomic charges:    0.0000000

LOEWDIN ATOMIC CHARGES
----------------------
   0 C :   -0.371119
   1 C :   -0.116958
   2 O :   -0.251106
   3 P :    0.574285
   4 S :   -0.291113
   5 O :   -0.226013
   6 C :   -0.114516
   7 C :   -0.358516
   8 S :    0.060442
   9 C :   -0.479921
  10 S :    0.058171
  11 P :    0.554696
  12 S :   -0.285386
  13 O :   -0.229169
  14 C :   -0.117011
  15 C :   -0.358887
  16 O :   -0.251434
  17 C :   -0.120438
  18 C :   -0.350844
  19 H :    0.119699
  20 H :    0.129810
  21 H :    0.121919
  22 H :    0.112335
  23 H :    0.116693
  24 H :    0.119874
  25 H :    0.100477
  26 H :    0.124904
  27 H :    0.130085
  28 H :    0.126700
  29 H :    0.135716
  30 H :    0.126112
  31 H :    0.104435
  32 H :    0.115459
  33 H :    0.126485
  34 H :    0.126996
  35 H :    0.129615
  36 H :    0.111030
  37 H :    0.109304
  38 H :    0.125102
  39 H :    0.129974
  40 H :    0.132113

  Mayer bond orders larger than 0.100000
B(  0-C ,  1-C ) :   1.1679 B(  0-C , 19-H ) :   0.9363 B(  0-C , 20-H ) :   0.9370
B(  0-C , 21-H ) :   0.9425 B(  1-C ,  2-O ) :   0.9106 B(  1-C , 22-H ) :   0.9174
B(  1-C , 23-H ) :   0.9342 B(  2-O ,  3-P ) :   1.0672 B(  3-P ,  4-S ) :   1.6337
B(  3-P ,  5-O ) :   1.1450 B(  3-P ,  8-S ) :   0.9422 B(  4-S ,  8-S ) :   0.1145
B(  5-O ,  6-C ) :   0.8960 B(  6-C ,  7-C ) :   1.1586 B(  6-C , 24-H ) :   0.9268
B(  6-C , 25-H ) :   0.9150 B(  7-C , 26-H ) :   0.9421 B(  7-C , 27-H ) :   0.9465
B(  7-C , 28-H ) :   0.9404 B(  8-S ,  9-C ) :   0.9973 B(  9-C , 10-S ) :   0.9998
B(  9-C , 29-H ) :   0.9114 B(  9-C , 30-H ) :   0.8450 B( 10-S , 11-P ) :   0.9432
B( 10-S , 12-S ) :   0.1089 B( 11-P , 12-S ) :   1.6943 B( 11-P , 13-O ) :   1.1257
B( 11-P , 16-O ) :   1.0726 B( 13-O , 14-C ) :   0.8818 B( 14-C , 15-C ) :   1.1654
B( 14-C , 31-H ) :   0.9096 B( 14-C , 32-H ) :   0.9310 B( 15-C , 33-H ) :   0.9483
B( 15-C , 34-H ) :   0.9405 B( 15-C , 35-H ) :   0.9399 B( 16-O , 17-C ) :   0.9039
B( 17-C , 18-C ) :   1.1599 B( 17-C , 36-H ) :   0.9080 B( 17-C , 37-H ) :   0.9291
B( 18-C , 38-H ) :   0.9509 B( 18-C , 39-H ) :   0.9507 B( 18-C , 40-H ) :   0.9417

Dispersion correction           -0.066675993
FINAL SINGLE POINT ENERGY     -2929.515787779140

DIPOLE MOMENT
-------------

Method             : SCF
Type of density    : Electron Density
Multiplicity       :   1
Irrep              :   0
Energy             : -2929.6353635283835501 Eh
Relativity type    :
Basis              : AO
                                X                 Y                 Z
Electronic contribution:      2.916500716       1.811426191     -15.910517990
Nuclear contribution   :     -3.165909958      -3.074236910      17.395332106
                        -----------------------------------------
Total Dipole Moment    :     -0.249409242      -1.262810718       1.484814116
                        -----------------------------------------
Magnitude (a.u.)       :      1.965087489
Magnitude (Debye)      :      4.994855450

Rotational constants in cm-1:             0.013035             0.005145             0.004789
Rotational constants in MHz :           390.787060           154.237193           143.580756

                             ****ORCA TERMINATED NORMALLY****
TOTAL RUN TIME: 0 days 0 hours 0 minutes 21 seconds 422 msec
