                         Program Version 6.0.0  -   RELEASE  -
|  1> ! pbe def2-sv(p) def2/J RI DEFGRID1 loosescf d4 GCP(DFT/SV(P)) printgap
|  2> %output
|  3>     printlevel normal
|  4> end
|  5> * xyz 0 1
|  6> C 4.7117025232 -2.2028296849 -0.0293205025
|  7> C 4.4793027467 -0.7539656799 0.3484378941
|  8> O 3.8058755703 -0.0639333735 -0.7394324884
|  9> P 2.3284721538 0.4646639392 -0.6444340581
| 10> S 1.7445675676 1.2525774544 -2.3333886153
| 11> O 2.4371952922 1.4412837638 0.6098461955
| 12> C 1.3535706099 2.276962314 1.050867846
| 13> C 1.9105532385 3.2526827067 2.0665534201
| 14> S 1.1871852342 -1.1744413286 0.0989518002
| 15> C 0.0385946157 -1.4325324292 -1.294561309
| 16> S -1.5961934914 -1.9133650548 -0.7189133296
| 17> P -2.112405826 -0.0716555103 0.2298619221
| 18> S -1.6199046991 1.5650981858 -0.7274883955
| 19> O -1.4153610177 -0.0695997206 1.6442117889
| 20> C -1.5914754853 -1.1250508415 2.6241794484
| 21> C -2.5764521229 -0.6941509513 3.6910034537
| 22> O -3.6363959051 -0.2985887274 0.6095545831
| 23> C -4.6576829248 -0.7618517996 -0.2940915502
| 24> C -4.7458339919 0.0701624414 -1.5558798076
| 25> H 5.245671667 -2.2578676942 -0.9737542987
| 26> H 5.3024837309 -2.6804851528 0.7457336311
| 27> H 3.7641728623 -2.7264708413 -0.1281784022
| 28> H 5.4205821024 -0.2190293098 0.4816692739
| 29> H 3.8769142683 -0.6690839129 1.2554041454
| 30> H 0.9282702638 2.7925700899 0.1833344827
| 31> H 0.5758271415 1.6424104593 1.4879579873
| 32> H 2.6840860853 3.8623705629 1.6081862317
| 33> H 1.1085499945 3.8936358869 2.417435604
| 34> H 2.3366903404 2.7116378065 2.9063372133
| 35> H 0.4006000818 -2.2519148588 -1.9105153857
| 36> H -0.0212212207 -0.5020112083 -1.8677623765
| 37> H -1.9274847362 -2.0318918427 2.1142805742
| 38> H -0.5940234436 -1.2878264964 3.0370492813
| 39> H -2.2368926545 0.2225409325 4.1650109355
| 40> H -3.5538238515 -0.5173043228 3.2499477207
| 41> H -2.6550895674 -1.4773278504 4.438376355
| 42> H -4.4499908033 -1.8080693636 -0.5345895885
| 43> H -5.5738681216 -0.6893152585 0.2945780016
| 44> H -5.5781035778 -0.2757822261 -2.1603185061
| 45> H -4.8899504251 1.1198421861 -1.3102551725
| 46> H -3.8265385922 -0.0221518463 -2.1331364669
| 47> *
| 48>
| 49>                          ****END OF INPUT****

CARTESIAN COORDINATES (ANGSTROEM)
---------------------------------
  C      4.711703   -2.202830   -0.029321
  C      4.479303   -0.753966    0.348438
  O      3.805876   -0.063933   -0.739432
  P      2.328472    0.464664   -0.644434
  S      1.744568    1.252577   -2.333389
  O      2.437195    1.441284    0.609846
  C      1.353571    2.276962    1.050868
  C      1.910553    3.252683    2.066553
  S      1.187185   -1.174441    0.098952
  C      0.038595   -1.432532   -1.294561
  S     -1.596193   -1.913365   -0.718913
  P     -2.112406   -0.071656    0.229862
  S     -1.619905    1.565098   -0.727488
  O     -1.415361   -0.069600    1.644212
  C     -1.591475   -1.125051    2.624179
  C     -2.576452   -0.694151    3.691003
  O     -3.636396   -0.298589    0.609555
  C     -4.657683   -0.761852   -0.294092
  C     -4.745834    0.070162   -1.555880
  H      5.245672   -2.257868   -0.973754
  H      5.302484   -2.680485    0.745734
  H      3.764173   -2.726471   -0.128178
  H      5.420582   -0.219029    0.481669
  H      3.876914   -0.669084    1.255404
  H      0.928270    2.792570    0.183334
  H      0.575827    1.642410    1.487958
  H      2.684086    3.862371    1.608186
  H      1.108550    3.893636    2.417436
  H      2.336690    2.711638    2.906337
  H      0.400600   -2.251915   -1.910515
  H     -0.021221   -0.502011   -1.867762
  H     -1.927485   -2.031892    2.114281
  H     -0.594023   -1.287826    3.037049
  H     -2.236893    0.222541    4.165011
  H     -3.553824   -0.517304    3.249948
  H     -2.655090   -1.477328    4.438376
  H     -4.449991   -1.808069   -0.534590
  H     -5.573868   -0.689315    0.294578
  H     -5.578104   -0.275782   -2.160319
  H     -4.889950    1.119842   -1.310255
  H     -3.826539   -0.022152   -2.133136

 Total Charge           Charge          ....    0
 Multiplicity           Mult            ....    1
 Number of Electrons    NEL             ....  202
 Basis Dimension        Dim             ....  334

ORBITAL ENERGIES
----------------

  NO   OCC          E(Eh)            E(eV)
   0   2.0000     -88.049858     -2395.9584
   1   2.0000     -88.039182     -2395.6679
   2   2.0000     -87.981296     -2394.0928
   3   2.0000     -87.978019     -2394.0036
   4   2.0000     -76.428305     -2079.7199
   5   2.0000     -76.418889     -2079.4637
   6   2.0000     -18.799531      -511.5612
   7   2.0000     -18.793493      -511.3970
   8   2.0000     -18.785744      -511.1861
   9   2.0000     -18.783241      -511.1180
  10   2.0000      -9.963720      -271.1266
  11   2.0000      -9.957278      -270.9513
  12   2.0000      -9.955678      -270.9078
  13   2.0000      -9.953964      -270.8611
  14   2.0000      -9.935578      -270.3608
  15   2.0000      -9.889611      -269.1100
  16   2.0000      -9.885684      -269.0031
  17   2.0000      -9.885358      -268.9943
  18   2.0000      -9.877981      -268.7935
  19   2.0000      -7.694705      -209.3836
  20   2.0000      -7.683880      -209.0890
  21   2.0000      -7.626255      -207.5209
  22   2.0000      -7.623328      -207.4413
  23   2.0000      -6.425395      -174.8439
  24   2.0000      -6.416565      -174.6036
  25   2.0000      -5.722450      -155.7158
  26   2.0000      -5.718984      -155.6215
  27   2.0000      -5.712117      -155.4346
  28   2.0000      -5.711729      -155.4241
  29   2.0000      -5.708413      -155.3338
  30   2.0000      -5.700903      -155.1295
  31   2.0000      -5.655400      -153.8913
  32   2.0000      -5.652374      -153.8089
  33   2.0000      -5.646673      -153.6538
  34   2.0000      -5.646380      -153.6458
  35   2.0000      -5.643866      -153.5774
  36   2.0000      -5.643375      -153.5641
  37   2.0000      -4.648272      -126.4859
  38   2.0000      -4.647499      -126.4649
  39   2.0000      -4.645295      -126.4049
  40   2.0000      -4.639215      -126.2395
  41   2.0000      -4.638340      -126.2157
  42   2.0000      -4.636936      -126.1774
  43   2.0000      -0.992874       -27.0175
  44   2.0000      -0.981184       -26.6994
  45   2.0000      -0.949212       -25.8294
  46   2.0000      -0.936312       -25.4783
  47   2.0000      -0.763103       -20.7651
  48   2.0000      -0.721212       -19.6252
  49   2.0000      -0.712036       -19.3755
  50   2.0000      -0.694819       -18.9070
  51   2.0000      -0.684863       -18.6361
  52   2.0000      -0.675054       -18.3691
  53   2.0000      -0.649455       -17.6726
  54   2.0000      -0.631956       -17.1964
  55   2.0000      -0.592313       -16.1177
  56   2.0000      -0.581826       -15.8323
  57   2.0000      -0.577680       -15.7195
  58   2.0000      -0.569447       -15.4954
  59   2.0000      -0.562193       -15.2980
  60   2.0000      -0.509381       -13.8610
  61   2.0000      -0.498374       -13.5615
  62   2.0000      -0.478475       -13.0200
  63   2.0000      -0.473230       -12.8772
  64   2.0000      -0.455971       -12.4076
  65   2.0000      -0.449088       -12.2203
  66   2.0000      -0.441622       -12.0172
  67   2.0000      -0.435292       -11.8449
  68   2.0000      -0.426733       -11.6120
  69   2.0000      -0.420688       -11.4475
  70   2.0000      -0.414228       -11.2717
  71   2.0000      -0.399946       -10.8831
  72   2.0000      -0.390361       -10.6223
  73   2.0000      -0.387305       -10.5391
  74   2.0000      -0.376611       -10.2481
  75   2.0000      -0.362515        -9.8645
  76   2.0000      -0.359607        -9.7854
  77   2.0000      -0.359359        -9.7786
  78   2.0000      -0.351878        -9.5751
  79   2.0000      -0.349702        -9.5159
  80   2.0000      -0.348057        -9.4711
  81   2.0000      -0.344684        -9.3793
  82   2.0000      -0.342907        -9.3310
  83   2.0000      -0.340375        -9.2621
  84   2.0000      -0.331391        -9.0176
  85   2.0000      -0.322973        -8.7885
  86   2.0000      -0.307111        -8.3569
  87   2.0000      -0.300874        -8.1872
  88   2.0000      -0.294537        -8.0148
  89   2.0000      -0.292670        -7.9640
  90   2.0000      -0.288106        -7.8398
  91   2.0000      -0.282602        -7.6900
  92   2.0000      -0.270345        -7.3565
  93   2.0000      -0.264332        -7.1928
  94   2.0000      -0.252020        -6.8578
  95   2.0000      -0.236616        -6.4387
  96   2.0000      -0.217756        -5.9254
  97   2.0000      -0.209253        -5.6941
  98   2.0000      -0.199288        -5.4229
  99   2.0000      -0.193374        -5.2620
 100   2.0000      -0.185137        -5.0378
 101   0.0000      -0.043174        -1.1748
 102   0.0000      -0.031825        -0.8660
 103   0.0000      -0.014795        -0.4026
 104   0.0000       0.009437         0.2568
 105   0.0000       0.018260         0.4969

MULLIKEN ATOMIC CHARGES
-----------------------
   0 C :   -0.283063
   1 C :   -0.014097
   2 O :   -0.357210
   3 P :    0.602980
   4 S :   -0.291480
   5 O :   -0.383805
   6 C :   -0.036492
   7 C :   -0.274410
   8 S :   -0.141234
   9 C :   -0.339156
  10 S :   -0.120421
  11 P :    0.586058
  12 S :   -0.289758
  13 O :   -0.344338
  14 C :   -0.008177
  15 C :   -0.284918
  16 O :   -0.377563
  17 C :   -0.014092
  18 C :   -0.310533
  19 H :    0.121011
  20 H :    0.107377
  21 H :    0.116553
  22 H :    0.113030
  23 H :    0.104285
  24 H :    0.119732
  25 H :    0.120535
  26 H :    0.114760
  27 H :    0.112248
  28 H :    0.104451
  29 H :    0.181608
  30 H :    0.215527
  31 H :    0.097372
  32 H :    0.107747
  33 H :    0.118602
  34 H :    0.120006
  35 H :    0.109433
  36 H :    0.114698
  37 H :    0.110399
  38 H :    0.112711
  39 H :    0.128784
  40 H :    0.130840
Sum of atomic charges:    0.0000000

LOEWDIN ATOMIC CHARGES
----------------------
   0 C :   -0.359011
   1 C :   -0.112035
   2 O :   -0.239626
   3 P :    0.563279
   4 S :   -0.287290
   5 O :   -0.250435
   6 C :   -0.127273
   7 C :   -0.351056
   8 S :    0.048889
   9 C :   -0.477709
  10 S :    0.066280
  11 P :    0.562578
  12 S :   -0.284355
  13 O :   -0.230754
  14 C :   -0.117818
  15 C :   -0.357797
  16 O :   -0.244911
  17 C :   -0.115009
  18 C :   -0.369196
  19 H :    0.129769
  20 H :    0.128400
  21 H :    0.120445
  22 H :    0.122490
  23 H :    0.106161
  24 H :    0.110141
  25 H :    0.108193
  26 H :    0.125882
  27 H :    0.131007
  28 H :    0.121179
  29 H :    0.134915
  30 H :    0.124945
  31 H :    0.102327
  32 H :    0.117782
  33 H :    0.128149
  34 H :    0.126437
  35 H :    0.129200
  36 H :    0.108403
  37 H :    0.121643
  38 H :    0.130897
  39 H :    0.131608
  40 H :    0.123278

  Mayer bond orders larger than 0.100000
B(  0-C ,  1-C ) :   1.1626 B(  0-C , 19-H ) :   0.9462 B(  0-C , 20-H ) :   0.9402
B(  0-C , 21-H ) :   0.9404 B(  1-C ,  2-O ) :   0.8900 B(  1-C , 22-H ) :   0.9345
B(  1-C , 23-H ) :   0.9183 B(  2-O ,  3-P ) :   1.1400 B(  3-P ,  4-S ) :   1.6728
B(  3-P ,  5-O ) :   1.0967 B(  3-P ,  8-S ) :   0.9285 B(  4-S ,  8-S ) :   0.1180
B(  5-O ,  6-C ) :   0.8966 B(  6-C ,  7-C ) :   1.1528 B(  6-C , 24-H ) :   0.9143
B(  6-C , 25-H ) :   0.9176 B(  7-C , 26-H ) :   0.9506 B(  7-C , 27-H ) :   0.9432
B(  7-C , 28-H ) :   0.9510 B(  8-S ,  9-C ) :   0.9940 B(  9-C , 10-S ) :   1.0087
B(  9-C , 29-H ) :   0.9101 B(  9-C , 30-H ) :   0.8394 B( 10-S , 11-P ) :   0.9311
B( 10-S , 12-S ) :   0.1086 B( 11-P , 12-S ) :   1.6725 B( 11-P , 13-O ) :   1.1183
B( 11-P , 16-O ) :   1.0802 B( 13-O , 14-C ) :   0.8878 B( 14-C , 15-C ) :   1.1649
B( 14-C , 31-H ) :   0.9119 B( 14-C , 32-H ) :   0.9330 B( 15-C , 33-H ) :   0.9477
B( 15-C , 34-H ) :   0.9434 B( 15-C , 35-H ) :   0.9406 B( 16-O , 17-C ) :   0.9107
B( 17-C , 18-C ) :   1.1670 B( 17-C , 36-H ) :   0.9265 B( 17-C , 37-H ) :   0.9330
B( 18-C , 38-H ) :   0.9344 B( 18-C , 39-H ) :   0.9427 B( 18-C , 40-H ) :   0.9315

Dispersion correction           -0.064605649
FINAL SINGLE POINT ENERGY     -2929.517046990015

DIPOLE MOMENT
-------------

Method             : SCF
Type of density    : Electron Density
Multiplicity       :   1
Irrep              :   0
Energy             : -2929.6370292898313892 Eh
Relativity type    :
Basis              : AO
                                X                 Y                 Z
Electronic contribution:      2.952755326       1.852961629     -15.179826456
Nuclear contribution   :     -3.603835088      -3.303824370      16.801465823
                        -----------------------------------------
Total Dipole Moment    :     -0.651079762      -1.450862741       1.621639367
                        -----------------------------------------
Magnitude (a.u.)       :      2.271259955
Magnitude (Debye)      :      5.773084012

Rotational constants in cm-1:             0.011653             0.004927             0.004884
Rotational constants in MHz :           349.346474           147.693272           146.422319

                             ****ORCA TERMINATED NORMALLY****
TOTAL RUN TIME: 0 days 0 hours 0 minutes 20 seconds 930 msec
