                         Program Version 6.0.0  -   RELEASE  -
|  1> ! pbe def2-sv(p) def2/J RI DEFGRID1 loosescf d4 GCP(DFT/SV(P)) printgap
|  2> %output
|  3>     printlevel normal
|  4> end
|  5> * xyz 0 1
|  6> C 2.8994613807 -2.9807731171 -1.7417043455
|  7> C 3.7339510129 -2.3701548732 -0.6349655173
|  8> O 3.665938282 -0.9220691286 -0.6403974041
|  9> P 2.5021340495 -0.0399264517 -0.0594943532
| 10> S 3.0864559972 1.8243160305 0.0744903087
| 11> O 2.1666396407 -0.836786994 1.2783481275
| 12> C 1.0986594569 -0.5717505993 2.2032806234
| 13> C 1.3110446283 0.7076209665 2.9864196672
| 14> S 0.809868017 -0.3431740357 -1.3460053101
| 15> C 0.1425959526 1.3310289204 -1.32455918
| 16> S -0.8282717037 1.6841405952 0.1609473934
| 17> P -2.4609462031 0.4021483651 -0.3027559314
| 18> S -2.980676158 0.3466003981 -2.1858019253
| 19> O -3.6328279203 0.9152258114 0.6226887539
| 20> C -3.6490290714 0.814681333 2.0705408829
| 21> C -3.064218364 2.0530584248 2.7184257507
| 22> O -2.045595226 -1.0018548463 0.3407226609
| 23> C -1.9620321714 -2.2448755982 -0.3930063704
| 24> C -0.9526268103 -3.1400860072 0.2958099777
| 25> H 3.1869777932 -2.5634752813 -2.7030597525
| 26> H 3.0611160411 -4.054074303 -1.7551350422
| 27> H 1.8413197625 -2.7831802739 -1.5824344983
| 28> H 4.7962636591 -2.5707523362 -0.7829298557
| 29> H 3.4222895557 -2.7305861419 0.3462577574
| 30> H 0.1513328261 -0.5396729238 1.6579282049
| 31> H 1.1121040527 -1.4430874657 2.8614662562
| 32> H 0.5484395462 0.7867536366 3.7545398555
| 33> H 2.2926463945 0.7035125142 3.4532676833
| 34> H 1.242912569 1.5738847683 2.3311745782
| 35> H -0.4966736341 1.429030727 -2.2019210343
| 36> H 0.9647765225 2.047985514 -1.3393149541
| 37> H -4.7084181153 0.7076203746 2.3096120205
| 38> H -3.1076532132 -0.0850897807 2.3677394935
| 39> H -2.0052881839 2.1472980528 2.4871525811
| 40> H -3.577560351 2.9404937119 2.3585762868
| 41> H -3.1884403214 1.9804044178 3.7943527217
| 42> H -2.9576577041 -2.6946584193 -0.3906396493
| 43> H -1.6738053443 -2.0304446433 -1.4261234751
| 44> H -0.9308949539 -4.0978354796 -0.2134836372
| 45> H 0.0375416172 -2.6948407374 0.255693304
| 46> H -1.2338842148 -3.2911845531 1.333787456
| 47> *
| 48>
| 49>                          ****END OF INPUT****

CARTESIAN COORDINATES (ANGSTROEM)
---------------------------------
  C      2.899461   -2.980773   -1.741704
  C      3.733951   -2.370155   -0.634966
  O      3.665938   -0.922069   -0.640397
  P      2.502134   -0.039926   -0.059494
  S      3.086456    1.824316    0.074490
  O      2.166640   -0.836787    1.278348
  C      1.098659   -0.571751    2.203281
  C      1.311045    0.707621    2.986420
  S      0.809868   -0.343174   -1.346005
  C      0.142596    1.331029   -1.324559
  S     -0.828272    1.684141    0.160947
  P     -2.460946    0.402148   -0.302756
  S     -2.980676    0.346600   -2.185802
  O     -3.632828    0.915226    0.622689
  C     -3.649029    0.814681    2.070541
  C     -3.064218    2.053058    2.718426
  O     -2.045595   -1.001855    0.340723
  C     -1.962032   -2.244876   -0.393006
  C     -0.952627   -3.140086    0.295810
  H      3.186978   -2.563475   -2.703060
  H      3.061116   -4.054074   -1.755135
  H      1.841320   -2.783180   -1.582434
  H      4.796264   -2.570752   -0.782930
  H      3.422290   -2.730586    0.346258
  H      0.151333   -0.539673    1.657928
  H      1.112104   -1.443087    2.861466
  H      0.548440    0.786754    3.754540
  H      2.292646    0.703513    3.453268
  H      1.242913    1.573885    2.331175
  H     -0.496674    1.429031   -2.201921
  H      0.964777    2.047986   -1.339315
  H     -4.708418    0.707620    2.309612
  H     -3.107653   -0.085090    2.367739
  H     -2.005288    2.147298    2.487153
  H     -3.577560    2.940494    2.358576
  H     -3.188440    1.980404    3.794353
  H     -2.957658   -2.694658   -0.390640
  H     -1.673805   -2.030445   -1.426123
  H     -0.930895   -4.097835   -0.213484
  H      0.037542   -2.694841    0.255693
  H     -1.233884   -3.291185    1.333787

 Total Charge           Charge          ....    0
 Multiplicity           Mult            ....    1
 Number of Electrons    NEL             ....  202
 Basis Dimension        Dim             ....  334

ORBITAL ENERGIES
----------------

  NO   OCC          E(Eh)            E(eV)
   0   2.0000     -88.045155     -2395.8305
   1   2.0000     -88.044751     -2395.8195
   2   2.0000     -87.989479     -2394.3154
   3   2.0000     -87.987331     -2394.2570
   4   2.0000     -76.430927     -2079.7912
   5   2.0000     -76.430752     -2079.7865
   6   2.0000     -18.797885      -511.5165
   7   2.0000     -18.796901      -511.4897
   8   2.0000     -18.796723      -511.4848
   9   2.0000     -18.795583      -511.4538
  10   2.0000      -9.964375      -271.1444
  11   2.0000      -9.961838      -271.0754
  12   2.0000      -9.956847      -270.9396
  13   2.0000      -9.955056      -270.8909
  14   2.0000      -9.951491      -270.7938
  15   2.0000      -9.895713      -269.2760
  16   2.0000      -9.895219      -269.2626
  17   2.0000      -9.893227      -269.2084
  18   2.0000      -9.880949      -268.8743
  19   2.0000      -7.689441      -209.2403
  20   2.0000      -7.689310      -209.2368
  21   2.0000      -7.634726      -207.7515
  22   2.0000      -7.632503      -207.6910
  23   2.0000      -6.428332      -174.9238
  24   2.0000      -6.427805      -174.9095
  25   2.0000      -5.717332      -155.5765
  26   2.0000      -5.717072      -155.5694
  27   2.0000      -5.713940      -155.4842
  28   2.0000      -5.713918      -155.4836
  29   2.0000      -5.706582      -155.2840
  30   2.0000      -5.706359      -155.2779
  31   2.0000      -5.663791      -154.1196
  32   2.0000      -5.661604      -154.0601
  33   2.0000      -5.655256      -153.8873
  34   2.0000      -5.654783      -153.8745
  35   2.0000      -5.652901      -153.8233
  36   2.0000      -5.652654      -153.8165
  37   2.0000      -4.651282      -126.5678
  38   2.0000      -4.650708      -126.5522
  39   2.0000      -4.649720      -126.5253
  40   2.0000      -4.649592      -126.5218
  41   2.0000      -4.648831      -126.5011
  42   2.0000      -4.648019      -126.4790
  43   2.0000      -0.992029       -26.9945
  44   2.0000      -0.990286       -26.9470
  45   2.0000      -0.947713       -25.7886
  46   2.0000      -0.946856       -25.7653
  47   2.0000      -0.765865       -20.8403
  48   2.0000      -0.727832       -19.8053
  49   2.0000      -0.718503       -19.5514
  50   2.0000      -0.699266       -19.0280
  51   2.0000      -0.693578       -18.8732
  52   2.0000      -0.678103       -18.4521
  53   2.0000      -0.653598       -17.7853
  54   2.0000      -0.640221       -17.4213
  55   2.0000      -0.599772       -16.3206
  56   2.0000      -0.592112       -16.1122
  57   2.0000      -0.584660       -15.9094
  58   2.0000      -0.581550       -15.8248
  59   2.0000      -0.561228       -15.2718
  60   2.0000      -0.513640       -13.9768
  61   2.0000      -0.502117       -13.6633
  62   2.0000      -0.485618       -13.2143
  63   2.0000      -0.477058       -12.9814
  64   2.0000      -0.460579       -12.5330
  65   2.0000      -0.451675       -12.2907
  66   2.0000      -0.450635       -12.2624
  67   2.0000      -0.438281       -11.9262
  68   2.0000      -0.430645       -11.7185
  69   2.0000      -0.426650       -11.6097
  70   2.0000      -0.410903       -11.1813
  71   2.0000      -0.406441       -11.0598
  72   2.0000      -0.398961       -10.8563
  73   2.0000      -0.387490       -10.5441
  74   2.0000      -0.382786       -10.4161
  75   2.0000      -0.377787       -10.2801
  76   2.0000      -0.368329       -10.0227
  77   2.0000      -0.363883        -9.9018
  78   2.0000      -0.360893        -9.8204
  79   2.0000      -0.359551        -9.7839
  80   2.0000      -0.357550        -9.7294
  81   2.0000      -0.352819        -9.6007
  82   2.0000      -0.345926        -9.4131
  83   2.0000      -0.341373        -9.2892
  84   2.0000      -0.337347        -9.1797
  85   2.0000      -0.326386        -8.8814
  86   2.0000      -0.316694        -8.6177
  87   2.0000      -0.306014        -8.3271
  88   2.0000      -0.301391        -8.2013
  89   2.0000      -0.294528        -8.0145
  90   2.0000      -0.292567        -7.9611
  91   2.0000      -0.280003        -7.6193
  92   2.0000      -0.277159        -7.5419
  93   2.0000      -0.267122        -7.2688
  94   2.0000      -0.263196        -7.1619
  95   2.0000      -0.237614        -6.4658
  96   2.0000      -0.217512        -5.9188
  97   2.0000      -0.214736        -5.8433
  98   2.0000      -0.204657        -5.5690
  99   2.0000      -0.202024        -5.4973
 100   2.0000      -0.201457        -5.4819
 101   0.0000      -0.050113        -1.3636
 102   0.0000      -0.029339        -0.7984
 103   0.0000      -0.008513        -0.2316
 104   0.0000      -0.004456        -0.1213
 105   0.0000      -0.001355        -0.0369

MULLIKEN ATOMIC CHARGES
-----------------------
   0 C :   -0.329084
   1 C :   -0.008210
   2 O :   -0.357879
   3 P :    0.630307
   4 S :   -0.307778
   5 O :   -0.387303
   6 C :   -0.042774
   7 C :   -0.298612
   8 S :   -0.139750
   9 C :   -0.332879
  10 S :   -0.120360
  11 P :    0.628805
  12 S :   -0.308179
  13 O :   -0.361809
  14 C :   -0.021801
  15 C :   -0.316047
  16 O :   -0.395234
  17 C :    0.000200
  18 C :   -0.315081
  19 H :    0.128983
  20 H :    0.115578
  21 H :    0.139728
  22 H :    0.113731
  23 H :    0.113685
  24 H :    0.131033
  25 H :    0.099012
  26 H :    0.103193
  27 H :    0.116099
  28 H :    0.137856
  29 H :    0.195029
  30 H :    0.195858
  31 H :    0.114230
  32 H :    0.110736
  33 H :    0.141686
  34 H :    0.128492
  35 H :    0.114290
  36 H :    0.105597
  37 H :    0.114825
  38 H :    0.113258
  39 H :    0.139639
  40 H :    0.110928
Sum of atomic charges:   -0.0000000

LOEWDIN ATOMIC CHARGES
----------------------
   0 C :   -0.365752
   1 C :   -0.110480
   2 O :   -0.233292
   3 P :    0.569942
   4 S :   -0.295401
   5 O :   -0.245308
   6 C :   -0.123757
   7 C :   -0.368245
   8 S :    0.074317
   9 C :   -0.488541
  10 S :    0.088133
  11 P :    0.571876
  12 S :   -0.302007
  13 O :   -0.239973
  14 C :   -0.113113
  15 C :   -0.364109
  16 O :   -0.259335
  17 C :   -0.116002
  18 C :   -0.358333
  19 H :    0.133084
  20 H :    0.132929
  21 H :    0.115851
  22 H :    0.124375
  23 H :    0.113587
  24 H :    0.100996
  25 H :    0.115811
  26 H :    0.126083
  27 H :    0.127359
  28 H :    0.117952
  29 H :    0.131472
  30 H :    0.129304
  31 H :    0.123735
  32 H :    0.110929
  33 H :    0.118685
  34 H :    0.133168
  35 H :    0.132272
  36 H :    0.113852
  37 H :    0.105227
  38 H :    0.131118
  39 H :    0.117564
  40 H :    0.124027

  Mayer bond orders larger than 0.100000
B(  0-C ,  1-C ) :   1.1685 B(  0-C , 19-H ) :   0.9440 B(  0-C , 20-H ) :   0.9368
B(  0-C , 21-H ) :   0.9276 B(  1-C ,  2-O ) :   0.9004 B(  1-C , 22-H ) :   0.9334
B(  1-C , 23-H ) :   0.9217 B(  2-O ,  3-P ) :   1.1481 B(  3-P ,  4-S ) :   1.6552
B(  3-P ,  5-O ) :   1.0737 B(  3-P ,  8-S ) :   0.9208 B(  4-S ,  8-S ) :   0.1123
B(  5-O ,  6-C ) :   0.8978 B(  6-C ,  7-C ) :   1.1728 B(  6-C , 24-H ) :   0.8941
B(  6-C , 25-H ) :   0.9342 B(  7-C , 26-H ) :   0.9355 B(  7-C , 27-H ) :   0.9433
B(  7-C , 28-H ) :   0.9267 B(  8-S ,  9-C ) :   1.0094 B(  9-C , 10-S ) :   1.0043
B(  9-C , 29-H ) :   0.8707 B(  9-C , 30-H ) :   0.8612 B( 10-S , 11-P ) :   0.9492
B( 10-S , 12-S ) :   0.1036 B( 11-P , 12-S ) :   1.6508 B( 11-P , 13-O ) :   1.1434
B( 11-P , 16-O ) :   1.0580 B( 13-O , 14-C ) :   0.9005 B( 14-C , 15-C ) :   1.1673
B( 14-C , 31-H ) :   0.9339 B( 14-C , 32-H ) :   0.9183 B( 15-C , 33-H ) :   0.9289
B( 15-C , 34-H ) :   0.9454 B( 15-C , 35-H ) :   0.9376 B( 16-O , 17-C ) :   0.8932
B( 17-C , 18-C ) :   1.1661 B( 17-C , 36-H ) :   0.9352 B( 17-C , 37-H ) :   0.9053
B( 18-C , 38-H ) :   0.9412 B( 18-C , 39-H ) :   0.9258 B( 18-C , 40-H ) :   0.9464

Dispersion correction           -0.066985305
FINAL SINGLE POINT ENERGY     -2929.517271869121

DIPOLE MOMENT
-------------

Method             : SCF
Type of density    : Electron Density
Multiplicity       :   1
Irrep              :   0
Energy             : -2929.6372420128618614 Eh
Relativity type    :
Basis              : AO
                                X                 Y                 Z
Electronic contribution:      0.869436391      14.818369328     -14.867731457
Nuclear contribution   :     -1.184015135     -16.647265047      16.313399017
                        -----------------------------------------
Total Dipole Moment    :     -0.314578744      -1.828895719       1.445667559
                        -----------------------------------------
Magnitude (a.u.)       :      2.352397507
Magnitude (Debye)      :      5.979319278

Rotational constants in cm-1:             0.011333             0.005611             0.005039
Rotational constants in MHz :           339.752536           168.198996           151.067573

                             ****ORCA TERMINATED NORMALLY****
TOTAL RUN TIME: 0 days 0 hours 0 minutes 22 seconds 32 msec
