                         Program Version 6.0.0  -   RELEASE  -
|  1> ! pbe def2-sv(p) def2/J RI DEFGRID1 loosescf d4 GCP(DFT/SV(P)) printgap
|  2> %output
|  3>     printlevel normal
|  4> end
|  5> * xyz 0 1
|  6> C 4.4516614725 -2.3231916862 -0.6670118547
|  7> C 5.0128505393 -0.9273402712 -0.4923880055
|  8> O 4.0760348677 -0.0339583349 0.1387745722
|  9> P 2.7057610814 0.391599457 -0.5396088817
| 10> S 2.7489983507 0.7198684335 -2.4708277073
| 11> O 2.3197450064 1.7016733043 0.2479578269
| 12> C 2.6310463369 1.9971857966 1.6320620452
| 13> C 1.9642240127 1.0401030452 2.5969374898
| 14> S 1.3208690888 -1.1236478922 0.0389434913
| 15> C -0.023718984 -0.5654255861 -1.0226345518
| 16> S -0.8372531401 0.9438509081 -0.38469687
| 17> P -2.7112470271 0.1004387201 0.1289966656
| 18> S -4.0534418103 1.3486966246 0.8200260739
| 19> O -2.3854174653 -1.2021823364 0.9853237899
| 20> C -1.6785840647 -1.2715375594 2.2380239674
| 21> C -1.9613457378 -0.1018183119 3.1564521257
| 22> O -3.0964015692 -0.5814684454 -1.2535274515
| 23> C -4.4669091071 -0.8350804616 -1.6189176468
| 24> C -5.0550787187 -1.9639555344 -0.7991681069
| 25> H 5.2385134355 -2.9820066759 -1.0201027872
| 26> H 4.0624047391 -2.6979066922 0.2761639113
| 27> H 3.647430837 -2.3123078702 -1.4009622627
| 28> H 5.2950880887 -0.5025347484 -1.4603771932
| 29> H 5.8703166394 -0.9183899694 0.1820652128
| 30> H 3.7162927224 1.9798858685 1.7480623615
| 31> H 2.257843898 3.0151896046 1.7545848673
| 32> H 2.372752726 0.0383563096 2.4826132064
| 33> H 2.1421909626 1.3827299644 3.6114382165
| 34> H 0.8927598171 1.0120375549 2.4146469004
| 35> H -0.7536453184 -1.3670766534 -1.0872107925
| 36> H 0.3852794654 -0.3208421251 -2.0039613763
| 37> H -2.0184965371 -2.2113213476 2.6773873469
| 38> H -0.6100937805 -1.3419699205 2.0111318177
| 39> H -1.6518698247 0.8316893678 2.6854399445
| 40> H -3.024769001 -0.0329306332 3.3741843523
| 41> H -1.4123882188 -0.2323412143 4.0836316918
| 42> H -5.0423570199 0.0854605713 -1.477339456
| 43> H -4.415774498 -1.0818484539 -2.6801742189
| 44> H -4.4440455442 -2.8575848685 -0.8933100094
| 45> H -5.092460088 -1.6705868284 0.2491528818
| 46> H -6.0621996993 -2.1743528244 -1.1448374314
| 47> *
| 48>
| 49>                          ****END OF INPUT****

CARTESIAN COORDINATES (ANGSTROEM)
---------------------------------
  C      4.451661   -2.323192   -0.667012
  C      5.012851   -0.927340   -0.492388
  O      4.076035   -0.033958    0.138775
  P      2.705761    0.391599   -0.539609
  S      2.748998    0.719868   -2.470828
  O      2.319745    1.701673    0.247958
  C      2.631046    1.997186    1.632062
  C      1.964224    1.040103    2.596937
  S      1.320869   -1.123648    0.038943
  C     -0.023719   -0.565426   -1.022635
  S     -0.837253    0.943851   -0.384697
  P     -2.711247    0.100439    0.128997
  S     -4.053442    1.348697    0.820026
  O     -2.385417   -1.202182    0.985324
  C     -1.678584   -1.271538    2.238024
  C     -1.961346   -0.101818    3.156452
  O     -3.096402   -0.581468   -1.253527
  C     -4.466909   -0.835080   -1.618918
  C     -5.055079   -1.963956   -0.799168
  H      5.238513   -2.982007   -1.020103
  H      4.062405   -2.697907    0.276164
  H      3.647431   -2.312308   -1.400962
  H      5.295088   -0.502535   -1.460377
  H      5.870317   -0.918390    0.182065
  H      3.716293    1.979886    1.748062
  H      2.257844    3.015190    1.754585
  H      2.372753    0.038356    2.482613
  H      2.142191    1.382730    3.611438
  H      0.892760    1.012038    2.414647
  H     -0.753645   -1.367077   -1.087211
  H      0.385279   -0.320842   -2.003961
  H     -2.018497   -2.211321    2.677387
  H     -0.610094   -1.341970    2.011132
  H     -1.651870    0.831689    2.685440
  H     -3.024769   -0.032931    3.374184
  H     -1.412388   -0.232341    4.083632
  H     -5.042357    0.085461   -1.477339
  H     -4.415774   -1.081848   -2.680174
  H     -4.444046   -2.857585   -0.893310
  H     -5.092460   -1.670587    0.249153
  H     -6.062200   -2.174353   -1.144837

 Total Charge           Charge          ....    0
 Multiplicity           Mult            ....    1
 Number of Electrons    NEL             ....  202
 Basis Dimension        Dim             ....  334

ORBITAL ENERGIES
----------------

  NO   OCC          E(Eh)            E(eV)
   0   2.0000     -88.048297     -2395.9160
   1   2.0000     -88.040541     -2395.7049
   2   2.0000     -87.989137     -2394.3062
   3   2.0000     -87.985160     -2394.1979
   4   2.0000     -76.432765     -2079.8413
   5   2.0000     -76.426120     -2079.6605
   6   2.0000     -18.805362      -511.7199
   7   2.0000     -18.795651      -511.4557
   8   2.0000     -18.792600      -511.3726
   9   2.0000     -18.787434      -511.2321
  10   2.0000      -9.962360      -271.0896
  11   2.0000      -9.960497      -271.0389
  12   2.0000      -9.957413      -270.9550
  13   2.0000      -9.955076      -270.8914
  14   2.0000      -9.949214      -270.7319
  15   2.0000      -9.891627      -269.1648
  16   2.0000      -9.891414      -269.1591
  17   2.0000      -9.885329      -268.9935
  18   2.0000      -9.881978      -268.9023
  19   2.0000      -7.692898      -209.3344
  20   2.0000      -7.685484      -209.1327
  21   2.0000      -7.634339      -207.7409
  22   2.0000      -7.630344      -207.6322
  23   2.0000      -6.430180      -174.9741
  24   2.0000      -6.423397      -174.7895
  25   2.0000      -5.720520      -155.6633
  26   2.0000      -5.717575      -155.5831
  27   2.0000      -5.713689      -155.4774
  28   2.0000      -5.710014      -155.3774
  29   2.0000      -5.709783      -155.3711
  30   2.0000      -5.702376      -155.1695
  31   2.0000      -5.663331      -154.1071
  32   2.0000      -5.659462      -154.0018
  33   2.0000      -5.655081      -153.8826
  34   2.0000      -5.654286      -153.8609
  35   2.0000      -5.650972      -153.7708
  36   2.0000      -5.650306      -153.7526
  37   2.0000      -4.653353      -126.6242
  38   2.0000      -4.651647      -126.5777
  39   2.0000      -4.650363      -126.5428
  40   2.0000      -4.645840      -126.4197
  41   2.0000      -4.645548      -126.4118
  42   2.0000      -4.643697      -126.3614
  43   2.0000      -0.996253       -27.1094
  44   2.0000      -0.985416       -26.8145
  45   2.0000      -0.951887       -25.9022
  46   2.0000      -0.943273       -25.6678
  47   2.0000      -0.764999       -20.8167
  48   2.0000      -0.724817       -19.7233
  49   2.0000      -0.712979       -19.4011
  50   2.0000      -0.697927       -18.9916
  51   2.0000      -0.688093       -18.7240
  52   2.0000      -0.677172       -18.4268
  53   2.0000      -0.657510       -17.8918
  54   2.0000      -0.638999       -17.3880
  55   2.0000      -0.603212       -16.4142
  56   2.0000      -0.595776       -16.2119
  57   2.0000      -0.586212       -15.9516
  58   2.0000      -0.573564       -15.6075
  59   2.0000      -0.561834       -15.2883
  60   2.0000      -0.502866       -13.6837
  61   2.0000      -0.495677       -13.4881
  62   2.0000      -0.476948       -12.9784
  63   2.0000      -0.467061       -12.7094
  64   2.0000      -0.462581       -12.5875
  65   2.0000      -0.454734       -12.3739
  66   2.0000      -0.444787       -12.1033
  67   2.0000      -0.436717       -11.8837
  68   2.0000      -0.432621       -11.7722
  69   2.0000      -0.426237       -11.5985
  70   2.0000      -0.419638       -11.4189
  71   2.0000      -0.406416       -11.0591
  72   2.0000      -0.398569       -10.8456
  73   2.0000      -0.390382       -10.6228
  74   2.0000      -0.384370       -10.4592
  75   2.0000      -0.375365       -10.2142
  76   2.0000      -0.364463        -9.9175
  77   2.0000      -0.361428        -9.8350
  78   2.0000      -0.356577        -9.7030
  79   2.0000      -0.351848        -9.5743
  80   2.0000      -0.349677        -9.5152
  81   2.0000      -0.348473        -9.4824
  82   2.0000      -0.346055        -9.4166
  83   2.0000      -0.342254        -9.3132
  84   2.0000      -0.336674        -9.1614
  85   2.0000      -0.326991        -8.8979
  86   2.0000      -0.314015        -8.5448
  87   2.0000      -0.303233        -8.2514
  88   2.0000      -0.302027        -8.2186
  89   2.0000      -0.296316        -8.0632
  90   2.0000      -0.286868        -7.8061
  91   2.0000      -0.278667        -7.5829
  92   2.0000      -0.274569        -7.4714
  93   2.0000      -0.264631        -7.2010
  94   2.0000      -0.259311        -7.0562
  95   2.0000      -0.237294        -6.4571
  96   2.0000      -0.219890        -5.9835
  97   2.0000      -0.211958        -5.7677
  98   2.0000      -0.205473        -5.5912
  99   2.0000      -0.202443        -5.5088
 100   2.0000      -0.195548        -5.3211
 101   0.0000      -0.045598        -1.2408
 102   0.0000      -0.030298        -0.8244
 103   0.0000      -0.018302        -0.4980
 104   0.0000      -0.000079        -0.0021
 105   0.0000       0.012434         0.3384

MULLIKEN ATOMIC CHARGES
-----------------------
   0 C :   -0.322239
   1 C :   -0.000123
   2 O :   -0.385924
   3 P :    0.612239
   4 S :   -0.306856
   5 O :   -0.356202
   6 C :    0.010019
   7 C :   -0.345560
   8 S :   -0.107349
   9 C :   -0.364878
  10 S :   -0.058453
  11 P :    0.593988
  12 S :   -0.318743
  13 O :   -0.384294
  14 C :   -0.013478
  15 C :   -0.332819
  16 O :   -0.377409
  17 C :   -0.008358
  18 C :   -0.302591
  19 H :    0.117618
  20 H :    0.116931
  21 H :    0.133110
  22 H :    0.116963
  23 H :    0.107049
  24 H :    0.110220
  25 H :    0.115031
  26 H :    0.119764
  27 H :    0.113712
  28 H :    0.146856
  29 H :    0.195432
  30 H :    0.199459
  31 H :    0.106422
  32 H :    0.119828
  33 H :    0.141174
  34 H :    0.131354
  35 H :    0.111292
  36 H :    0.115504
  37 H :    0.105244
  38 H :    0.112413
  39 H :    0.122478
  40 H :    0.111176
Sum of atomic charges:    0.0000000

LOEWDIN ATOMIC CHARGES
----------------------
   0 C :   -0.371830
   1 C :   -0.114493
   2 O :   -0.245964
   3 P :    0.572913
   4 S :   -0.306038
   5 O :   -0.235407
   6 C :   -0.105125
   7 C :   -0.373006
   8 S :    0.087022
   9 C :   -0.482965
  10 S :    0.088129
  11 P :    0.567241
  12 S :   -0.315548
  13 O :   -0.249569
  14 C :   -0.115591
  15 C :   -0.373511
  16 O :   -0.249140
  17 C :   -0.118070
  18 C :   -0.364449
  19 H :    0.133666
  20 H :    0.122906
  21 H :    0.123562
  22 H :    0.115791
  23 H :    0.119658
  24 H :    0.114784
  25 H :    0.125464
  26 H :    0.116322
  27 H :    0.131464
  28 H :    0.126592
  29 H :    0.136801
  30 H :    0.129779
  31 H :    0.120666
  32 H :    0.101950
  33 H :    0.120388
  34 H :    0.129042
  35 H :    0.129595
  36 H :    0.111099
  37 H :    0.118677
  38 H :    0.124347
  39 H :    0.122862
  40 H :    0.129989

  Mayer bond orders larger than 0.100000
B(  0-C ,  1-C ) :   1.1673 B(  0-C , 19-H ) :   0.9363 B(  0-C , 20-H ) :   0.9439
B(  0-C , 21-H ) :   0.9329 B(  1-C ,  2-O ) :   0.8993 B(  1-C , 22-H ) :   0.9190
B(  1-C , 23-H ) :   0.9341 B(  2-O ,  3-P ) :   1.0844 B(  3-P ,  4-S ) :   1.6409
B(  3-P ,  5-O ) :   1.1425 B(  3-P ,  8-S ) :   0.9356 B(  4-S ,  8-S ) :   0.1087
B(  5-O ,  6-C ) :   0.8950 B(  6-C ,  7-C ) :   1.1711 B(  6-C , 24-H ) :   0.9286
B(  6-C , 25-H ) :   0.9336 B(  7-C , 26-H ) :   0.9392 B(  7-C , 27-H ) :   0.9341
B(  7-C , 28-H ) :   0.9273 B(  8-S ,  9-C ) :   1.0060 B(  9-C , 10-S ) :   0.9671
B(  9-C , 29-H ) :   0.8881 B(  9-C , 30-H ) :   0.8634 B( 10-S , 11-P ) :   0.9859
B( 11-P , 12-S ) :   1.6374 B( 11-P , 13-O ) :   1.0730 B( 11-P , 16-O ) :   1.0938
B( 13-O , 14-C ) :   0.9079 B( 14-C , 15-C ) :   1.1734 B( 14-C , 31-H ) :   0.9328
B( 14-C , 32-H ) :   0.9140 B( 15-C , 33-H ) :   0.9205 B( 15-C , 34-H ) :   0.9372
B( 15-C , 35-H ) :   0.9332 B( 16-O , 17-C ) :   0.9066 B( 17-C , 18-C ) :   1.1630
B( 17-C , 36-H ) :   0.9130 B( 17-C , 37-H ) :   0.9347 B( 18-C , 38-H ) :   0.9472
B( 18-C , 39-H ) :   0.9355 B( 18-C , 40-H ) :   0.9390

Dispersion correction           -0.064616027
FINAL SINGLE POINT ENERGY     -2929.512789185595

DIPOLE MOMENT
-------------

Method             : SCF
Type of density    : Electron Density
Multiplicity       :   1
Irrep              :   0
Energy             : -2929.6346012866997626 Eh
Relativity type    :
Basis              : AO
                                X                 Y                 Z
Electronic contribution:     -0.321715141      12.501971335     -12.749588332
Nuclear contribution   :      1.311332651     -13.966912271      13.919434426
                        -----------------------------------------
Total Dipole Moment    :      0.989617511      -1.464940936       1.169846094
                        -----------------------------------------
Magnitude (a.u.)       :      2.119890245
Magnitude (Debye)      :      5.388332784

Rotational constants in cm-1:             0.013985             0.004232             0.003960
Rotational constants in MHz :           419.273845           126.863997           118.725997

                             ****ORCA TERMINATED NORMALLY****
TOTAL RUN TIME: 0 days 0 hours 0 minutes 21 seconds 153 msec
