                         Program Version 6.0.1  -  RELEASE   -
|  1> ! pbe def2-sv(p) def2/J RI DEFGRID1 loosescf d4 GCP(DFT/SV(P)) printgap
|  2> %output
|  3>     printlevel normal
|  4> end
|  5> * xyz 0 1
|  6> C 4.1105397427 -2.2014747481 1.1092683047
|  7> C 2.6506974208 -2.0971673131 0.7166264327
|  8> O 2.5476263437 -1.1554669946 -0.3710469534
|  9> C 1.3953684707 -1.0211558486 -0.9732119035
| 10> O 0.3946428883 -1.6562503279 -0.6795159711
| 11> C 1.4219740613 0.0164830108 -2.0701740069
| 12> C 0.2918530007 1.0226104792 -1.859574707
| 13> H 0.2656419373 1.7354750898 -2.6886754516
| 14> C 0.3989945086 1.8091820025 -0.563646959
| 15> O -0.5636502037 2.3148344112 -0.021894261
| 16> O 1.628318351 1.8848335424 -0.1291064473
| 17> C 1.8683362267 2.5772797544 1.1148017172
| 18> C 3.3647332375 2.5942618331 1.3492332986
| 19> S -1.3696591935 0.2474872668 -1.9039509619
| 20> P -1.7062815278 -0.2897472775 0.1086858014
| 21> S -0.5310433191 -0.2162255852 1.6914896122
| 22> O -2.9766562455 0.6695980182 0.2589538309
| 23> C -3.7196153804 0.7652042186 1.4768856766
| 24> O -2.4758145419 -1.6893033785 0.0046472668
| 25> C -1.9286466171 -2.9767100636 0.2869556424
| 26> H 4.2099448714 -2.9101554677 1.9244284174
| 27> H 4.700955968 -2.5405189216 0.2634590109
| 28> H 4.4810735253 -1.2335588419 1.4322001612
| 29> H 2.0285333155 -1.733140774 1.5409279836
| 30> H 2.2485868234 -3.0575569014 0.3795432954
| 31> H 1.2615469606 -0.4853325607 -3.0253812273
| 32> H 2.3867856466 0.5213936553 -2.062471905
| 33> H 1.4476196858 3.5839206199 1.0352039171
| 34> H 1.3337586063 2.0399728908 1.9054555706
| 35> H 3.7427563522 1.5769473764 1.3805617589
| 36> H 3.8633635877 3.1329042998 0.5494051946
| 37> H 3.5707668851 3.0822000799 2.2956891112
| 38> H -3.0393286218 0.8521270286 2.3270849334
| 39> H -4.3513432481 -0.1150007969 1.595699282
| 40> H -4.3222020057 1.6648006127 1.3821553101
| 41> H -1.4199221298 -3.3602200948 -0.5948034685
| 42> H -2.7764928927 -3.6032228772 0.553844584
| 43> H -1.222548632 -2.9082760204 1.1158431635
| 44> *
| 45>
| 46>                          ****END OF INPUT****

CARTESIAN COORDINATES (ANGSTROEM)
---------------------------------
  C      4.110540   -2.201475    1.109268
  C      2.650697   -2.097167    0.716626
  O      2.547626   -1.155467   -0.371047
  C      1.395368   -1.021156   -0.973212
  O      0.394643   -1.656250   -0.679516
  C      1.421974    0.016483   -2.070174
  C      0.291853    1.022610   -1.859575
  H      0.265642    1.735475   -2.688675
  C      0.398995    1.809182   -0.563647
  O     -0.563650    2.314834   -0.021894
  O      1.628318    1.884834   -0.129106
  C      1.868336    2.577280    1.114802
  C      3.364733    2.594262    1.349233
  S     -1.369659    0.247487   -1.903951
  P     -1.706282   -0.289747    0.108686
  S     -0.531043   -0.216226    1.691490
  O     -2.976656    0.669598    0.258954
  C     -3.719615    0.765204    1.476886
  O     -2.475815   -1.689303    0.004647
  C     -1.928647   -2.976710    0.286956
  H      4.209945   -2.910155    1.924428
  H      4.700956   -2.540519    0.263459
  H      4.481074   -1.233559    1.432200
  H      2.028533   -1.733141    1.540928
  H      2.248587   -3.057557    0.379543
  H      1.261547   -0.485333   -3.025381
  H      2.386786    0.521394   -2.062472
  H      1.447620    3.583921    1.035204
  H      1.333759    2.039973    1.905456
  H      3.742756    1.576947    1.380562
  H      3.863364    3.132904    0.549405
  H      3.570767    3.082200    2.295689
  H     -3.039329    0.852127    2.327085
  H     -4.351343   -0.115001    1.595699
  H     -4.322202    1.664801    1.382155
  H     -1.419922   -3.360220   -0.594803
  H     -2.776493   -3.603223    0.553845
  H     -1.222549   -2.908276    1.115843

 Total Charge           Charge          ....    0
 Multiplicity           Mult            ....    1
 Number of Electrons    NEL             ....  174
 Basis Dimension        Dim             ....  316

ORBITAL ENERGIES
----------------

  NO   OCC          E(Eh)            E(eV)
   0   2.0000     -88.026070     -2395.3112
   1   2.0000     -87.970246     -2393.7921
   2   2.0000     -76.414402     -2079.3416
   3   2.0000     -18.811131      -511.8769
   4   2.0000     -18.810316      -511.8547
   5   2.0000     -18.774632      -510.8837
   6   2.0000     -18.764613      -510.6111
   7   2.0000     -18.744982      -510.0769
   8   2.0000     -18.733929      -509.7761
   9   2.0000     -10.016765      -272.5700
  10   2.0000     -10.013548      -272.4825
  11   2.0000      -9.950567      -270.7687
  12   2.0000      -9.948563      -270.7142
  13   2.0000      -9.946664      -270.6625
  14   2.0000      -9.925494      -270.0864
  15   2.0000      -9.923479      -270.0316
  16   2.0000      -9.913310      -269.7549
  17   2.0000      -9.892382      -269.1854
  18   2.0000      -9.890271      -269.1280
  19   2.0000      -7.671521      -208.7527
  20   2.0000      -7.615195      -207.2200
  21   2.0000      -6.409939      -174.4233
  22   2.0000      -5.700014      -155.1053
  23   2.0000      -5.696578      -155.0118
  24   2.0000      -5.687186      -154.7562
  25   2.0000      -5.644297      -153.5891
  26   2.0000      -5.636068      -153.3652
  27   2.0000      -5.634793      -153.3305
  28   2.0000      -4.632448      -126.0553
  29   2.0000      -4.632132      -126.0467
  30   2.0000      -4.630520      -126.0028
  31   2.0000      -1.020261       -27.7627
  32   2.0000      -1.016396       -27.6575
  33   2.0000      -0.963041       -26.2057
  34   2.0000      -0.922231       -25.0952
  35   2.0000      -0.918960       -25.0062
  36   2.0000      -0.914832       -24.8938
  37   2.0000      -0.763253       -20.7692
  38   2.0000      -0.716499       -19.4969
  39   2.0000      -0.708476       -19.2786
  40   2.0000      -0.686445       -18.6791
  41   2.0000      -0.650039       -17.6885
  42   2.0000      -0.617484       -16.8026
  43   2.0000      -0.615542       -16.7498
  44   2.0000      -0.609512       -16.5857
  45   2.0000      -0.590016       -16.0552
  46   2.0000      -0.559947       -15.2369
  47   2.0000      -0.515847       -14.0369
  48   2.0000      -0.511163       -13.9094
  49   2.0000      -0.494801       -13.4642
  50   2.0000      -0.482543       -13.1307
  51   2.0000      -0.458852       -12.4860
  52   2.0000      -0.452220       -12.3055
  53   2.0000      -0.449701       -12.2370
  54   2.0000      -0.445724       -12.1288
  55   2.0000      -0.421882       -11.4800
  56   2.0000      -0.417706       -11.3663
  57   2.0000      -0.409573       -11.1450
  58   2.0000      -0.406033       -11.0487
  59   2.0000      -0.403721       -10.9858
  60   2.0000      -0.394166       -10.7258
  61   2.0000      -0.387639       -10.5482
  62   2.0000      -0.384260       -10.4562
  63   2.0000      -0.374248       -10.1838
  64   2.0000      -0.369113       -10.0441
  65   2.0000      -0.365095        -9.9348
  66   2.0000      -0.361773        -9.8443
  67   2.0000      -0.358822        -9.7640
  68   2.0000      -0.353724        -9.6253
  69   2.0000      -0.344053        -9.3622
  70   2.0000      -0.341004        -9.2792
  71   2.0000      -0.321389        -8.7454
  72   2.0000      -0.318403        -8.6642
  73   2.0000      -0.308376        -8.3913
  74   2.0000      -0.302900        -8.2423
  75   2.0000      -0.294672        -8.0184
  76   2.0000      -0.285324        -7.7641
  77   2.0000      -0.270755        -7.3676
  78   2.0000      -0.268933        -7.3180
  79   2.0000      -0.263152        -7.1607
  80   2.0000      -0.253174        -6.8892
  81   2.0000      -0.243939        -6.6379
  82   2.0000      -0.239401        -6.5144
  83   2.0000      -0.222357        -6.0506
  84   2.0000      -0.192221        -5.2306
  85   2.0000      -0.189030        -5.1438
  86   2.0000      -0.178251        -4.8505
  87   0.0000      -0.045952        -1.2504
  88   0.0000      -0.037200        -1.0123
  89   0.0000      -0.031036        -0.8445
  90   0.0000       0.010939         0.2977
  91   0.0000       0.023689         0.6446

MULLIKEN ATOMIC CHARGES
-----------------------
   0 C :   -0.283322
   1 C :   -0.041654
   2 O :   -0.212681
   3 C :    0.100707
   4 O :   -0.218594
   5 C :    0.016083
   6 C :   -0.339752
   7 H :    0.155946
   8 C :    0.176124
   9 O :   -0.178526
  10 O :   -0.222257
  11 C :   -0.030690
  12 C :   -0.285612
  13 S :   -0.051803
  14 P :    0.654376
  15 S :   -0.359366
  16 O :   -0.369761
  17 C :   -0.092517
  18 O :   -0.392639
  19 C :   -0.085187
  20 H :    0.113469
  21 H :    0.113426
  22 H :    0.123558
  23 H :    0.127703
  24 H :    0.103992
  25 H :    0.117620
  26 H :    0.108372
  27 H :    0.106969
  28 H :    0.125124
  29 H :    0.123520
  30 H :    0.111977
  31 H :    0.112762
  32 H :    0.112880
  33 H :    0.104240
  34 H :    0.119871
  35 H :    0.115308
  36 H :    0.110668
  37 H :    0.109666
Sum of atomic charges:   -0.0000000

LOEWDIN ATOMIC CHARGES
----------------------
   0 C :   -0.351161
   1 C :   -0.110657
   2 O :   -0.040554
   3 C :    0.033577
   4 O :   -0.176288
   5 C :   -0.252235
   6 C :   -0.259107
   7 H :    0.153816
   8 C :   -0.009547
   9 O :   -0.155759
  10 O :   -0.044310
  11 C :   -0.106825
  12 C :   -0.351890
  13 S :    0.131974
  14 P :    0.602464
  15 S :   -0.318509
  16 O :   -0.250927
  17 C :   -0.214213
  18 O :   -0.256579
  19 C :   -0.212442
  20 H :    0.132156
  21 H :    0.125911
  22 H :    0.125825
  23 H :    0.119064
  24 H :    0.116342
  25 H :    0.146233
  26 H :    0.138460
  27 H :    0.118165
  28 H :    0.119530
  29 H :    0.125933
  30 H :    0.124998
  31 H :    0.131802
  32 H :    0.106770
  33 H :    0.107911
  34 H :    0.119784
  35 H :    0.111890
  36 H :    0.113348
  37 H :    0.105048

  Mayer bond orders larger than 0.100000
B(  0-C ,  1-C ) :   1.1515 B(  0-C , 20-H ) :   0.9431 B(  0-C , 21-H ) :   0.9491
B(  0-C , 22-H ) :   0.9472 B(  1-C ,  2-O ) :   0.8908 B(  1-C , 23-H ) :   0.9216
B(  1-C , 24-H ) :   0.9276 B(  2-O ,  3-C ) :   1.2753 B(  3-C ,  4-O ) :   1.9127
B(  3-C ,  5-C ) :   1.0174 B(  5-C ,  6-C ) :   1.0199 B(  5-C , 25-H ) :   0.8781
B(  5-C , 26-H ) :   0.8810 B(  6-C ,  7-H ) :   0.8704 B(  6-C ,  8-C ) :   0.8941
B(  6-C , 13-S ) :   1.0467 B(  8-C ,  9-O ) :   2.0497 B(  8-C , 10-O ) :   1.2652
B( 10-O , 11-C ) :   0.8885 B( 11-C , 12-C ) :   1.1522 B( 11-C , 27-H ) :   0.9294
B( 11-C , 28-H ) :   0.9183 B( 12-C , 29-H ) :   0.9437 B( 12-C , 30-H ) :   0.9498
B( 12-C , 31-H ) :   0.9426 B( 13-S , 14-P ) :   0.9351 B( 13-S , 15-S ) :   0.1216
B( 14-P , 15-S ) :   1.5102 B( 14-P , 16-O ) :   1.1076 B( 14-P , 18-O ) :   1.0974
B( 16-O , 17-C ) :   0.9402 B( 17-C , 32-H ) :   0.9317 B( 17-C , 33-H ) :   0.9515
B( 17-C , 34-H ) :   0.9604 B( 18-O , 19-C ) :   0.9338 B( 19-C , 35-H ) :   0.9506
B( 19-C , 36-H ) :   0.9554 B( 19-C , 37-H ) :   0.9344

Dispersion correction           -0.055791627
FINAL SINGLE POINT ENERGY     -1978.999943718429

DIPOLE MOMENT
-------------

Method             : SCF
Type of density    : Electron Density
Multiplicity       :   1
Irrep              :   0
Energy             : -1979.1280683412464896 Eh
Relativity type    :
Basis              : AO
                                X                 Y                 Z
Electronic contribution:    -17.333412606       2.918613293     -10.513697843
Nuclear contribution   :     18.829449966      -3.261496537      10.506024439
                        -----------------------------------------
Total Dipole Moment    :      1.496037360      -0.342883244      -0.007673404
                        -----------------------------------------
Magnitude (a.u.)       :      1.534847088
Magnitude (Debye)      :      3.901271258

Rotational constants in cm-1:             0.013111             0.008738             0.007368
Rotational constants in MHz :           393.044101           261.962494           220.898157

                             ****ORCA TERMINATED NORMALLY****
TOTAL RUN TIME: 0 days 0 hours 0 minutes 36 seconds 623 msec
