                         Program Version 6.0.1  -  RELEASE   -
|  1> ! pbe def2-sv(p) def2/J RI DEFGRID1 loosescf d4 GCP(DFT/SV(P)) printgap
|  2> %output
|  3>     printlevel normal
|  4> end
|  5> * xyz 0 1
|  6> C 3.9086369779 -3.7589441814 0.4951867091
|  7> C 2.8939412671 -2.6831586144 0.8270391925
|  8> O 2.8902509575 -1.7284546526 -0.2552510031
|  9> C 1.8836498084 -0.9019995003 -0.3565281334
| 10> O 0.9513996764 -0.8715083894 0.4337085447
| 11> C 1.9777487867 0.0095173885 -1.5511143077
| 12> C 0.7760358474 0.9371181944 -1.6028889535
| 13> H 0.7831871857 1.5376380071 -2.5160823884
| 14> C 0.6941904506 1.876433996 -0.410172273
| 15> O 1.5404033098 1.9305494074 0.4536906136
| 16> O -0.3835620406 2.6274070096 -0.4682829824
| 17> C -0.5850064213 3.6214979245 0.5549135341
| 18> C 0.1331637114 4.9131097527 0.1990773601
| 19> S -0.8055904799 0.0145108337 -1.767877267
| 20> P -1.4489410519 -0.682232867 0.1381794167
| 21> S -1.3133554305 -2.5601566195 0.6808212826
| 22> O -1.2129312461 0.4587448184 1.2462150175
| 23> C -0.4867510364 0.2700416657 2.4591243641
| 24> O -3.0197087911 -0.4847199611 -0.1378561896
| 25> C -3.6500264165 0.7875870855 -0.3515807792
| 26> H 3.6253729772 -4.270712888 -0.4196114236
| 27> H 4.8903162733 -3.3145943667 0.3626177213
| 28> H 3.9441979771 -4.4766558894 1.3077263757
| 29> H 3.1566426483 -2.1495400294 1.7452837585
| 30> H 1.8830161489 -3.0896276559 0.9375478156
| 31> H 2.0308573035 -0.5970226233 -2.4560590231
| 32> H 2.9000440568 0.5877175984 -1.4648508577
| 33> H -1.6655444944 3.7614399316 0.5887516814
| 34> H -0.2247422442 3.2229584788 1.5069410839
| 35> H -0.1932295264 5.2661821397 -0.77502944
| 36> H -0.0950642026 5.6648018143 0.9473684198
| 37> H 1.2084186079 4.7513288345 0.1782536003
| 38> H -1.0481139964 0.789020754 3.2334623294
| 39> H 0.5123360507 0.6931696435 2.3508567617
| 40> H -0.4091026975 -0.7930004363 2.6914594802
| 41> H -3.0956029537 1.370013954 -1.0877381106
| 42> H -3.7057665896 1.3303505087 0.59089151
| 43> H -4.6456590491 0.5542747553 -0.7204162307
| 44> *
| 45>
| 46>                          ****END OF INPUT****

CARTESIAN COORDINATES (ANGSTROEM)
---------------------------------
  C      3.908637   -3.758944    0.495187
  C      2.893941   -2.683159    0.827039
  O      2.890251   -1.728455   -0.255251
  C      1.883650   -0.902000   -0.356528
  O      0.951400   -0.871508    0.433709
  C      1.977749    0.009517   -1.551114
  C      0.776036    0.937118   -1.602889
  H      0.783187    1.537638   -2.516082
  C      0.694190    1.876434   -0.410172
  O      1.540403    1.930549    0.453691
  O     -0.383562    2.627407   -0.468283
  C     -0.585006    3.621498    0.554914
  C      0.133164    4.913110    0.199077
  S     -0.805590    0.014511   -1.767877
  P     -1.448941   -0.682233    0.138179
  S     -1.313355   -2.560157    0.680821
  O     -1.212931    0.458745    1.246215
  C     -0.486751    0.270042    2.459124
  O     -3.019709   -0.484720   -0.137856
  C     -3.650026    0.787587   -0.351581
  H      3.625373   -4.270713   -0.419611
  H      4.890316   -3.314594    0.362618
  H      3.944198   -4.476656    1.307726
  H      3.156643   -2.149540    1.745284
  H      1.883016   -3.089628    0.937548
  H      2.030857   -0.597023   -2.456059
  H      2.900044    0.587718   -1.464851
  H     -1.665544    3.761440    0.588752
  H     -0.224742    3.222958    1.506941
  H     -0.193230    5.266182   -0.775029
  H     -0.095064    5.664802    0.947368
  H      1.208419    4.751329    0.178254
  H     -1.048114    0.789021    3.233462
  H      0.512336    0.693170    2.350857
  H     -0.409103   -0.793000    2.691459
  H     -3.095603    1.370014   -1.087738
  H     -3.705767    1.330351    0.590892
  H     -4.645659    0.554275   -0.720416

 Total Charge           Charge          ....    0
 Multiplicity           Mult            ....    1
 Number of Electrons    NEL             ....  174
 Basis Dimension        Dim             ....  316

ORBITAL ENERGIES
----------------

  NO   OCC          E(Eh)            E(eV)
   0   2.0000     -88.033435     -2395.5116
   1   2.0000     -87.958828     -2393.4814
   2   2.0000     -76.414681     -2079.3492
   3   2.0000     -18.813108      -511.9307
   4   2.0000     -18.810197      -511.8515
   5   2.0000     -18.781582      -511.0728
   6   2.0000     -18.766292      -510.6568
   7   2.0000     -18.755290      -510.3574
   8   2.0000     -18.751653      -510.2584
   9   2.0000     -10.024773      -272.7879
  10   2.0000     -10.022990      -272.7394
  11   2.0000      -9.955127      -270.8928
  12   2.0000      -9.954676      -270.8805
  13   2.0000      -9.949525      -270.7403
  14   2.0000      -9.929697      -270.2008
  15   2.0000      -9.927903      -270.1520
  16   2.0000      -9.920465      -269.9496
  17   2.0000      -9.894204      -269.2350
  18   2.0000      -9.890156      -269.1248
  19   2.0000      -7.677985      -208.9286
  20   2.0000      -7.604375      -206.9256
  21   2.0000      -6.409901      -174.4223
  22   2.0000      -5.706684      -155.2868
  23   2.0000      -5.702114      -155.1624
  24   2.0000      -5.694559      -154.9568
  25   2.0000      -5.633906      -153.3064
  26   2.0000      -5.625042      -153.0652
  27   2.0000      -5.623772      -153.0306
  28   2.0000      -4.633187      -126.0754
  29   2.0000      -4.631823      -126.0383
  30   2.0000      -4.630053      -125.9901
  31   2.0000      -1.024472       -27.8773
  32   2.0000      -1.020466       -27.7683
  33   2.0000      -0.965816       -26.2812
  34   2.0000      -0.932791       -25.3825
  35   2.0000      -0.926042       -25.1989
  36   2.0000      -0.920754       -25.0550
  37   2.0000      -0.766614       -20.8606
  38   2.0000      -0.721057       -19.6210
  39   2.0000      -0.706733       -19.2312
  40   2.0000      -0.688511       -18.7353
  41   2.0000      -0.656326       -17.8595
  42   2.0000      -0.624358       -16.9896
  43   2.0000      -0.621704       -16.9174
  44   2.0000      -0.599214       -16.3055
  45   2.0000      -0.597621       -16.2621
  46   2.0000      -0.564613       -15.3639
  47   2.0000      -0.516015       -14.0415
  48   2.0000      -0.510977       -13.9044
  49   2.0000      -0.499648       -13.5961
  50   2.0000      -0.486955       -13.2507
  51   2.0000      -0.468590       -12.7510
  52   2.0000      -0.459955       -12.5160
  53   2.0000      -0.453112       -12.3298
  54   2.0000      -0.442975       -12.0540
  55   2.0000      -0.434227       -11.8159
  56   2.0000      -0.431835       -11.7508
  57   2.0000      -0.416589       -11.3360
  58   2.0000      -0.410051       -11.1581
  59   2.0000      -0.408451       -11.1145
  60   2.0000      -0.396246       -10.7824
  61   2.0000      -0.394730       -10.7412
  62   2.0000      -0.391708       -10.6589
  63   2.0000      -0.383765       -10.4428
  64   2.0000      -0.379125       -10.3165
  65   2.0000      -0.366253        -9.9663
  66   2.0000      -0.360710        -9.8154
  67   2.0000      -0.357424        -9.7260
  68   2.0000      -0.351918        -9.5762
  69   2.0000      -0.346379        -9.4254
  70   2.0000      -0.334222        -9.0946
  71   2.0000      -0.327634        -8.9154
  72   2.0000      -0.321584        -8.7507
  73   2.0000      -0.310441        -8.4475
  74   2.0000      -0.305875        -8.3233
  75   2.0000      -0.299309        -8.1446
  76   2.0000      -0.289592        -7.8802
  77   2.0000      -0.281733        -7.6663
  78   2.0000      -0.271663        -7.3923
  79   2.0000      -0.269369        -7.3299
  80   2.0000      -0.254168        -6.9163
  81   2.0000      -0.251158        -6.8344
  82   2.0000      -0.240430        -6.5424
  83   2.0000      -0.231188        -6.2910
  84   2.0000      -0.213812        -5.8181
  85   2.0000      -0.179955        -4.8968
  86   2.0000      -0.168750        -4.5919
  87   0.0000      -0.048484        -1.3193
  88   0.0000      -0.043649        -1.1878
  89   0.0000      -0.018953        -0.5158
  90   0.0000      -0.002697        -0.0734
  91   0.0000       0.033451         0.9102

MULLIKEN ATOMIC CHARGES
-----------------------
   0 C :   -0.276852
   1 C :   -0.043353
   2 O :   -0.222104
   3 C :    0.154135
   4 O :   -0.219143
   5 C :   -0.045839
   6 C :   -0.311680
   7 H :    0.147876
   8 C :    0.199905
   9 O :   -0.196863
  10 O :   -0.219828
  11 C :   -0.015446
  12 C :   -0.303328
  13 S :   -0.095917
  14 P :    0.644432
  15 S :   -0.318508
  16 O :   -0.409766
  17 C :   -0.106034
  18 O :   -0.378579
  19 C :   -0.107398
  20 H :    0.119257
  21 H :    0.113631
  22 H :    0.115480
  23 H :    0.106210
  24 H :    0.135627
  25 H :    0.125743
  26 H :    0.129047
  27 H :    0.105544
  28 H :    0.115266
  29 H :    0.114944
  30 H :    0.115330
  31 H :    0.124687
  32 H :    0.108998
  33 H :    0.132245
  34 H :    0.119080
  35 H :    0.115389
  36 H :    0.107199
  37 H :    0.120612
Sum of atomic charges:    0.0000000

LOEWDIN ATOMIC CHARGES
----------------------
   0 C :   -0.350130
   1 C :   -0.107274
   2 O :   -0.044891
   3 C :    0.053270
   4 O :   -0.158776
   5 C :   -0.251107
   6 C :   -0.263588
   7 H :    0.151483
   8 C :    0.014614
   9 O :   -0.157653
  10 O :   -0.048898
  11 C :   -0.107860
  12 C :   -0.356081
  13 S :    0.105958
  14 P :    0.586871
  15 S :   -0.327461
  16 O :   -0.255601
  17 C :   -0.222259
  18 O :   -0.261765
  19 C :   -0.219993
  20 H :    0.128761
  21 H :    0.125624
  22 H :    0.133085
  23 H :    0.117935
  24 H :    0.125418
  25 H :    0.148164
  26 H :    0.152137
  27 H :    0.118791
  28 H :    0.121431
  29 H :    0.125294
  30 H :    0.131962
  31 H :    0.129462
  32 H :    0.112302
  33 H :    0.112031
  34 H :    0.109989
  35 H :    0.101420
  36 H :    0.107169
  37 H :    0.120167

  Mayer bond orders larger than 0.100000
B(  0-C ,  1-C ) :   1.1576 B(  0-C , 20-H ) :   0.9511 B(  0-C , 21-H ) :   0.9486
B(  0-C , 22-H ) :   0.9434 B(  1-C ,  2-O ) :   0.8884 B(  1-C , 23-H ) :   0.9336
B(  1-C , 24-H ) :   0.9163 B(  2-O ,  3-C ) :   1.2760 B(  3-C ,  4-O ) :   1.8632
B(  3-C ,  5-C ) :   1.0211 B(  4-O , 14-P ) :   0.1350 B(  5-C ,  6-C ) :   1.0274
B(  5-C , 25-H ) :   0.8844 B(  5-C , 26-H ) :   0.8738 B(  6-C ,  7-H ) :   0.8729
B(  6-C ,  8-C ) :   0.8972 B(  6-C , 13-S ) :   1.0187 B(  8-C ,  9-O ) :   2.0249
B(  8-C , 10-O ) :   1.2472 B( 10-O , 11-C ) :   0.9098 B( 11-C , 12-C ) :   1.1715
B( 11-C , 27-H ) :   0.9360 B( 11-C , 28-H ) :   0.9145 B( 12-C , 29-H ) :   0.9480
B( 12-C , 30-H ) :   0.9443 B( 12-C , 31-H ) :   0.9460 B( 13-S , 14-P ) :   0.9454
B( 14-P , 15-S ) :   1.6153 B( 14-P , 16-O ) :   1.0372 B( 14-P , 18-O ) :   1.0717
B( 16-O , 17-C ) :   0.9225 B( 17-C , 32-H ) :   0.9524 B( 17-C , 33-H ) :   0.9346
B( 17-C , 34-H ) :   0.9291 B( 18-O , 19-C ) :   0.9375 B( 19-C , 35-H ) :   0.9316
B( 19-C , 36-H ) :   0.9500 B( 19-C , 37-H ) :   0.9597

Dispersion correction           -0.054835344
FINAL SINGLE POINT ENERGY     -1979.003878315234

DIPOLE MOMENT
-------------

Method             : SCF
Type of density    : Electron Density
Multiplicity       :   1
Irrep              :   0
Energy             : -1979.1360317072085309 Eh
Relativity type    :
Basis              : AO
                                X                 Y                 Z
Electronic contribution:     -9.527547550      -9.235724896      -6.610087383
Nuclear contribution   :     10.609775781      10.879545529       6.495333878
                        -----------------------------------------
Total Dipole Moment    :      1.082228231       1.643820633      -0.114753506
                        -----------------------------------------
Magnitude (a.u.)       :      1.971429072
Magnitude (Debye)      :      5.010974471

Rotational constants in cm-1:             0.012715             0.008536             0.006458
Rotational constants in MHz :           381.189756           255.898733           193.610838

                             ****ORCA TERMINATED NORMALLY****
TOTAL RUN TIME: 0 days 0 hours 0 minutes 39 seconds 694 msec
