                         Program Version 6.0.0  -   RELEASE  -
|  1> ! pbe def2-sv(p) def2/J RI DEFGRID1 loosescf d4 GCP(DFT/SV(P)) printgap
|  2> %output
|  3>     printlevel normal
|  4> end
|  5> * xyz 0 1
|  6> C 4.5114457038 1.2229428808 -1.8467439442
|  7> C 4.9557004905 0.5341174755 -0.5725462952
|  8> O 3.9377328313 -0.3261473457 -0.0306534865
|  9> P 2.5751898676 0.2377561619 0.5604983791
| 10> S 2.748563455 1.9037262767 1.5692479705
| 11> O 2.0787786718 -0.9318941298 1.4943963569
| 12> C 1.5914699138 -2.2377529551 1.1081785474
| 13> C 2.5127283672 -2.9635771336 0.1535838063
| 14> S 1.2481500109 0.2943064708 -1.110995976
| 15> C 0.1315705218 1.5520912035 -0.4480716349
| 16> S -0.8953822151 0.9651495676 0.9317185428
| 17> P -2.2110676884 -0.3034985812 -0.1443257183
| 18> S -1.5956189336 -2.0136451404 -0.8565547236
| 19> O -2.7223360111 0.7481530289 -1.236026529
| 20> C -3.2682823482 0.3124003526 -2.4976722899
| 21> C -4.6557865642 -0.2698729399 -2.3238728788
| 22> O -3.3819108235 -0.5390153135 0.8961345332
| 23> C -4.1227032271 0.5474786591 1.5073386208
| 24> C -5.5355721566 0.0641483302 1.763416085
| 25> H 3.7248955146 1.94269474 -1.6257406524
| 26> H 5.3556982475 1.7482444254 -2.2815357305
| 27> H 4.1327053062 0.4949791971 -2.5597617554
| 28> H 5.2243154234 1.2725027447 0.189408537
| 29> H 5.7952961175 -0.1393247718 -0.7499708319
| 30> H 1.5024872098 -2.7606829246 2.0616129413
| 31> H 0.5975102959 -2.1203886568 0.6657451832
| 32> H 3.5149704988 -3.0283214571 0.5688742403
| 33> H 2.1215897593 -3.9624816746 -0.0142855803
| 34> H 2.5543124583 -2.4404985648 -0.7999186867
| 35> H -0.5050739505 1.8834768288 -1.2633754105
| 36> H 0.7207414178 2.3741897277 -0.0385817424
| 37> H -3.2792008302 1.2150161868 -3.110104267
| 38> H -2.5908627126 -0.4283786868 -2.9336045823
| 39> H -4.6045560502 -1.1536506995 -1.6880489219
| 40> H -5.3196594763 0.4601259436 -1.8676044991
| 41> H -5.0503063241 -0.5567024786 -3.2935151873
| 42> H -3.6132669502 0.8068011178 2.4381331179
| 43> H -4.1072690732 1.4096778452 0.8359503339
| 44> H -5.5149834097 -0.8200465137 2.3939353621
| 45> H -6.0945834943 0.8489211006 2.2628503264
| 46> H -6.0260477091 -0.1874703159 0.8271162508
| 47> *
| 48>
| 49>                          ****END OF INPUT****

CARTESIAN COORDINATES (ANGSTROEM)
---------------------------------
  C      4.511446    1.222943   -1.846744
  C      4.955700    0.534117   -0.572546
  O      3.937733   -0.326147   -0.030653
  P      2.575190    0.237756    0.560498
  S      2.748563    1.903726    1.569248
  O      2.078779   -0.931894    1.494396
  C      1.591470   -2.237753    1.108179
  C      2.512728   -2.963577    0.153584
  S      1.248150    0.294306   -1.110996
  C      0.131571    1.552091   -0.448072
  S     -0.895382    0.965150    0.931719
  P     -2.211068   -0.303499   -0.144326
  S     -1.595619   -2.013645   -0.856555
  O     -2.722336    0.748153   -1.236027
  C     -3.268282    0.312400   -2.497672
  C     -4.655787   -0.269873   -2.323873
  O     -3.381911   -0.539015    0.896135
  C     -4.122703    0.547479    1.507339
  C     -5.535572    0.064148    1.763416
  H      3.724896    1.942695   -1.625741
  H      5.355698    1.748244   -2.281536
  H      4.132705    0.494979   -2.559762
  H      5.224315    1.272503    0.189409
  H      5.795296   -0.139325   -0.749971
  H      1.502487   -2.760683    2.061613
  H      0.597510   -2.120389    0.665745
  H      3.514970   -3.028321    0.568874
  H      2.121590   -3.962482   -0.014286
  H      2.554312   -2.440499   -0.799919
  H     -0.505074    1.883477   -1.263375
  H      0.720741    2.374190   -0.038582
  H     -3.279201    1.215016   -3.110104
  H     -2.590863   -0.428379   -2.933605
  H     -4.604556   -1.153651   -1.688049
  H     -5.319659    0.460126   -1.867604
  H     -5.050306   -0.556702   -3.293515
  H     -3.613267    0.806801    2.438133
  H     -4.107269    1.409678    0.835950
  H     -5.514983   -0.820047    2.393935
  H     -6.094583    0.848921    2.262850
  H     -6.026048   -0.187470    0.827116

 Total Charge           Charge          ....    0
 Multiplicity           Mult            ....    1
 Number of Electrons    NEL             ....  202
 Basis Dimension        Dim             ....  334

ORBITAL ENERGIES
----------------

  NO   OCC          E(Eh)            E(eV)
   0   2.0000     -88.042284     -2395.7524
   1   2.0000     -88.039809     -2395.6850
   2   2.0000     -87.988815     -2394.2974
   3   2.0000     -87.980506     -2394.0713
   4   2.0000     -76.428420     -2079.7230
   5   2.0000     -76.422131     -2079.5519
   6   2.0000     -18.800625      -511.5910
   7   2.0000     -18.797630      -511.5095
   8   2.0000     -18.789666      -511.2928
   9   2.0000     -18.780829      -511.0523
  10   2.0000      -9.960829      -271.0479
  11   2.0000      -9.957986      -270.9706
  12   2.0000      -9.955329      -270.8983
  13   2.0000      -9.950171      -270.7579
  14   2.0000      -9.939210      -270.4597
  15   2.0000      -9.894706      -269.2486
  16   2.0000      -9.892309      -269.1834
  17   2.0000      -9.882013      -268.9032
  18   2.0000      -9.876936      -268.7651
  19   2.0000      -7.687361      -209.1837
  20   2.0000      -7.684589      -209.1083
  21   2.0000      -7.633792      -207.7261
  22   2.0000      -7.625859      -207.5102
  23   2.0000      -6.426284      -174.8681
  24   2.0000      -6.419378      -174.6802
  25   2.0000      -5.715302      -155.5213
  26   2.0000      -5.712322      -155.4402
  27   2.0000      -5.711886      -155.4283
  28   2.0000      -5.709197      -155.3552
  29   2.0000      -5.704257      -155.2207
  30   2.0000      -5.701634      -155.1494
  31   2.0000      -5.662774      -154.0919
  32   2.0000      -5.654785      -153.8745
  33   2.0000      -5.654292      -153.8611
  34   2.0000      -5.653972      -153.8524
  35   2.0000      -5.646434      -153.6473
  36   2.0000      -5.645990      -153.6352
  37   2.0000      -4.649402      -126.5166
  38   2.0000      -4.647769      -126.4722
  39   2.0000      -4.646507      -126.4379
  40   2.0000      -4.642102      -126.3180
  41   2.0000      -4.641160      -126.2924
  42   2.0000      -4.639757      -126.2542
  43   2.0000      -0.991092       -26.9690
  44   2.0000      -0.980520       -26.6813
  45   2.0000      -0.951679       -25.8965
  46   2.0000      -0.938094       -25.5268
  47   2.0000      -0.762831       -20.7577
  48   2.0000      -0.723933       -19.6992
  49   2.0000      -0.707497       -19.2520
  50   2.0000      -0.697814       -18.9885
  51   2.0000      -0.684477       -18.6256
  52   2.0000      -0.673021       -18.3138
  53   2.0000      -0.652876       -17.7656
  54   2.0000      -0.636768       -17.3273
  55   2.0000      -0.597747       -16.2655
  56   2.0000      -0.591092       -16.0844
  57   2.0000      -0.577651       -15.7187
  58   2.0000      -0.568817       -15.4783
  59   2.0000      -0.563125       -15.3234
  60   2.0000      -0.510286       -13.8856
  61   2.0000      -0.487989       -13.2788
  62   2.0000      -0.485911       -13.2223
  63   2.0000      -0.464963       -12.6523
  64   2.0000      -0.459112       -12.4931
  65   2.0000      -0.447562       -12.1788
  66   2.0000      -0.442011       -12.0277
  67   2.0000      -0.438663       -11.9366
  68   2.0000      -0.425964       -11.5911
  69   2.0000      -0.412524       -11.2254
  70   2.0000      -0.407833       -11.0977
  71   2.0000      -0.401915       -10.9367
  72   2.0000      -0.394266       -10.7285
  73   2.0000      -0.388256       -10.5650
  74   2.0000      -0.377447       -10.2709
  75   2.0000      -0.373320       -10.1586
  76   2.0000      -0.365798        -9.9539
  77   2.0000      -0.362217        -9.8564
  78   2.0000      -0.359460        -9.7814
  79   2.0000      -0.353120        -9.6089
  80   2.0000      -0.348574        -9.4852
  81   2.0000      -0.344557        -9.3759
  82   2.0000      -0.343234        -9.3399
  83   2.0000      -0.338063        -9.1992
  84   2.0000      -0.332333        -9.0432
  85   2.0000      -0.323423        -8.8008
  86   2.0000      -0.315579        -8.5873
  87   2.0000      -0.306411        -8.3379
  88   2.0000      -0.289454        -7.8764
  89   2.0000      -0.287229        -7.8159
  90   2.0000      -0.284577        -7.7437
  91   2.0000      -0.275938        -7.5087
  92   2.0000      -0.272734        -7.4215
  93   2.0000      -0.260620        -7.0918
  94   2.0000      -0.258215        -7.0264
  95   2.0000      -0.241795        -6.5796
  96   2.0000      -0.216052        -5.8791
  97   2.0000      -0.207312        -5.6412
  98   2.0000      -0.202251        -5.5035
  99   2.0000      -0.199393        -5.4258
 100   2.0000      -0.194234        -5.2854
 101   0.0000      -0.044136        -1.2010
 102   0.0000      -0.022395        -0.6094
 103   0.0000      -0.008419        -0.2291
 104   0.0000       0.001843         0.0501
 105   0.0000       0.016462         0.4480

MULLIKEN ATOMIC CHARGES
-----------------------
   0 C :   -0.313771
   1 C :   -0.001189
   2 O :   -0.374416
   3 P :    0.608792
   4 S :   -0.326324
   5 O :   -0.354643
   6 C :   -0.017797
   7 C :   -0.307004
   8 S :   -0.093534
   9 C :   -0.360883
  10 S :   -0.071504
  11 P :    0.609355
  12 S :   -0.297263
  13 O :   -0.392381
  14 C :   -0.010621
  15 C :   -0.320742
  16 O :   -0.370764
  17 C :   -0.028550
  18 C :   -0.284210
  19 H :    0.123498
  20 H :    0.112011
  21 H :    0.116429
  22 H :    0.113703
  23 H :    0.104561
  24 H :    0.103798
  25 H :    0.131859
  26 H :    0.116827
  27 H :    0.113824
  28 H :    0.115331
  29 H :    0.185706
  30 H :    0.194990
  31 H :    0.105031
  32 H :    0.116135
  33 H :    0.134338
  34 H :    0.116756
  35 H :    0.116828
  36 H :    0.118307
  37 H :    0.109958
  38 H :    0.125151
  39 H :    0.113792
  40 H :    0.118617
Sum of atomic charges:   -0.0000000

LOEWDIN ATOMIC CHARGES
----------------------
   0 C :   -0.370601
   1 C :   -0.117450
   2 O :   -0.241270
   3 P :    0.575427
   4 S :   -0.317921
   5 O :   -0.231694
   6 C :   -0.120772
   7 C :   -0.364359
   8 S :    0.079269
   9 C :   -0.482996
  10 S :    0.089439
  11 P :    0.564475
  12 S :   -0.294557
  13 O :   -0.254367
  14 C :   -0.122664
  15 C :   -0.366051
  16 O :   -0.244445
  17 C :   -0.120355
  18 C :   -0.350758
  19 H :    0.119783
  20 H :    0.130459
  21 H :    0.123238
  22 H :    0.112593
  23 H :    0.118547
  24 H :    0.120756
  25 H :    0.103069
  26 H :    0.124870
  27 H :    0.132106
  28 H :    0.116975
  29 H :    0.132003
  30 H :    0.128998
  31 H :    0.117466
  32 H :    0.111524
  33 H :    0.126492
  34 H :    0.122638
  35 H :    0.133375
  36 H :    0.117336
  37 H :    0.109502
  38 H :    0.131859
  39 H :    0.131720
  40 H :    0.126343

  Mayer bond orders larger than 0.100000
B(  0-C ,  1-C ) :   1.1656 B(  0-C , 19-H ) :   0.9349 B(  0-C , 20-H ) :   0.9374
B(  0-C , 21-H ) :   0.9446 B(  1-C ,  2-O ) :   0.9077 B(  1-C , 22-H ) :   0.9161
B(  1-C , 23-H ) :   0.9341 B(  2-O ,  3-P ) :   1.0926 B(  3-P ,  4-S ) :   1.6084
B(  3-P ,  5-O ) :   1.1642 B(  3-P ,  8-S ) :   0.9352 B(  4-S ,  8-S ) :   0.1086
B(  5-O ,  6-C ) :   0.8898 B(  6-C ,  7-C ) :   1.1735 B(  6-C , 24-H ) :   0.9336
B(  6-C , 25-H ) :   0.8952 B(  7-C , 26-H ) :   0.9442 B(  7-C , 27-H ) :   0.9358
B(  7-C , 28-H ) :   0.9393 B(  8-S ,  9-C ) :   1.0128 B(  9-C , 10-S ) :   0.9991
B(  9-C , 29-H ) :   0.8954 B(  9-C , 30-H ) :   0.8696 B( 10-S , 11-P ) :   0.9768
B( 10-S , 12-S ) :   0.1050 B( 11-P , 12-S ) :   1.6470 B( 11-P , 13-O ) :   1.0522
B( 11-P , 16-O ) :   1.1245 B( 13-O , 14-C ) :   0.9015 B( 14-C , 15-C ) :   1.1645
B( 14-C , 31-H ) :   0.9329 B( 14-C , 32-H ) :   0.9107 B( 15-C , 33-H ) :   0.9332
B( 15-C , 34-H ) :   0.9436 B( 15-C , 35-H ) :   0.9383 B( 16-O , 17-C ) :   0.8915
B( 17-C , 18-C ) :   1.1636 B( 17-C , 36-H ) :   0.9306 B( 17-C , 37-H ) :   0.9161
B( 18-C , 38-H ) :   0.9481 B( 18-C , 39-H ) :   0.9404 B( 18-C , 40-H ) :   0.9482

Dispersion correction           -0.064891013
FINAL SINGLE POINT ENERGY     -2929.519920717074

DIPOLE MOMENT
-------------

Method             : SCF
Type of density    : Electron Density
Multiplicity       :   1
Irrep              :   0
Energy             : -2929.6402338192274328 Eh
Relativity type    :
Basis              : AO
                                X                 Y                 Z
Electronic contribution:     10.046009001       3.218956254       8.710041671
Nuclear contribution   :    -11.122887542      -2.937164160      -9.735875328
                        -----------------------------------------
Total Dipole Moment    :     -1.076878540       0.281792094      -1.025833656
                        -----------------------------------------
Magnitude (a.u.)       :      1.513740025
Magnitude (Debye)      :      3.847621369

Rotational constants in cm-1:             0.014242             0.004297             0.004204
Rotational constants in MHz :           426.964384           128.826764           126.036202

                             ****ORCA TERMINATED NORMALLY****
TOTAL RUN TIME: 0 days 0 hours 0 minutes 20 seconds 677 msec
