                         Program Version 6.0.1  -  RELEASE   -
|  1> ! pbe def2-sv(p) def2/J RI DEFGRID1 loosescf d4 GCP(DFT/SV(P)) printgap
|  2> %output
|  3>     printlevel normal
|  4> end
|  5> * xyz 0 1
|  6> C 5.4435989605 -1.5595571848 -2.023889396
|  7> C 4.726807037 -2.5357949978 -1.1050682848
|  8> O 3.309190113 -2.5467460337 -1.3719455846
|  9> C 2.5450459693 -1.6690581086 -0.7610202921
| 10> O 2.9396800177 -0.842611442 0.036616961
| 11> C 1.0898914512 -1.8330476224 -1.1417994307
| 12> C 0.3046629653 -0.607490112 -0.6963107349
| 13> H 0.5195716834 0.273210969 -1.3064185321
| 14> C 0.5955230994 -0.2892469671 0.7605992157
| 15> O 0.4738359341 -1.1024363358 1.6526270027
| 16> O 0.9025997902 0.9764766955 0.9200944054
| 17> C 1.2358334202 1.4467039848 2.2404155519
| 18> C 0.7667834533 2.8818143356 2.3814565303
| 19> S -1.4818405699 -0.9695608495 -0.807872388
| 20> P -2.1667255226 0.8791115986 -0.0125514102
| 21> S -1.4046867632 2.4983542933 -0.7919458324
| 22> O -3.7480438032 0.7282193058 -0.1697141791
| 23> C -4.3686952427 0.7953809517 -1.4609413486
| 24> O -2.0129148104 0.8187088526 1.5621477978
| 25> C -2.5691827921 -0.2378919948 2.3731445188
| 26> H 5.2352779107 -1.801357256 -3.0622972771
| 27> H 5.1120307245 -0.5433063674 -1.8223944253
| 28> H 6.5124923064 -1.6217977627 -1.8487680161
| 29> H 4.8822677359 -2.2686381082 -0.0560431637
| 30> H 5.0440002753 -3.5621979861 -1.2888395991
| 31> H 0.7145294521 -2.7166467078 -0.6176074323
| 32> H 0.9937894255 -2.0031798515 -2.2130079535
| 33> H 0.7605595267 0.786114624 2.9718618695
| 34> H 2.3226821863 1.3655288288 2.3337986557
| 35> H 1.0462829244 3.2558837348 3.3604727459
| 36> H 1.2222363784 3.4981460346 1.6118383892
| 37> H -0.3135548068 2.9349957671 2.2687483053
| 38> H -3.9827277158 1.6509720953 -2.0167694296
| 39> H -5.4316672546 0.9143609892 -1.2674376831
| 40> H -4.1755106372 -0.1250199783 -2.0107974243
| 41> H -2.7500819266 0.2093593594 3.3471762654
| 42> H -1.8381652113 -1.043584984 2.4527818533
| 43> H -3.4972171044 -0.6033043031 1.9397952737
| 44> *
| 45>
| 46>                          ****END OF INPUT****

CARTESIAN COORDINATES (ANGSTROEM)
---------------------------------
  C      5.443599   -1.559557   -2.023889
  C      4.726807   -2.535795   -1.105068
  O      3.309190   -2.546746   -1.371946
  C      2.545046   -1.669058   -0.761020
  O      2.939680   -0.842611    0.036617
  C      1.089891   -1.833048   -1.141799
  C      0.304663   -0.607490   -0.696311
  H      0.519572    0.273211   -1.306419
  C      0.595523   -0.289247    0.760599
  O      0.473836   -1.102436    1.652627
  O      0.902600    0.976477    0.920094
  C      1.235833    1.446704    2.240416
  C      0.766783    2.881814    2.381457
  S     -1.481841   -0.969561   -0.807872
  P     -2.166726    0.879112   -0.012551
  S     -1.404687    2.498354   -0.791946
  O     -3.748044    0.728219   -0.169714
  C     -4.368695    0.795381   -1.460941
  O     -2.012915    0.818709    1.562148
  C     -2.569183   -0.237892    2.373145
  H      5.235278   -1.801357   -3.062297
  H      5.112031   -0.543306   -1.822394
  H      6.512492   -1.621798   -1.848768
  H      4.882268   -2.268638   -0.056043
  H      5.044000   -3.562198   -1.288840
  H      0.714529   -2.716647   -0.617607
  H      0.993789   -2.003180   -2.213008
  H      0.760560    0.786115    2.971862
  H      2.322682    1.365529    2.333799
  H      1.046283    3.255884    3.360473
  H      1.222236    3.498146    1.611838
  H     -0.313555    2.934996    2.268748
  H     -3.982728    1.650972   -2.016769
  H     -5.431667    0.914361   -1.267438
  H     -4.175511   -0.125020   -2.010797
  H     -2.750082    0.209359    3.347176
  H     -1.838165   -1.043585    2.452782
  H     -3.497217   -0.603304    1.939795

 Total Charge           Charge          ....    0
 Multiplicity           Mult            ....    1
 Number of Electrons    NEL             ....  174
 Basis Dimension        Dim             ....  316

ORBITAL ENERGIES
----------------

  NO   OCC          E(Eh)            E(eV)
   0   2.0000     -88.039581     -2395.6788
   1   2.0000     -87.979733     -2394.0502
   2   2.0000     -76.424900     -2079.6273
   3   2.0000     -18.812658      -511.9185
   4   2.0000     -18.796198      -511.4706
   5   2.0000     -18.795157      -511.4422
   6   2.0000     -18.789153      -511.2788
   7   2.0000     -18.750882      -510.2375
   8   2.0000     -18.723191      -509.4839
   9   2.0000     -10.021591      -272.7014
  10   2.0000     -10.003907      -272.2202
  11   2.0000      -9.955722      -270.9090
  12   2.0000      -9.948231      -270.7051
  13   2.0000      -9.941576      -270.5240
  14   2.0000      -9.940613      -270.4978
  15   2.0000      -9.931219      -270.2422
  16   2.0000      -9.917977      -269.8819
  17   2.0000      -9.893312      -269.2107
  18   2.0000      -9.868556      -268.5371
  19   2.0000      -7.684489      -209.1056
  20   2.0000      -7.625152      -207.4909
  21   2.0000      -6.422096      -174.7541
  22   2.0000      -5.712091      -155.4339
  23   2.0000      -5.709324      -155.3586
  24   2.0000      -5.701471      -155.1449
  25   2.0000      -5.654259      -153.8602
  26   2.0000      -5.645515      -153.6223
  27   2.0000      -5.645294      -153.6163
  28   2.0000      -4.645017      -126.3973
  29   2.0000      -4.643973      -126.3689
  30   2.0000      -4.642180      -126.3201
  31   2.0000      -1.021553       -27.7979
  32   2.0000      -0.998912       -27.1818
  33   2.0000      -0.987699       -26.8767
  34   2.0000      -0.944620       -25.7044
  35   2.0000      -0.927605       -25.2414
  36   2.0000      -0.903576       -24.5876
  37   2.0000      -0.763588       -20.7783
  38   2.0000      -0.719585       -19.5809
  39   2.0000      -0.698742       -19.0137
  40   2.0000      -0.689051       -18.7500
  41   2.0000      -0.662129       -18.0174
  42   2.0000      -0.638984       -17.3876
  43   2.0000      -0.619831       -16.8665
  44   2.0000      -0.611366       -16.6361
  45   2.0000      -0.593842       -16.1593
  46   2.0000      -0.549036       -14.9400
  47   2.0000      -0.514344       -13.9960
  48   2.0000      -0.506588       -13.7850
  49   2.0000      -0.491656       -13.3786
  50   2.0000      -0.475813       -12.9475
  51   2.0000      -0.475497       -12.9389
  52   2.0000      -0.463669       -12.6171
  53   2.0000      -0.444081       -12.0841
  54   2.0000      -0.438014       -11.9190
  55   2.0000      -0.433061       -11.7842
  56   2.0000      -0.426779       -11.6132
  57   2.0000      -0.424337       -11.5468
  58   2.0000      -0.415763       -11.3135
  59   2.0000      -0.406975       -11.0744
  60   2.0000      -0.403014       -10.9666
  61   2.0000      -0.396656       -10.7936
  62   2.0000      -0.389529       -10.5996
  63   2.0000      -0.382294       -10.4028
  64   2.0000      -0.373755       -10.1704
  65   2.0000      -0.363121        -9.8810
  66   2.0000      -0.351510        -9.5651
  67   2.0000      -0.346394        -9.4259
  68   2.0000      -0.341749        -9.2994
  69   2.0000      -0.338877        -9.2213
  70   2.0000      -0.334151        -9.0927
  71   2.0000      -0.328177        -8.9301
  72   2.0000      -0.315441        -8.5836
  73   2.0000      -0.308566        -8.3965
  74   2.0000      -0.305239        -8.3060
  75   2.0000      -0.302629        -8.2349
  76   2.0000      -0.296807        -8.0765
  77   2.0000      -0.284773        -7.7491
  78   2.0000      -0.270983        -7.3738
  79   2.0000      -0.270734        -7.3671
  80   2.0000      -0.261236        -7.1086
  81   2.0000      -0.245464        -6.6794
  82   2.0000      -0.235116        -6.3978
  83   2.0000      -0.230048        -6.2599
  84   2.0000      -0.211962        -5.7678
  85   2.0000      -0.197437        -5.3725
  86   2.0000      -0.194141        -5.2828
  87   0.0000      -0.041785        -1.1370
  88   0.0000      -0.031037        -0.8445
  89   0.0000      -0.020228        -0.5504
  90   0.0000       0.005200         0.1415
  91   0.0000       0.025291         0.6882

MULLIKEN ATOMIC CHARGES
-----------------------
   0 C :   -0.306505
   1 C :   -0.013717
   2 O :   -0.225978
   3 C :    0.128686
   4 O :   -0.200438
   5 C :   -0.062727
   6 C :   -0.283759
   7 H :    0.137395
   8 C :    0.162759
   9 O :   -0.209362
  10 O :   -0.206909
  11 C :   -0.020473
  12 C :   -0.281711
  13 S :   -0.100327
  14 P :    0.600501
  15 S :   -0.298478
  16 O :   -0.384761
  17 C :   -0.102235
  18 O :   -0.365429
  19 C :   -0.122273
  20 H :    0.116476
  21 H :    0.129794
  22 H :    0.116793
  23 H :    0.114454
  24 H :    0.107268
  25 H :    0.131564
  26 H :    0.126253
  27 H :    0.104082
  28 H :    0.103725
  29 H :    0.099376
  30 H :    0.113159
  31 H :    0.126018
  32 H :    0.121698
  33 H :    0.128129
  34 H :    0.118597
  35 H :    0.125771
  36 H :    0.153240
  37 H :    0.119348
Sum of atomic charges:    0.0000000

LOEWDIN ATOMIC CHARGES
----------------------
   0 C :   -0.355488
   1 C :   -0.108602
   2 O :   -0.054050
   3 C :    0.046166
   4 O :   -0.149650
   5 C :   -0.250109
   6 C :   -0.261314
   7 H :    0.134641
   8 C :   -0.006276
   9 O :   -0.181399
  10 O :   -0.037463
  11 C :   -0.105559
  12 C :   -0.354136
  13 S :    0.091208
  14 P :    0.567451
  15 S :   -0.301496
  16 O :   -0.257699
  17 C :   -0.213520
  18 O :   -0.236374
  19 C :   -0.214590
  20 H :    0.126056
  21 H :    0.131753
  22 H :    0.132668
  23 H :    0.122612
  24 H :    0.120166
  25 H :    0.152563
  26 H :    0.143972
  27 H :    0.115108
  28 H :    0.117638
  29 H :    0.124040
  30 H :    0.125998
  31 H :    0.126261
  32 H :    0.113739
  33 H :    0.123867
  34 H :    0.111144
  35 H :    0.124051
  36 H :    0.124453
  37 H :    0.112167

  Mayer bond orders larger than 0.100000
B(  0-C ,  1-C ) :   1.1747 B(  0-C , 20-H ) :   0.9485 B(  0-C , 21-H ) :   0.9464
B(  0-C , 22-H ) :   0.9437 B(  1-C ,  2-O ) :   0.9076 B(  1-C , 23-H ) :   0.9149
B(  1-C , 24-H ) :   0.9367 B(  2-O ,  3-C ) :   1.2546 B(  3-C ,  4-O ) :   1.9902
B(  3-C ,  5-C ) :   1.0216 B(  5-C ,  6-C ) :   1.0455 B(  5-C , 25-H ) :   0.8649
B(  5-C , 26-H ) :   0.9018 B(  6-C ,  7-H ) :   0.8699 B(  6-C ,  8-C ) :   0.8827
B(  6-C , 13-S ) :   1.0232 B(  8-C ,  9-O ) :   2.0289 B(  8-C , 10-O ) :   1.2427
B( 10-O , 11-C ) :   0.9097 B( 11-C , 12-C ) :   1.1633 B( 11-C , 27-H ) :   0.9144
B( 11-C , 28-H ) :   0.9338 B( 12-C , 29-H ) :   0.9429 B( 12-C , 30-H ) :   0.9472
B( 12-C , 31-H ) :   0.9423 B( 13-S , 14-P ) :   0.9615 B( 13-S , 15-S ) :   0.1134
B( 14-P , 15-S ) :   1.6822 B( 14-P , 16-O ) :   1.0767 B( 14-P , 18-O ) :   1.1071
B( 16-O , 17-C ) :   0.9273 B( 17-C , 32-H ) :   0.9334 B( 17-C , 33-H ) :   0.9586
B( 17-C , 34-H ) :   0.9501 B( 18-O , 19-C ) :   0.9029 B( 19-C , 35-H ) :   0.9580
B( 19-C , 36-H ) :   0.9312 B( 19-C , 37-H ) :   0.9417

Dispersion correction           -0.052328781
FINAL SINGLE POINT ENERGY     -1979.020061913199

DIPOLE MOMENT
-------------

Method             : SCF
Type of density    : Electron Density
Multiplicity       :   1
Irrep              :   0
Energy             : -1979.1520109359830712 Eh
Relativity type    :
Basis              : AO
                                X                 Y                 Z
Electronic contribution:    -13.479571721       1.151628678      -3.078251340
Nuclear contribution   :     13.658710611      -2.172772811       2.700925808
                        -----------------------------------------
Total Dipole Moment    :      0.179138891      -1.021144132      -0.377325533
                        -----------------------------------------
Magnitude (a.u.)       :      1.103268163
Magnitude (Debye)      :      2.804284809

Rotational constants in cm-1:             0.016301             0.005797             0.005195
Rotational constants in MHz :           488.696944           173.794011           155.747821

                             ****ORCA TERMINATED NORMALLY****
TOTAL RUN TIME: 0 days 0 hours 0 minutes 32 seconds 339 msec
