                         Program Version 6.0.0  -   RELEASE  -
|  1> ! pbe def2-sv(p) def2/J RI DEFGRID1 loosescf d4 GCP(DFT/SV(P)) printgap
|  2> %output
|  3>     printlevel normal
|  4> end
|  5> * xyz 0 1
|  6> C 1.4035739854 2.2214732599 1.8533237197
|  7> C 2.673945617 2.1293876824 1.0321918184
|  8> O 2.6304903633 1.0438496905 0.0879411363
|  9> P 2.6871392727 -0.4694851314 0.5634167394
| 10> S 3.7359687949 -0.8462166771 2.1719904857
| 11> O 3.2641599891 -1.0551041002 -0.8004930248
| 12> C 3.9344407483 -2.3260453829 -0.8455714323
| 13> C 2.9831787208 -3.4857187641 -0.6234091651
| 14> S 0.6567460229 -1.108523798 0.5803226959
| 15> C 0.2029961047 -0.4780476114 -1.0680689207
| 16> S -0.6952518261 1.0862767098 -1.0132884657
| 17> P -2.6872119607 0.325863732 -0.8315590544
| 18> S -2.8921170515 -1.539557605 -1.3979218904
| 19> O -3.6116093871 1.2444230734 -1.7130743316
| 20> C -4.0230765511 2.5975355642 -1.3980500007
| 21> C -2.8563875465 3.5602409057 -1.339255987
| 22> O -3.162243765 0.7295306615 0.6355898697
| 23> C -2.4937085776 0.3695596929 1.8550424858
| 24> C -2.6541756295 -1.0984008686 2.193027629
| 25> H 1.2915496111 1.3225666863 2.4600152075
| 26> H 1.462384815 3.0839226066 2.5092925664
| 27> H 0.5425252592 2.3247276817 1.1975960864
| 28> H 3.5423060276 1.9874460644 1.6833718306
| 29> H 2.8155027884 3.012578386 0.4082284494
| 30> H 4.3783803939 -2.3539113786 -1.8418112921
| 31> H 4.7240599467 -2.3290860562 -0.0873768902
| 32> H 3.5213998784 -4.4192233687 -0.7532679147
| 33> H 2.5809349455 -3.4498141355 0.3887898224
| 34> H 2.1586429335 -3.4474530179 -1.3314683629
| 35> H -0.4430135969 -1.2284296046 -1.5291583035
| 36> H 1.1083052037 -0.3140649891 -1.6468453381
| 37> H -4.7055639358 2.8432211234 -2.2130786247
| 38> H -4.56601848 2.5778582332 -0.4515824638
| 39> H -2.202573791 3.3152654103 -0.5043665571
| 40> H -2.2792630326 3.5141682036 -2.2592230139
| 41> H -3.2355955851 4.5686039947 -1.2052420845
| 42> H -1.4343172657 0.6294122383 1.7702267847
| 43> H -2.9679465421 1.0033861487 2.6066380946
| 44> H -2.2159583845 -1.2903722854 3.1669801914
| 45> H -3.7064892796 -1.3698186325 2.2094686644
| 46> H -2.1459591889 -1.7168254227 1.4552701456
| 47> *
| 48>
| 49>                          ****END OF INPUT****

CARTESIAN COORDINATES (ANGSTROEM)
---------------------------------
  C      1.403574    2.221473    1.853324
  C      2.673946    2.129388    1.032192
  O      2.630490    1.043850    0.087941
  P      2.687139   -0.469485    0.563417
  S      3.735969   -0.846217    2.171990
  O      3.264160   -1.055104   -0.800493
  C      3.934441   -2.326045   -0.845571
  C      2.983179   -3.485719   -0.623409
  S      0.656746   -1.108524    0.580323
  C      0.202996   -0.478048   -1.068069
  S     -0.695252    1.086277   -1.013288
  P     -2.687212    0.325864   -0.831559
  S     -2.892117   -1.539558   -1.397922
  O     -3.611609    1.244423   -1.713074
  C     -4.023077    2.597536   -1.398050
  C     -2.856388    3.560241   -1.339256
  O     -3.162244    0.729531    0.635590
  C     -2.493709    0.369560    1.855042
  C     -2.654176   -1.098401    2.193028
  H      1.291550    1.322567    2.460015
  H      1.462385    3.083923    2.509293
  H      0.542525    2.324728    1.197596
  H      3.542306    1.987446    1.683372
  H      2.815503    3.012578    0.408228
  H      4.378380   -2.353911   -1.841811
  H      4.724060   -2.329086   -0.087377
  H      3.521400   -4.419223   -0.753268
  H      2.580935   -3.449814    0.388790
  H      2.158643   -3.447453   -1.331468
  H     -0.443014   -1.228430   -1.529158
  H      1.108305   -0.314065   -1.646845
  H     -4.705564    2.843221   -2.213079
  H     -4.566018    2.577858   -0.451582
  H     -2.202574    3.315265   -0.504367
  H     -2.279263    3.514168   -2.259223
  H     -3.235596    4.568604   -1.205242
  H     -1.434317    0.629412    1.770227
  H     -2.967947    1.003386    2.606638
  H     -2.215958   -1.290372    3.166980
  H     -3.706489   -1.369819    2.209469
  H     -2.145959   -1.716825    1.455270

 Total Charge           Charge          ....    0
 Multiplicity           Mult            ....    1
 Number of Electrons    NEL             ....  202
 Basis Dimension        Dim             ....  334

ORBITAL ENERGIES
----------------

  NO   OCC          E(Eh)            E(eV)
   0   2.0000     -88.048786     -2395.9293
   1   2.0000     -88.046221     -2395.8595
   2   2.0000     -87.993634     -2394.4285
   3   2.0000     -87.988819     -2394.2975
   4   2.0000     -76.431527     -2079.8076
   5   2.0000     -76.430590     -2079.7821
   6   2.0000     -18.798460      -511.5321
   7   2.0000     -18.796834      -511.4879
   8   2.0000     -18.793690      -511.4023
   9   2.0000     -18.793496      -511.3970
  10   2.0000      -9.962738      -271.0999
  11   2.0000      -9.956611      -270.9332
  12   2.0000      -9.954950      -270.8880
  13   2.0000      -9.954815      -270.8843
  14   2.0000      -9.954091      -270.8646
  15   2.0000      -9.897418      -269.3224
  16   2.0000      -9.884725      -268.9770
  17   2.0000      -9.884455      -268.9697
  18   2.0000      -9.880839      -268.8713
  19   2.0000      -7.693190      -209.3423
  20   2.0000      -7.690719      -209.2751
  21   2.0000      -7.638734      -207.8605
  22   2.0000      -7.633944      -207.7302
  23   2.0000      -6.428787      -174.9362
  24   2.0000      -6.428026      -174.9155
  25   2.0000      -5.720988      -155.6760
  26   2.0000      -5.718762      -155.6154
  27   2.0000      -5.717601      -155.5838
  28   2.0000      -5.715140      -155.5169
  29   2.0000      -5.710464      -155.3896
  30   2.0000      -5.707709      -155.3147
  31   2.0000      -5.667766      -154.2278
  32   2.0000      -5.663006      -154.0982
  33   2.0000      -5.659253      -153.9961
  34   2.0000      -5.658914      -153.9869
  35   2.0000      -5.654414      -153.8644
  36   2.0000      -5.654077      -153.8552
  37   2.0000      -4.651674      -126.5785
  38   2.0000      -4.650582      -126.5488
  39   2.0000      -4.650271      -126.5403
  40   2.0000      -4.650226      -126.5391
  41   2.0000      -4.648977      -126.5051
  42   2.0000      -4.648391      -126.4891
  43   2.0000      -0.993343       -27.0302
  44   2.0000      -0.991431       -26.9782
  45   2.0000      -0.948645       -25.8140
  46   2.0000      -0.948278       -25.8040
  47   2.0000      -0.764930       -20.8148
  48   2.0000      -0.725933       -19.7537
  49   2.0000      -0.714907       -19.4536
  50   2.0000      -0.694835       -18.9074
  51   2.0000      -0.684631       -18.6297
  52   2.0000      -0.681689       -18.5497
  53   2.0000      -0.659065       -17.9341
  54   2.0000      -0.641934       -17.4679
  55   2.0000      -0.602579       -16.3970
  56   2.0000      -0.596275       -16.2255
  57   2.0000      -0.584202       -15.8969
  58   2.0000      -0.571810       -15.5597
  59   2.0000      -0.564462       -15.3598
  60   2.0000      -0.503084       -13.6896
  61   2.0000      -0.497331       -13.5331
  62   2.0000      -0.478788       -13.0285
  63   2.0000      -0.469291       -12.7701
  64   2.0000      -0.461571       -12.5600
  65   2.0000      -0.451618       -12.2892
  66   2.0000      -0.448374       -12.2009
  67   2.0000      -0.439517       -11.9599
  68   2.0000      -0.431226       -11.7343
  69   2.0000      -0.424737       -11.5577
  70   2.0000      -0.413428       -11.2499
  71   2.0000      -0.406029       -11.0486
  72   2.0000      -0.401133       -10.9154
  73   2.0000      -0.394320       -10.7300
  74   2.0000      -0.391101       -10.6424
  75   2.0000      -0.374859       -10.2004
  76   2.0000      -0.368878       -10.0377
  77   2.0000      -0.360490        -9.8094
  78   2.0000      -0.356940        -9.7128
  79   2.0000      -0.353992        -9.6326
  80   2.0000      -0.351182        -9.5562
  81   2.0000      -0.346233        -9.4215
  82   2.0000      -0.341679        -9.2976
  83   2.0000      -0.339606        -9.2411
  84   2.0000      -0.333564        -9.0767
  85   2.0000      -0.325547        -8.8586
  86   2.0000      -0.318585        -8.6691
  87   2.0000      -0.304157        -8.2765
  88   2.0000      -0.301190        -8.1958
  89   2.0000      -0.295747        -8.0477
  90   2.0000      -0.291119        -7.9218
  91   2.0000      -0.281475        -7.6593
  92   2.0000      -0.271246        -7.3810
  93   2.0000      -0.266542        -7.2530
  94   2.0000      -0.263539        -7.1713
  95   2.0000      -0.237683        -6.4677
  96   2.0000      -0.221945        -6.0394
  97   2.0000      -0.212552        -5.7838
  98   2.0000      -0.210613        -5.7311
  99   2.0000      -0.206812        -5.6277
 100   2.0000      -0.201662        -5.4875
 101   0.0000      -0.044353        -1.2069
 102   0.0000      -0.037428        -1.0185
 103   0.0000      -0.019977        -0.5436
 104   0.0000       0.002251         0.0612
 105   0.0000       0.005335         0.1452

MULLIKEN ATOMIC CHARGES
-----------------------
   0 C :   -0.347169
   1 C :    0.004236
   2 O :   -0.369440
   3 P :    0.575183
   4 S :   -0.313018
   5 O :   -0.367338
   6 C :   -0.004277
   7 C :   -0.314444
   8 S :   -0.078377
   9 C :   -0.348091
  10 S :   -0.115607
  11 P :    0.612071
  12 S :   -0.301767
  13 O :   -0.358969
  14 C :    0.004908
  15 C :   -0.336025
  16 O :   -0.380969
  17 C :   -0.035078
  18 C :   -0.301899
  19 H :    0.129085
  20 H :    0.110097
  21 H :    0.141493
  22 H :    0.113080
  23 H :    0.106654
  24 H :    0.107901
  25 H :    0.113806
  26 H :    0.113803
  27 H :    0.128058
  28 H :    0.118301
  29 H :    0.197504
  30 H :    0.196441
  31 H :    0.114086
  32 H :    0.113349
  33 H :    0.130500
  34 H :    0.131284
  35 H :    0.120030
  36 H :    0.126149
  37 H :    0.103976
  38 H :    0.111350
  39 H :    0.118039
  40 H :    0.131081
Sum of atomic charges:    0.0000000

LOEWDIN ATOMIC CHARGES
----------------------
   0 C :   -0.377050
   1 C :   -0.116112
   2 O :   -0.242513
   3 P :    0.571725
   4 S :   -0.314163
   5 O :   -0.242000
   6 C :   -0.118520
   7 C :   -0.368130
   8 S :    0.090145
   9 C :   -0.488205
  10 S :    0.087469
  11 P :    0.568358
  12 S :   -0.293064
  13 O :   -0.234250
  14 C :   -0.108454
  15 C :   -0.371332
  16 O :   -0.246030
  17 C :   -0.122150
  18 C :   -0.366289
  19 H :    0.120473
  20 H :    0.130129
  21 H :    0.115608
  22 H :    0.111114
  23 H :    0.119961
  24 H :    0.119750
  25 H :    0.111359
  26 H :    0.131398
  27 H :    0.121893
  28 H :    0.125124
  29 H :    0.126452
  30 H :    0.136135
  31 H :    0.124560
  32 H :    0.116175
  33 H :    0.116896
  34 H :    0.130234
  35 H :    0.134902
  36 H :    0.104321
  37 H :    0.118409
  38 H :    0.131270
  39 H :    0.127982
  40 H :    0.116420

  Mayer bond orders larger than 0.100000
B(  0-C ,  1-C ) :   1.1626 B(  0-C , 19-H ) :   0.9333 B(  0-C , 20-H ) :   0.9351
B(  0-C , 21-H ) :   0.9261 B(  1-C ,  2-O ) :   0.9087 B(  1-C , 22-H ) :   0.9173
B(  1-C , 23-H ) :   0.9335 B(  2-O ,  3-P ) :   1.0971 B(  3-P ,  4-S ) :   1.6340
B(  3-P ,  5-O ) :   1.0878 B(  3-P ,  8-S ) :   0.9803 B(  5-O ,  6-C ) :   0.9092
B(  6-C ,  7-C ) :   1.1626 B(  6-C , 24-H ) :   0.9343 B(  6-C , 25-H ) :   0.9162
B(  7-C , 26-H ) :   0.9380 B(  7-C , 27-H ) :   0.9362 B(  7-C , 28-H ) :   0.9461
B(  8-S ,  9-C ) :   0.9742 B(  9-C , 10-S ) :   1.0098 B(  9-C , 29-H ) :   0.8496
B(  9-C , 30-H ) :   0.8838 B( 10-S , 11-P ) :   0.9330 B( 10-S , 12-S ) :   0.1166
B( 11-P , 12-S ) :   1.6502 B( 11-P , 13-O ) :   1.1475 B( 11-P , 16-O ) :   1.0719
B( 12-S , 29-H ) :   0.1153 B( 13-O , 14-C ) :   0.8986 B( 14-C , 15-C ) :   1.1691
B( 14-C , 31-H ) :   0.9335 B( 14-C , 32-H ) :   0.9268 B( 15-C , 33-H ) :   0.9332
B( 15-C , 34-H ) :   0.9422 B( 15-C , 35-H ) :   0.9353 B( 16-O , 17-C ) :   0.9106
B( 17-C , 18-C ) :   1.1677 B( 17-C , 36-H ) :   0.9048 B( 17-C , 37-H ) :   0.9341
B( 18-C , 38-H ) :   0.9370 B( 18-C , 39-H ) :   0.9450 B( 18-C , 40-H ) :   0.9279

Dispersion correction           -0.065060526
FINAL SINGLE POINT ENERGY     -2929.518128154961

DIPOLE MOMENT
-------------

Method             : SCF
Type of density    : Electron Density
Multiplicity       :   1
Irrep              :   0
Energy             : -2929.6395771959164449 Eh
Relativity type    :
Basis              : AO
                                X                 Y                 Z
Electronic contribution:      1.551095702      -6.586032425      -5.799796818
Nuclear contribution   :     -1.703125392       7.980299923       5.862682990
                        -----------------------------------------
Total Dipole Moment    :     -0.152029690       1.394267498       0.062886173
                        -----------------------------------------
Magnitude (a.u.)       :      1.403940723
Magnitude (Debye)      :      3.568533723

Rotational constants in cm-1:             0.012709             0.004572             0.004193
Rotational constants in MHz :           381.016071           137.063798           125.690465

                             ****ORCA TERMINATED NORMALLY****
TOTAL RUN TIME: 0 days 0 hours 0 minutes 21 seconds 202 msec
