                         Program Version 6.0.0  -   RELEASE  -
|  1> ! pbe def2-sv(p) def2/J RI DEFGRID1 loosescf d4 GCP(DFT/SV(P)) printgap
|  2> %output
|  3>     printlevel normal
|  4> end
|  5> * xyz 0 1
|  6> C 4.7503108515 -0.354467829 -1.8942995321
|  7> C 3.9532539015 -1.6064469184 -1.5919895181
|  8> O 3.2582739764 -1.5394350467 -0.3340001755
|  9> P 2.3121372831 -0.3576090481 0.1422367006
| 10> S 3.1545268486 1.2922337626 0.7971774759
| 11> O 1.434277915 -1.1080551643 1.2287892216
| 12> C 1.684460606 -0.9856221993 2.6434434683
| 13> C 2.9058311893 -1.7839408851 3.0460638566
| 14> S 0.932336516 -0.1410993048 -1.4537872004
| 15> C 0.1950853685 1.3973505203 -0.8424680972
| 16> S -0.8880940619 1.1383521089 0.5793438463
| 17> P -2.4977670754 0.2515645706 -0.5123363638
| 18> S -2.7672401887 0.9342277741 -2.3257717663
| 19> O -3.7538583885 0.3933889222 0.450146372
| 20> C -4.6140704104 1.5457718771 0.4316671885
| 21> C -3.9133365553 2.797427482 0.9193683954
| 22> O -2.2391747885 -1.3022924273 -0.5349552219
| 23> C -1.7384018174 -2.1484306077 0.5278684943
| 24> C -2.4479112778 -1.9326412379 1.8467611679
| 25> H 5.3201137937 -0.501424595 -2.8061832198
| 26> H 4.08085919 0.494401759 -2.0290149453
| 27> H 5.431405497 -0.1302609503 -1.0766408094
| 28> H 4.6034796008 -2.4759724599 -1.4797595836
| 29> H 3.2158003319 -1.7944402687 -2.3776245389
| 30> H 1.8129494442 0.0742058062 2.8857386639
| 31> H 0.7744421344 -1.3639040451 3.1104144046
| 32> H 2.7893945542 -2.8237270874 2.7530261144
| 33> H 3.7864117957 -1.3770294992 2.5498952527
| 34> H 3.0428047552 -1.7211308804 4.1208429176
| 35> H -0.3846392704 1.8149578535 -1.6665460007
| 36> H 0.9872806378 2.075245678 -0.522459704
| 37> H -4.9825413599 1.6855326615 -0.5894029935
| 38> H -5.4381551023 1.2641903274 1.0885799314
| 39> H -4.6376551343 3.6005292978 1.0096179648
| 40> H -3.4476449483 2.6209274246 1.8856524313
| 41> H -3.145237073 3.09631393 0.2077160387
| 42> H -1.9050710136 -3.1546464935 0.1397458533
| 43> H -0.6642696438 -1.9694560472 0.6253145483
| 44> H -2.2472337481 -0.9317580597 2.2249575347
| 45> H -3.5208784963 -2.0515160802 1.7208153598
| 46> H -2.0877883718 -2.663542862 2.5646661272
| 47> *
| 48>
| 49>                          ****END OF INPUT****

CARTESIAN COORDINATES (ANGSTROEM)
---------------------------------
  C      4.750311   -0.354468   -1.894300
  C      3.953254   -1.606447   -1.591990
  O      3.258274   -1.539435   -0.334000
  P      2.312137   -0.357609    0.142237
  S      3.154527    1.292234    0.797177
  O      1.434278   -1.108055    1.228789
  C      1.684461   -0.985622    2.643443
  C      2.905831   -1.783941    3.046064
  S      0.932337   -0.141099   -1.453787
  C      0.195085    1.397351   -0.842468
  S     -0.888094    1.138352    0.579344
  P     -2.497767    0.251565   -0.512336
  S     -2.767240    0.934228   -2.325772
  O     -3.753858    0.393389    0.450146
  C     -4.614070    1.545772    0.431667
  C     -3.913337    2.797427    0.919368
  O     -2.239175   -1.302292   -0.534955
  C     -1.738402   -2.148431    0.527868
  C     -2.447911   -1.932641    1.846761
  H      5.320114   -0.501425   -2.806183
  H      4.080859    0.494402   -2.029015
  H      5.431405   -0.130261   -1.076641
  H      4.603480   -2.475972   -1.479760
  H      3.215800   -1.794440   -2.377625
  H      1.812949    0.074206    2.885739
  H      0.774442   -1.363904    3.110414
  H      2.789395   -2.823727    2.753026
  H      3.786412   -1.377029    2.549895
  H      3.042805   -1.721131    4.120843
  H     -0.384639    1.814958   -1.666546
  H      0.987281    2.075246   -0.522460
  H     -4.982541    1.685533   -0.589403
  H     -5.438155    1.264190    1.088580
  H     -4.637655    3.600529    1.009618
  H     -3.447645    2.620927    1.885652
  H     -3.145237    3.096314    0.207716
  H     -1.905071   -3.154646    0.139746
  H     -0.664270   -1.969456    0.625315
  H     -2.247234   -0.931758    2.224958
  H     -3.520878   -2.051516    1.720815
  H     -2.087788   -2.663543    2.564666

 Total Charge           Charge          ....    0
 Multiplicity           Mult            ....    1
 Number of Electrons    NEL             ....  202
 Basis Dimension        Dim             ....  334

ORBITAL ENERGIES
----------------

  NO   OCC          E(Eh)            E(eV)
   0   2.0000     -88.046075     -2395.8555
   1   2.0000     -88.042967     -2395.7709
   2   2.0000     -87.992313     -2394.3926
   3   2.0000     -87.983169     -2394.1437
   4   2.0000     -76.431745     -2079.8135
   5   2.0000     -76.425928     -2079.6552
   6   2.0000     -18.798258      -511.5266
   7   2.0000     -18.794911      -511.4355
   8   2.0000     -18.793961      -511.4097
   9   2.0000     -18.787795      -511.2419
  10   2.0000      -9.962185      -271.0848
  11   2.0000      -9.954270      -270.8695
  12   2.0000      -9.952801      -270.8295
  13   2.0000      -9.952712      -270.8271
  14   2.0000      -9.949886      -270.7502
  15   2.0000      -9.887126      -269.0424
  16   2.0000      -9.886621      -269.0286
  17   2.0000      -9.886507      -269.0255
  18   2.0000      -9.883693      -268.9490
  19   2.0000      -7.691015      -209.2831
  20   2.0000      -7.687613      -209.1906
  21   2.0000      -7.637183      -207.8183
  22   2.0000      -7.628487      -207.5817
  23   2.0000      -6.429085      -174.9443
  24   2.0000      -6.423150      -174.7828
  25   2.0000      -5.718724      -155.6144
  26   2.0000      -5.715618      -155.5299
  27   2.0000      -5.715313      -155.5216
  28   2.0000      -5.712244      -155.4381
  29   2.0000      -5.708094      -155.3251
  30   2.0000      -5.704704      -155.2329
  31   2.0000      -5.666000      -154.1797
  32   2.0000      -5.657926      -153.9600
  33   2.0000      -5.657412      -153.9460
  34   2.0000      -5.657345      -153.9442
  35   2.0000      -5.649059      -153.7187
  36   2.0000      -5.648627      -153.7070
  37   2.0000      -4.651574      -126.5758
  38   2.0000      -4.651024      -126.5608
  39   2.0000      -4.649471      -126.5185
  40   2.0000      -4.645926      -126.4221
  41   2.0000      -4.644944      -126.3953
  42   2.0000      -4.643460      -126.3550
  43   2.0000      -0.992112       -26.9967
  44   2.0000      -0.985413       -26.8144
  45   2.0000      -0.950972       -25.8773
  46   2.0000      -0.943654       -25.6781
  47   2.0000      -0.766141       -20.8477
  48   2.0000      -0.722778       -19.6678
  49   2.0000      -0.711106       -19.3502
  50   2.0000      -0.691260       -18.8102
  51   2.0000      -0.689766       -18.7695
  52   2.0000      -0.678776       -18.4704
  53   2.0000      -0.654015       -17.7967
  54   2.0000      -0.638992       -17.3879
  55   2.0000      -0.603044       -16.4097
  56   2.0000      -0.596884       -16.2420
  57   2.0000      -0.578203       -15.7337
  58   2.0000      -0.575360       -15.6563
  59   2.0000      -0.562521       -15.3070
  60   2.0000      -0.501388       -13.6435
  61   2.0000      -0.489712       -13.3257
  62   2.0000      -0.474767       -12.9191
  63   2.0000      -0.469649       -12.7798
  64   2.0000      -0.464004       -12.6262
  65   2.0000      -0.445378       -12.1193
  66   2.0000      -0.442514       -12.0414
  67   2.0000      -0.441476       -12.0132
  68   2.0000      -0.431239       -11.7346
  69   2.0000      -0.422231       -11.4895
  70   2.0000      -0.414781       -11.2868
  71   2.0000      -0.397808       -10.8249
  72   2.0000      -0.395085       -10.7508
  73   2.0000      -0.390144       -10.6164
  74   2.0000      -0.381243       -10.3742
  75   2.0000      -0.377308       -10.2671
  76   2.0000      -0.369650       -10.0587
  77   2.0000      -0.363436        -9.8896
  78   2.0000      -0.352751        -9.5989
  79   2.0000      -0.351259        -9.5583
  80   2.0000      -0.350362        -9.5338
  81   2.0000      -0.347095        -9.4449
  82   2.0000      -0.345615        -9.4047
  83   2.0000      -0.342931        -9.3316
  84   2.0000      -0.336354        -9.1527
  85   2.0000      -0.322046        -8.7633
  86   2.0000      -0.311818        -8.4850
  87   2.0000      -0.300407        -8.1745
  88   2.0000      -0.293361        -7.9828
  89   2.0000      -0.291752        -7.9390
  90   2.0000      -0.291001        -7.9185
  91   2.0000      -0.280992        -7.6462
  92   2.0000      -0.269412        -7.3311
  93   2.0000      -0.263706        -7.1758
  94   2.0000      -0.260478        -7.0880
  95   2.0000      -0.236842        -6.4448
  96   2.0000      -0.219156        -5.9635
  97   2.0000      -0.212647        -5.7864
  98   2.0000      -0.205979        -5.6050
  99   2.0000      -0.201931        -5.4948
 100   2.0000      -0.199782        -5.4364
 101   0.0000      -0.046409        -1.2629
 102   0.0000      -0.027356        -0.7444
 103   0.0000      -0.007778        -0.2117
 104   0.0000      -0.001445        -0.0393
 105   0.0000       0.013782         0.3750

MULLIKEN ATOMIC CHARGES
-----------------------
   0 C :   -0.312869
   1 C :   -0.011917
   2 O :   -0.373312
   3 P :    0.613387
   4 S :   -0.329407
   5 O :   -0.357464
   6 C :   -0.008564
   7 C :   -0.301191
   8 S :   -0.076955
   9 C :   -0.369406
  10 S :   -0.098889
  11 P :    0.604982
  12 S :   -0.319891
  13 O :   -0.375923
  14 C :   -0.001911
  15 C :   -0.314893
  16 O :   -0.355546
  17 C :   -0.025430
  18 C :   -0.317146
  19 H :    0.114149
  20 H :    0.127394
  21 H :    0.126698
  22 H :    0.110867
  23 H :    0.117748
  24 H :    0.115379
  25 H :    0.102789
  26 H :    0.114503
  27 H :    0.123700
  28 H :    0.112515
  29 H :    0.195898
  30 H :    0.194018
  31 H :    0.114638
  32 H :    0.104342
  33 H :    0.113488
  34 H :    0.115234
  35 H :    0.127397
  36 H :    0.105901
  37 H :    0.141756
  38 H :    0.119209
  39 H :    0.122639
  40 H :    0.112081
Sum of atomic charges:   -0.0000000

LOEWDIN ATOMIC CHARGES
----------------------
   0 C :   -0.369879
   1 C :   -0.113079
   2 O :   -0.243260
   3 P :    0.574997
   4 S :   -0.313395
   5 O :   -0.234791
   6 C :   -0.120519
   7 C :   -0.362353
   8 S :    0.089341
   9 C :   -0.489008
  10 S :    0.076872
  11 P :    0.574988
  12 S :   -0.314338
  13 O :   -0.242533
  14 C :   -0.117462
  15 C :   -0.370335
  16 O :   -0.232833
  17 C :   -0.118721
  18 C :   -0.367911
  19 H :    0.131408
  20 H :    0.121959
  21 H :    0.129588
  22 H :    0.122341
  23 H :    0.112037
  24 H :    0.109716
  25 H :    0.115464
  26 H :    0.125545
  27 H :    0.124056
  28 H :    0.130623
  29 H :    0.128501
  30 H :    0.128186
  31 H :    0.113188
  32 H :    0.118401
  33 H :    0.131314
  34 H :    0.122756
  35 H :    0.121421
  36 H :    0.121663
  37 H :    0.112775
  38 H :    0.116085
  39 H :    0.127945
  40 H :    0.129247

  Mayer bond orders larger than 0.100000
B(  0-C ,  1-C ) :   1.1646 B(  0-C , 19-H ) :   0.9347 B(  0-C , 20-H ) :   0.9330
B(  0-C , 21-H ) :   0.9425 B(  1-C ,  2-O ) :   0.9110 B(  1-C , 22-H ) :   0.9340
B(  1-C , 23-H ) :   0.9285 B(  2-O ,  3-P ) :   1.1170 B(  3-P ,  4-S ) :   1.5940
B(  3-P ,  5-O ) :   1.1065 B(  3-P ,  8-S ) :   0.9566 B(  4-S ,  8-S ) :   0.1098
B(  5-O ,  6-C ) :   0.8971 B(  6-C ,  7-C ) :   1.1639 B(  6-C , 24-H ) :   0.9103
B(  6-C , 25-H ) :   0.9311 B(  7-C , 26-H ) :   0.9470 B(  7-C , 27-H ) :   0.9367
B(  7-C , 28-H ) :   0.9399 B(  8-S ,  9-C ) :   1.0040 B(  9-C , 10-S ) :   1.0098
B(  9-C , 29-H ) :   0.8660 B(  9-C , 30-H ) :   0.8686 B( 10-S , 11-P ) :   0.9327
B( 10-S , 12-S ) :   0.1080 B( 11-P , 12-S ) :   1.6189 B( 11-P , 13-O ) :   1.0921
B( 11-P , 16-O ) :   1.1571 B( 13-O , 14-C ) :   0.9063 B( 14-C , 15-C ) :   1.1651
B( 14-C , 31-H ) :   0.9164 B( 14-C , 32-H ) :   0.9340 B( 15-C , 33-H ) :   0.9374
B( 15-C , 34-H ) :   0.9448 B( 15-C , 35-H ) :   0.9348 B( 16-O , 17-C ) :   0.8921
B( 17-C , 18-C ) :   1.1728 B( 17-C , 36-H ) :   0.9329 B( 17-C , 37-H ) :   0.9005
B( 18-C , 38-H ) :   0.9371 B( 18-C , 39-H ) :   0.9415 B( 18-C , 40-H ) :   0.9347

Dispersion correction           -0.066374552
FINAL SINGLE POINT ENERGY     -2929.520483008791

DIPOLE MOMENT
-------------

Method             : SCF
Type of density    : Electron Density
Multiplicity       :   1
Irrep              :   0
Energy             : -2929.6403139538842879 Eh
Relativity type    :
Basis              : AO
                                X                 Y                 Z
Electronic contribution:     -3.098680318       5.051301386     -12.805418569
Nuclear contribution   :      3.308720852      -5.898397289      13.865018322
                        -----------------------------------------
Total Dipole Moment    :      0.210040534      -0.847095904       1.059599753
                        -----------------------------------------
Magnitude (a.u.)       :      1.372749115
Magnitude (Debye)      :      3.489250955

Rotational constants in cm-1:             0.013148             0.004828             0.004457
Rotational constants in MHz :           394.169952           144.737000           133.628342

                             ****ORCA TERMINATED NORMALLY****
TOTAL RUN TIME: 0 days 0 hours 0 minutes 21 seconds 408 msec
