                         Program Version 6.0.0  -   RELEASE  -
|  1> ! pbe def2-sv(p) def2/J RI DEFGRID1 loosescf d4 GCP(DFT/SV(P)) printgap
|  2> %output
|  3>     printlevel normal
|  4> end
|  5> * xyz 0 1
|  6> C 5.7633916401 0.9559509487 -0.9865251657
|  7> C 4.3998965572 0.3991050313 -1.341753956
|  8> O 3.5990723429 0.3983480696 -0.1417518421
|  9> P 2.0201854631 0.2411111898 -0.1983270119
| 10> S 1.0843013932 1.5058361504 -1.3647887111
| 11> O 1.6270600242 0.3886631184 1.3189042089
| 12> C 2.2983622781 -0.3792488564 2.3612839767
| 13> C 1.276036361 -0.7962072694 3.3973686499
| 14> S 1.7944767684 -1.812925904 -0.7050750985
| 15> C 0.0230357458 -1.7940839261 -1.0532648731
| 16> S -0.9780836174 -1.4802347346 0.4305731045
| 17> P -2.1319578086 0.1897732674 -0.2170413101
| 18> S -2.2922236882 0.4217900384 -2.1519194858
| 19> O -1.547880774 1.4838925338 0.4637886531
| 20> C -1.3923508982 1.6280812427 1.8961653442
| 21> C -2.4900128364 2.5058094606 2.4602929433
| 22> O -3.470346019 -0.0088249664 0.6205799159
| 23> C -4.2624566225 -1.2105509629 0.6729184611
| 24> C -4.71270995 -1.6822381065 -0.6934855844
| 25> H 6.3910008588 0.9507697159 -1.8715055994
| 26> H 5.6668501027 1.9745540071 -0.6214277377
| 27> H 6.2228814183 0.3458177425 -0.2145967808
| 28> H 4.4691496909 -0.6298540168 -1.7045125806
| 29> H 3.8960915313 1.012420193 -2.0960673635
| 30> H 2.7766949951 -1.2491126069 1.9031096878
| 31> H 3.0624080724 0.2738698996 2.7848299346
| 32> H 0.7962091477 0.0785592333 3.8264667481
| 33> H 0.518687704 -1.4322190279 2.9455991338
| 34> H 1.7813609905 -1.3487909047 4.1829315934
| 35> H -0.2204951827 -2.7856310907 -1.4265343275
| 36> H -0.2090612567 -1.0239494481 -1.7951663729
| 37> H -1.4001967357 0.6355113511 2.3554647737
| 38> H -0.406691289 2.0821983657 2.0212969487
| 39> H -2.3237636522 2.6439923784 3.5239961084
| 40> H -2.482032471 3.4730763061 1.9651915013
| 41> H -3.4594728126 2.0406219226 2.3021952769
| 42> H -3.6761603944 -1.9842868312 1.176112896
| 43> H -5.1134142756 -0.9266755377 1.2946970938
| 44> H -5.2354475054 -0.8852631697 -1.2169426056
| 45> H -3.8538949769 -1.9758607755 -1.2948866925
| 46> H -5.3752973683 -2.5340434488 -0.5792943771
| 47> *
| 48>
| 49>                          ****END OF INPUT****

CARTESIAN COORDINATES (ANGSTROEM)
---------------------------------
  C      5.763392    0.955951   -0.986525
  C      4.399897    0.399105   -1.341754
  O      3.599072    0.398348   -0.141752
  P      2.020185    0.241111   -0.198327
  S      1.084301    1.505836   -1.364789
  O      1.627060    0.388663    1.318904
  C      2.298362   -0.379249    2.361284
  C      1.276036   -0.796207    3.397369
  S      1.794477   -1.812926   -0.705075
  C      0.023036   -1.794084   -1.053265
  S     -0.978084   -1.480235    0.430573
  P     -2.131958    0.189773   -0.217041
  S     -2.292224    0.421790   -2.151919
  O     -1.547881    1.483893    0.463789
  C     -1.392351    1.628081    1.896165
  C     -2.490013    2.505809    2.460293
  O     -3.470346   -0.008825    0.620580
  C     -4.262457   -1.210551    0.672918
  C     -4.712710   -1.682238   -0.693486
  H      6.391001    0.950770   -1.871506
  H      5.666850    1.974554   -0.621428
  H      6.222881    0.345818   -0.214597
  H      4.469150   -0.629854   -1.704513
  H      3.896092    1.012420   -2.096067
  H      2.776695   -1.249113    1.903110
  H      3.062408    0.273870    2.784830
  H      0.796209    0.078559    3.826467
  H      0.518688   -1.432219    2.945599
  H      1.781361   -1.348791    4.182932
  H     -0.220495   -2.785631   -1.426534
  H     -0.209061   -1.023949   -1.795166
  H     -1.400197    0.635511    2.355465
  H     -0.406691    2.082198    2.021297
  H     -2.323764    2.643992    3.523996
  H     -2.482032    3.473076    1.965192
  H     -3.459473    2.040622    2.302195
  H     -3.676160   -1.984287    1.176113
  H     -5.113414   -0.926676    1.294697
  H     -5.235448   -0.885263   -1.216943
  H     -3.853895   -1.975861   -1.294887
  H     -5.375297   -2.534043   -0.579294

 Total Charge           Charge          ....    0
 Multiplicity           Mult            ....    1
 Number of Electrons    NEL             ....  202
 Basis Dimension        Dim             ....  334

ORBITAL ENERGIES
----------------

  NO   OCC          E(Eh)            E(eV)
   0   2.0000     -88.042931     -2395.7699
   1   2.0000     -88.041999     -2395.7446
   2   2.0000     -87.977675     -2393.9942
   3   2.0000     -87.975620     -2393.9383
   4   2.0000     -76.421758     -2079.5418
   5   2.0000     -76.420710     -2079.5132
   6   2.0000     -18.792955      -511.3823
   7   2.0000     -18.792686      -511.3750
   8   2.0000     -18.790977      -511.3285
   9   2.0000     -18.780239      -511.0363
  10   2.0000      -9.958309      -270.9794
  11   2.0000      -9.955064      -270.8911
  12   2.0000      -9.953621      -270.8518
  13   2.0000      -9.953377      -270.8452
  14   2.0000      -9.946476      -270.6574
  15   2.0000      -9.890828      -269.1431
  16   2.0000      -9.889425      -269.1049
  17   2.0000      -9.880317      -268.8571
  18   2.0000      -9.880164      -268.8529
  19   2.0000      -7.688129      -209.2046
  20   2.0000      -7.686513      -209.1606
  21   2.0000      -7.622619      -207.4220
  22   2.0000      -7.620925      -207.3759
  23   2.0000      -6.419473      -174.6827
  24   2.0000      -6.417785      -174.6368
  25   2.0000      -5.715897      -155.5375
  26   2.0000      -5.714277      -155.4934
  27   2.0000      -5.712433      -155.4432
  28   2.0000      -5.710881      -155.4010
  29   2.0000      -5.705433      -155.2527
  30   2.0000      -5.703801      -155.2083
  31   2.0000      -5.651684      -153.7901
  32   2.0000      -5.650129      -153.7478
  33   2.0000      -5.643132      -153.5574
  34   2.0000      -5.642762      -153.5474
  35   2.0000      -5.641486      -153.5126
  36   2.0000      -5.640796      -153.4939
  37   2.0000      -4.642332      -126.3243
  38   2.0000      -4.641338      -126.2972
  39   2.0000      -4.640526      -126.2751
  40   2.0000      -4.639800      -126.2554
  41   2.0000      -4.639486      -126.2468
  42   2.0000      -4.637937      -126.2047
  43   2.0000      -0.989180       -26.9169
  44   2.0000      -0.982846       -26.7446
  45   2.0000      -0.945034       -25.7157
  46   2.0000      -0.937298       -25.5052
  47   2.0000      -0.761330       -20.7168
  48   2.0000      -0.720262       -19.5993
  49   2.0000      -0.710211       -19.3258
  50   2.0000      -0.693731       -18.8774
  51   2.0000      -0.686533       -18.6815
  52   2.0000      -0.674574       -18.3561
  53   2.0000      -0.645425       -17.5629
  54   2.0000      -0.631841       -17.1933
  55   2.0000      -0.587637       -15.9904
  56   2.0000      -0.581970       -15.8362
  57   2.0000      -0.573354       -15.6018
  58   2.0000      -0.567885       -15.4529
  59   2.0000      -0.567163       -15.4333
  60   2.0000      -0.512903       -13.9568
  61   2.0000      -0.497703       -13.5432
  62   2.0000      -0.483195       -13.1484
  63   2.0000      -0.468991       -12.7619
  64   2.0000      -0.451089       -12.2748
  65   2.0000      -0.449433       -12.2297
  66   2.0000      -0.438244       -11.9252
  67   2.0000      -0.436531       -11.8786
  68   2.0000      -0.430364       -11.7108
  69   2.0000      -0.417583       -11.3630
  70   2.0000      -0.406327       -11.0567
  71   2.0000      -0.403823       -10.9886
  72   2.0000      -0.393099       -10.6968
  73   2.0000      -0.381460       -10.3800
  74   2.0000      -0.377504       -10.2724
  75   2.0000      -0.366637        -9.9767
  76   2.0000      -0.359639        -9.7863
  77   2.0000      -0.354725        -9.6526
  78   2.0000      -0.353499        -9.6192
  79   2.0000      -0.350451        -9.5363
  80   2.0000      -0.349042        -9.4979
  81   2.0000      -0.343475        -9.3464
  82   2.0000      -0.340448        -9.2640
  83   2.0000      -0.335242        -9.1224
  84   2.0000      -0.333844        -9.0843
  85   2.0000      -0.316388        -8.6094
  86   2.0000      -0.313503        -8.5309
  87   2.0000      -0.303207        -8.2507
  88   2.0000      -0.299960        -8.1623
  89   2.0000      -0.293019        -7.9735
  90   2.0000      -0.282335        -7.6827
  91   2.0000      -0.275422        -7.4946
  92   2.0000      -0.269787        -7.3413
  93   2.0000      -0.259471        -7.0606
  94   2.0000      -0.256278        -6.9737
  95   2.0000      -0.236084        -6.4242
  96   2.0000      -0.221133        -6.0173
  97   2.0000      -0.207638        -5.6501
  98   2.0000      -0.197316        -5.3692
  99   2.0000      -0.187825        -5.1110
 100   2.0000      -0.179509        -4.8847
 101   0.0000      -0.039632        -1.0784
 102   0.0000      -0.030833        -0.8390
 103   0.0000      -0.006635        -0.1805
 104   0.0000       0.010419         0.2835
 105   0.0000       0.020310         0.5527

MULLIKEN ATOMIC CHARGES
-----------------------
   0 C :   -0.280723
   1 C :   -0.009909
   2 O :   -0.386651
   3 P :    0.575900
   4 S :   -0.270188
   5 O :   -0.355456
   6 C :   -0.009690
   7 C :   -0.294228
   8 S :   -0.116027
   9 C :   -0.345032
  10 S :   -0.134921
  11 P :    0.601571
  12 S :   -0.287274
  13 O :   -0.337006
  14 C :   -0.021371
  15 C :   -0.281699
  16 O :   -0.383055
  17 C :   -0.006029
  18 C :   -0.304895
  19 H :    0.113561
  20 H :    0.121858
  21 H :    0.112890
  22 H :    0.103646
  23 H :    0.107266
  24 H :    0.102918
  25 H :    0.110692
  26 H :    0.118595
  27 H :    0.131414
  28 H :    0.110089
  29 H :    0.179762
  30 H :    0.211211
  31 H :    0.096247
  32 H :    0.117994
  33 H :    0.103193
  34 H :    0.122087
  35 H :    0.115999
  36 H :    0.107292
  37 H :    0.105228
  38 H :    0.126110
  39 H :    0.120696
  40 H :    0.107934
Sum of atomic charges:    0.0000000

LOEWDIN ATOMIC CHARGES
----------------------
   0 C :   -0.350530
   1 C :   -0.119520
   2 O :   -0.253980
   3 P :    0.553076
   4 S :   -0.281156
   5 O :   -0.235935
   6 C :   -0.112544
   7 C :   -0.356572
   8 S :    0.057515
   9 C :   -0.479681
  10 S :    0.058704
  11 P :    0.567915
  12 S :   -0.289993
  13 O :   -0.222665
  14 C :   -0.115399
  15 C :   -0.357694
  16 O :   -0.247336
  17 C :   -0.117322
  18 C :   -0.368657
  19 H :    0.131613
  20 H :    0.129646
  21 H :    0.125208
  22 H :    0.108746
  23 H :    0.110780
  24 H :    0.104560
  25 H :    0.118080
  26 H :    0.125453
  27 H :    0.121987
  28 H :    0.130168
  29 H :    0.135480
  30 H :    0.126649
  31 H :    0.100133
  32 H :    0.120002
  33 H :    0.126189
  34 H :    0.130000
  35 H :    0.124803
  36 H :    0.104719
  37 H :    0.118949
  38 H :    0.130450
  39 H :    0.119846
  40 H :    0.128316

  Mayer bond orders larger than 0.100000
B(  0-C ,  1-C ) :   1.1601 B(  0-C , 19-H ) :   0.9418 B(  0-C , 20-H ) :   0.9508
B(  0-C , 21-H ) :   0.9511 B(  1-C ,  2-O ) :   0.9043 B(  1-C , 22-H ) :   0.9294
B(  1-C , 23-H ) :   0.9095 B(  2-O ,  3-P ) :   1.0769 B(  3-P ,  4-S ) :   1.6972
B(  3-P ,  5-O ) :   1.1234 B(  3-P ,  8-S ) :   0.9354 B(  4-S ,  8-S ) :   0.1089
B(  5-O ,  6-C ) :   0.8838 B(  6-C ,  7-C ) :   1.1672 B(  6-C , 24-H ) :   0.9106
B(  6-C , 25-H ) :   0.9341 B(  7-C , 26-H ) :   0.9449 B(  7-C , 27-H ) :   0.9368
B(  7-C , 28-H ) :   0.9385 B(  8-S ,  9-C ) :   1.0031 B(  9-C , 10-S ) :   0.9938
B(  9-C , 29-H ) :   0.9113 B(  9-C , 30-H ) :   0.8417 B( 10-S , 11-P ) :   0.9355
B( 10-S , 12-S ) :   0.1148 B( 11-P , 12-S ) :   1.6479 B( 11-P , 13-O ) :   1.1452
B( 11-P , 16-O ) :   1.0690 B( 13-O , 14-C ) :   0.8956 B( 14-C , 15-C ) :   1.1586
B( 14-C , 31-H ) :   0.9131 B( 14-C , 32-H ) :   0.9268 B( 15-C , 33-H ) :   0.9411
B( 15-C , 34-H ) :   0.9468 B( 15-C , 35-H ) :   0.9432 B( 16-O , 17-C ) :   0.9161
B( 17-C , 18-C ) :   1.1673 B( 17-C , 36-H ) :   0.9235 B( 17-C , 37-H ) :   0.9331
B( 18-C , 38-H ) :   0.9439 B( 18-C , 39-H ) :   0.9331 B( 18-C , 40-H ) :   0.9350

Dispersion correction           -0.066421347
FINAL SINGLE POINT ENERGY     -2929.515717370984

DIPOLE MOMENT
-------------

Method             : SCF
Type of density    : Electron Density
Multiplicity       :   1
Irrep              :   0
Energy             : -2929.6348185622682649 Eh
Relativity type    :
Basis              : AO
                                X                 Y                 Z
Electronic contribution:     -1.159140889       0.363373139     -15.146391947
Nuclear contribution   :      1.826827029      -1.498093928      16.895750136
                        -----------------------------------------
Total Dipole Moment    :      0.667686140      -1.134720790       1.749358188
                        -----------------------------------------
Magnitude (a.u.)       :      2.189440596
Magnitude (Debye)      :      5.565115728

Rotational constants in cm-1:             0.012705             0.005155             0.004865
Rotational constants in MHz :           380.871825           154.534241           145.851824

                             ****ORCA TERMINATED NORMALLY****
TOTAL RUN TIME: 0 days 0 hours 0 minutes 21 seconds 462 msec
