                         Program Version 6.0.0  -   RELEASE  -
|  1> ! r2scan-3c def2/J RI DEFGRID2 scfconv6 printgap
|  2> %output
|  3>     printlevel normal
|  4> end
|  5> * xyz 0 1
|  6> C 5.8185932313 -0.2993752642 0.3798824924
|  7> C 4.5116210479 -0.6488943853 -0.3025464801
|  8> O 3.4530226282 0.0503658306 0.3814317882
|  9> P 2.0136234593 0.2207011378 -0.2719459354
| 10> S 2.0411731874 0.8565026241 -2.1302961319
| 11> O 1.2939002618 1.109892272 0.818236429
| 12> C 1.3057457686 2.5506721863 0.7716127834
| 13> C 2.6983942009 3.1115043031 0.9587757181
| 14> S 1.1766664975 -1.6815480001 0.0561029098
| 15> C 0.0004182906 -1.7901393 -1.3359292176
| 16> S -1.7049974036 -2.0060657183 -0.7874578879
| 17> P -1.9879732262 -0.068745052 0.0455817782
| 18> S -1.403514482 1.417317749 -1.0849669361
| 19> O -1.2970016857 -0.0582631243 1.4571354785
| 20> C -1.5530195205 -1.0469508405 2.4891939833
| 21> C -2.6039395597 -0.5499559803 3.459142931
| 22> O -3.5337756896 -0.0839565121 0.4019124488
| 23> C -4.5394851225 -0.0446694686 -0.6325894154
| 24> C -5.8657389423 0.2819982832 0.0228111095
| 25> H 6.0073096977 0.7678196175 0.3056604058
| 26> H 5.772985699 -0.5772385127 1.4287671826
| 27> H 6.6263010926 -0.8402423197 -0.1019784859
| 28> H 4.3055672234 -1.7212562749 -0.2445580972
| 29> H 4.5088492701 -0.3407100066 -1.353624283
| 30> H 0.8780672864 2.8692481161 -0.1851555355
| 31> H 0.6325452796 2.8382650021 1.5806958509
| 32> H 3.3239447912 2.8322989898 0.1115204373
| 33> H 2.6433942452 4.1941748839 1.0152637509
| 34> H 3.1413379687 2.7189334944 1.8703302284
| 35> H 0.2474810648 -2.6750182404 -1.9165468409
| 36> H 0.0888229049 -0.8832390371 -1.9411160965
| 37> H -1.8606279417 -1.9829862802 2.0145557995
| 38> H -0.584995709 -1.1827833749 2.9756158736
| 39> H -2.2941342586 0.3963005928 3.8939069984
| 40> H -3.5512781979 -0.4068675777 2.9465638339
| 41> H -2.729574618 -1.2838106201 4.2490720925
| 42> H -4.2534819612 0.7161261973 -1.3661189805
| 43> H -4.5628805591 -1.0221929237 -1.1212740671
| 44> H -6.1197610854 -0.4824073301 0.7512542648
| 45> H -5.807313823 1.2440617169 0.5240904174
| 46> H -6.637266349 0.3221471566 -0.7388993431
| 47> *
| 48>
| 49>                          ****END OF INPUT****

CARTESIAN COORDINATES (ANGSTROEM)
---------------------------------
  C      5.818593   -0.299375    0.379882
  C      4.511621   -0.648894   -0.302546
  O      3.453023    0.050366    0.381432
  P      2.013623    0.220701   -0.271946
  S      2.041173    0.856503   -2.130296
  O      1.293900    1.109892    0.818236
  C      1.305746    2.550672    0.771613
  C      2.698394    3.111504    0.958776
  S      1.176666   -1.681548    0.056103
  C      0.000418   -1.790139   -1.335929
  S     -1.704997   -2.006066   -0.787458
  P     -1.987973   -0.068745    0.045582
  S     -1.403514    1.417318   -1.084967
  O     -1.297002   -0.058263    1.457135
  C     -1.553020   -1.046951    2.489194
  C     -2.603940   -0.549956    3.459143
  O     -3.533776   -0.083957    0.401912
  C     -4.539485   -0.044669   -0.632589
  C     -5.865739    0.281998    0.022811
  H      6.007310    0.767820    0.305660
  H      5.772986   -0.577239    1.428767
  H      6.626301   -0.840242   -0.101978
  H      4.305567   -1.721256   -0.244558
  H      4.508849   -0.340710   -1.353624
  H      0.878067    2.869248   -0.185156
  H      0.632545    2.838265    1.580696
  H      3.323945    2.832299    0.111520
  H      2.643394    4.194175    1.015264
  H      3.141338    2.718933    1.870330
  H      0.247481   -2.675018   -1.916547
  H      0.088823   -0.883239   -1.941116
  H     -1.860628   -1.982986    2.014556
  H     -0.584996   -1.182783    2.975616
  H     -2.294134    0.396301    3.893907
  H     -3.551278   -0.406868    2.946564
  H     -2.729575   -1.283811    4.249072
  H     -4.253482    0.716126   -1.366119
  H     -4.562881   -1.022193   -1.121274
  H     -6.119761   -0.482407    0.751254
  H     -5.807314    1.244062    0.524090
  H     -6.637266    0.322147   -0.738899

 Total Charge           Charge          ....    0
 Multiplicity           Mult            ....    1
 Number of Electrons    NEL             ....  202
 Basis Dimension        Dim             ....  539

ORBITAL ENERGIES
----------------

  NO   OCC          E(Eh)            E(eV)
   0   2.0000     -88.575068     -2410.2501
   1   2.0000     -88.572194     -2410.1719
   2   2.0000     -88.512267     -2408.5412
   3   2.0000     -88.511897     -2408.5312
   4   2.0000     -76.910573     -2092.8431
   5   2.0000     -76.906646     -2092.7362
   6   2.0000     -18.993696      -516.8447
   7   2.0000     -18.989626      -516.7340
   8   2.0000     -18.985178      -516.6130
   9   2.0000     -18.979535      -516.4594
  10   2.0000     -10.104670      -274.9620
  11   2.0000     -10.100626      -274.8520
  12   2.0000     -10.099504      -274.8215
  13   2.0000     -10.092631      -274.6345
  14   2.0000     -10.084939      -274.4252
  15   2.0000     -10.035463      -273.0788
  16   2.0000     -10.030409      -272.9413
  17   2.0000     -10.029785      -272.9243
  18   2.0000     -10.019702      -272.6499
  19   2.0000      -7.869602      -214.1427
  20   2.0000      -7.866773      -214.0658
  21   2.0000      -7.807103      -212.4421
  22   2.0000      -7.806624      -212.4290
  23   2.0000      -6.589149      -179.2998
  24   2.0000      -6.585171      -179.1916
  25   2.0000      -5.816383      -158.2718
  26   2.0000      -5.813561      -158.1950
  27   2.0000      -5.813257      -158.1868
  28   2.0000      -5.810632      -158.1153
  29   2.0000      -5.806969      -158.0157
  30   2.0000      -5.803918      -157.9326
  31   2.0000      -5.754893      -156.5986
  32   2.0000      -5.754274      -156.5818
  33   2.0000      -5.747280      -156.3914
  34   2.0000      -5.747127      -156.3873
  35   2.0000      -5.747056      -156.3853
  36   2.0000      -5.746409      -156.3677
  37   2.0000      -4.734972      -128.8451
  38   2.0000      -4.734282      -128.8264
  39   2.0000      -4.732366      -128.7742
  40   2.0000      -4.730477      -128.7228
  41   2.0000      -4.730046      -128.7111
  42   2.0000      -4.729120      -128.6859
  43   2.0000      -1.051172       -28.6038
  44   2.0000      -1.042152       -28.3584
  45   2.0000      -1.010622       -27.5004
  46   2.0000      -1.001932       -27.2640
  47   2.0000      -0.798276       -21.7222
  48   2.0000      -0.758078       -20.6283
  49   2.0000      -0.747899       -20.3514
  50   2.0000      -0.737065       -20.0566
  51   2.0000      -0.725653       -19.7460
  52   2.0000      -0.706954       -19.2372
  53   2.0000      -0.680601       -18.5201
  54   2.0000      -0.660696       -17.9785
  55   2.0000      -0.624717       -16.9994
  56   2.0000      -0.618677       -16.8351
  57   2.0000      -0.603695       -16.4274
  58   2.0000      -0.596962       -16.2442
  59   2.0000      -0.590468       -16.0674
  60   2.0000      -0.533377       -14.5139
  61   2.0000      -0.520059       -14.1515
  62   2.0000      -0.500196       -13.6110
  63   2.0000      -0.486670       -13.2430
  64   2.0000      -0.465471       -12.6661
  65   2.0000      -0.464794       -12.6477
  66   2.0000      -0.457854       -12.4588
  67   2.0000      -0.449707       -12.2372
  68   2.0000      -0.444902       -12.1064
  69   2.0000      -0.432536       -11.7699
  70   2.0000      -0.421926       -11.4812
  71   2.0000      -0.410194       -11.1620
  72   2.0000      -0.404443       -11.0055
  73   2.0000      -0.398497       -10.8437
  74   2.0000      -0.394970       -10.7477
  75   2.0000      -0.384981       -10.4759
  76   2.0000      -0.379061       -10.3148
  77   2.0000      -0.371946       -10.1212
  78   2.0000      -0.369121       -10.0443
  79   2.0000      -0.367823       -10.0090
  80   2.0000      -0.360509        -9.8099
  81   2.0000      -0.356307        -9.6956
  82   2.0000      -0.352009        -9.5787
  83   2.0000      -0.351031        -9.5520
  84   2.0000      -0.345254        -9.3948
  85   2.0000      -0.330407        -8.9908
  86   2.0000      -0.320866        -8.7312
  87   2.0000      -0.316252        -8.6057
  88   2.0000      -0.310410        -8.4467
  89   2.0000      -0.306178        -8.3315
  90   2.0000      -0.291499        -7.9321
  91   2.0000      -0.287384        -7.8201
  92   2.0000      -0.278238        -7.5712
  93   2.0000      -0.274841        -7.4788
  94   2.0000      -0.269267        -7.3271
  95   2.0000      -0.248634        -6.7657
  96   2.0000      -0.232684        -6.3317
  97   2.0000      -0.225773        -6.1436
  98   2.0000      -0.213753        -5.8165
  99   2.0000      -0.203393        -5.5346
 100   2.0000      -0.195957        -5.3322
 101   0.0000      -0.040439        -1.1004
 102   0.0000      -0.028866        -0.7855
 103   0.0000      -0.004900        -0.1333
 104   0.0000       0.016865         0.4589
 105   0.0000       0.019252         0.5239

MULLIKEN ATOMIC CHARGES
-----------------------
   0 C :   -0.441716
   1 C :   -0.161144
   2 O :   -0.279465
   3 P :    0.672766
   4 S :   -0.468450
   5 O :   -0.270698
   6 C :   -0.151092
   7 C :   -0.452548
   8 S :   -0.152842
   9 C :   -0.213891
  10 S :   -0.179193
  11 P :    0.675098
  12 S :   -0.420611
  13 O :   -0.257991
  14 C :   -0.113699
  15 C :   -0.459717
  16 O :   -0.295708
  17 C :   -0.160512
  18 C :   -0.441271
  19 H :    0.154720
  20 H :    0.152546
  21 H :    0.145810
  22 H :    0.151308
  23 H :    0.172332
  24 H :    0.182179
  25 H :    0.154122
  26 H :    0.168839
  27 H :    0.146069
  28 H :    0.153991
  29 H :    0.194897
  30 H :    0.219409
  31 H :    0.163490
  32 H :    0.163897
  33 H :    0.156037
  34 H :    0.165435
  35 H :    0.146152
  36 H :    0.173813
  37 H :    0.149189
  38 H :    0.150412
  39 H :    0.159908
  40 H :    0.148129
Sum of atomic charges:   -0.0000000

LOEWDIN ATOMIC CHARGES
----------------------
   0 C :   -0.386743
   1 C :    0.015490
   2 O :   -0.671632
   3 P :    0.369245
   4 S :   -0.129898
   5 O :   -0.661433
   6 C :    0.014064
   7 C :   -0.402035
   8 S :    0.167969
   9 C :   -0.412766
  10 S :    0.118324
  11 P :    0.374366
  12 S :   -0.072559
  13 O :   -0.651042
  14 C :    0.018851
  15 C :   -0.393637
  16 O :   -0.675969
  17 C :    0.019725
  18 C :   -0.386172
  19 H :    0.159884
  20 H :    0.159300
  21 H :    0.159231
  22 H :    0.171403
  23 H :    0.180646
  24 H :    0.184867
  25 H :    0.182655
  26 H :    0.165188
  27 H :    0.158732
  28 H :    0.159974
  29 H :    0.180241
  30 H :    0.202703
  31 H :    0.177099
  32 H :    0.183326
  33 H :    0.160781
  34 H :    0.166397
  35 H :    0.158475
  36 H :    0.182253
  37 H :    0.171565
  38 H :    0.158022
  39 H :    0.162341
  40 H :    0.160772

  Mayer bond orders larger than 0.100000
B(  0-C ,  1-C ) :   0.9538 B(  0-C , 19-H ) :   0.9718 B(  0-C , 20-H ) :   0.9720
B(  0-C , 21-H ) :   0.9654 B(  1-C ,  2-O ) :   0.7892 B(  1-C , 22-H ) :   0.9463
B(  1-C , 23-H ) :   0.9499 B(  2-O ,  3-P ) :   1.0773 B(  3-P ,  4-S ) :   1.7460
B(  3-P ,  5-O ) :   1.1925 B(  3-P ,  8-S ) :   1.0905 B(  5-O ,  6-C ) :   0.8035
B(  6-C ,  7-C ) :   0.9105 B(  6-C , 24-H ) :   0.9629 B(  6-C , 25-H ) :   0.9619
B(  7-C , 26-H ) :   0.9625 B(  7-C , 27-H ) :   0.9609 B(  7-C , 28-H ) :   0.9720
B(  8-S ,  9-C ) :   0.9009 B(  9-C , 10-S ) :   0.9203 B(  9-C , 29-H ) :   0.9143
B(  9-C , 30-H ) :   0.9052 B( 10-S , 11-P ) :   0.9934 B( 11-P , 12-S ) :   1.8374
B( 11-P , 13-O ) :   1.1401 B( 11-P , 16-O ) :   1.0542 B( 13-O , 14-C ) :   0.7386
B( 14-C , 15-C ) :   0.9364 B( 14-C , 31-H ) :   0.9643 B( 14-C , 32-H ) :   0.9614
B( 15-C , 33-H ) :   0.9733 B( 15-C , 34-H ) :   0.9659 B( 15-C , 35-H ) :   0.9664
B( 16-O , 17-C ) :   0.7898 B( 17-C , 18-C ) :   0.9567 B( 17-C , 36-H ) :   0.9497
B( 17-C , 37-H ) :   0.9423 B( 18-C , 38-H ) :   0.9717 B( 18-C , 39-H ) :   0.9712
B( 18-C , 40-H ) :   0.9632

Dispersion correction           -0.021564167
FINAL SINGLE POINT ENERGY     -2932.460798795659

DIPOLE MOMENT
-------------

Method             : SCF
Type of density    : Electron Density
Multiplicity       :   1
Irrep              :   0
Energy             : -2932.4857278026915992 Eh
Relativity type    :
Basis              : AO
                                X                 Y                 Z
Electronic contribution:     -0.166396530      -5.885932184     -12.944170540
Nuclear contribution   :     -0.238140003       5.080758781      14.151074352
                        -----------------------------------------
Total Dipole Moment    :     -0.404536533      -0.805173403       1.206903811
                        -----------------------------------------
Magnitude (a.u.)       :      1.506177554
Magnitude (Debye)      :      3.828399095

Rotational constants in cm-1:             0.013745             0.004760             0.004686
Rotational constants in MHz :           412.078999           142.692821           140.493680

                             ****ORCA TERMINATED NORMALLY****
TOTAL RUN TIME: 0 days 0 hours 1 minutes 20 seconds 555 msec
