                         Program Version 6.0.0  -   RELEASE  -
|  1> ! r2scan-3c def2/J RI DEFGRID2 scfconv6 printgap
|  2> %output
|  3>     printlevel normal
|  4> end
|  5> %cpcm
|  6>     smd true
|  7>     smdsolvent "water"
|  8> end
|  9> * xyz 0 1
| 10> C 5.8185932313 -0.2993752642 0.3798824924
| 11> C 4.5116210479 -0.6488943853 -0.3025464801
| 12> O 3.4530226282 0.0503658306 0.3814317882
| 13> P 2.0136234593 0.2207011378 -0.2719459354
| 14> S 2.0411731874 0.8565026241 -2.1302961319
| 15> O 1.2939002618 1.109892272 0.818236429
| 16> C 1.3057457686 2.5506721863 0.7716127834
| 17> C 2.6983942009 3.1115043031 0.9587757181
| 18> S 1.1766664975 -1.6815480001 0.0561029098
| 19> C 0.0004182906 -1.7901393 -1.3359292176
| 20> S -1.7049974036 -2.0060657183 -0.7874578879
| 21> P -1.9879732262 -0.068745052 0.0455817782
| 22> S -1.403514482 1.417317749 -1.0849669361
| 23> O -1.2970016857 -0.0582631243 1.4571354785
| 24> C -1.5530195205 -1.0469508405 2.4891939833
| 25> C -2.6039395597 -0.5499559803 3.459142931
| 26> O -3.5337756896 -0.0839565121 0.4019124488
| 27> C -4.5394851225 -0.0446694686 -0.6325894154
| 28> C -5.8657389423 0.2819982832 0.0228111095
| 29> H 6.0073096977 0.7678196175 0.3056604058
| 30> H 5.772985699 -0.5772385127 1.4287671826
| 31> H 6.6263010926 -0.8402423197 -0.1019784859
| 32> H 4.3055672234 -1.7212562749 -0.2445580972
| 33> H 4.5088492701 -0.3407100066 -1.353624283
| 34> H 0.8780672864 2.8692481161 -0.1851555355
| 35> H 0.6325452796 2.8382650021 1.5806958509
| 36> H 3.3239447912 2.8322989898 0.1115204373
| 37> H 2.6433942452 4.1941748839 1.0152637509
| 38> H 3.1413379687 2.7189334944 1.8703302284
| 39> H 0.2474810648 -2.6750182404 -1.9165468409
| 40> H 0.0888229049 -0.8832390371 -1.9411160965
| 41> H -1.8606279417 -1.9829862802 2.0145557995
| 42> H -0.584995709 -1.1827833749 2.9756158736
| 43> H -2.2941342586 0.3963005928 3.8939069984
| 44> H -3.5512781979 -0.4068675777 2.9465638339
| 45> H -2.729574618 -1.2838106201 4.2490720925
| 46> H -4.2534819612 0.7161261973 -1.3661189805
| 47> H -4.5628805591 -1.0221929237 -1.1212740671
| 48> H -6.1197610854 -0.4824073301 0.7512542648
| 49> H -5.807313823 1.2440617169 0.5240904174
| 50> H -6.637266349 0.3221471566 -0.7388993431
| 51> *
| 52>
| 53>                          ****END OF INPUT****

CARTESIAN COORDINATES (ANGSTROEM)
---------------------------------
  C      5.818593   -0.299375    0.379882
  C      4.511621   -0.648894   -0.302546
  O      3.453023    0.050366    0.381432
  P      2.013623    0.220701   -0.271946
  S      2.041173    0.856503   -2.130296
  O      1.293900    1.109892    0.818236
  C      1.305746    2.550672    0.771613
  C      2.698394    3.111504    0.958776
  S      1.176666   -1.681548    0.056103
  C      0.000418   -1.790139   -1.335929
  S     -1.704997   -2.006066   -0.787458
  P     -1.987973   -0.068745    0.045582
  S     -1.403514    1.417318   -1.084967
  O     -1.297002   -0.058263    1.457135
  C     -1.553020   -1.046951    2.489194
  C     -2.603940   -0.549956    3.459143
  O     -3.533776   -0.083957    0.401912
  C     -4.539485   -0.044669   -0.632589
  C     -5.865739    0.281998    0.022811
  H      6.007310    0.767820    0.305660
  H      5.772986   -0.577239    1.428767
  H      6.626301   -0.840242   -0.101978
  H      4.305567   -1.721256   -0.244558
  H      4.508849   -0.340710   -1.353624
  H      0.878067    2.869248   -0.185156
  H      0.632545    2.838265    1.580696
  H      3.323945    2.832299    0.111520
  H      2.643394    4.194175    1.015264
  H      3.141338    2.718933    1.870330
  H      0.247481   -2.675018   -1.916547
  H      0.088823   -0.883239   -1.941116
  H     -1.860628   -1.982986    2.014556
  H     -0.584996   -1.182783    2.975616
  H     -2.294134    0.396301    3.893907
  H     -3.551278   -0.406868    2.946564
  H     -2.729575   -1.283811    4.249072
  H     -4.253482    0.716126   -1.366119
  H     -4.562881   -1.022193   -1.121274
  H     -6.119761   -0.482407    0.751254
  H     -5.807314    1.244062    0.524090
  H     -6.637266    0.322147   -0.738899

 Total Charge           Charge          ....    0
 Multiplicity           Mult            ....    1
 Number of Electrons    NEL             ....  202
 Basis Dimension        Dim             ....  539

ORBITAL ENERGIES
----------------

  NO   OCC          E(Eh)            E(eV)
   0   2.0000     -88.579199     -2410.3625
   1   2.0000     -88.578521     -2410.3441
   2   2.0000     -88.524692     -2408.8793
   3   2.0000     -88.523598     -2408.8496
   4   2.0000     -76.917660     -2093.0359
   5   2.0000     -76.917145     -2093.0219
   6   2.0000     -18.995261      -516.8873
   7   2.0000     -18.994977      -516.8796
   8   2.0000     -18.992385      -516.8091
   9   2.0000     -18.990659      -516.7621
  10   2.0000     -10.105320      -274.9797
  11   2.0000     -10.091681      -274.6086
  12   2.0000     -10.091108      -274.5930
  13   2.0000     -10.088054      -274.5099
  14   2.0000     -10.087047      -274.4825
  15   2.0000     -10.019986      -272.6577
  16   2.0000     -10.019102      -272.6336
  17   2.0000     -10.018325      -272.6125
  18   2.0000     -10.017651      -272.5941
  19   2.0000      -7.873647      -214.2528
  20   2.0000      -7.873041      -214.2363
  21   2.0000      -7.819746      -212.7861
  22   2.0000      -7.818790      -212.7601
  23   2.0000      -6.596276      -179.4938
  24   2.0000      -6.595722      -179.4787
  25   2.0000      -5.820439      -158.3822
  26   2.0000      -5.819833      -158.3657
  27   2.0000      -5.817321      -158.2973
  28   2.0000      -5.816914      -158.2863
  29   2.0000      -5.811001      -158.1254
  30   2.0000      -5.810184      -158.1031
  31   2.0000      -5.767321      -156.9368
  32   2.0000      -5.766461      -156.9134
  33   2.0000      -5.760237      -156.7440
  34   2.0000      -5.759556      -156.7255
  35   2.0000      -5.759001      -156.7104
  36   2.0000      -5.758759      -156.7038
  37   2.0000      -4.742044      -129.0376
  38   2.0000      -4.741366      -129.0191
  39   2.0000      -4.740996      -129.0091
  40   2.0000      -4.740599      -128.9983
  41   2.0000      -4.739731      -128.9746
  42   2.0000      -4.739633      -128.9720
  43   2.0000      -1.054441       -28.6928
  44   2.0000      -1.050922       -28.5970
  45   2.0000      -1.013438       -27.5771
  46   2.0000      -1.010327       -27.4924
  47   2.0000      -0.801723       -21.8160
  48   2.0000      -0.756758       -20.5924
  49   2.0000      -0.745601       -20.2888
  50   2.0000      -0.727414       -19.7939
  51   2.0000      -0.723388       -19.6844
  52   2.0000      -0.709120       -19.2961
  53   2.0000      -0.686979       -18.6937
  54   2.0000      -0.669549       -18.2194
  55   2.0000      -0.627912       -17.0864
  56   2.0000      -0.615418       -16.7464
  57   2.0000      -0.599696       -16.3186
  58   2.0000      -0.593362       -16.1462
  59   2.0000      -0.589807       -16.0495
  60   2.0000      -0.531794       -14.4709
  61   2.0000      -0.521450       -14.1894
  62   2.0000      -0.497730       -13.5439
  63   2.0000      -0.491506       -13.3745
  64   2.0000      -0.469515       -12.7762
  65   2.0000      -0.462303       -12.5799
  66   2.0000      -0.456912       -12.4332
  67   2.0000      -0.444879       -12.1058
  68   2.0000      -0.444036       -12.0828
  69   2.0000      -0.436595       -11.8804
  70   2.0000      -0.420295       -11.4368
  71   2.0000      -0.411285       -11.1916
  72   2.0000      -0.401605       -10.9282
  73   2.0000      -0.399146       -10.8613
  74   2.0000      -0.391418       -10.6510
  75   2.0000      -0.387347       -10.5402
  76   2.0000      -0.377574       -10.2743
  77   2.0000      -0.365968        -9.9585
  78   2.0000      -0.361162        -9.8277
  79   2.0000      -0.359615        -9.7856
  80   2.0000      -0.353199        -9.6110
  81   2.0000      -0.352536        -9.5930
  82   2.0000      -0.349001        -9.4968
  83   2.0000      -0.347240        -9.4489
  84   2.0000      -0.345883        -9.4120
  85   2.0000      -0.325900        -8.8682
  86   2.0000      -0.322618        -8.7789
  87   2.0000      -0.314529        -8.5588
  88   2.0000      -0.311668        -8.4809
  89   2.0000      -0.303506        -8.2588
  90   2.0000      -0.296249        -8.0614
  91   2.0000      -0.290138        -7.8951
  92   2.0000      -0.282995        -7.7007
  93   2.0000      -0.277259        -7.5446
  94   2.0000      -0.273238        -7.4352
  95   2.0000      -0.253951        -6.9104
  96   2.0000      -0.241505        -6.5717
  97   2.0000      -0.238109        -6.4793
  98   2.0000      -0.226192        -6.1550
  99   2.0000      -0.214185        -5.8283
 100   2.0000      -0.208954        -5.6859
 101   0.0000      -0.046156        -1.2560
 102   0.0000      -0.036827        -1.0021
 103   0.0000      -0.009967        -0.2712
 104   0.0000       0.009011         0.2452
 105   0.0000       0.015137         0.4119

MULLIKEN ATOMIC CHARGES
-----------------------
   0 C :   -0.483711
   1 C :   -0.151021
   2 O :   -0.307940
   3 P :    0.704229
   4 S :   -0.524027
   5 O :   -0.299207
   6 C :   -0.148981
   7 C :   -0.494641
   8 S :   -0.149304
   9 C :   -0.214741
  10 S :   -0.176735
  11 P :    0.685519
  12 S :   -0.476117
  13 O :   -0.289684
  14 C :   -0.099317
  15 C :   -0.500725
  16 O :   -0.315150
  17 C :   -0.149573
  18 C :   -0.480890
  19 H :    0.165531
  20 H :    0.165464
  21 H :    0.169082
  22 H :    0.169994
  23 H :    0.172685
  24 H :    0.181330
  25 H :    0.177545
  26 H :    0.169626
  27 H :    0.171848
  28 H :    0.169426
  29 H :    0.236833
  30 H :    0.212250
  31 H :    0.175960
  32 H :    0.180848
  33 H :    0.167891
  34 H :    0.169187
  35 H :    0.171184
  36 H :    0.173899
  37 H :    0.168531
  38 H :    0.166242
  39 H :    0.166954
  40 H :    0.169704
Sum of atomic charges:   -0.0000000

LOEWDIN ATOMIC CHARGES
----------------------
   0 C :   -0.389874
   1 C :    0.020544
   2 O :   -0.684974
   3 P :    0.372882
   4 S :   -0.165202
   5 O :   -0.680263
   6 C :    0.014899
   7 C :   -0.403823
   8 S :    0.172750
   9 C :   -0.407592
  10 S :    0.128208
  11 P :    0.375719
  12 S :   -0.113816
  13 O :   -0.672035
  14 C :    0.025675
  15 C :   -0.395609
  16 O :   -0.682690
  17 C :    0.024346
  18 C :   -0.388936
  19 H :    0.162296
  20 H :    0.162999
  21 H :    0.168532
  22 H :    0.178998
  23 H :    0.181231
  24 H :    0.183635
  25 H :    0.190927
  26 H :    0.163275
  27 H :    0.168602
  28 H :    0.164172
  29 H :    0.196906
  30 H :    0.199443
  31 H :    0.182886
  32 H :    0.190311
  33 H :    0.163481
  34 H :    0.166056
  35 H :    0.168821
  36 H :    0.181851
  37 H :    0.179442
  38 H :    0.163142
  39 H :    0.163633
  40 H :    0.169150

  Mayer bond orders larger than 0.100000
B(  0-C ,  1-C ) :   0.9505 B(  0-C , 19-H ) :   0.9695 B(  0-C , 20-H ) :   0.9691
B(  0-C , 21-H ) :   0.9589 B(  1-C ,  2-O ) :   0.7821 B(  1-C , 22-H ) :   0.9373
B(  1-C , 23-H ) :   0.9469 B(  2-O ,  3-P ) :   1.0850 B(  3-P ,  4-S ) :   1.6937
B(  3-P ,  5-O ) :   1.1893 B(  3-P ,  8-S ) :   1.1214 B(  5-O ,  6-C ) :   0.7879
B(  6-C ,  7-C ) :   0.9074 B(  6-C , 24-H ) :   0.9593 B(  6-C , 25-H ) :   0.9499
B(  7-C , 26-H ) :   0.9618 B(  7-C , 27-H ) :   0.9541 B(  7-C , 28-H ) :   0.9702
B(  8-S ,  9-C ) :   0.8942 B(  9-C , 10-S ) :   0.9133 B(  9-C , 29-H ) :   0.8981
B(  9-C , 30-H ) :   0.9098 B( 10-S , 11-P ) :   1.0150 B( 11-P , 12-S ) :   1.8082
B( 11-P , 13-O ) :   1.1415 B( 11-P , 16-O ) :   1.0656 B( 13-O , 14-C ) :   0.7279
B( 14-C , 15-C ) :   0.9302 B( 14-C , 31-H ) :   0.9545 B( 14-C , 32-H ) :   0.9523
B( 15-C , 33-H ) :   0.9714 B( 15-C , 34-H ) :   0.9653 B( 15-C , 35-H ) :   0.9593
B( 16-O , 17-C ) :   0.7810 B( 17-C , 18-C ) :   0.9564 B( 17-C , 36-H ) :   0.9465
B( 17-C , 37-H ) :   0.9333 B( 18-C , 38-H ) :   0.9681 B( 18-C , 39-H ) :   0.9689
B( 18-C , 40-H ) :   0.9576

Dispersion correction           -0.021564167
FINAL SINGLE POINT ENERGY     -2932.470553847717

DIPOLE MOMENT
-------------

Method             : SCF
Type of density    : Electron Density
Multiplicity       :   1
Irrep              :   0
Energy             : -2932.4954828547497527 Eh
Relativity type    :
Basis              : AO
                                X                 Y                 Z
Electronic contribution:     -0.267240569      -6.498733877     -12.632437288
Nuclear contribution   :     -0.238140003       5.080758781      14.151074352
                        -----------------------------------------
Total Dipole Moment    :     -0.505380571      -1.417975096       1.518637064
                        -----------------------------------------
Magnitude (a.u.)       :      2.138298722
Magnitude (Debye)      :      5.435123415

Rotational constants in cm-1:             0.013745             0.004760             0.004686
Rotational constants in MHz :           412.078999           142.692821           140.493680

                             ****ORCA TERMINATED NORMALLY****
TOTAL RUN TIME: 0 days 0 hours 1 minutes 49 seconds 144 msec
