                         Program Version 6.0.0  -   RELEASE  -
|  1> ! pbe def2-sv(p) def2/J RI DEFGRID1 loosescf d4 GCP(DFT/SV(P)) printgap
|  2> %output
|  3>     printlevel normal
|  4> end
|  5> * xyz 0 1
|  6> C 2.3957641227 -4.70621e-05 -0.0457761773
|  7> N 0.9877244493 3.57258e-05 0.2910245823
|  8> C 0.3173046686 1.1867635124 -0.2135460371
|  9> C -1.1394309292 1.1883884873 0.2405096425
| 10> N -1.7945072578 9.14346e-05 -0.278719496
| 11> C -1.1395486739 -1.1884283449 0.2403341995
| 12> C 0.3172909348 -1.1867834517 -0.2133774425
| 13> H 2.8619487369 -0.8851194184 0.383310923
| 14> H 2.8618688094 0.885637807 0.3821747712
| 15> H 2.5708891101 -0.0007239505 -1.1334658463
| 16> H 0.826764589 2.0679830619 0.1819304314
| 17> H 0.3485362268 1.2246345758 -1.3171990751
| 18> H -1.1602794496 1.2250471054 1.3433289929
| 19> H -1.6469019962 2.0707326649 -0.153362752
| 20> H -2.7728836085 9.34045e-05 -0.0093352423
| 21> H -1.1607335961 -1.2253794961 1.343191851
| 22> H -1.646951381 -2.0706325859 -0.1539981548
| 23> H 0.8266173872 -2.0678332609 0.1823346759
| 24> H 0.348827431 -1.2249336208 -1.3169663937
| 25> *
| 26>
| 27>                          ****END OF INPUT****

CARTESIAN COORDINATES (ANGSTROEM)
---------------------------------
  C      2.395764   -0.000047   -0.045776
  N      0.987724    0.000036    0.291025
  C      0.317305    1.186764   -0.213546
  C     -1.139431    1.188388    0.240510
  N     -1.794507    0.000091   -0.278719
  C     -1.139549   -1.188428    0.240334
  C      0.317291   -1.186783   -0.213377
  H      2.861949   -0.885119    0.383311
  H      2.861869    0.885638    0.382175
  H      2.570889   -0.000724   -1.133466
  H      0.826765    2.067983    0.181930
  H      0.348536    1.224635   -1.317199
  H     -1.160279    1.225047    1.343329
  H     -1.646902    2.070733   -0.153363
  H     -2.772884    0.000093   -0.009335
  H     -1.160734   -1.225379    1.343192
  H     -1.646951   -2.070633   -0.153998
  H      0.826617   -2.067833    0.182335
  H      0.348827   -1.224934   -1.316966

 Total Charge           Charge          ....    0
 Multiplicity           Mult            ....    1
 Number of Electrons    NEL             ....   56
 Basis Dimension        Dim             ....  122

ORBITAL ENERGIES
----------------

  NO   OCC          E(Eh)            E(eV)
   0   2.0000     -13.979061      -380.3896
   1   2.0000     -13.968454      -380.1010
   2   2.0000      -9.903916      -269.4993
   3   2.0000      -9.903896      -269.4987
   4   2.0000      -9.902639      -269.4645
   5   2.0000      -9.902633      -269.4643
   6   2.0000      -9.897208      -269.3167
   7   2.0000      -0.852779       -23.2053
   8   2.0000      -0.803440       -21.8627
   9   2.0000      -0.679773       -18.4976
  10   2.0000      -0.641487       -17.4557
  11   2.0000      -0.567692       -15.4477
  12   2.0000      -0.559261       -15.2183
  13   2.0000      -0.488590       -13.2952
  14   2.0000      -0.463992       -12.6259
  15   2.0000      -0.412104       -11.2139
  16   2.0000      -0.409736       -11.1495
  17   2.0000      -0.398452       -10.8424
  18   2.0000      -0.395473       -10.7614
  19   2.0000      -0.375490       -10.2176
  20   2.0000      -0.348423        -9.4811
  21   2.0000      -0.332296        -9.0422
  22   2.0000      -0.322159        -8.7664
  23   2.0000      -0.303192        -8.2503
  24   2.0000      -0.288987        -7.8637
  25   2.0000      -0.285146        -7.7592
  26   2.0000      -0.177501        -4.8300
  27   2.0000      -0.171636        -4.6704
  28   0.0000       0.034244         0.9318
  29   0.0000       0.050927         1.3858
  30   0.0000       0.069422         1.8891
  31   0.0000       0.079689         2.1685
  32   0.0000       0.088255         2.4016

MULLIKEN ATOMIC CHARGES
-----------------------
   0 C :   -0.143703
   1 N :   -0.321189
   2 C :   -0.060263
   3 C :   -0.032932
   4 N :   -0.367334
   5 C :   -0.032971
   6 C :   -0.060218
   7 H :    0.100659
   8 H :    0.100660
   9 H :    0.067065
  10 H :    0.082043
  11 H :    0.054135
  12 H :    0.056384
  13 H :    0.080572
  14 H :    0.203943
  15 H :    0.056410
  16 H :    0.080585
  17 H :    0.082021
  18 H :    0.054132
Sum of atomic charges:    0.0000000

LOEWDIN ATOMIC CHARGES
----------------------
   0 C :   -0.256778
   1 N :   -0.152338
   2 C :   -0.161822
   3 C :   -0.172198
   4 N :   -0.268360
   5 C :   -0.172170
   6 C :   -0.161830
   7 H :    0.112836
   8 H :    0.112839
   9 H :    0.089252
  10 H :    0.112576
  11 H :    0.092476
  12 H :    0.092605
  13 H :    0.113548
  14 H :    0.208130
  15 H :    0.092606
  16 H :    0.113556
  17 H :    0.112589
  18 H :    0.092482

  Mayer bond orders larger than 0.100000
B(  0-C ,  1-N ) :   1.0456 B(  0-C ,  7-H ) :   0.9558 B(  0-C ,  8-H ) :   0.9558
B(  0-C ,  9-H ) :   0.9253 B(  1-N ,  2-C ) :   1.0309 B(  1-N ,  6-C ) :   1.0309
B(  2-C ,  3-C ) :   1.1557 B(  2-C , 10-H ) :   0.9220 B(  2-C , 11-H ) :   0.8801
B(  3-C ,  4-N ) :   1.0793 B(  3-C , 12-H ) :   0.8876 B(  3-C , 13-H ) :   0.9224
B(  4-N ,  5-C ) :   1.0793 B(  4-N , 14-H ) :   0.8788 B(  5-C ,  6-C ) :   1.1557
B(  5-C , 15-H ) :   0.8877 B(  5-C , 16-H ) :   0.9224 B(  6-C , 17-H ) :   0.9220
B(  6-C , 18-H ) :   0.8801

Dispersion correction           -0.016507034
FINAL SINGLE POINT ENERGY      -306.504696930881

DIPOLE MOMENT
-------------

Method             : SCF
Type of density    : Electron Density
Multiplicity       :   1
Irrep              :   0
Energy             :  -306.5789696542964293 Eh
Relativity type    :
Basis              : AO
                                X                 Y                 Z
Electronic contribution:     -2.240846756       0.000354380       0.408398020
Nuclear contribution   :      2.113682171      -0.000462489      -0.251413287
                        -----------------------------------------
Total Dipole Moment    :     -0.127164585      -0.000108109       0.156984733
                        -----------------------------------------
Magnitude (a.u.)       :      0.202027349
Magnitude (Debye)      :      0.513512712

Rotational constants in cm-1:             0.158666             0.078163             0.057195
Rotational constants in MHz :          4756.678376          2343.260687          1714.668807

                             ****ORCA TERMINATED NORMALLY****
TOTAL RUN TIME: 0 days 0 hours 0 minutes 8 seconds 454 msec
