                         Program Version 6.0.0  -   RELEASE  -
|  1> ! r2scan-3c def2/J RI DEFGRID2 scfconv6 printgap
|  2> %output
|  3>     printlevel normal
|  4> end
|  5> * xyz 0 1
|  6> C 1.1318944439 -0.0070777885 2.9256096256
|  7> C 2.6282101487 -0.0587589248 2.6945743093
|  8> O 3.0006618739 0.5297221626 1.436418107
|  9> P 2.6646508826 -0.1562956942 0.0413958826
| 10> S 2.8227281541 -2.1148382957 0.0243739853
| 11> O 3.6195387354 0.6308496553 -0.9455284086
| 12> C 4.9756913008 0.2116864028 -1.2057907939
| 13> C 5.86345497 0.3499495655 0.0134381423
| 14> S 0.8359614222 0.6935697533 -0.616400546
| 15> C -0.102204435 -0.8281710622 -0.9525141052
| 16> S -1.4084812553 -1.1294292998 0.2577322012
| 17> P -2.7720401347 0.3060935958 -0.5371876775
| 18> S -2.9078117685 0.3579093173 -2.4867657781
| 19> O -2.3117247231 1.6920589215 0.0515979387
| 20> C -2.1832060004 1.9475660714 1.4744527484
| 21> C -1.1957859089 3.0822546826 1.6516768023
| 22> O -4.1203223565 0.0371369882 0.261287326
| 23> C -5.1104251125 -0.9154897315 -0.1692222555
| 24> C -4.5889505315 -2.3374961416 -0.1543031347
| 25> H 0.6194751524 -0.6471954789 2.2070716458
| 26> H 0.9101095211 -0.3625541423 3.9266962838
| 27> H 0.7706123118 1.0120801439 2.8162800651
| 28> H 2.9843533224 -1.0939315341 2.7122786021
| 29> H 3.1701651845 0.5342894876 3.4324372285
| 30> H 4.9548207849 -0.8262246351 -1.5534508728
| 31> H 5.2969350288 0.8668341892 -2.0166864828
| 32> H 5.5560107088 -0.3587409291 0.781015344
| 33> H 6.8913997954 0.1416173487 -0.2667398214
| 34> H 5.7939928288 1.3572755194 0.4154311664
| 35> H 0.5759709538 -1.6833947781 -0.9147902514
| 36> H -0.5601179753 -0.7262614159 -1.9369907439
| 37> H -3.1728508966 2.2100327614 1.8524524121
| 38> H -1.8404964519 1.0316399989 1.9651420234
| 39> H -0.2321287606 2.8090134919 1.2280574175
| 40> H -1.5547302177 3.9702790853 1.1397212932
| 41> H -1.0839614378 3.297175367 2.7096971484
| 42> H -5.9261317371 -0.777408415 0.5419127487
| 43> H -5.4405853226 -0.6374089004 -1.1746195
| 44> H -5.4071315929 -3.0205563711 -0.3588001345
| 45> H -3.8266909317 -2.4632053621 -0.9218779746
| 46> H -4.15426593 -2.57263503 0.8140099807
| 47> *
| 48>
| 49>                          ****END OF INPUT****

CARTESIAN COORDINATES (ANGSTROEM)
---------------------------------
  C      1.131894   -0.007078    2.925610
  C      2.628210   -0.058759    2.694574
  O      3.000662    0.529722    1.436418
  P      2.664651   -0.156296    0.041396
  S      2.822728   -2.114838    0.024374
  O      3.619539    0.630850   -0.945528
  C      4.975691    0.211686   -1.205791
  C      5.863455    0.349950    0.013438
  S      0.835961    0.693570   -0.616401
  C     -0.102204   -0.828171   -0.952514
  S     -1.408481   -1.129429    0.257732
  P     -2.772040    0.306094   -0.537188
  S     -2.907812    0.357909   -2.486766
  O     -2.311725    1.692059    0.051598
  C     -2.183206    1.947566    1.474453
  C     -1.195786    3.082255    1.651677
  O     -4.120322    0.037137    0.261287
  C     -5.110425   -0.915490   -0.169222
  C     -4.588951   -2.337496   -0.154303
  H      0.619475   -0.647195    2.207072
  H      0.910110   -0.362554    3.926696
  H      0.770612    1.012080    2.816280
  H      2.984353   -1.093932    2.712279
  H      3.170165    0.534289    3.432437
  H      4.954821   -0.826225   -1.553451
  H      5.296935    0.866834   -2.016686
  H      5.556011   -0.358741    0.781015
  H      6.891400    0.141617   -0.266740
  H      5.793993    1.357276    0.415431
  H      0.575971   -1.683395   -0.914790
  H     -0.560118   -0.726261   -1.936991
  H     -3.172851    2.210033    1.852452
  H     -1.840496    1.031640    1.965142
  H     -0.232129    2.809013    1.228057
  H     -1.554730    3.970279    1.139721
  H     -1.083961    3.297175    2.709697
  H     -5.926132   -0.777408    0.541913
  H     -5.440585   -0.637409   -1.174619
  H     -5.407132   -3.020556   -0.358800
  H     -3.826691   -2.463205   -0.921878
  H     -4.154266   -2.572635    0.814010

 Total Charge           Charge          ....    0
 Multiplicity           Mult            ....    1
 Number of Electrons    NEL             ....  202
 Basis Dimension        Dim             ....  539

ORBITAL ENERGIES
----------------

  NO   OCC          E(Eh)            E(eV)
   0   2.0000     -88.575101     -2410.2510
   1   2.0000     -88.574497     -2410.2346
   2   2.0000     -88.528349     -2408.9789
   3   2.0000     -88.520392     -2408.7623
   4   2.0000     -76.916601     -2093.0071
   5   2.0000     -76.914366     -2092.9463
   6   2.0000     -18.996492      -516.9208
   7   2.0000     -18.994925      -516.8782
   8   2.0000     -18.992409      -516.8097
   9   2.0000     -18.991024      -516.7720
  10   2.0000     -10.102510      -274.9033
  11   2.0000     -10.102293      -274.8974
  12   2.0000     -10.102148      -274.8934
  13   2.0000     -10.100118      -274.8382
  14   2.0000     -10.099785      -274.8291
  15   2.0000     -10.032607      -273.0011
  16   2.0000     -10.032398      -272.9954
  17   2.0000     -10.031055      -272.9589
  18   2.0000     -10.030525      -272.9445
  19   2.0000      -7.869533      -214.1409
  20   2.0000      -7.868655      -214.1170
  21   2.0000      -7.823075      -212.8767
  22   2.0000      -7.815078      -212.6591
  23   2.0000      -6.595299      -179.4672
  24   2.0000      -6.592983      -179.4042
  25   2.0000      -5.816218      -158.2673
  26   2.0000      -5.815572      -158.2498
  27   2.0000      -5.813392      -158.1905
  28   2.0000      -5.812618      -158.1694
  29   2.0000      -5.806823      -158.0117
  30   2.0000      -5.805635      -157.9794
  31   2.0000      -5.770585      -157.0256
  32   2.0000      -5.763571      -156.8347
  33   2.0000      -5.763004      -156.8193
  34   2.0000      -5.762775      -156.8131
  35   2.0000      -5.755298      -156.6096
  36   2.0000      -5.755106      -156.6044
  37   2.0000      -4.740523      -128.9962
  38   2.0000      -4.740049      -128.9833
  39   2.0000      -4.739431      -128.9665
  40   2.0000      -4.738873      -128.9513
  41   2.0000      -4.737849      -128.9234
  42   2.0000      -4.736402      -128.8840
  43   2.0000      -1.053490       -28.6669
  44   2.0000      -1.052260       -28.6334
  45   2.0000      -1.013236       -27.5715
  46   2.0000      -1.012480       -27.5510
  47   2.0000      -0.799177       -21.7467
  48   2.0000      -0.761443       -20.7199
  49   2.0000      -0.752846       -20.4860
  50   2.0000      -0.735810       -20.0224
  51   2.0000      -0.734775       -19.9942
  52   2.0000      -0.713656       -19.4196
  53   2.0000      -0.688203       -18.7270
  54   2.0000      -0.670163       -18.2361
  55   2.0000      -0.637692       -17.3525
  56   2.0000      -0.624948       -17.0057
  57   2.0000      -0.608832       -16.5672
  58   2.0000      -0.606761       -16.5108
  59   2.0000      -0.588145       -16.0042
  60   2.0000      -0.532121       -14.4797
  61   2.0000      -0.520595       -14.1661
  62   2.0000      -0.496089       -13.4993
  63   2.0000      -0.495241       -13.4762
  64   2.0000      -0.479173       -13.0390
  65   2.0000      -0.464405       -12.6371
  66   2.0000      -0.461374       -12.5546
  67   2.0000      -0.457611       -12.4522
  68   2.0000      -0.451520       -12.2865
  69   2.0000      -0.439558       -11.9610
  70   2.0000      -0.426912       -11.6169
  71   2.0000      -0.413717       -11.2578
  72   2.0000      -0.409952       -11.1554
  73   2.0000      -0.409502       -11.1431
  74   2.0000      -0.399783       -10.8787
  75   2.0000      -0.391013       -10.6400
  76   2.0000      -0.382569       -10.4102
  77   2.0000      -0.374419       -10.1885
  78   2.0000      -0.373463       -10.1625
  79   2.0000      -0.370670       -10.0864
  80   2.0000      -0.365421        -9.9436
  81   2.0000      -0.358840        -9.7645
  82   2.0000      -0.358072        -9.7436
  83   2.0000      -0.355400        -9.6709
  84   2.0000      -0.350646        -9.5416
  85   2.0000      -0.332288        -9.0420
  86   2.0000      -0.327222        -8.9042
  87   2.0000      -0.319576        -8.6961
  88   2.0000      -0.314027        -8.5451
  89   2.0000      -0.311089        -8.4652
  90   2.0000      -0.303827        -8.2676
  91   2.0000      -0.291459        -7.9310
  92   2.0000      -0.286567        -7.7979
  93   2.0000      -0.281864        -7.6699
  94   2.0000      -0.274682        -7.4745
  95   2.0000      -0.244117        -6.6428
  96   2.0000      -0.233719        -6.3598
  97   2.0000      -0.230604        -6.2750
  98   2.0000      -0.222830        -6.0635
  99   2.0000      -0.220159        -5.9908
 100   2.0000      -0.212278        -5.7764
 101   0.0000      -0.045110        -1.2275
 102   0.0000      -0.032848        -0.8938
 103   0.0000      -0.012755        -0.3471
 104   0.0000       0.002759         0.0751
 105   0.0000       0.018203         0.4953

MULLIKEN ATOMIC CHARGES
-----------------------
   0 C :   -0.451123
   1 C :   -0.145484
   2 O :   -0.276135
   3 P :    0.664940
   4 S :   -0.487337
   5 O :   -0.298601
   6 C :   -0.153315
   7 C :   -0.435504
   8 S :   -0.088346
   9 C :   -0.256906
  10 S :   -0.154011
  11 P :    0.640712
  12 S :   -0.435445
  13 O :   -0.267426
  14 C :   -0.107745
  15 C :   -0.463290
  16 O :   -0.294684
  17 C :   -0.158420
  18 C :   -0.452758
  19 H :    0.175008
  20 H :    0.148464
  21 H :    0.159047
  22 H :    0.169747
  23 H :    0.148825
  24 H :    0.170534
  25 H :    0.151419
  26 H :    0.164434
  27 H :    0.147904
  28 H :    0.157125
  29 H :    0.216709
  30 H :    0.216065
  31 H :    0.155772
  32 H :    0.158418
  33 H :    0.169376
  34 H :    0.157799
  35 H :    0.146660
  36 H :    0.148137
  37 H :    0.173531
  38 H :    0.148787
  39 H :    0.182925
  40 H :    0.154193
Sum of atomic charges:    0.0000000

LOEWDIN ATOMIC CHARGES
----------------------
   0 C :   -0.408576
   1 C :    0.020023
   2 O :   -0.667064
   3 P :    0.385606
   4 S :   -0.134957
   5 O :   -0.665510
   6 C :    0.025352
   7 C :   -0.399466
   8 S :    0.181123
   9 C :   -0.422627
  10 S :    0.121474
  11 P :    0.373733
  12 S :   -0.102357
  13 O :   -0.654618
  14 C :    0.020931
  15 C :   -0.395760
  16 O :   -0.663463
  17 C :    0.024017
  18 C :   -0.408562
  19 H :    0.167157
  20 H :    0.159726
  21 H :    0.161853
  22 H :    0.179610
  23 H :    0.179606
  24 H :    0.179315
  25 H :    0.181410
  26 H :    0.163651
  27 H :    0.159663
  28 H :    0.162012
  29 H :    0.197225
  30 H :    0.193299
  31 H :    0.174891
  32 H :    0.176273
  33 H :    0.165549
  34 H :    0.162938
  35 H :    0.158738
  36 H :    0.179764
  37 H :    0.180426
  38 H :    0.160137
  39 H :    0.167648
  40 H :    0.159809

  Mayer bond orders larger than 0.100000
B(  0-C ,  1-C ) :   0.9320 B(  0-C , 19-H ) :   0.9534 B(  0-C , 20-H ) :   0.9592
B(  0-C , 21-H ) :   0.9654 B(  1-C ,  2-O ) :   0.8050 B(  1-C , 22-H ) :   0.9630
B(  1-C , 23-H ) :   0.9589 B(  2-O ,  3-P ) :   1.0640 B(  3-P ,  4-S ) :   1.7303
B(  3-P ,  5-O ) :   1.1846 B(  3-P ,  8-S ) :   1.0816 B(  5-O ,  6-C ) :   0.8144
B(  6-C ,  7-C ) :   0.9262 B(  6-C , 24-H ) :   0.9673 B(  6-C , 25-H ) :   0.9604
B(  7-C , 26-H ) :   0.9607 B(  7-C , 27-H ) :   0.9607 B(  7-C , 28-H ) :   0.9700
B(  8-S ,  9-C ) :   0.9176 B(  9-C , 10-S ) :   0.9169 B(  9-C , 29-H ) :   0.8881
B(  9-C , 30-H ) :   0.9076 B( 10-S , 11-P ) :   1.0011 B( 11-P , 12-S ) :   1.8585
B( 11-P , 13-O ) :   1.1516 B( 11-P , 16-O ) :   1.0406 B( 13-O , 14-C ) :   0.7335
B( 14-C , 15-C ) :   0.9416 B( 14-C , 31-H ) :   0.9451 B( 14-C , 32-H ) :   0.9508
B( 15-C , 33-H ) :   0.9668 B( 15-C , 34-H ) :   0.9667 B( 15-C , 35-H ) :   0.9682
B( 16-O , 17-C ) :   0.8198 B( 17-C , 18-C ) :   0.9155 B( 17-C , 36-H ) :   0.9617
B( 17-C , 37-H ) :   0.9684 B( 18-C , 38-H ) :   0.9554 B( 18-C , 39-H ) :   0.9618
B( 18-C , 40-H ) :   0.9680

Dispersion correction           -0.021163374
FINAL SINGLE POINT ENERGY     -2932.462568384279

DIPOLE MOMENT
-------------

Method             : SCF
Type of density    : Electron Density
Multiplicity       :   1
Irrep              :   0
Energy             : -2932.4881866830328363 Eh
Relativity type    :
Basis              : AO
                                X                 Y                 Z
Electronic contribution:     -3.966805594      -1.742171545     -15.113996373
Nuclear contribution   :      4.175137754       1.905737706      16.859103844
                        -----------------------------------------
Total Dipole Moment    :      0.208332160       0.163566161       1.745107471
                        -----------------------------------------
Magnitude (a.u.)       :      1.765093840
Magnitude (Debye)      :      4.486511993

Rotational constants in cm-1:             0.014192             0.004113             0.003954
Rotational constants in MHz :           425.456424           123.307149           118.548647

                             ****ORCA TERMINATED NORMALLY****
TOTAL RUN TIME: 0 days 0 hours 1 minutes 16 seconds 201 msec
