                         Program Version 6.0.0  -   RELEASE  -
|  1> ! r2scan-3c def2/J RI DEFGRID2 scfconv6 printgap
|  2> %output
|  3>     printlevel normal
|  4> end
|  5> %cpcm
|  6>     smd true
|  7>     smdsolvent "water"
|  8> end
|  9> * xyz 0 1
| 10> C 1.1318944439 -0.0070777885 2.9256096256
| 11> C 2.6282101487 -0.0587589248 2.6945743093
| 12> O 3.0006618739 0.5297221626 1.436418107
| 13> P 2.6646508826 -0.1562956942 0.0413958826
| 14> S 2.8227281541 -2.1148382957 0.0243739853
| 15> O 3.6195387354 0.6308496553 -0.9455284086
| 16> C 4.9756913008 0.2116864028 -1.2057907939
| 17> C 5.86345497 0.3499495655 0.0134381423
| 18> S 0.8359614222 0.6935697533 -0.616400546
| 19> C -0.102204435 -0.8281710622 -0.9525141052
| 20> S -1.4084812553 -1.1294292998 0.2577322012
| 21> P -2.7720401347 0.3060935958 -0.5371876775
| 22> S -2.9078117685 0.3579093173 -2.4867657781
| 23> O -2.3117247231 1.6920589215 0.0515979387
| 24> C -2.1832060004 1.9475660714 1.4744527484
| 25> C -1.1957859089 3.0822546826 1.6516768023
| 26> O -4.1203223565 0.0371369882 0.261287326
| 27> C -5.1104251125 -0.9154897315 -0.1692222555
| 28> C -4.5889505315 -2.3374961416 -0.1543031347
| 29> H 0.6194751524 -0.6471954789 2.2070716458
| 30> H 0.9101095211 -0.3625541423 3.9266962838
| 31> H 0.7706123118 1.0120801439 2.8162800651
| 32> H 2.9843533224 -1.0939315341 2.7122786021
| 33> H 3.1701651845 0.5342894876 3.4324372285
| 34> H 4.9548207849 -0.8262246351 -1.5534508728
| 35> H 5.2969350288 0.8668341892 -2.0166864828
| 36> H 5.5560107088 -0.3587409291 0.781015344
| 37> H 6.8913997954 0.1416173487 -0.2667398214
| 38> H 5.7939928288 1.3572755194 0.4154311664
| 39> H 0.5759709538 -1.6833947781 -0.9147902514
| 40> H -0.5601179753 -0.7262614159 -1.9369907439
| 41> H -3.1728508966 2.2100327614 1.8524524121
| 42> H -1.8404964519 1.0316399989 1.9651420234
| 43> H -0.2321287606 2.8090134919 1.2280574175
| 44> H -1.5547302177 3.9702790853 1.1397212932
| 45> H -1.0839614378 3.297175367 2.7096971484
| 46> H -5.9261317371 -0.777408415 0.5419127487
| 47> H -5.4405853226 -0.6374089004 -1.1746195
| 48> H -5.4071315929 -3.0205563711 -0.3588001345
| 49> H -3.8266909317 -2.4632053621 -0.9218779746
| 50> H -4.15426593 -2.57263503 0.8140099807
| 51> *
| 52>
| 53>                          ****END OF INPUT****

CARTESIAN COORDINATES (ANGSTROEM)
---------------------------------
  C      1.131894   -0.007078    2.925610
  C      2.628210   -0.058759    2.694574
  O      3.000662    0.529722    1.436418
  P      2.664651   -0.156296    0.041396
  S      2.822728   -2.114838    0.024374
  O      3.619539    0.630850   -0.945528
  C      4.975691    0.211686   -1.205791
  C      5.863455    0.349950    0.013438
  S      0.835961    0.693570   -0.616401
  C     -0.102204   -0.828171   -0.952514
  S     -1.408481   -1.129429    0.257732
  P     -2.772040    0.306094   -0.537188
  S     -2.907812    0.357909   -2.486766
  O     -2.311725    1.692059    0.051598
  C     -2.183206    1.947566    1.474453
  C     -1.195786    3.082255    1.651677
  O     -4.120322    0.037137    0.261287
  C     -5.110425   -0.915490   -0.169222
  C     -4.588951   -2.337496   -0.154303
  H      0.619475   -0.647195    2.207072
  H      0.910110   -0.362554    3.926696
  H      0.770612    1.012080    2.816280
  H      2.984353   -1.093932    2.712279
  H      3.170165    0.534289    3.432437
  H      4.954821   -0.826225   -1.553451
  H      5.296935    0.866834   -2.016686
  H      5.556011   -0.358741    0.781015
  H      6.891400    0.141617   -0.266740
  H      5.793993    1.357276    0.415431
  H      0.575971   -1.683395   -0.914790
  H     -0.560118   -0.726261   -1.936991
  H     -3.172851    2.210033    1.852452
  H     -1.840496    1.031640    1.965142
  H     -0.232129    2.809013    1.228057
  H     -1.554730    3.970279    1.139721
  H     -1.083961    3.297175    2.709697
  H     -5.926132   -0.777408    0.541913
  H     -5.440585   -0.637409   -1.174619
  H     -5.407132   -3.020556   -0.358800
  H     -3.826691   -2.463205   -0.921878
  H     -4.154266   -2.572635    0.814010

 Total Charge           Charge          ....    0
 Multiplicity           Mult            ....    1
 Number of Electrons    NEL             ....  202
 Basis Dimension        Dim             ....  539

ORBITAL ENERGIES
----------------

  NO   OCC          E(Eh)            E(eV)
   0   2.0000     -88.579753     -2410.3776
   1   2.0000     -88.578997     -2410.3571
   2   2.0000     -88.533957     -2409.1315
   3   2.0000     -88.531890     -2409.0752
   4   2.0000     -76.921319     -2093.1355
   5   2.0000     -76.920892     -2093.1239
   6   2.0000     -18.998267      -516.9691
   7   2.0000     -18.996864      -516.9310
   8   2.0000     -18.995343      -516.8896
   9   2.0000     -18.994217      -516.8589
  10   2.0000     -10.103217      -274.9225
  11   2.0000     -10.092390      -274.6279
  12   2.0000     -10.091795      -274.6117
  13   2.0000     -10.090501      -274.5765
  14   2.0000     -10.090039      -274.5639
  15   2.0000     -10.019549      -272.6458
  16   2.0000     -10.019399      -272.6417
  17   2.0000     -10.019056      -272.6324
  18   2.0000     -10.018750      -272.6240
  19   2.0000      -7.874040      -214.2635
  20   2.0000      -7.873387      -214.2457
  21   2.0000      -7.828908      -213.0354
  22   2.0000      -7.826952      -212.9822
  23   2.0000      -6.599979      -179.5946
  24   2.0000      -6.599627      -179.5850
  25   2.0000      -5.820912      -158.3951
  26   2.0000      -5.820113      -158.3733
  27   2.0000      -5.817983      -158.3154
  28   2.0000      -5.817281      -158.2963
  29   2.0000      -5.811076      -158.1274
  30   2.0000      -5.810602      -158.1145
  31   2.0000      -5.776389      -157.1835
  32   2.0000      -5.774523      -157.1327
  33   2.0000      -5.769371      -156.9926
  34   2.0000      -5.768858      -156.9786
  35   2.0000      -5.767149      -156.9321
  36   2.0000      -5.767056      -156.9296
  37   2.0000      -4.745814      -129.1402
  38   2.0000      -4.744826      -129.1133
  39   2.0000      -4.744798      -129.1125
  40   2.0000      -4.744354      -129.1004
  41   2.0000      -4.743826      -129.0861
  42   2.0000      -4.743541      -129.0783
  43   2.0000      -1.056241       -28.7418
  44   2.0000      -1.053640       -28.6710
  45   2.0000      -1.014556       -27.6075
  46   2.0000      -1.013953       -27.5911
  47   2.0000      -0.803007       -21.8509
  48   2.0000      -0.758569       -20.6417
  49   2.0000      -0.746544       -20.3145
  50   2.0000      -0.726410       -19.7666
  51   2.0000      -0.724369       -19.7111
  52   2.0000      -0.712349       -19.3840
  53   2.0000      -0.691763       -18.8238
  54   2.0000      -0.676638       -18.4123
  55   2.0000      -0.635150       -17.2833
  56   2.0000      -0.620910       -16.8958
  57   2.0000      -0.600631       -16.3440
  58   2.0000      -0.600065       -16.3286
  59   2.0000      -0.588155       -16.0045
  60   2.0000      -0.528337       -14.3768
  61   2.0000      -0.515716       -14.0334
  62   2.0000      -0.492143       -13.3919
  63   2.0000      -0.490566       -13.3490
  64   2.0000      -0.479970       -13.0607
  65   2.0000      -0.462015       -12.5721
  66   2.0000      -0.455019       -12.3817
  67   2.0000      -0.452111       -12.3026
  68   2.0000      -0.446684       -12.1549
  69   2.0000      -0.436359       -11.8739
  70   2.0000      -0.422195       -11.4885
  71   2.0000      -0.408041       -11.1034
  72   2.0000      -0.407478       -11.0880
  73   2.0000      -0.406720       -11.0674
  74   2.0000      -0.397077       -10.8050
  75   2.0000      -0.390212       -10.6182
  76   2.0000      -0.380130       -10.3439
  77   2.0000      -0.370841       -10.0911
  78   2.0000      -0.365877        -9.9560
  79   2.0000      -0.360311        -9.8046
  80   2.0000      -0.354068        -9.6347
  81   2.0000      -0.352524        -9.5927
  82   2.0000      -0.350050        -9.5253
  83   2.0000      -0.348573        -9.4852
  84   2.0000      -0.345374        -9.3981
  85   2.0000      -0.329126        -8.9560
  86   2.0000      -0.324068        -8.8183
  87   2.0000      -0.317143        -8.6299
  88   2.0000      -0.307927        -8.3791
  89   2.0000      -0.305807        -8.3214
  90   2.0000      -0.301887        -8.2148
  91   2.0000      -0.289808        -7.8861
  92   2.0000      -0.284757        -7.7486
  93   2.0000      -0.281194        -7.6517
  94   2.0000      -0.276307        -7.5187
  95   2.0000      -0.248421        -6.7599
  96   2.0000      -0.240021        -6.5313
  97   2.0000      -0.237891        -6.4733
  98   2.0000      -0.231345        -6.2952
  99   2.0000      -0.231055        -6.2873
 100   2.0000      -0.220844        -6.0095
 101   0.0000      -0.051381        -1.3982
 102   0.0000      -0.039271        -1.0686
 103   0.0000      -0.016409        -0.4465
 104   0.0000      -0.002251        -0.0613
 105   0.0000       0.014112         0.3840

MULLIKEN ATOMIC CHARGES
-----------------------
   0 C :   -0.477785
   1 C :   -0.142520
   2 O :   -0.300325
   3 P :    0.693893
   4 S :   -0.520790
   5 O :   -0.331773
   6 C :   -0.149994
   7 C :   -0.475383
   8 S :   -0.114798
   9 C :   -0.261979
  10 S :   -0.144538
  11 P :    0.655862
  12 S :   -0.495940
  13 O :   -0.298283
  14 C :   -0.104378
  15 C :   -0.493640
  16 O :   -0.313191
  17 C :   -0.151722
  18 C :   -0.489219
  19 H :    0.162978
  20 H :    0.173693
  21 H :    0.177101
  22 H :    0.174651
  23 H :    0.175931
  24 H :    0.176757
  25 H :    0.175823
  26 H :    0.168414
  27 H :    0.172654
  28 H :    0.169418
  29 H :    0.227319
  30 H :    0.226863
  31 H :    0.177441
  32 H :    0.173512
  33 H :    0.167354
  34 H :    0.167966
  35 H :    0.173255
  36 H :    0.176482
  37 H :    0.179477
  38 H :    0.173844
  39 H :    0.175303
  40 H :    0.170266
Sum of atomic charges:    0.0000000

LOEWDIN ATOMIC CHARGES
----------------------
   0 C :   -0.408504
   1 C :    0.026206
   2 O :   -0.676466
   3 P :    0.389147
   4 S :   -0.155226
   5 O :   -0.684005
   6 C :    0.029534
   7 C :   -0.402364
   8 S :    0.164970
   9 C :   -0.420623
  10 S :    0.131092
  11 P :    0.376706
  12 S :   -0.147786
  13 O :   -0.675348
  14 C :    0.028552
  15 C :   -0.397468
  16 O :   -0.668544
  17 C :    0.030002
  18 C :   -0.410858
  19 H :    0.161377
  20 H :    0.169351
  21 H :    0.167141
  22 H :    0.181663
  23 H :    0.191344
  24 H :    0.181689
  25 H :    0.191487
  26 H :    0.162861
  27 H :    0.169089
  28 H :    0.164691
  29 H :    0.200338
  30 H :    0.195459
  31 H :    0.184553
  32 H :    0.182503
  33 H :    0.163309
  34 H :    0.164246
  35 H :    0.170301
  36 H :    0.192033
  37 H :    0.181964
  38 H :    0.169342
  39 H :    0.162221
  40 H :    0.164020

  Mayer bond orders larger than 0.100000
B(  0-C ,  1-C ) :   0.9200 B(  0-C , 19-H ) :   0.9554 B(  0-C , 20-H ) :   0.9541
B(  0-C , 21-H ) :   0.9630 B(  1-C ,  2-O ) :   0.7905 B(  1-C , 22-H ) :   0.9602
B(  1-C , 23-H ) :   0.9488 B(  2-O ,  3-P ) :   1.0761 B(  3-P ,  4-S ) :   1.7113
B(  3-P ,  5-O ) :   1.1854 B(  3-P ,  8-S ) :   1.0837 B(  5-O ,  6-C ) :   0.8033
B(  6-C ,  7-C ) :   0.9143 B(  6-C , 24-H ) :   0.9625 B(  6-C , 25-H ) :   0.9507
B(  7-C , 26-H ) :   0.9590 B(  7-C , 27-H ) :   0.9546 B(  7-C , 28-H ) :   0.9692
B(  8-S ,  9-C ) :   0.9070 B(  9-C , 10-S ) :   0.9140 B(  9-C , 29-H ) :   0.8868
B(  9-C , 30-H ) :   0.9052 B( 10-S , 11-P ) :   1.0148 B( 11-P , 12-S ) :   1.8275
B( 11-P , 13-O ) :   1.1604 B( 11-P , 16-O ) :   1.0528 B( 13-O , 14-C ) :   0.7249
B( 14-C , 15-C ) :   0.9353 B( 14-C , 31-H ) :   0.9347 B( 14-C , 32-H ) :   0.9437
B( 15-C , 33-H ) :   0.9666 B( 15-C , 34-H ) :   0.9670 B( 15-C , 35-H ) :   0.9601
B( 16-O , 17-C ) :   0.8073 B( 17-C , 18-C ) :   0.9029 B( 17-C , 36-H ) :   0.9506
B( 17-C , 37-H ) :   0.9671 B( 18-C , 38-H ) :   0.9501 B( 18-C , 39-H ) :   0.9640
B( 18-C , 40-H ) :   0.9647

Dispersion correction           -0.021163374
FINAL SINGLE POINT ENERGY     -2932.471338396892

DIPOLE MOMENT
-------------

Method             : SCF
Type of density    : Electron Density
Multiplicity       :   1
Irrep              :   0
Energy             : -2932.4969566956465314 Eh
Relativity type    :
Basis              : AO
                                X                 Y                 Z
Electronic contribution:     -3.938985614      -1.872443483     -14.282809689
Nuclear contribution   :      4.175137754       1.905737706      16.859103844
                        -----------------------------------------
Total Dipole Moment    :      0.236152139       0.033294222       2.576294155
                        -----------------------------------------
Magnitude (a.u.)       :      2.587309010
Magnitude (Debye)      :      6.576416866

Rotational constants in cm-1:             0.014192             0.004113             0.003954
Rotational constants in MHz :           425.456424           123.307149           118.548647

                             ****ORCA TERMINATED NORMALLY****
TOTAL RUN TIME: 0 days 0 hours 1 minutes 47 seconds 801 msec
