                         Program Version 6.0.0  -   RELEASE  -
|  1> ! wb97x-v def2-tzvp def2/J RIJCOSX DEFGRID2 scfconv7 GCP(DFT/TZ) printgap
|  2> %output
|  3>     printlevel normal
|  4> end
|  5> * xyz 0 1
|  6> C -0.6830732104816828 -0.5569508297040515 -0.32393481787462375
|  7> C 0.6866619968791174 -0.5939396898848068 0.30773751084729756
|  8> O 1.4432295612842465 0.5398956903736464 -0.15063650655007185
|  9> O -1.4531846900798184 0.5900347105630322 0.07429815425060825
| 10> H -1.2101932256388208 -1.487662891706086 -0.07238724478536755
| 11> H -0.5927763267011935 -0.49711503760894277 -1.4134612220725729
| 12> H 1.1796601188603657 -1.5337068890479173 0.018854832046801346
| 13> H 0.5925151534408404 -0.5759163082881914 1.403583451525252
| 14> H 2.289752090788805 0.5284936714860365 0.3125732229930383
| 15> H -1.5830844017044265 0.5310443775036676 1.0300394809806468
| 16> *
| 17>
| 18>                          ****END OF INPUT****

CARTESIAN COORDINATES (ANGSTROEM)
---------------------------------
  C     -0.683073   -0.556951   -0.323935
  C      0.686662   -0.593940    0.307738
  O      1.443230    0.539896   -0.150637
  O     -1.453185    0.590035    0.074298
  H     -1.210193   -1.487663   -0.072387
  H     -0.592776   -0.497115   -1.413461
  H      1.179660   -1.533707    0.018855
  H      0.592515   -0.575916    1.403583
  H      2.289752    0.528494    0.312573
  H     -1.583084    0.531044    1.030039

 Total Charge           Charge          ....    0
 Multiplicity           Mult            ....    1
 Number of Electrons    NEL             ....   34
 Basis Dimension        Dim             ....  160

ORBITAL ENERGIES
----------------

  NO   OCC          E(Eh)            E(eV)
   0   2.0000     -21.672896      -589.7495
   1   2.0000     -21.668032      -589.6171
   2   2.0000     -12.099563      -329.2458
   3   2.0000     -12.094005      -329.0946
   4   2.0000      -1.673901       -45.5492
   5   2.0000      -1.665077       -45.3091
   6   2.0000      -1.277815       -34.7711
   7   2.0000      -1.149603       -31.2823
   8   2.0000      -1.052010       -28.6266
   9   2.0000      -1.015170       -27.6242
  10   2.0000      -0.964945       -26.2575
  11   2.0000      -0.946187       -25.7471
  12   2.0000      -0.923524       -25.1304
  13   2.0000      -0.913079       -24.8462
  14   2.0000      -0.822566       -22.3832
  15   2.0000      -0.811720       -22.0880
  16   2.0000      -0.791510       -21.5381
  17   0.0000      -0.161476        -4.3940
  18   0.0000      -0.122298        -3.3279
  19   0.0000      -0.053398        -1.4530
  20   0.0000      -0.037973        -1.0333
  21   0.0000       0.007318         0.1991

MULLIKEN ATOMIC CHARGES
-----------------------
   0 C :   -0.000419
   1 C :   -0.069210
   2 O :   -0.431492
   3 O :   -0.438590
   4 H :    0.085384
   5 H :    0.101994
   6 H :    0.083764
   7 H :    0.078483
   8 H :    0.298028
   9 H :    0.292057
Sum of atomic charges:   -0.0000000

LOEWDIN ATOMIC CHARGES
----------------------
   0 C :   -0.340844
   1 C :   -0.354809
   2 O :   -0.053935
   3 O :   -0.054110
   4 H :    0.115746
   5 H :    0.130203
   6 H :    0.116193
   7 H :    0.109725
   8 H :    0.166450
   9 H :    0.165381

  Mayer bond orders larger than 0.100000
B(  0-C ,  1-C ) :   1.0036 B(  0-C ,  3-O ) :   1.0060 B(  0-C ,  4-H ) :   0.9659
B(  0-C ,  5-H ) :   0.9636 B(  1-C ,  2-O ) :   1.0612 B(  1-C ,  6-H ) :   0.9611
B(  1-C ,  7-H ) :   0.9624 B(  2-O ,  8-H ) :   0.9071 B(  3-O ,  9-H ) :   0.9076

FINAL SINGLE POINT ENERGY      -230.264066200758

DIPOLE MOMENT
-------------

Method             : SCF
Type of density    : Electron Density
Multiplicity       :   1
Irrep              :   0
Energy             :  -230.2709593086576945 Eh
Relativity type    :
Basis              : AO
                                X                 Y                 Z
Electronic contribution:     -0.112790059       2.034159957      -0.368852302
Nuclear contribution   :      0.582420826      -2.939496742       1.210516611
                        -----------------------------------------
Total Dipole Moment    :      0.469630766      -0.905336786       0.841664309
                        -----------------------------------------
Magnitude (a.u.)       :      1.322341318
Magnitude (Debye)      :      3.361124518

Rotational constants in cm-1:             0.528241             0.172338             0.148258
Rotational constants in MHz :         15836.272425          5166.566652          4444.667916

                             ****ORCA TERMINATED NORMALLY****
TOTAL RUN TIME: 0 days 0 hours 0 minutes 33 seconds 579 msec
