                         Program Version 6.0.0  -   RELEASE  -
|  1> ! wb97x-v def2-tzvp def2/J RIJCOSX DEFGRID2 scfconv7 GCP(DFT/TZ) printgap
|  2> %output
|  3>     printlevel normal
|  4> end
|  5> %cpcm
|  6>     smd true
|  7>     smdsolvent "water"
|  8> end
|  9> * xyz 0 1
| 10> C -0.6830732104816828 -0.5569508297040515 -0.32393481787462375
| 11> C 0.6866619968791174 -0.5939396898848068 0.30773751084729756
| 12> O 1.4432295612842465 0.5398956903736464 -0.15063650655007185
| 13> O -1.4531846900798184 0.5900347105630322 0.07429815425060825
| 14> H -1.2101932256388208 -1.487662891706086 -0.07238724478536755
| 15> H -0.5927763267011935 -0.49711503760894277 -1.4134612220725729
| 16> H 1.1796601188603657 -1.5337068890479173 0.018854832046801346
| 17> H 0.5925151534408404 -0.5759163082881914 1.403583451525252
| 18> H 2.289752090788805 0.5284936714860365 0.3125732229930383
| 19> H -1.5830844017044265 0.5310443775036676 1.0300394809806468
| 20> *
| 21>
| 22>                          ****END OF INPUT****

CARTESIAN COORDINATES (ANGSTROEM)
---------------------------------
  C     -0.683073   -0.556951   -0.323935
  C      0.686662   -0.593940    0.307738
  O      1.443230    0.539896   -0.150637
  O     -1.453185    0.590035    0.074298
  H     -1.210193   -1.487663   -0.072387
  H     -0.592776   -0.497115   -1.413461
  H      1.179660   -1.533707    0.018855
  H      0.592515   -0.575916    1.403583
  H      2.289752    0.528494    0.312573
  H     -1.583084    0.531044    1.030039

 Total Charge           Charge          ....    0
 Multiplicity           Mult            ....    1
 Number of Electrons    NEL             ....   34
 Basis Dimension        Dim             ....  160

ORBITAL ENERGIES
----------------

  NO   OCC          E(Eh)            E(eV)
   0   2.0000     -21.673928      -589.7776
   1   2.0000     -21.673621      -589.7692
   2   2.0000     -12.087838      -328.9268
   3   2.0000     -12.086496      -328.8903
   4   2.0000      -1.676450       -45.6185
   5   2.0000      -1.669557       -45.4310
   6   2.0000      -1.271326       -34.5945
   7   2.0000      -1.148153       -31.2428
   8   2.0000      -1.051760       -28.6198
   9   2.0000      -1.017361       -27.6838
  10   2.0000      -0.968653       -26.3584
  11   2.0000      -0.949056       -25.8251
  12   2.0000      -0.927089       -25.2274
  13   2.0000      -0.914839       -24.8940
  14   2.0000      -0.817335       -22.2408
  15   2.0000      -0.808290       -21.9947
  16   2.0000      -0.782565       -21.2947
  17   0.0000      -0.154756        -4.2111
  18   0.0000      -0.114836        -3.1249
  19   0.0000      -0.028981        -0.7886
  20   0.0000      -0.012643        -0.3440
  21   0.0000       0.020972         0.5707

MULLIKEN ATOMIC CHARGES
-----------------------
   0 C :   -0.003412
   1 C :   -0.070938
   2 O :   -0.555679
   3 O :   -0.562405
   4 H :    0.117202
   5 H :    0.117779
   6 H :    0.114124
   7 H :    0.119693
   8 H :    0.363440
   9 H :    0.360196
Sum of atomic charges:   -0.0000000

LOEWDIN ATOMIC CHARGES
----------------------
   0 C :   -0.340769
   1 C :   -0.342685
   2 O :   -0.101228
   3 O :   -0.102791
   4 H :    0.127567
   5 H :    0.129894
   6 H :    0.126862
   7 H :    0.123840
   8 H :    0.189555
   9 H :    0.189756

  Mayer bond orders larger than 0.100000
B(  0-C ,  1-C ) :   0.9985 B(  0-C ,  3-O ) :   0.9585 B(  0-C ,  4-H ) :   0.9687
B(  0-C ,  5-H ) :   0.9632 B(  1-C ,  2-O ) :   1.0012 B(  1-C ,  6-H ) :   0.9654
B(  1-C ,  7-H ) :   0.9693 B(  2-O ,  8-H ) :   0.8686 B(  3-O ,  9-H ) :   0.8676

FINAL SINGLE POINT ENERGY      -230.284018194091

DIPOLE MOMENT
-------------

Method             : SCF
Type of density    : Electron Density
Multiplicity       :   1
Irrep              :   0
Energy             :  -230.2909113019914571 Eh
Relativity type    :
Basis              : AO
                                X                 Y                 Z
Electronic contribution:      0.014833383       1.649113454      -0.038513927
Nuclear contribution   :      0.582420826      -2.939496742       1.210516611
                        -----------------------------------------
Total Dipole Moment    :      0.597254209      -1.290383288       1.172002684
                        -----------------------------------------
Magnitude (a.u.)       :      1.842658925
Magnitude (Debye)      :      4.683666770

Rotational constants in cm-1:             0.528241             0.172338             0.148258
Rotational constants in MHz :         15836.272425          5166.566652          4444.667916

                             ****ORCA TERMINATED NORMALLY****
TOTAL RUN TIME: 0 days 0 hours 0 minutes 41 seconds 659 msec
