                         Program Version 6.0.0  -   RELEASE  -
|  1> ! pbe def2-sv(p) def2/J RI DEFGRID1 loosescf d4 GCP(DFT/SV(P)) printgap
|  2> %output
|  3>     printlevel normal
|  4> end
|  5> * xyz 0 1
|  6> C 5.0533678374 -0.2752855356 -2.6966397946
|  7> C 3.6924633833 -0.7256400084 -2.2065034177
|  8> O 3.4297715838 -0.058009538 -0.9537191497
|  9> P 1.9593098766 0.0332803475 -0.367322959
| 10> S 0.6360182186 0.7504968716 -1.6237358936
| 11> O 2.1410730085 0.9491323283 0.8977268344
| 12> C 3.3296739027 1.0491508278 1.7229858084
| 13> C 3.6142565974 -0.2206220632 2.4969625511
| 14> S 1.6327890082 -1.9731489226 0.2806125262
| 15> C 0.0155977038 -1.8133918081 1.0774162671
| 16> S -1.3629519084 -1.6465483048 -0.1014667727
| 17> P -2.0538772681 0.2705205833 0.4502653026
| 18> S -0.9469931409 1.3558272412 1.6407904235
| 19> O -3.4238664217 -0.2199965523 1.1288004457
| 20> C -4.127551144 0.5740172613 2.1009039969
| 21> C -4.7959802155 1.7804857777 1.472329495
| 22> O -2.4701814729 1.053188739 -0.8609433583
| 23> C -3.4264594798 0.5639010949 -1.8320377507
| 24> C -2.7399231566 -0.1827600048 -2.9581575871
| 25> H 5.0561265739 0.7992466373 -2.8574564534
| 26> H 5.8145625199 -0.5251022782 -1.9634472891
| 27> H 5.2766205595 -0.7773087127 -3.6321175178
| 28> H 3.6666269972 -1.8032291122 -2.0262530639
| 29> H 2.9000974756 -0.4600668901 -2.9138830834
| 30> H 4.1688541378 1.3144667052 1.0782932348
| 31> H 3.0903801548 1.8802574419 2.3887123372
| 32> H 3.8800229151 -1.029937128 1.8209237945
| 33> H 4.4432782301 -0.0373881598 3.1735491639
| 34> H 2.7421345513 -0.5135129878 3.0764743802
| 35> H 0.0166181336 -0.9403018328 1.7354306451
| 36> H -0.1285699216 -2.7354720799 1.6337130145
| 37> H -4.8553213669 -0.1174018431 2.5277222362
| 38> H -3.4150138013 0.8885965781 2.8700513858
| 39> H -4.0402856114 2.4371377784 1.0410488184
| 40> H -5.4843315338 1.4718337631 0.6897034559
| 41> H -5.3412538984 2.3265571858 2.2357036059
| 42> H -4.1578926706 -0.069099258 -1.322419029
| 43> H -3.9071770107 1.4722394267 -2.19995903
| 44> H -3.4542246502 -0.3567718499 -3.7564730228
| 45> H -1.9083817787 0.4074513943 -3.336561837
| 46> H -2.3518270922 -1.1375375863 -2.6111943189
| 47> *
| 48>
| 49>                          ****END OF INPUT****

CARTESIAN COORDINATES (ANGSTROEM)
---------------------------------
  C      5.053368   -0.275286   -2.696640
  C      3.692463   -0.725640   -2.206503
  O      3.429772   -0.058010   -0.953719
  P      1.959310    0.033280   -0.367323
  S      0.636018    0.750497   -1.623736
  O      2.141073    0.949132    0.897727
  C      3.329674    1.049151    1.722986
  C      3.614257   -0.220622    2.496963
  S      1.632789   -1.973149    0.280613
  C      0.015598   -1.813392    1.077416
  S     -1.362952   -1.646548   -0.101467
  P     -2.053877    0.270521    0.450265
  S     -0.946993    1.355827    1.640790
  O     -3.423866   -0.219997    1.128800
  C     -4.127551    0.574017    2.100904
  C     -4.795980    1.780486    1.472329
  O     -2.470181    1.053189   -0.860943
  C     -3.426459    0.563901   -1.832038
  C     -2.739923   -0.182760   -2.958158
  H      5.056127    0.799247   -2.857456
  H      5.814563   -0.525102   -1.963447
  H      5.276621   -0.777309   -3.632118
  H      3.666627   -1.803229   -2.026253
  H      2.900097   -0.460067   -2.913883
  H      4.168854    1.314467    1.078293
  H      3.090380    1.880257    2.388712
  H      3.880023   -1.029937    1.820924
  H      4.443278   -0.037388    3.173549
  H      2.742135   -0.513513    3.076474
  H      0.016618   -0.940302    1.735431
  H     -0.128570   -2.735472    1.633713
  H     -4.855321   -0.117402    2.527722
  H     -3.415014    0.888597    2.870051
  H     -4.040286    2.437138    1.041049
  H     -5.484332    1.471834    0.689703
  H     -5.341254    2.326557    2.235704
  H     -4.157893   -0.069099   -1.322419
  H     -3.907177    1.472239   -2.199959
  H     -3.454225   -0.356772   -3.756473
  H     -1.908382    0.407451   -3.336562
  H     -2.351827   -1.137538   -2.611194

 Total Charge           Charge          ....    0
 Multiplicity           Mult            ....    1
 Number of Electrons    NEL             ....  202
 Basis Dimension        Dim             ....  334

ORBITAL ENERGIES
----------------

  NO   OCC          E(Eh)            E(eV)
   0   2.0000     -88.035886     -2395.5782
   1   2.0000     -88.032039     -2395.4736
   2   2.0000     -87.977690     -2393.9946
   3   2.0000     -87.971219     -2393.8186
   4   2.0000     -76.418527     -2079.4538
   5   2.0000     -76.416809     -2079.4071
   6   2.0000     -18.790513      -511.3158
   7   2.0000     -18.784912      -511.1634
   8   2.0000     -18.783530      -511.1258
   9   2.0000     -18.777412      -510.9594
  10   2.0000      -9.952514      -270.8217
  11   2.0000      -9.952276      -270.8152
  12   2.0000      -9.952012      -270.8080
  13   2.0000      -9.951872      -270.8042
  14   2.0000      -9.943428      -270.5744
  15   2.0000      -9.888501      -269.0798
  16   2.0000      -9.884571      -268.9728
  17   2.0000      -9.880541      -268.8632
  18   2.0000      -9.878186      -268.7991
  19   2.0000      -7.681003      -209.0107
  20   2.0000      -7.677473      -208.9147
  21   2.0000      -7.622942      -207.4308
  22   2.0000      -7.616142      -207.2458
  23   2.0000      -6.415872      -174.5847
  24   2.0000      -6.414532      -174.5483
  25   2.0000      -5.708621      -155.3395
  26   2.0000      -5.705634      -155.2582
  27   2.0000      -5.705440      -155.2529
  28   2.0000      -5.702251      -155.1661
  29   2.0000      -5.698110      -155.0535
  30   2.0000      -5.693978      -154.9410
  31   2.0000      -5.651972      -153.7980
  32   2.0000      -5.645182      -153.6132
  33   2.0000      -5.643822      -153.5762
  34   2.0000      -5.642609      -153.5432
  35   2.0000      -5.636962      -153.3895
  36   2.0000      -5.635987      -153.3630
  37   2.0000      -4.639101      -126.2364
  38   2.0000      -4.637613      -126.1959
  39   2.0000      -4.637429      -126.1909
  40   2.0000      -4.635859      -126.1481
  41   2.0000      -4.635743      -126.1450
  42   2.0000      -4.635141      -126.1286
  43   2.0000      -0.984339       -26.7852
  44   2.0000      -0.975557       -26.5463
  45   2.0000      -0.940273       -25.5861
  46   2.0000      -0.933418       -25.3996
  47   2.0000      -0.755706       -20.5638
  48   2.0000      -0.716390       -19.4940
  49   2.0000      -0.706481       -19.2243
  50   2.0000      -0.690993       -18.8029
  51   2.0000      -0.685343       -18.6491
  52   2.0000      -0.668135       -18.1809
  53   2.0000      -0.644606       -17.5406
  54   2.0000      -0.627089       -17.0639
  55   2.0000      -0.588568       -16.0157
  56   2.0000      -0.583537       -15.8789
  57   2.0000      -0.572124       -15.5683
  58   2.0000      -0.571073       -15.5397
  59   2.0000      -0.556019       -15.1300
  60   2.0000      -0.503320       -13.6960
  61   2.0000      -0.491342       -13.3701
  62   2.0000      -0.471365       -12.8265
  63   2.0000      -0.470029       -12.7901
  64   2.0000      -0.448849       -12.2138
  65   2.0000      -0.443819       -12.0769
  66   2.0000      -0.441059       -12.0018
  67   2.0000      -0.432804       -11.7772
  68   2.0000      -0.426402       -11.6030
  69   2.0000      -0.413305       -11.2466
  70   2.0000      -0.400558       -10.8997
  71   2.0000      -0.395033       -10.7494
  72   2.0000      -0.390875       -10.6362
  73   2.0000      -0.378288       -10.2937
  74   2.0000      -0.374561       -10.1923
  75   2.0000      -0.366757        -9.9800
  76   2.0000      -0.363460        -9.8902
  77   2.0000      -0.352493        -9.5918
  78   2.0000      -0.348369        -9.4796
  79   2.0000      -0.346997        -9.4423
  80   2.0000      -0.343234        -9.3399
  81   2.0000      -0.340642        -9.2693
  82   2.0000      -0.338898        -9.2219
  83   2.0000      -0.334175        -9.0934
  84   2.0000      -0.332446        -9.0463
  85   2.0000      -0.318205        -8.6588
  86   2.0000      -0.308884        -8.4052
  87   2.0000      -0.301382        -8.2010
  88   2.0000      -0.296239        -8.0611
  89   2.0000      -0.289003        -7.8642
  90   2.0000      -0.270061        -7.3487
  91   2.0000      -0.267926        -7.2906
  92   2.0000      -0.265260        -7.2181
  93   2.0000      -0.260735        -7.0950
  94   2.0000      -0.251587        -6.8460
  95   2.0000      -0.231377        -6.2961
  96   2.0000      -0.214065        -5.8250
  97   2.0000      -0.200973        -5.4687
  98   2.0000      -0.195375        -5.3164
  99   2.0000      -0.179852        -4.8940
 100   2.0000      -0.176776        -4.8103
 101   0.0000      -0.035802        -0.9742
 102   0.0000      -0.028863        -0.7854
 103   0.0000      -0.007513        -0.2044
 104   0.0000       0.007054         0.1920
 105   0.0000       0.029741         0.8093

MULLIKEN ATOMIC CHARGES
-----------------------
   0 C :   -0.281768
   1 C :   -0.010708
   2 O :   -0.390014
   3 P :    0.615139
   4 S :   -0.304346
   5 O :   -0.350088
   6 C :    0.006405
   7 C :   -0.317113
   8 S :   -0.124376
   9 C :   -0.343890
  10 S :   -0.089937
  11 P :    0.629204
  12 S :   -0.299246
  13 O :   -0.389262
  14 C :   -0.003060
  15 C :   -0.316293
  16 O :   -0.359093
  17 C :   -0.035200
  18 C :   -0.295680
  19 H :    0.122468
  20 H :    0.113284
  21 H :    0.112727
  22 H :    0.104922
  23 H :    0.106311
  24 H :    0.108932
  25 H :    0.112331
  26 H :    0.123390
  27 H :    0.110963
  28 H :    0.122886
  29 H :    0.190393
  30 H :    0.181359
  31 H :    0.100182
  32 H :    0.106653
  33 H :    0.131643
  34 H :    0.110832
  35 H :    0.110853
  36 H :    0.106047
  37 H :    0.109157
  38 H :    0.105877
  39 H :    0.136117
  40 H :    0.132000
Sum of atomic charges:   -0.0000000

LOEWDIN ATOMIC CHARGES
----------------------
   0 C :   -0.350964
   1 C :   -0.120206
   2 O :   -0.252116
   3 P :    0.564535
   4 S :   -0.304266
   5 O :   -0.227868
   6 C :   -0.106147
   7 C :   -0.368675
   8 S :    0.058515
   9 C :   -0.479951
  10 S :    0.082725
  11 P :    0.574268
  12 S :   -0.289697
  13 O :   -0.264440
  14 C :   -0.122149
  15 C :   -0.366235
  16 O :   -0.232603
  17 C :   -0.116122
  18 C :   -0.363107
  19 H :    0.129822
  20 H :    0.125066
  21 H :    0.131421
  22 H :    0.109508
  23 H :    0.109692
  24 H :    0.114254
  25 H :    0.123586
  26 H :    0.117741
  27 H :    0.130002
  28 H :    0.127303
  29 H :    0.120405
  30 H :    0.137066
  31 H :    0.115884
  32 H :    0.106795
  33 H :    0.126792
  34 H :    0.121236
  35 H :    0.129876
  36 H :    0.107315
  37 H :    0.120697
  38 H :    0.127764
  39 H :    0.131940
  40 H :    0.120339

  Mayer bond orders larger than 0.100000
B(  0-C ,  1-C ) :   1.1600 B(  0-C , 19-H ) :   0.9507 B(  0-C , 20-H ) :   0.9513
B(  0-C , 21-H ) :   0.9417 B(  1-C ,  2-O ) :   0.9035 B(  1-C , 22-H ) :   0.9298
B(  1-C , 23-H ) :   0.9058 B(  2-O ,  3-P ) :   1.0677 B(  3-P ,  4-S ) :   1.6713
B(  3-P ,  5-O ) :   1.1386 B(  3-P ,  8-S ) :   0.9413 B(  4-S ,  8-S ) :   0.1169
B(  5-O ,  6-C ) :   0.8988 B(  6-C ,  7-C ) :   1.1704 B(  6-C , 24-H ) :   0.9268
B(  6-C , 25-H ) :   0.9339 B(  7-C , 26-H ) :   0.9377 B(  7-C , 27-H ) :   0.9359
B(  7-C , 28-H ) :   0.9450 B(  8-S ,  9-C ) :   0.9970 B(  9-C , 10-S ) :   1.0057
B(  9-C , 29-H ) :   0.8499 B(  9-C , 30-H ) :   0.9123 B( 10-S , 11-P ) :   0.9525
B( 10-S , 12-S ) :   0.1103 B( 11-P , 12-S ) :   1.6155 B( 11-P , 13-O ) :   1.0599
B( 11-P , 16-O ) :   1.1185 B( 12-S , 29-H ) :   0.1144 B( 13-O , 14-C ) :   0.9222
B( 14-C , 15-C ) :   1.1597 B( 14-C , 31-H ) :   0.9349 B( 14-C , 32-H ) :   0.9110
B( 15-C , 33-H ) :   0.9365 B( 15-C , 34-H ) :   0.9466 B( 15-C , 35-H ) :   0.9398
B( 16-O , 17-C ) :   0.9067 B( 17-C , 18-C ) :   1.1701 B( 17-C , 36-H ) :   0.9155
B( 17-C , 37-H ) :   0.9345 B( 18-C , 38-H ) :   0.9378 B( 18-C , 39-H ) :   0.9398
B( 18-C , 40-H ) :   0.9350

Dispersion correction           -0.066586390
FINAL SINGLE POINT ENERGY     -2929.506169297049

DIPOLE MOMENT
-------------

Method             : SCF
Type of density    : Electron Density
Multiplicity       :   1
Irrep              :   0
Energy             : -2929.6241965436861392 Eh
Relativity type    :
Basis              : AO
                                X                 Y                 Z
Electronic contribution:     -1.762116262      -2.753315699       2.415369203
Nuclear contribution   :      1.967604333       2.138314684      -2.279890030
                        -----------------------------------------
Total Dipole Moment    :      0.205488071      -0.615001015       0.135479173
                        -----------------------------------------
Magnitude (a.u.)       :      0.662424488
Magnitude (Debye)      :      1.683749239

Rotational constants in cm-1:             0.013321             0.005101             0.004538
Rotational constants in MHz :           399.339451           152.920636           136.057442

                             ****ORCA TERMINATED NORMALLY****
TOTAL RUN TIME: 0 days 0 hours 0 minutes 20 seconds 826 msec
