                         Program Version 6.0.0  -   RELEASE  -
|  1> ! r2scan-3c def2/J RI DEFGRID2 scfconv6 printgap
|  2> %output
|  3>     printlevel normal
|  4> end
|  5> * xyz 0 1
|  6> C 3.5676867403 0.6913395326 0.0019080746
|  7> C 3.5677190034 -0.6912762146 0.0023389453
|  8> C 2.3691076273 -1.3869440539 0.000787639
|  9> C 1.1686191597 -0.6973195559 -0.0010320512
| 10> C 1.1685940337 0.6973082639 -0.0012538751
| 11> C 2.3690460136 1.38695592 0.0001579848
| 12> O 4.1331e-06 1.4301875935 -0.0027261345
| 13> C -1.1685931235 0.6972781925 -0.0010982105
| 14> C -2.3690896922 1.3869075282 0.0008455563
| 15> C -3.5677506064 0.6913263389 0.0023823717
| 16> C -3.5677207786 -0.691277935 0.0018546211
| 17> C -2.3690783231 -1.3868995877 7.21576e-05
| 18> C -1.1685894789 -0.6973403591 -0.0012884214
| 19> O 1.7397e-05 -1.430227648 -0.0025685764
| 20> H 4.4973743521 1.236650544 0.0032293918
| 21> H 4.4972802653 -1.2366857908 0.0038076808
| 22> H 2.3396325635 -2.4642863167 0.0009336718
| 23> H 2.3396897399 2.4643116765 -0.0001363691
| 24> H -2.3395284879 2.4642393913 0.0012130082
| 25> H -4.4972011292 1.236832628 0.0040734205
| 26> H -4.4972824236 -1.2368194202 0.0033580689
| 27> H -2.3397176611 -2.4642989 -5.63435e-05
| 28> *
| 29>
| 30>                          ****END OF INPUT****

CARTESIAN COORDINATES (ANGSTROEM)
---------------------------------
  C      3.567687    0.691340    0.001908
  C      3.567719   -0.691276    0.002339
  C      2.369108   -1.386944    0.000788
  C      1.168619   -0.697320   -0.001032
  C      1.168594    0.697308   -0.001254
  C      2.369046    1.386956    0.000158
  O      0.000004    1.430188   -0.002726
  C     -1.168593    0.697278   -0.001098
  C     -2.369090    1.386908    0.000846
  C     -3.567751    0.691326    0.002382
  C     -3.567721   -0.691278    0.001855
  C     -2.369078   -1.386900    0.000072
  C     -1.168589   -0.697340   -0.001288
  O      0.000017   -1.430228   -0.002569
  H      4.497374    1.236651    0.003229
  H      4.497280   -1.236686    0.003808
  H      2.339633   -2.464286    0.000934
  H      2.339690    2.464312   -0.000136
  H     -2.339528    2.464239    0.001213
  H     -4.497201    1.236833    0.004073
  H     -4.497282   -1.236819    0.003358
  H     -2.339718   -2.464299   -0.000056

 Total Charge           Charge          ....    0
 Multiplicity           Mult            ....    1
 Number of Electrons    NEL             ....   96
 Basis Dimension        Dim             ....  316

ORBITAL ENERGIES
----------------

  NO   OCC          E(Eh)            E(eV)
   0   2.0000     -19.013758      -517.3907
   1   2.0000     -19.013751      -517.3905
   2   2.0000     -10.109865      -275.1034
   3   2.0000     -10.109855      -275.1031
   4   2.0000     -10.109441      -275.0919
   5   2.0000     -10.109434      -275.0917
   6   2.0000     -10.044450      -273.3234
   7   2.0000     -10.044444      -273.3232
   8   2.0000     -10.044437      -273.3230
   9   2.0000     -10.044436      -273.3230
  10   2.0000     -10.041113      -273.2326
  11   2.0000     -10.041111      -273.2325
  12   2.0000     -10.040642      -273.2198
  13   2.0000     -10.040640      -273.2197
  14   2.0000      -1.080794       -29.4099
  15   2.0000      -1.047439       -28.5023
  16   2.0000      -0.850356       -23.1394
  17   2.0000      -0.823678       -22.4134
  18   2.0000      -0.749988       -20.4082
  19   2.0000      -0.741633       -20.1809
  20   2.0000      -0.717061       -19.5122
  21   2.0000      -0.697896       -18.9907
  22   2.0000      -0.632607       -17.2141
  23   2.0000      -0.614130       -16.7113
  24   2.0000      -0.581060       -15.8115
  25   2.0000      -0.562899       -15.3173
  26   2.0000      -0.546963       -14.8836
  27   2.0000      -0.490811       -13.3556
  28   2.0000      -0.482275       -13.1234
  29   2.0000      -0.451771       -12.2933
  30   2.0000      -0.450902       -12.2697
  31   2.0000      -0.447610       -12.1801
  32   2.0000      -0.420591       -11.4449
  33   2.0000      -0.414813       -11.2876
  34   2.0000      -0.410923       -11.1818
  35   2.0000      -0.386641       -10.5210
  36   2.0000      -0.383625       -10.4390
  37   2.0000      -0.366700        -9.9784
  38   2.0000      -0.361774        -9.8444
  39   2.0000      -0.358816        -9.7639
  40   2.0000      -0.338285        -9.2052
  41   2.0000      -0.337785        -9.1916
  42   2.0000      -0.316713        -8.6182
  43   2.0000      -0.304045        -8.2735
  44   2.0000      -0.252107        -6.8602
  45   2.0000      -0.250651        -6.8206
  46   2.0000      -0.226608        -6.1663
  47   2.0000      -0.184162        -5.0113
  48   0.0000      -0.045639        -1.2419
  49   0.0000      -0.039437        -1.0731
  50   0.0000      -0.036955        -1.0056
  51   0.0000      -0.002563        -0.0697
  52   0.0000       0.032257         0.8778

MULLIKEN ATOMIC CHARGES
-----------------------
   0 C :   -0.133018
   1 C :   -0.133015
   2 C :   -0.334043
   3 C :    0.212529
   4 C :    0.212517
   5 C :   -0.334076
   6 O :   -0.105274
   7 C :    0.212520
   8 C :   -0.334019
   9 C :   -0.133037
  10 C :   -0.133016
  11 C :   -0.334043
  12 C :    0.212486
  13 O :   -0.105281
  14 H :    0.149969
  15 H :    0.149962
  16 H :    0.157224
  17 H :    0.157229
  18 H :    0.157220
  19 H :    0.149963
  20 H :    0.149971
  21 H :    0.157230
Sum of atomic charges:   -0.0000000

LOEWDIN ATOMIC CHARGES
----------------------
   0 C :   -0.166757
   1 C :   -0.166758
   2 C :   -0.122727
   3 C :    0.218273
   4 C :    0.218270
   5 C :   -0.122726
   6 O :   -0.563810
   7 C :    0.218274
   8 C :   -0.122728
   9 C :   -0.166747
  10 C :   -0.166753
  11 C :   -0.122741
  12 C :    0.218264
  13 O :   -0.563806
  14 H :    0.169720
  15 H :    0.169711
  16 H :    0.183401
  17 H :    0.183404
  18 H :    0.183398
  19 H :    0.169708
  20 H :    0.169722
  21 H :    0.183409

  Mayer bond orders larger than 0.100000
B(  0-C ,  1-C ) :   1.4156 B(  0-C ,  5-C ) :   1.3393 B(  0-C , 14-H ) :   0.9507
B(  1-C ,  2-C ) :   1.3393 B(  1-C , 15-H ) :   0.9508 B(  2-C ,  3-C ) :   1.3588
B(  2-C , 16-H ) :   0.9625 B(  3-C ,  4-C ) :   1.4301 B(  3-C , 13-O ) :   0.9347
B(  4-C ,  5-C ) :   1.3588 B(  4-C ,  6-O ) :   0.9347 B(  5-C , 17-H ) :   0.9625
B(  6-O ,  7-C ) :   0.9347 B(  7-C ,  8-C ) :   1.3588 B(  7-C , 12-C ) :   1.4302
B(  8-C ,  9-C ) :   1.3393 B(  8-C , 18-H ) :   0.9626 B(  9-C , 10-C ) :   1.4156
B(  9-C , 19-H ) :   0.9508 B( 10-C , 11-C ) :   1.3393 B( 10-C , 20-H ) :   0.9507
B( 11-C , 12-C ) :   1.3588 B( 11-C , 21-H ) :   0.9625 B( 12-C , 13-O ) :   0.9347

Dispersion correction           -0.009223761
FINAL SINGLE POINT ENERGY      -612.394906097795

DIPOLE MOMENT
-------------

Method             : SCF
Type of density    : Electron Density
Multiplicity       :   1
Irrep              :   0
Energy             :  -612.3920929414518923 Eh
Relativity type    :
Basis              : AO
                                X                 Y                 Z
Electronic contribution:     -0.000221419       0.000059111      -0.013466385
Nuclear contribution   :      0.000232253      -0.000053307       0.015328771
                        -----------------------------------------
Total Dipole Moment    :      0.000010834       0.000005804       0.001862386
                        -----------------------------------------
Magnitude (a.u.)       :      0.001862427
Magnitude (Debye)      :      0.004733913

Rotational constants in cm-1:             0.071783             0.016049             0.013116
Rotational constants in MHz :          2152.000098           481.124189           393.213584

                             ****ORCA TERMINATED NORMALLY****
TOTAL RUN TIME: 0 days 0 hours 0 minutes 48 seconds 848 msec
