                         Program Version 6.0.0  -   RELEASE  -
|  1> ! r2scan-3c def2/J RI DEFGRID2 scfconv6 printgap
|  2> %output
|  3>     printlevel normal
|  4> end
|  5> %cpcm
|  6>     smd true
|  7>     smdsolvent "water"
|  8> end
|  9> * xyz 0 1
| 10> C 3.5676867403 0.6913395326 0.0019080746
| 11> C 3.5677190034 -0.6912762146 0.0023389453
| 12> C 2.3691076273 -1.3869440539 0.000787639
| 13> C 1.1686191597 -0.6973195559 -0.0010320512
| 14> C 1.1685940337 0.6973082639 -0.0012538751
| 15> C 2.3690460136 1.38695592 0.0001579848
| 16> O 4.1331e-06 1.4301875935 -0.0027261345
| 17> C -1.1685931235 0.6972781925 -0.0010982105
| 18> C -2.3690896922 1.3869075282 0.0008455563
| 19> C -3.5677506064 0.6913263389 0.0023823717
| 20> C -3.5677207786 -0.691277935 0.0018546211
| 21> C -2.3690783231 -1.3868995877 7.21576e-05
| 22> C -1.1685894789 -0.6973403591 -0.0012884214
| 23> O 1.7397e-05 -1.430227648 -0.0025685764
| 24> H 4.4973743521 1.236650544 0.0032293918
| 25> H 4.4972802653 -1.2366857908 0.0038076808
| 26> H 2.3396325635 -2.4642863167 0.0009336718
| 27> H 2.3396897399 2.4643116765 -0.0001363691
| 28> H -2.3395284879 2.4642393913 0.0012130082
| 29> H -4.4972011292 1.236832628 0.0040734205
| 30> H -4.4972824236 -1.2368194202 0.0033580689
| 31> H -2.3397176611 -2.4642989 -5.63435e-05
| 32> *
| 33>
| 34>                          ****END OF INPUT****

CARTESIAN COORDINATES (ANGSTROEM)
---------------------------------
  C      3.567687    0.691340    0.001908
  C      3.567719   -0.691276    0.002339
  C      2.369108   -1.386944    0.000788
  C      1.168619   -0.697320   -0.001032
  C      1.168594    0.697308   -0.001254
  C      2.369046    1.386956    0.000158
  O      0.000004    1.430188   -0.002726
  C     -1.168593    0.697278   -0.001098
  C     -2.369090    1.386908    0.000846
  C     -3.567751    0.691326    0.002382
  C     -3.567721   -0.691278    0.001855
  C     -2.369078   -1.386900    0.000072
  C     -1.168589   -0.697340   -0.001288
  O      0.000017   -1.430228   -0.002569
  H      4.497374    1.236651    0.003229
  H      4.497280   -1.236686    0.003808
  H      2.339633   -2.464286    0.000934
  H      2.339690    2.464312   -0.000136
  H     -2.339528    2.464239    0.001213
  H     -4.497201    1.236833    0.004073
  H     -4.497282   -1.236819    0.003358
  H     -2.339718   -2.464299   -0.000056

 Total Charge           Charge          ....    0
 Multiplicity           Mult            ....    1
 Number of Electrons    NEL             ....   96
 Basis Dimension        Dim             ....  316

ORBITAL ENERGIES
----------------

  NO   OCC          E(Eh)            E(eV)
   0   2.0000     -19.016996      -517.4788
   1   2.0000     -19.016989      -517.4786
   2   2.0000     -10.110630      -275.1242
   3   2.0000     -10.110620      -275.1240
   4   2.0000     -10.110206      -275.1127
   5   2.0000     -10.110199      -275.1125
   6   2.0000     -10.042071      -273.2586
   7   2.0000     -10.042066      -273.2585
   8   2.0000     -10.042058      -273.2583
   9   2.0000     -10.042056      -273.2582
  10   2.0000     -10.037592      -273.1368
  11   2.0000     -10.037590      -273.1367
  12   2.0000     -10.037120      -273.1239
  13   2.0000     -10.037118      -273.1239
  14   2.0000      -1.083631       -29.4871
  15   2.0000      -1.050648       -28.5896
  16   2.0000      -0.850453       -23.1420
  17   2.0000      -0.823094       -22.3975
  18   2.0000      -0.749670       -20.3996
  19   2.0000      -0.740695       -20.1553
  20   2.0000      -0.715325       -19.4650
  21   2.0000      -0.697417       -18.9777
  22   2.0000      -0.631779       -17.1916
  23   2.0000      -0.613206       -16.6862
  24   2.0000      -0.578400       -15.7391
  25   2.0000      -0.563348       -15.3295
  26   2.0000      -0.543938       -14.8013
  27   2.0000      -0.488105       -13.2820
  28   2.0000      -0.479360       -13.0440
  29   2.0000      -0.450548       -12.2600
  30   2.0000      -0.448053       -12.1921
  31   2.0000      -0.447029       -12.1643
  32   2.0000      -0.417924       -11.3723
  33   2.0000      -0.412842       -11.2340
  34   2.0000      -0.406205       -11.0534
  35   2.0000      -0.389517       -10.5993
  36   2.0000      -0.387607       -10.5473
  37   2.0000      -0.364265        -9.9121
  38   2.0000      -0.363340        -9.8870
  39   2.0000      -0.353165        -9.6101
  40   2.0000      -0.333177        -9.0662
  41   2.0000      -0.333107        -9.0643
  42   2.0000      -0.318136        -8.6569
  43   2.0000      -0.304590        -8.2883
  44   2.0000      -0.253017        -6.8849
  45   2.0000      -0.251597        -6.8463
  46   2.0000      -0.227584        -6.1929
  47   2.0000      -0.186595        -5.0775
  48   0.0000      -0.046329        -1.2607
  49   0.0000      -0.039826        -1.0837
  50   0.0000      -0.036884        -1.0037
  51   0.0000      -0.003021        -0.0822
  52   0.0000       0.031991         0.8705

MULLIKEN ATOMIC CHARGES
-----------------------
   0 C :   -0.170661
   1 C :   -0.170650
   2 C :   -0.358180
   3 C :    0.214299
   4 C :    0.214293
   5 C :   -0.358211
   6 O :   -0.119829
   7 C :    0.214292
   8 C :   -0.358160
   9 C :   -0.170664
  10 C :   -0.170660
  11 C :   -0.358188
  12 C :    0.214270
  13 O :   -0.119839
  14 H :    0.184935
  15 H :    0.184926
  16 H :    0.189539
  17 H :    0.189544
  18 H :    0.189534
  19 H :    0.184925
  20 H :    0.184937
  21 H :    0.189547
Sum of atomic charges:    0.0000000

LOEWDIN ATOMIC CHARGES
----------------------
   0 C :   -0.172568
   1 C :   -0.172567
   2 C :   -0.127672
   3 C :    0.212600
   4 C :    0.212597
   5 C :   -0.127672
   6 O :   -0.576976
   7 C :    0.212602
   8 C :   -0.127672
   9 C :   -0.172554
  10 C :   -0.172565
  11 C :   -0.127688
  12 C :    0.212591
  13 O :   -0.576973
  14 H :    0.181437
  15 H :    0.181426
  16 H :    0.194695
  17 H :    0.194699
  18 H :    0.194691
  19 H :    0.181422
  20 H :    0.181439
  21 H :    0.194705

  Mayer bond orders larger than 0.100000
B(  0-C ,  1-C ) :   1.3777 B(  0-C ,  5-C ) :   1.3190 B(  0-C , 14-H ) :   0.9575
B(  1-C ,  2-C ) :   1.3190 B(  1-C , 15-H ) :   0.9575 B(  2-C ,  3-C ) :   1.3065
B(  2-C , 16-H ) :   0.9746 B(  3-C ,  4-C ) :   1.4071 B(  3-C , 13-O ) :   0.9267
B(  4-C ,  5-C ) :   1.3064 B(  4-C ,  6-O ) :   0.9268 B(  5-C , 17-H ) :   0.9746
B(  6-O ,  7-C ) :   0.9267 B(  7-C ,  8-C ) :   1.3065 B(  7-C , 12-C ) :   1.4071
B(  8-C ,  9-C ) :   1.3190 B(  8-C , 18-H ) :   0.9746 B(  9-C , 10-C ) :   1.3777
B(  9-C , 19-H ) :   0.9575 B( 10-C , 11-C ) :   1.3190 B( 10-C , 20-H ) :   0.9575
B( 11-C , 12-C ) :   1.3065 B( 11-C , 21-H ) :   0.9745 B( 12-C , 13-O ) :   0.9268

Dispersion correction           -0.009223761
FINAL SINGLE POINT ENERGY      -612.398370440654

DIPOLE MOMENT
-------------

Method             : SCF
Type of density    : Electron Density
Multiplicity       :   1
Irrep              :   0
Energy             :  -612.3955572843108257 Eh
Relativity type    :
Basis              : AO
                                X                 Y                 Z
Electronic contribution:     -0.000214588       0.000055827      -0.012703090
Nuclear contribution   :      0.000232253      -0.000053307       0.015328771
                        -----------------------------------------
Total Dipole Moment    :      0.000017664       0.000002520       0.002625681
                        -----------------------------------------
Magnitude (a.u.)       :      0.002625741
Magnitude (Debye)      :      0.006674104

Rotational constants in cm-1:             0.071783             0.016049             0.013116
Rotational constants in MHz :          2152.000098           481.124189           393.213584

                             ****ORCA TERMINATED NORMALLY****
TOTAL RUN TIME: 0 days 0 hours 0 minutes 59 seconds 733 msec
