                         Program Version 6.0.0  -   RELEASE  -
|  1> ! pbe def2-sv(p) def2/J RI DEFGRID1 loosescf d4 GCP(DFT/SV(P)) printgap
|  2> %output
|  3>     printlevel normal
|  4> end
|  5> * xyz 0 1
|  6> C 1.8616916841 -2.9117847577 0.7400446882
|  7> C 1.9409645787 -1.6577037407 1.5861230248
|  8> O 2.9112927996 -0.7168799398 1.0957433178
|  9> P 2.7823956102 0.111032993 -0.2583181585
| 10> S 3.0414146369 -0.8384087331 -1.9533911101
| 11> O 3.9203339144 1.1809484865 -0.0765558667
| 12> C 4.3032756637 1.8162158012 1.1682282554
| 13> C 3.2022667504 2.6846631313 1.7380543265
| 14> S 0.910292867 1.1516577704 -0.1071082212
| 15> C -0.0175985405 0.263079495 -1.3769126173
| 16> S -1.0405544018 -1.0678068978 -0.7054063623
| 17> P -2.6714314266 0.1795875738 -0.1222846358
| 18> S -3.1472272939 1.6015700416 -1.3781630693
| 19> O -2.2737254916 0.7571438869 1.2877874248
| 20> C -1.9599351584 -0.0873663278 2.4268018059
| 21> C -0.9530917315 0.6462030494 3.288443029
| 22> O -3.8230983951 -0.8500969474 0.2544075105
| 23> C -4.7640737678 -1.3602730916 -0.7075952298
| 24> C -4.0988327234 -2.2030335282 -1.7761359496
| 25> H 1.2084836312 -3.6300194083 1.2246739952
| 26> H 1.4597616209 -2.6834930365 -0.2457336016
| 27> H 2.8498747722 -3.3476007114 0.617823675
| 28> H 2.2890743412 -1.8810437857 2.5961876032
| 29> H 0.9665392415 -1.1629518713 1.6314415999
| 30> H 4.5955028406 1.036675286 1.8737324129
| 31> H 5.1748015074 2.4083264495 0.885116738
| 32> H 2.3497821772 2.0747426573 2.031115518
| 33> H 3.5781206184 3.2078703727 2.6117733325
| 34> H 2.870706058 3.4115262597 1.0007420054
| 35> H 0.690431171 -0.1869335827 -2.077501203
| 36> H -0.6670155987 0.9836948977 -1.8762090056
| 37> H -2.8930887188 -0.2693653531 2.962369792
| 38> H -1.5659465953 -1.0399540048 2.0592650441
| 39> H -1.3737471696 1.5867263957 3.6313715247
| 40> H -0.6979070562 0.030152792 4.1444867447
| 41> H -0.0559536825 0.8631699618 2.7139009138
| 42> H -5.4564886937 -1.9482986601 -0.1034888514
| 43> H -5.2893175545 -0.5126953667 -1.1581338602
| 44> H -3.4691412885 -1.5772924363 -2.4072485239
| 45> H -3.4838355796 -2.9763425931 -1.3225564264
| 46> H -4.8620688766 -2.6650346443 -2.3940925896
| 47> *
| 48>
| 49>                          ****END OF INPUT****

CARTESIAN COORDINATES (ANGSTROEM)
---------------------------------
  C      1.861692   -2.911785    0.740045
  C      1.940965   -1.657704    1.586123
  O      2.911293   -0.716880    1.095743
  P      2.782396    0.111033   -0.258318
  S      3.041415   -0.838409   -1.953391
  O      3.920334    1.180948   -0.076556
  C      4.303276    1.816216    1.168228
  C      3.202267    2.684663    1.738054
  S      0.910293    1.151658   -0.107108
  C     -0.017599    0.263079   -1.376913
  S     -1.040554   -1.067807   -0.705406
  P     -2.671431    0.179588   -0.122285
  S     -3.147227    1.601570   -1.378163
  O     -2.273725    0.757144    1.287787
  C     -1.959935   -0.087366    2.426802
  C     -0.953092    0.646203    3.288443
  O     -3.823098   -0.850097    0.254408
  C     -4.764074   -1.360273   -0.707595
  C     -4.098833   -2.203034   -1.776136
  H      1.208484   -3.630019    1.224674
  H      1.459762   -2.683493   -0.245734
  H      2.849875   -3.347601    0.617824
  H      2.289074   -1.881044    2.596188
  H      0.966539   -1.162952    1.631442
  H      4.595503    1.036675    1.873732
  H      5.174802    2.408326    0.885117
  H      2.349782    2.074743    2.031116
  H      3.578121    3.207870    2.611773
  H      2.870706    3.411526    1.000742
  H      0.690431   -0.186934   -2.077501
  H     -0.667016    0.983695   -1.876209
  H     -2.893089   -0.269365    2.962370
  H     -1.565947   -1.039954    2.059265
  H     -1.373747    1.586726    3.631372
  H     -0.697907    0.030153    4.144487
  H     -0.055954    0.863170    2.713901
  H     -5.456489   -1.948299   -0.103489
  H     -5.289318   -0.512695   -1.158134
  H     -3.469141   -1.577292   -2.407249
  H     -3.483836   -2.976343   -1.322556
  H     -4.862069   -2.665035   -2.394093

 Total Charge           Charge          ....    0
 Multiplicity           Mult            ....    1
 Number of Electrons    NEL             ....  202
 Basis Dimension        Dim             ....  334

ORBITAL ENERGIES
----------------

  NO   OCC          E(Eh)            E(eV)
   0   2.0000     -88.046484     -2395.8666
   1   2.0000     -88.044585     -2395.8150
   2   2.0000     -87.989757     -2394.3230
   3   2.0000     -87.986495     -2394.2343
   4   2.0000     -76.429643     -2079.7563
   5   2.0000     -76.429632     -2079.7560
   6   2.0000     -18.798911      -511.5444
   7   2.0000     -18.797901      -511.5169
   8   2.0000     -18.795262      -511.4451
   9   2.0000     -18.795167      -511.4425
  10   2.0000      -9.961262      -271.0597
  11   2.0000      -9.961145      -271.0565
  12   2.0000      -9.960291      -271.0333
  13   2.0000      -9.958069      -270.9728
  14   2.0000      -9.948601      -270.7152
  15   2.0000      -9.895672      -269.2749
  16   2.0000      -9.892978      -269.2016
  17   2.0000      -9.887529      -269.0533
  18   2.0000      -9.884315      -268.9659
  19   2.0000      -7.690971      -209.2820
  20   2.0000      -7.688898      -209.2256
  21   2.0000      -7.634965      -207.7580
  22   2.0000      -7.631673      -207.6684
  23   2.0000      -6.427340      -174.8968
  24   2.0000      -6.426912      -174.8852
  25   2.0000      -5.718562      -155.6100
  26   2.0000      -5.716737      -155.5603
  27   2.0000      -5.715563      -155.5284
  28   2.0000      -5.713319      -155.4673
  29   2.0000      -5.708245      -155.3293
  30   2.0000      -5.706144      -155.2721
  31   2.0000      -5.663980      -154.1247
  32   2.0000      -5.660754      -154.0370
  33   2.0000      -5.655505      -153.8941
  34   2.0000      -5.655084      -153.8827
  35   2.0000      -5.652187      -153.8038
  36   2.0000      -5.651733      -153.7915
  37   2.0000      -4.650282      -126.5406
  38   2.0000      -4.649835      -126.5284
  39   2.0000      -4.648976      -126.5051
  40   2.0000      -4.648673      -126.4968
  41   2.0000      -4.647556      -126.4664
  42   2.0000      -4.647087      -126.4537
  43   2.0000      -0.993166       -27.0254
  44   2.0000      -0.992776       -27.0148
  45   2.0000      -0.949699       -25.8426
  46   2.0000      -0.948258       -25.8034
  47   2.0000      -0.763965       -20.7886
  48   2.0000      -0.726362       -19.7653
  49   2.0000      -0.717555       -19.5257
  50   2.0000      -0.695758       -18.9325
  51   2.0000      -0.694024       -18.8853
  52   2.0000      -0.681154       -18.5351
  53   2.0000      -0.653718       -17.7886
  54   2.0000      -0.639853       -17.4113
  55   2.0000      -0.599805       -16.3215
  56   2.0000      -0.593609       -16.1529
  57   2.0000      -0.585514       -15.9326
  58   2.0000      -0.577982       -15.7277
  59   2.0000      -0.560901       -15.2629
  60   2.0000      -0.510866       -13.9014
  61   2.0000      -0.502519       -13.6742
  62   2.0000      -0.478839       -13.0299
  63   2.0000      -0.478421       -13.0185
  64   2.0000      -0.462703       -12.5908
  65   2.0000      -0.451733       -12.2923
  66   2.0000      -0.443252       -12.0615
  67   2.0000      -0.441513       -12.0142
  68   2.0000      -0.433745       -11.8028
  69   2.0000      -0.431391       -11.7388
  70   2.0000      -0.414190       -11.2707
  71   2.0000      -0.408675       -11.1206
  72   2.0000      -0.396180       -10.7806
  73   2.0000      -0.392718       -10.6864
  74   2.0000      -0.380496       -10.3538
  75   2.0000      -0.369727       -10.0608
  76   2.0000      -0.369103       -10.0438
  77   2.0000      -0.364098        -9.9076
  78   2.0000      -0.359642        -9.7864
  79   2.0000      -0.357845        -9.7375
  80   2.0000      -0.353404        -9.6166
  81   2.0000      -0.347124        -9.4457
  82   2.0000      -0.345686        -9.4066
  83   2.0000      -0.343131        -9.3371
  84   2.0000      -0.339735        -9.2447
  85   2.0000      -0.321462        -8.7474
  86   2.0000      -0.314869        -8.5680
  87   2.0000      -0.307060        -8.3555
  88   2.0000      -0.302785        -8.2392
  89   2.0000      -0.298474        -8.1219
  90   2.0000      -0.295551        -8.0424
  91   2.0000      -0.281048        -7.6477
  92   2.0000      -0.274780        -7.4771
  93   2.0000      -0.267726        -7.2852
  94   2.0000      -0.260129        -7.0785
  95   2.0000      -0.240591        -6.5468
  96   2.0000      -0.222375        -6.0511
  97   2.0000      -0.212397        -5.7796
  98   2.0000      -0.204739        -5.5712
  99   2.0000      -0.203788        -5.5453
 100   2.0000      -0.198904        -5.4124
 101   0.0000      -0.045603        -1.2409
 102   0.0000      -0.033038        -0.8990
 103   0.0000      -0.010540        -0.2868
 104   0.0000      -0.000587        -0.0160
 105   0.0000       0.006523         0.1775

MULLIKEN ATOMIC CHARGES
-----------------------
   0 C :   -0.297469
   1 C :   -0.042789
   2 O :   -0.380947
   3 P :    0.609995
   4 S :   -0.301776
   5 O :   -0.357163
   6 C :    0.005166
   7 C :   -0.346342
   8 S :   -0.115101
   9 C :   -0.353848
  10 S :   -0.109135
  11 P :    0.597462
  12 S :   -0.302859
  13 O :   -0.355033
  14 C :   -0.017107
  15 C :   -0.312609
  16 O :   -0.385930
  17 C :    0.001167
  18 C :   -0.321810
  19 H :    0.106390
  20 H :    0.127531
  21 H :    0.121339
  22 H :    0.103488
  23 H :    0.128211
  24 H :    0.111510
  25 H :    0.114266
  26 H :    0.140995
  27 H :    0.119107
  28 H :    0.133893
  29 H :    0.195890
  30 H :    0.194673
  31 H :    0.110758
  32 H :    0.107891
  33 H :    0.122294
  34 H :    0.106275
  35 H :    0.154973
  36 H :    0.105680
  37 H :    0.114438
  38 H :    0.132564
  39 H :    0.117699
  40 H :    0.116265
Sum of atomic charges:   -0.0000000

LOEWDIN ATOMIC CHARGES
----------------------
   0 C :   -0.366086
   1 C :   -0.121536
   2 O :   -0.246605
   3 P :    0.569553
   4 S :   -0.293653
   5 O :   -0.233038
   6 C :   -0.108481
   7 C :   -0.370844
   8 S :    0.080006
   9 C :   -0.496175
  10 S :    0.080440
  11 P :    0.570528
  12 S :   -0.303575
  13 O :   -0.237414
  14 C :   -0.114025
  15 C :   -0.358148
  16 O :   -0.249686
  17 C :   -0.114753
  18 C :   -0.371403
  19 H :    0.128639
  20 H :    0.116044
  21 H :    0.129436
  22 H :    0.118217
  23 H :    0.102107
  24 H :    0.115248
  25 H :    0.124674
  26 H :    0.116695
  27 H :    0.134627
  28 H :    0.132173
  29 H :    0.126004
  30 H :    0.128326
  31 H :    0.118045
  32 H :    0.100019
  33 H :    0.131351
  34 H :    0.128409
  35 H :    0.121592
  36 H :    0.119139
  37 H :    0.114610
  38 H :    0.123601
  39 H :    0.123171
  40 H :    0.132770

  Mayer bond orders larger than 0.100000
B(  0-C ,  1-C ) :   1.1662 B(  0-C , 19-H ) :   0.9366 B(  0-C , 20-H ) :   0.9283
B(  0-C , 21-H ) :   0.9440 B(  1-C ,  2-O ) :   0.9160 B(  1-C , 22-H ) :   0.9343
B(  1-C , 23-H ) :   0.8989 B(  2-O ,  3-P ) :   1.0661 B(  3-P ,  4-S ) :   1.6475
B(  3-P ,  5-O ) :   1.1492 B(  3-P ,  8-S ) :   0.9357 B(  4-S ,  8-S ) :   0.1180
B(  4-S , 29-H ) :   0.1239 B(  5-O ,  6-C ) :   0.8987 B(  6-C ,  7-C ) :   1.1680
B(  6-C , 24-H ) :   0.9265 B(  6-C , 25-H ) :   0.9333 B(  7-C , 26-H ) :   0.9291
B(  7-C , 27-H ) :   0.9349 B(  7-C , 28-H ) :   0.9414 B(  8-S ,  9-C ) :   1.0058
B(  9-C , 10-S ) :   1.0007 B(  9-C , 29-H ) :   0.8460 B(  9-C , 30-H ) :   0.8601
B( 10-S , 11-P ) :   0.9461 B( 10-S , 12-S ) :   0.1081 B( 11-P , 12-S ) :   1.6413
B( 11-P , 13-O ) :   1.1413 B( 11-P , 16-O ) :   1.0890 B( 13-O , 14-C ) :   0.8896
B( 14-C , 15-C ) :   1.1649 B( 14-C , 31-H ) :   0.9306 B( 14-C , 32-H ) :   0.9056
B( 15-C , 33-H ) :   0.9456 B( 15-C , 34-H ) :   0.9397 B( 15-C , 35-H ) :   0.9262
B( 16-O , 17-C ) :   0.9049 B( 17-C , 18-C ) :   1.1659 B( 17-C , 36-H ) :   0.9344
B( 17-C , 37-H ) :   0.9202 B( 18-C , 38-H ) :   0.9344 B( 18-C , 39-H ) :   0.9434
B( 18-C , 40-H ) :   0.9367

Dispersion correction           -0.064856472
FINAL SINGLE POINT ENERGY     -2929.518053689218

DIPOLE MOMENT
-------------

Method             : SCF
Type of density    : Electron Density
Multiplicity       :   1
Irrep              :   0
Energy             : -2929.6389490260248749 Eh
Relativity type    :
Basis              : AO
                                X                 Y                 Z
Electronic contribution:      1.469763034       7.279078859     -15.670293576
Nuclear contribution   :     -1.752720920      -8.045011291      17.759422094
                        -----------------------------------------
Total Dipole Moment    :     -0.282957886      -0.765932431       2.089128518
                        -----------------------------------------
Magnitude (a.u.)       :      2.243028225
Magnitude (Debye)      :      5.701324656

Rotational constants in cm-1:             0.012503             0.004656             0.004397
Rotational constants in MHz :           374.830777           139.570836           131.822185

                             ****ORCA TERMINATED NORMALLY****
TOTAL RUN TIME: 0 days 0 hours 0 minutes 21 seconds 419 msec
