                         Program Version 6.0.0  -   RELEASE  -
|  1> ! r2scan-3c def2/J RI DEFGRID2 scfconv6 printgap
|  2> %output
|  3>     printlevel normal
|  4> end
|  5> * xyz 0 1
|  6> C 4.0028432115 -1.3682681232 -2.6471386676
|  7> C 4.2519079477 -1.8458913199 -1.2312360621
|  8> O 3.0412469782 -1.8836221712 -0.4561359016
|  9> P 2.2746537866 -0.5634628815 -0.0095790391
| 10> S 3.4582439498 0.9200929939 0.4986416561
| 11> O 1.3104255699 -1.1368506659 1.1078993466
| 12> C 1.7582923773 -1.3559383646 2.4676009238
| 13> C 1.3953302475 -0.1769185146 3.348619763
| 14> S 0.8638733034 -0.189737381 -1.5350620014
| 15> C 0.4095781926 1.468414771 -0.9591172217
| 16> S -0.5905366842 1.4368804863 0.5452408284
| 17> P -2.3182982781 0.5596759658 -0.3523582437
| 18> S -2.706958635 1.176368205 -2.1656055058
| 19> O -3.4404202094 0.8343274703 0.7385165214
| 20> C -3.9758027639 2.1595396332 0.9437648918
| 21> C -5.2477078298 2.0239504001 1.7556474176
| 22> O -2.1581227154 -1.0021271462 -0.2714068555
| 23> C -1.9998042778 -1.7235166354 0.9781397857
| 24> C -1.4177501213 -3.0824608813 0.6514019479
| 25> H 4.9167305873 -1.4605452128 -3.2251356982
| 26> H 3.2182486564 -1.9589971439 -3.1135081694
| 27> H 3.6942906998 -0.323389245 -2.6387100595
| 28> H 4.9668244181 -1.1895247849 -0.7245130467
| 29> H 4.6105400549 -2.8757419589 -1.20908377
| 30> H 1.2439471361 -2.2654874783 2.7819834676
| 31> H 2.8380771292 -1.5262595905 2.4676286857
| 32> H 0.3272822616 0.0175772984 3.3027113488
| 33> H 1.678192731 -0.3961887616 4.3730995182
| 34> H 1.9207170197 0.7165255945 3.0182755211
| 35> H -0.1642414328 1.9318166046 -1.761981487
| 36> H 1.311913621 2.0359978366 -0.7303112213
| 37> H -3.2237022155 2.7522817574 1.4711657291
| 38> H -4.1677466815 2.6115996733 -0.0346108891
| 39> H -5.9710884863 1.4183468656 1.2170286527
| 40> H -5.0317294226 1.5516506022 2.709407926
| 41> H -5.6650614321 3.0102903847 1.9290490685
| 42> H -1.3359490639 -1.148786415 1.6298894114
| 43> H -2.9848617485 -1.8040496366 1.4408777882
| 44> H -0.4261382654 -2.9712353989 0.2194327123
| 45> H -1.3511007439 -3.6705698999 1.5611419438
| 46> H -2.0540751304 -3.5953362327 -0.0641231134
| 47> *
| 48>
| 49>                          ****END OF INPUT****

CARTESIAN COORDINATES (ANGSTROEM)
---------------------------------
  C      4.002843   -1.368268   -2.647139
  C      4.251908   -1.845891   -1.231236
  O      3.041247   -1.883622   -0.456136
  P      2.274654   -0.563463   -0.009579
  S      3.458244    0.920093    0.498642
  O      1.310426   -1.136851    1.107899
  C      1.758292   -1.355938    2.467601
  C      1.395330   -0.176919    3.348620
  S      0.863873   -0.189737   -1.535062
  C      0.409578    1.468415   -0.959117
  S     -0.590537    1.436880    0.545241
  P     -2.318298    0.559676   -0.352358
  S     -2.706959    1.176368   -2.165606
  O     -3.440420    0.834327    0.738517
  C     -3.975803    2.159540    0.943765
  C     -5.247708    2.023950    1.755647
  O     -2.158123   -1.002127   -0.271407
  C     -1.999804   -1.723517    0.978140
  C     -1.417750   -3.082461    0.651402
  H      4.916731   -1.460545   -3.225136
  H      3.218249   -1.958997   -3.113508
  H      3.694291   -0.323389   -2.638710
  H      4.966824   -1.189525   -0.724513
  H      4.610540   -2.875742   -1.209084
  H      1.243947   -2.265487    2.781983
  H      2.838077   -1.526260    2.467629
  H      0.327282    0.017577    3.302711
  H      1.678193   -0.396189    4.373100
  H      1.920717    0.716526    3.018276
  H     -0.164241    1.931817   -1.761981
  H      1.311914    2.035998   -0.730311
  H     -3.223702    2.752282    1.471166
  H     -4.167747    2.611600   -0.034611
  H     -5.971088    1.418347    1.217029
  H     -5.031729    1.551651    2.709408
  H     -5.665061    3.010290    1.929049
  H     -1.335949   -1.148786    1.629889
  H     -2.984862   -1.804050    1.440878
  H     -0.426138   -2.971235    0.219433
  H     -1.351101   -3.670570    1.561142
  H     -2.054075   -3.595336   -0.064123

 Total Charge           Charge          ....    0
 Multiplicity           Mult            ....    1
 Number of Electrons    NEL             ....  202
 Basis Dimension        Dim             ....  539

ORBITAL ENERGIES
----------------

  NO   OCC          E(Eh)            E(eV)
   0   2.0000     -88.576305     -2410.2838
   1   2.0000     -88.572686     -2410.1853
   2   2.0000     -88.523847     -2408.8563
   3   2.0000     -88.517864     -2408.6935
   4   2.0000     -76.916637     -2093.0081
   5   2.0000     -76.911957     -2092.8807
   6   2.0000     -18.996303      -516.9157
   7   2.0000     -18.994423      -516.8645
   8   2.0000     -18.993070      -516.8277
   9   2.0000     -18.990282      -516.7519
  10   2.0000     -10.104893      -274.9681
  11   2.0000     -10.102653      -274.9072
  12   2.0000     -10.100679      -274.8534
  13   2.0000     -10.100326      -274.8438
  14   2.0000     -10.100091      -274.8374
  15   2.0000     -10.035210      -273.0720
  16   2.0000     -10.029857      -272.9263
  17   2.0000     -10.029578      -272.9187
  18   2.0000     -10.029310      -272.9114
  19   2.0000      -7.870493      -214.1670
  20   2.0000      -7.867064      -214.0737
  21   2.0000      -7.818671      -212.7569
  22   2.0000      -7.812644      -212.5929
  23   2.0000      -6.595249      -179.4658
  24   2.0000      -6.590571      -179.3386
  25   2.0000      -5.817401      -158.2995
  26   2.0000      -5.814462      -158.2195
  27   2.0000      -5.813832      -158.2024
  28   2.0000      -5.810892      -158.1224
  29   2.0000      -5.807483      -158.0296
  30   2.0000      -5.804312      -157.9434
  31   2.0000      -5.766259      -156.9079
  32   2.0000      -5.760327      -156.7465
  33   2.0000      -5.759059      -156.7120
  34   2.0000      -5.758613      -156.6998
  35   2.0000      -5.752910      -156.5446
  36   2.0000      -5.752621      -156.5368
  37   2.0000      -4.740822      -129.0043
  38   2.0000      -4.740071      -128.9839
  39   2.0000      -4.738992      -128.9545
  40   2.0000      -4.736406      -128.8841
  41   2.0000      -4.735558      -128.8611
  42   2.0000      -4.733941      -128.8171
  43   2.0000      -1.053590       -28.6696
  44   2.0000      -1.051762       -28.6199
  45   2.0000      -1.013862       -27.5886
  46   2.0000      -1.010155       -27.4877
  47   2.0000      -0.802422       -21.8350
  48   2.0000      -0.761287       -20.7157
  49   2.0000      -0.752479       -20.4760
  50   2.0000      -0.736482       -20.0407
  51   2.0000      -0.733031       -19.9468
  52   2.0000      -0.711827       -19.3698
  53   2.0000      -0.684345       -18.6220
  54   2.0000      -0.668685       -18.1958
  55   2.0000      -0.631318       -17.1790
  56   2.0000      -0.615818       -16.7572
  57   2.0000      -0.610959       -16.6250
  58   2.0000      -0.603496       -16.4220
  59   2.0000      -0.592137       -16.1129
  60   2.0000      -0.537304       -14.6208
  61   2.0000      -0.528036       -14.3686
  62   2.0000      -0.502479       -13.6731
  63   2.0000      -0.492578       -13.4037
  64   2.0000      -0.480150       -13.0655
  65   2.0000      -0.465964       -12.6795
  66   2.0000      -0.460167       -12.5218
  67   2.0000      -0.456361       -12.4182
  68   2.0000      -0.447268       -12.1708
  69   2.0000      -0.435251       -11.8438
  70   2.0000      -0.424476       -11.5506
  71   2.0000      -0.417378       -11.3574
  72   2.0000      -0.409404       -11.1405
  73   2.0000      -0.398161       -10.8345
  74   2.0000      -0.393066       -10.6959
  75   2.0000      -0.390418       -10.6238
  76   2.0000      -0.382758       -10.4154
  77   2.0000      -0.377420       -10.2701
  78   2.0000      -0.371343       -10.1048
  79   2.0000      -0.367946       -10.0123
  80   2.0000      -0.364129        -9.9084
  81   2.0000      -0.361216        -9.8292
  82   2.0000      -0.359221        -9.7749
  83   2.0000      -0.354188        -9.6379
  84   2.0000      -0.349804        -9.5187
  85   2.0000      -0.331319        -9.0157
  86   2.0000      -0.325252        -8.8505
  87   2.0000      -0.319128        -8.6839
  88   2.0000      -0.315271        -8.5790
  89   2.0000      -0.312476        -8.5029
  90   2.0000      -0.306147        -8.3307
  91   2.0000      -0.296518        -8.0687
  92   2.0000      -0.286075        -7.7845
  93   2.0000      -0.280890        -7.6434
  94   2.0000      -0.272357        -7.4112
  95   2.0000      -0.247466        -6.7339
  96   2.0000      -0.232511        -6.3269
  97   2.0000      -0.226679        -6.1682
  98   2.0000      -0.217496        -5.9184
  99   2.0000      -0.215966        -5.8767
 100   2.0000      -0.211205        -5.7472
 101   0.0000      -0.046969        -1.2781
 102   0.0000      -0.025349        -0.6898
 103   0.0000      -0.004470        -0.1216
 104   0.0000       0.001713         0.0466
 105   0.0000       0.013635         0.3710

MULLIKEN ATOMIC CHARGES
-----------------------
   0 C :   -0.454694
   1 C :   -0.148800
   2 O :   -0.306349
   3 P :    0.658547
   4 S :   -0.481562
   5 O :   -0.258335
   6 C :   -0.146081
   7 C :   -0.439500
   8 S :   -0.094560
   9 C :   -0.244361
  10 S :   -0.181589
  11 P :    0.671028
  12 S :   -0.450609
  13 O :   -0.286973
  14 C :   -0.153843
  15 C :   -0.439498
  16 O :   -0.256322
  17 C :   -0.103813
  18 C :   -0.471387
  19 H :    0.148357
  20 H :    0.157687
  21 H :    0.177537
  22 H :    0.171826
  23 H :    0.147914
  24 H :    0.153051
  25 H :    0.153604
  26 H :    0.147319
  27 H :    0.145957
  28 H :    0.183763
  29 H :    0.221663
  30 H :    0.211781
  31 H :    0.151856
  32 H :    0.170999
  33 H :    0.159166
  34 H :    0.150377
  35 H :    0.147505
  36 H :    0.158055
  37 H :    0.154878
  38 H :    0.177684
  39 H :    0.141472
  40 H :    0.156250
Sum of atomic charges:    0.0000000

LOEWDIN ATOMIC CHARGES
----------------------
   0 C :   -0.405565
   1 C :    0.019325
   2 O :   -0.660459
   3 P :    0.375980
   4 S :   -0.135820
   5 O :   -0.687849
   6 C :    0.023562
   7 C :   -0.404500
   8 S :    0.188891
   9 C :   -0.423369
  10 S :    0.140400
  11 P :    0.372826
  12 S :   -0.105916
  13 O :   -0.670639
  14 C :    0.020335
  15 C :   -0.385833
  16 O :   -0.646990
  17 C :    0.025529
  18 C :   -0.388727
  19 H :    0.159965
  20 H :    0.160772
  21 H :    0.166156
  22 H :    0.179915
  23 H :    0.179389
  24 H :    0.178152
  25 H :    0.177367
  26 H :    0.157002
  27 H :    0.157715
  28 H :    0.169985
  29 H :    0.193329
  30 H :    0.191659
  31 H :    0.172199
  32 H :    0.181225
  33 H :    0.162085
  34 H :    0.158436
  35 H :    0.160607
  36 H :    0.178461
  37 H :    0.173258
  38 H :    0.169972
  39 H :    0.158578
  40 H :    0.162595

  Mayer bond orders larger than 0.100000
B(  0-C ,  1-C ) :   0.9232 B(  0-C , 19-H ) :   0.9587 B(  0-C , 20-H ) :   0.9689
B(  0-C , 21-H ) :   0.9608 B(  1-C ,  2-O ) :   0.8161 B(  1-C , 22-H ) :   0.9645
B(  1-C , 23-H ) :   0.9582 B(  2-O ,  3-P ) :   1.0715 B(  3-P ,  4-S ) :   1.7532
B(  3-P ,  5-O ) :   1.1322 B(  3-P ,  8-S ) :   1.1104 B(  5-O ,  6-C ) :   0.7432
B(  6-C ,  7-C ) :   0.9396 B(  6-C , 24-H ) :   0.9668 B(  6-C , 25-H ) :   0.9595
B(  7-C , 26-H ) :   0.9699 B(  7-C , 27-H ) :   0.9661 B(  7-C , 28-H ) :   0.9584
B(  8-S ,  9-C ) :   0.9115 B(  9-C , 10-S ) :   0.9161 B(  9-C , 29-H ) :   0.9028
B(  9-C , 30-H ) :   0.9058 B( 10-S , 11-P ) :   0.9685 B( 11-P , 12-S ) :   1.8306
B( 11-P , 13-O ) :   1.0533 B( 11-P , 16-O ) :   1.1883 B( 13-O , 14-C ) :   0.7862
B( 14-C , 15-C ) :   0.9545 B( 14-C , 31-H ) :   0.9418 B( 14-C , 32-H ) :   0.9513
B( 15-C , 33-H ) :   0.9713 B( 15-C , 34-H ) :   0.9716 B( 15-C , 35-H ) :   0.9637
B( 16-O , 17-C ) :   0.7265 B( 17-C , 18-C ) :   0.9319 B( 17-C , 36-H ) :   0.9546
B( 17-C , 37-H ) :   0.9425 B( 18-C , 38-H ) :   0.9693 B( 18-C , 39-H ) :   0.9689
B( 18-C , 40-H ) :   0.9681

Dispersion correction           -0.021567108
FINAL SINGLE POINT ENERGY     -2932.466093324470

DIPOLE MOMENT
-------------

Method             : SCF
Type of density    : Electron Density
Multiplicity       :   1
Irrep              :   0
Energy             : -2932.4908858776057059 Eh
Relativity type    :
Basis              : AO
                                X                 Y                 Z
Electronic contribution:      1.658625371       7.869843178     -12.694772589
Nuclear contribution   :     -1.556109640      -8.715537262      14.132673896
                        -----------------------------------------
Total Dipole Moment    :      0.102515731      -0.845694084       1.437901307
                        -----------------------------------------
Magnitude (a.u.)       :      1.671307311
Magnitude (Debye)      :      4.248125579

Rotational constants in cm-1:             0.012859             0.004857             0.004557
Rotational constants in MHz :           385.498072           145.618940           136.613022

                             ****ORCA TERMINATED NORMALLY****
TOTAL RUN TIME: 0 days 0 hours 1 minutes 21 seconds 215 msec
