                         Program Version 6.0.0  -   RELEASE  -
|  1> ! r2scan-3c def2/J RI DEFGRID2 scfconv6 printgap
|  2> %output
|  3>     printlevel normal
|  4> end
|  5> %cpcm
|  6>     smd true
|  7>     smdsolvent "water"
|  8> end
|  9> * xyz 0 1
| 10> C 4.0028432115 -1.3682681232 -2.6471386676
| 11> C 4.2519079477 -1.8458913199 -1.2312360621
| 12> O 3.0412469782 -1.8836221712 -0.4561359016
| 13> P 2.2746537866 -0.5634628815 -0.0095790391
| 14> S 3.4582439498 0.9200929939 0.4986416561
| 15> O 1.3104255699 -1.1368506659 1.1078993466
| 16> C 1.7582923773 -1.3559383646 2.4676009238
| 17> C 1.3953302475 -0.1769185146 3.348619763
| 18> S 0.8638733034 -0.189737381 -1.5350620014
| 19> C 0.4095781926 1.468414771 -0.9591172217
| 20> S -0.5905366842 1.4368804863 0.5452408284
| 21> P -2.3182982781 0.5596759658 -0.3523582437
| 22> S -2.706958635 1.176368205 -2.1656055058
| 23> O -3.4404202094 0.8343274703 0.7385165214
| 24> C -3.9758027639 2.1595396332 0.9437648918
| 25> C -5.2477078298 2.0239504001 1.7556474176
| 26> O -2.1581227154 -1.0021271462 -0.2714068555
| 27> C -1.9998042778 -1.7235166354 0.9781397857
| 28> C -1.4177501213 -3.0824608813 0.6514019479
| 29> H 4.9167305873 -1.4605452128 -3.2251356982
| 30> H 3.2182486564 -1.9589971439 -3.1135081694
| 31> H 3.6942906998 -0.323389245 -2.6387100595
| 32> H 4.9668244181 -1.1895247849 -0.7245130467
| 33> H 4.6105400549 -2.8757419589 -1.20908377
| 34> H 1.2439471361 -2.2654874783 2.7819834676
| 35> H 2.8380771292 -1.5262595905 2.4676286857
| 36> H 0.3272822616 0.0175772984 3.3027113488
| 37> H 1.678192731 -0.3961887616 4.3730995182
| 38> H 1.9207170197 0.7165255945 3.0182755211
| 39> H -0.1642414328 1.9318166046 -1.761981487
| 40> H 1.311913621 2.0359978366 -0.7303112213
| 41> H -3.2237022155 2.7522817574 1.4711657291
| 42> H -4.1677466815 2.6115996733 -0.0346108891
| 43> H -5.9710884863 1.4183468656 1.2170286527
| 44> H -5.0317294226 1.5516506022 2.709407926
| 45> H -5.6650614321 3.0102903847 1.9290490685
| 46> H -1.3359490639 -1.148786415 1.6298894114
| 47> H -2.9848617485 -1.8040496366 1.4408777882
| 48> H -0.4261382654 -2.9712353989 0.2194327123
| 49> H -1.3511007439 -3.6705698999 1.5611419438
| 50> H -2.0540751304 -3.5953362327 -0.0641231134
| 51> *
| 52>
| 53>                          ****END OF INPUT****

CARTESIAN COORDINATES (ANGSTROEM)
---------------------------------
  C      4.002843   -1.368268   -2.647139
  C      4.251908   -1.845891   -1.231236
  O      3.041247   -1.883622   -0.456136
  P      2.274654   -0.563463   -0.009579
  S      3.458244    0.920093    0.498642
  O      1.310426   -1.136851    1.107899
  C      1.758292   -1.355938    2.467601
  C      1.395330   -0.176919    3.348620
  S      0.863873   -0.189737   -1.535062
  C      0.409578    1.468415   -0.959117
  S     -0.590537    1.436880    0.545241
  P     -2.318298    0.559676   -0.352358
  S     -2.706959    1.176368   -2.165606
  O     -3.440420    0.834327    0.738517
  C     -3.975803    2.159540    0.943765
  C     -5.247708    2.023950    1.755647
  O     -2.158123   -1.002127   -0.271407
  C     -1.999804   -1.723517    0.978140
  C     -1.417750   -3.082461    0.651402
  H      4.916731   -1.460545   -3.225136
  H      3.218249   -1.958997   -3.113508
  H      3.694291   -0.323389   -2.638710
  H      4.966824   -1.189525   -0.724513
  H      4.610540   -2.875742   -1.209084
  H      1.243947   -2.265487    2.781983
  H      2.838077   -1.526260    2.467629
  H      0.327282    0.017577    3.302711
  H      1.678193   -0.396189    4.373100
  H      1.920717    0.716526    3.018276
  H     -0.164241    1.931817   -1.761981
  H      1.311914    2.035998   -0.730311
  H     -3.223702    2.752282    1.471166
  H     -4.167747    2.611600   -0.034611
  H     -5.971088    1.418347    1.217029
  H     -5.031729    1.551651    2.709408
  H     -5.665061    3.010290    1.929049
  H     -1.335949   -1.148786    1.629889
  H     -2.984862   -1.804050    1.440878
  H     -0.426138   -2.971235    0.219433
  H     -1.351101   -3.670570    1.561142
  H     -2.054075   -3.595336   -0.064123

 Total Charge           Charge          ....    0
 Multiplicity           Mult            ....    1
 Number of Electrons    NEL             ....  202
 Basis Dimension        Dim             ....  539

ORBITAL ENERGIES
----------------

  NO   OCC          E(Eh)            E(eV)
   0   2.0000     -88.580334     -2410.3934
   1   2.0000     -88.576924     -2410.3006
   2   2.0000     -88.530364     -2409.0337
   3   2.0000     -88.528295     -2408.9774
   4   2.0000     -76.919883     -2093.0964
   5   2.0000     -76.919128     -2093.0759
   6   2.0000     -18.996884      -516.9315
   7   2.0000     -18.996278      -516.9150
   8   2.0000     -18.996112      -516.9105
   9   2.0000     -18.990680      -516.7627
  10   2.0000     -10.103829      -274.9392
  11   2.0000     -10.091939      -274.6156
  12   2.0000     -10.091420      -274.6015
  13   2.0000     -10.090427      -274.5745
  14   2.0000     -10.089297      -274.5437
  15   2.0000     -10.020092      -272.6606
  16   2.0000     -10.019481      -272.6439
  17   2.0000     -10.018773      -272.6247
  18   2.0000     -10.015822      -272.5444
  19   2.0000      -7.874643      -214.2799
  20   2.0000      -7.871247      -214.1875
  21   2.0000      -7.825515      -212.9431
  22   2.0000      -7.823400      -212.8855
  23   2.0000      -6.598538      -179.5553
  24   2.0000      -6.597736      -179.5335
  25   2.0000      -5.821507      -158.4112
  26   2.0000      -5.818597      -158.3321
  27   2.0000      -5.818034      -158.3167
  28   2.0000      -5.815093      -158.2367
  29   2.0000      -5.811687      -158.1441
  30   2.0000      -5.808463      -158.0563
  31   2.0000      -5.773068      -157.0932
  32   2.0000      -5.770942      -157.0353
  33   2.0000      -5.765752      -156.8941
  34   2.0000      -5.765579      -156.8894
  35   2.0000      -5.763796      -156.8409
  36   2.0000      -5.763328      -156.8281
  37   2.0000      -4.744318      -129.0994
  38   2.0000      -4.743473      -129.0765
  39   2.0000      -4.743220      -129.0696
  40   2.0000      -4.742566      -129.0518
  41   2.0000      -4.742052      -129.0378
  42   2.0000      -4.741594      -129.0253
  43   2.0000      -1.055686       -28.7267
  44   2.0000      -1.052048       -28.6277
  45   2.0000      -1.013465       -27.5778
  46   2.0000      -1.011382       -27.5211
  47   2.0000      -0.805238       -21.9116
  48   2.0000      -0.757811       -20.6211
  49   2.0000      -0.745472       -20.2853
  50   2.0000      -0.727274       -19.7901
  51   2.0000      -0.722360       -19.6564
  52   2.0000      -0.710436       -19.3319
  53   2.0000      -0.688334       -18.7305
  54   2.0000      -0.674966       -18.3668
  55   2.0000      -0.627948       -17.0873
  56   2.0000      -0.610995       -16.6260
  57   2.0000      -0.601719       -16.3736
  58   2.0000      -0.597693       -16.2641
  59   2.0000      -0.590143       -16.0586
  60   2.0000      -0.534281       -14.5385
  61   2.0000      -0.521176       -14.1819
  62   2.0000      -0.500108       -13.6086
  63   2.0000      -0.486063       -13.2264
  64   2.0000      -0.480583       -13.0773
  65   2.0000      -0.459480       -12.5031
  66   2.0000      -0.454474       -12.3669
  67   2.0000      -0.450396       -12.2559
  68   2.0000      -0.441438       -12.0121
  69   2.0000      -0.432613       -11.7720
  70   2.0000      -0.422626       -11.5002
  71   2.0000      -0.411763       -11.2046
  72   2.0000      -0.407151       -11.0791
  73   2.0000      -0.392498       -10.6804
  74   2.0000      -0.390536       -10.6270
  75   2.0000      -0.387408       -10.5419
  76   2.0000      -0.380045       -10.3416
  77   2.0000      -0.370495       -10.0817
  78   2.0000      -0.363217        -9.8836
  79   2.0000      -0.359360        -9.7787
  80   2.0000      -0.355001        -9.6601
  81   2.0000      -0.352745        -9.5987
  82   2.0000      -0.350757        -9.5446
  83   2.0000      -0.347408        -9.4534
  84   2.0000      -0.344451        -9.3730
  85   2.0000      -0.327093        -8.9007
  86   2.0000      -0.320306        -8.7160
  87   2.0000      -0.316900        -8.6233
  88   2.0000      -0.314231        -8.5506
  89   2.0000      -0.305422        -8.3109
  90   2.0000      -0.300938        -8.1889
  91   2.0000      -0.291336        -7.9276
  92   2.0000      -0.284478        -7.7410
  93   2.0000      -0.279714        -7.6114
  94   2.0000      -0.274677        -7.4743
  95   2.0000      -0.251865        -6.8536
  96   2.0000      -0.239643        -6.5210
  97   2.0000      -0.234664        -6.3855
  98   2.0000      -0.226988        -6.1767
  99   2.0000      -0.223151        -6.0722
 100   2.0000      -0.220209        -5.9922
 101   0.0000      -0.052448        -1.4272
 102   0.0000      -0.031735        -0.8636
 103   0.0000      -0.007879        -0.2144
 104   0.0000      -0.003585        -0.0975
 105   0.0000       0.013667         0.3719

MULLIKEN ATOMIC CHARGES
-----------------------
   0 C :   -0.490794
   1 C :   -0.148403
   2 O :   -0.330370
   3 P :    0.699767
   4 S :   -0.525359
   5 O :   -0.278746
   6 C :   -0.139376
   7 C :   -0.483600
   8 S :   -0.121915
   9 C :   -0.252915
  10 S :   -0.175432
  11 P :    0.678120
  12 S :   -0.506596
  13 O :   -0.306380
  14 C :   -0.140736
  15 C :   -0.480956
  16 O :   -0.286909
  17 C :   -0.106700
  18 C :   -0.504757
  19 H :    0.172888
  20 H :    0.170721
  21 H :    0.171779
  22 H :    0.177166
  23 H :    0.174981
  24 H :    0.180362
  25 H :    0.168882
  26 H :    0.165406
  27 H :    0.169407
  28 H :    0.172384
  29 H :    0.236844
  30 H :    0.231139
  31 H :    0.169939
  32 H :    0.172745
  33 H :    0.166598
  34 H :    0.166194
  35 H :    0.169715
  36 H :    0.177991
  37 H :    0.176281
  38 H :    0.170961
  39 H :    0.172712
  40 H :    0.166962
Sum of atomic charges:    0.0000000

LOEWDIN ATOMIC CHARGES
----------------------
   0 C :   -0.409355
   1 C :    0.024552
   2 O :   -0.670227
   3 P :    0.382616
   4 S :   -0.162420
   5 O :   -0.693028
   6 C :    0.030422
   7 C :   -0.408212
   8 S :    0.172218
   9 C :   -0.419425
  10 S :    0.148211
  11 P :    0.373855
  12 S :   -0.150456
  13 O :   -0.677736
  14 C :    0.025600
  15 C :   -0.388783
  16 O :   -0.670107
  17 C :    0.031957
  18 C :   -0.391850
  19 H :    0.168757
  20 H :    0.163687
  21 H :    0.161512
  22 H :    0.181565
  23 H :    0.190771
  24 H :    0.190457
  25 H :    0.181876
  26 H :    0.161616
  27 H :    0.166232
  28 H :    0.162848
  29 H :    0.197318
  30 H :    0.197326
  31 H :    0.179872
  32 H :    0.181699
  33 H :    0.163383
  34 H :    0.163377
  35 H :    0.169358
  36 H :    0.185871
  37 H :    0.183146
  38 H :    0.165652
  39 H :    0.171384
  40 H :    0.164459

  Mayer bond orders larger than 0.100000
B(  0-C ,  1-C ) :   0.9101 B(  0-C , 19-H ) :   0.9535 B(  0-C , 20-H ) :   0.9664
B(  0-C , 21-H ) :   0.9624 B(  1-C ,  2-O ) :   0.8049 B(  1-C , 22-H ) :   0.9634
B(  1-C , 23-H ) :   0.9487 B(  2-O ,  3-P ) :   1.0792 B(  3-P ,  4-S ) :   1.7162
B(  3-P ,  5-O ) :   1.1472 B(  3-P ,  8-S ) :   1.1090 B(  5-O ,  6-C ) :   0.7314
B(  6-C ,  7-C ) :   0.9231 B(  6-C , 24-H ) :   0.9552 B(  6-C , 25-H ) :   0.9559
B(  7-C , 26-H ) :   0.9691 B(  7-C , 27-H ) :   0.9611 B(  7-C , 28-H ) :   0.9637
B(  8-S ,  9-C ) :   0.8992 B(  9-C , 10-S ) :   0.9051 B(  9-C , 29-H ) :   0.8989
B(  9-C , 30-H ) :   0.9025 B( 10-S , 11-P ) :   0.9879 B( 11-P , 12-S ) :   1.8062
B( 11-P , 13-O ) :   1.0649 B( 11-P , 16-O ) :   1.1938 B( 13-O , 14-C ) :   0.7771
B( 14-C , 15-C ) :   0.9532 B( 14-C , 31-H ) :   0.9323 B( 14-C , 32-H ) :   0.9483
B( 15-C , 33-H ) :   0.9694 B( 15-C , 34-H ) :   0.9680 B( 15-C , 35-H ) :   0.9577
B( 16-O , 17-C ) :   0.7162 B( 17-C , 18-C ) :   0.9250 B( 17-C , 36-H ) :   0.9456
B( 17-C , 37-H ) :   0.9329 B( 18-C , 38-H ) :   0.9692 B( 18-C , 39-H ) :   0.9607
B( 18-C , 40-H ) :   0.9675

Dispersion correction           -0.021567108
FINAL SINGLE POINT ENERGY     -2932.475488450737

DIPOLE MOMENT
-------------

Method             : SCF
Type of density    : Electron Density
Multiplicity       :   1
Irrep              :   0
Energy             : -2932.5002810038731695 Eh
Relativity type    :
Basis              : AO
                                X                 Y                 Z
Electronic contribution:      1.788718751       7.658592015     -11.969316283
Nuclear contribution   :     -1.556109640      -8.715537262      14.132673896
                        -----------------------------------------
Total Dipole Moment    :      0.232609111      -1.056945247       2.163357613
                        -----------------------------------------
Magnitude (a.u.)       :      2.418957712
Magnitude (Debye)      :      6.148501875

Rotational constants in cm-1:             0.012859             0.004857             0.004557
Rotational constants in MHz :           385.498072           145.618940           136.613022

                             ****ORCA TERMINATED NORMALLY****
TOTAL RUN TIME: 0 days 0 hours 1 minutes 56 seconds 884 msec
