                         Program Version 6.0.0  -   RELEASE  -
|  1> ! r2scan-3c def2/J RI DEFGRID2 scfconv6 printgap
|  2> %output
|  3>     printlevel normal
|  4> end
|  5> * xyz 0 1
|  6> C 3.0685334859 1.4990691803 2.8896269124
|  7> C 1.6834495447 0.9843945104 2.5595853595
|  8> O 1.4856987472 0.8516947014 1.1348361839
|  9> P 2.2639295864 -0.2375769728 0.2859706928
| 10> S 2.6922123093 -1.9119923825 1.217183157
| 11> O 3.5145797964 0.591949442 -0.2348523737
| 12> C 4.681605655 -0.040109711 -0.7887773204
| 13> C 4.3972272673 -0.6940079118 -2.1255517177
| 14> S 0.9871348841 -0.3746587264 -1.393482333
| 15> C -0.105181846 -1.645916945 -0.6987323116
| 16> S -1.1620301765 -1.0273313296 0.6305416313
| 17> P -2.3414304112 0.2598726949 -0.6053070961
| 18> S -2.7022220233 -0.3836007521 -2.4131540978
| 19> O -1.5790764497 1.6409773808 -0.6073585619
| 20> C -1.3173444192 2.4057410922 0.5938771738
| 21> C -2.3220065755 3.5300533539 0.7373848695
| 22> O -3.6153890193 0.5719443844 0.2932757528
| 23> C -4.7950735186 -0.2535198935 0.2755093678
| 24> C -4.5397344954 -1.641134812 0.8263930035
| 25> H 3.26664133 2.4206541886 2.3486785988
| 26> H 3.1393965643 1.6820062601 3.9572164384
| 27> H 3.8157019715 0.7580754132 2.6078335025
| 28> H 0.9070690691 1.6849361756 2.869376885
| 29> H 1.5103893988 0.0082488584 3.0237165453
| 30> H 5.4010416208 0.7743393693 -0.8832296735
| 31> H 5.0472127317 -0.7808670608 -0.0702533137
| 32> H 3.7216504177 -1.5381780068 -1.9919940132
| 33> H 3.9340449186 0.0178515642 -2.8044859787
| 34> H 5.3266619398 -1.052031799 -2.5566240516
| 35> H 0.4950839508 -2.4511021825 -0.2748261449
| 36> H -0.7275820882 -1.9994994097 -1.5206261036
| 37> H -1.3488707226 1.731826 1.4548365833
| 38> H -0.3023641767 2.7865325187 0.4618018676
| 39> H -3.3220975053 3.1255291855 0.8683151361
| 40> H -2.0615340218 4.1321447962 1.602232516
| 41> H -2.309306545 4.1537948335 -0.1521426984
| 42> H -5.506672223 0.2985727995 0.8911247853
| 43> H -5.1580865005 -0.3102877553 -0.7550958714
| 44> H -3.8863432939 -2.1951575893 0.1541543088
| 45> H -4.0680491006 -1.581518777 1.8041282872
| 46> H -5.4834198784 -2.1702274291 0.9124298959
| 47> *
| 48>
| 49>                          ****END OF INPUT****

CARTESIAN COORDINATES (ANGSTROEM)
---------------------------------
  C      3.068533    1.499069    2.889627
  C      1.683450    0.984395    2.559585
  O      1.485699    0.851695    1.134836
  P      2.263930   -0.237577    0.285971
  S      2.692212   -1.911992    1.217183
  O      3.514580    0.591949   -0.234852
  C      4.681606   -0.040110   -0.788777
  C      4.397227   -0.694008   -2.125552
  S      0.987135   -0.374659   -1.393482
  C     -0.105182   -1.645917   -0.698732
  S     -1.162030   -1.027331    0.630542
  P     -2.341430    0.259873   -0.605307
  S     -2.702222   -0.383601   -2.413154
  O     -1.579076    1.640977   -0.607359
  C     -1.317344    2.405741    0.593877
  C     -2.322007    3.530053    0.737385
  O     -3.615389    0.571944    0.293276
  C     -4.795074   -0.253520    0.275509
  C     -4.539734   -1.641135    0.826393
  H      3.266641    2.420654    2.348679
  H      3.139397    1.682006    3.957216
  H      3.815702    0.758075    2.607834
  H      0.907069    1.684936    2.869377
  H      1.510389    0.008249    3.023717
  H      5.401042    0.774339   -0.883230
  H      5.047213   -0.780867   -0.070253
  H      3.721650   -1.538178   -1.991994
  H      3.934045    0.017852   -2.804486
  H      5.326662   -1.052032   -2.556624
  H      0.495084   -2.451102   -0.274826
  H     -0.727582   -1.999499   -1.520626
  H     -1.348871    1.731826    1.454837
  H     -0.302364    2.786533    0.461802
  H     -3.322098    3.125529    0.868315
  H     -2.061534    4.132145    1.602233
  H     -2.309307    4.153795   -0.152143
  H     -5.506672    0.298573    0.891125
  H     -5.158087   -0.310288   -0.755096
  H     -3.886343   -2.195158    0.154154
  H     -4.068049   -1.581519    1.804128
  H     -5.483420   -2.170227    0.912430

 Total Charge           Charge          ....    0
 Multiplicity           Mult            ....    1
 Number of Electrons    NEL             ....  202
 Basis Dimension        Dim             ....  539

ORBITAL ENERGIES
----------------

  NO   OCC          E(Eh)            E(eV)
   0   2.0000     -88.572913     -2410.1915
   1   2.0000     -88.571283     -2410.1471
   2   2.0000     -88.523406     -2408.8443
   3   2.0000     -88.519854     -2408.7477
   4   2.0000     -76.914684     -2092.9549
   5   2.0000     -76.913002     -2092.9092
   6   2.0000     -18.995441      -516.8922
   7   2.0000     -18.995131      -516.8838
   8   2.0000     -18.991466      -516.7841
   9   2.0000     -18.987231      -516.6688
  10   2.0000     -10.101365      -274.8721
  11   2.0000     -10.101269      -274.8695
  12   2.0000     -10.100702      -274.8541
  13   2.0000     -10.100338      -274.8442
  14   2.0000     -10.099207      -274.8134
  15   2.0000     -10.031864      -272.9809
  16   2.0000     -10.030204      -272.9357
  17   2.0000     -10.029376      -272.9132
  18   2.0000     -10.028863      -272.8992
  19   2.0000      -7.867095      -214.0745
  20   2.0000      -7.865645      -214.0351
  21   2.0000      -7.818216      -212.7445
  22   2.0000      -7.814677      -212.6482
  23   2.0000      -6.593373      -179.4148
  24   2.0000      -6.591470      -179.3630
  25   2.0000      -5.813998      -158.2069
  26   2.0000      -5.812463      -158.1651
  27   2.0000      -5.811039      -158.1264
  28   2.0000      -5.809558      -158.0861
  29   2.0000      -5.804119      -157.9381
  30   2.0000      -5.802764      -157.9012
  31   2.0000      -5.765744      -156.8939
  32   2.0000      -5.762364      -156.8019
  33   2.0000      -5.758524      -156.6974
  34   2.0000      -5.758302      -156.6914
  35   2.0000      -5.754866      -156.5979
  36   2.0000      -5.754714      -156.5937
  37   2.0000      -4.738770      -128.9485
  38   2.0000      -4.738235      -128.9339
  39   2.0000      -4.737353      -128.9099
  40   2.0000      -4.737233      -128.9067
  41   2.0000      -4.736310      -128.8815
  42   2.0000      -4.734951      -128.8446
  43   2.0000      -1.052019       -28.6269
  44   2.0000      -1.051036       -28.6002
  45   2.0000      -1.013385       -27.5756
  46   2.0000      -1.009725       -27.4760
  47   2.0000      -0.800022       -21.7697
  48   2.0000      -0.758113       -20.6293
  49   2.0000      -0.749517       -20.3954
  50   2.0000      -0.734968       -19.9995
  51   2.0000      -0.733386       -19.9564
  52   2.0000      -0.711658       -19.3652
  53   2.0000      -0.686851       -18.6902
  54   2.0000      -0.668821       -18.1996
  55   2.0000      -0.635003       -17.2793
  56   2.0000      -0.624387       -16.9904
  57   2.0000      -0.608159       -16.5489
  58   2.0000      -0.606724       -16.5098
  59   2.0000      -0.589492       -16.0409
  60   2.0000      -0.527112       -14.3434
  61   2.0000      -0.518113       -14.0986
  62   2.0000      -0.495447       -13.4818
  63   2.0000      -0.493582       -13.4311
  64   2.0000      -0.476487       -12.9659
  65   2.0000      -0.468150       -12.7390
  66   2.0000      -0.459933       -12.5154
  67   2.0000      -0.453459       -12.3392
  68   2.0000      -0.444617       -12.0987
  69   2.0000      -0.437346       -11.9008
  70   2.0000      -0.426790       -11.6135
  71   2.0000      -0.415063       -11.2944
  72   2.0000      -0.409429       -11.1411
  73   2.0000      -0.405551       -11.0356
  74   2.0000      -0.394149       -10.7253
  75   2.0000      -0.389530       -10.5997
  76   2.0000      -0.382216       -10.4006
  77   2.0000      -0.376397       -10.2423
  78   2.0000      -0.372484       -10.1358
  79   2.0000      -0.368703       -10.0329
  80   2.0000      -0.364969        -9.9313
  81   2.0000      -0.359879        -9.7928
  82   2.0000      -0.358925        -9.7668
  83   2.0000      -0.355966        -9.6863
  84   2.0000      -0.350249        -9.5308
  85   2.0000      -0.335413        -9.1271
  86   2.0000      -0.324142        -8.8203
  87   2.0000      -0.313320        -8.5259
  88   2.0000      -0.310672        -8.4538
  89   2.0000      -0.308479        -8.3941
  90   2.0000      -0.301621        -8.2075
  91   2.0000      -0.292652        -7.9635
  92   2.0000      -0.282550        -7.6886
  93   2.0000      -0.280090        -7.6216
  94   2.0000      -0.273214        -7.4345
  95   2.0000      -0.244355        -6.6492
  96   2.0000      -0.229742        -6.2516
  97   2.0000      -0.227897        -6.2014
  98   2.0000      -0.219154        -5.9635
  99   2.0000      -0.215469        -5.8632
 100   2.0000      -0.213058        -5.7976
 101   0.0000      -0.044711        -1.2166
 102   0.0000      -0.023815        -0.6480
 103   0.0000      -0.000895        -0.0244
 104   0.0000       0.000282         0.0077
 105   0.0000       0.014892         0.4052

MULLIKEN ATOMIC CHARGES
-----------------------
   0 C :   -0.439197
   1 C :   -0.157361
   2 O :   -0.260793
   3 P :    0.682748
   4 S :   -0.491736
   5 O :   -0.308082
   6 C :   -0.149438
   7 C :   -0.453069
   8 S :   -0.098972
   9 C :   -0.248015
  10 S :   -0.160643
  11 P :    0.649497
  12 S :   -0.443183
  13 O :   -0.256880
  14 C :   -0.103836
  15 C :   -0.486339
  16 O :   -0.291385
  17 C :   -0.169173
  18 C :   -0.440768
  19 H :    0.155995
  20 H :    0.147515
  21 H :    0.169287
  22 H :    0.145691
  23 H :    0.176752
  24 H :    0.148608
  25 H :    0.170368
  26 H :    0.177677
  27 H :    0.158037
  28 H :    0.148106
  29 H :    0.213038
  30 H :    0.217676
  31 H :    0.155166
  32 H :    0.170051
  33 H :    0.165377
  34 H :    0.143764
  35 H :    0.160176
  36 H :    0.147426
  37 H :    0.175256
  38 H :    0.179507
  39 H :    0.153294
  40 H :    0.147857
Sum of atomic charges:    0.0000000

LOEWDIN ATOMIC CHARGES
----------------------
   0 C :   -0.399036
   1 C :    0.015298
   2 O :   -0.681137
   3 P :    0.378555
   4 S :   -0.136661
   5 O :   -0.660777
   6 C :    0.020046
   7 C :   -0.406258
   8 S :    0.186065
   9 C :   -0.425199
  10 S :    0.142487
  11 P :    0.382684
  12 S :   -0.100093
  13 O :   -0.650000
  14 C :    0.018457
  15 C :   -0.392572
  16 O :   -0.673329
  17 C :    0.021918
  18 C :   -0.408657
  19 H :    0.160904
  20 H :    0.159522
  21 H :    0.165644
  22 H :    0.177185
  23 H :    0.181963
  24 H :    0.179688
  25 H :    0.179226
  26 H :    0.166106
  27 H :    0.161316
  28 H :    0.159583
  29 H :    0.191392
  30 H :    0.191848
  31 H :    0.175166
  32 H :    0.186989
  33 H :    0.165233
  34 H :    0.157658
  35 H :    0.162817
  36 H :    0.178949
  37 H :    0.180826
  38 H :    0.166671
  39 H :    0.160098
  40 H :    0.159425

  Mayer bond orders larger than 0.100000
B(  0-C ,  1-C ) :   0.9222 B(  0-C , 19-H ) :   0.9719 B(  0-C , 20-H ) :   0.9620
B(  0-C , 21-H ) :   0.9595 B(  1-C ,  2-O ) :   0.7837 B(  1-C , 22-H ) :   0.9613
B(  1-C , 23-H ) :   0.9630 B(  2-O ,  3-P ) :   1.1290 B(  3-P ,  4-S ) :   1.7365
B(  3-P ,  5-O ) :   1.0697 B(  3-P ,  8-S ) :   1.1097 B(  5-O ,  6-C ) :   0.8111
B(  6-C ,  7-C ) :   0.9248 B(  6-C , 24-H ) :   0.9579 B(  6-C , 25-H ) :   0.9660
B(  7-C , 26-H ) :   0.9616 B(  7-C , 27-H ) :   0.9683 B(  7-C , 28-H ) :   0.9585
B(  8-S ,  9-C ) :   0.9121 B(  9-C , 10-S ) :   0.9060 B(  9-C , 29-H ) :   0.9057
B(  9-C , 30-H ) :   0.9071 B( 10-S , 11-P ) :   1.0141 B( 11-P , 12-S ) :   1.8360
B( 11-P , 13-O ) :   1.1430 B( 11-P , 16-O ) :   1.0316 B( 13-O , 14-C ) :   0.7339
B( 14-C , 15-C ) :   0.9306 B( 14-C , 31-H ) :   0.9695 B( 14-C , 32-H ) :   0.9540
B( 15-C , 33-H ) :   0.9710 B( 15-C , 34-H ) :   0.9660 B( 15-C , 35-H ) :   0.9739
B( 16-O , 17-C ) :   0.8183 B( 17-C , 18-C ) :   0.9181 B( 17-C , 36-H ) :   0.9613
B( 17-C , 37-H ) :   0.9685 B( 18-C , 38-H ) :   0.9634 B( 18-C , 39-H ) :   0.9670
B( 18-C , 40-H ) :   0.9565

Dispersion correction           -0.021642876
FINAL SINGLE POINT ENERGY     -2932.463798828151

DIPOLE MOMENT
-------------

Method             : SCF
Type of density    : Electron Density
Multiplicity       :   1
Irrep              :   0
Energy             : -2932.4886301860556159 Eh
Relativity type    :
Basis              : AO
                                X                 Y                 Z
Electronic contribution:     -2.157678095      -8.197989203     -10.350340027
Nuclear contribution   :      2.314487296       9.049811424      11.558643913
                        -----------------------------------------
Total Dipole Moment    :      0.156809201       0.851822221       1.208303886
                        -----------------------------------------
Magnitude (a.u.)       :      1.486670274
Magnitude (Debye)      :      3.778815529

Rotational constants in cm-1:             0.012759             0.004889             0.004521
Rotational constants in MHz :           382.507009           146.575679           135.538040

                             ****ORCA TERMINATED NORMALLY****
TOTAL RUN TIME: 0 days 0 hours 1 minutes 20 seconds 543 msec
