                         Program Version 6.0.0  -   RELEASE  -
|  1> ! r2scan-3c def2/J RI DEFGRID2 scfconv6 printgap
|  2> %output
|  3>     printlevel normal
|  4> end
|  5> %cpcm
|  6>     smd true
|  7>     smdsolvent "water"
|  8> end
|  9> * xyz 0 1
| 10> C 3.0685334859 1.4990691803 2.8896269124
| 11> C 1.6834495447 0.9843945104 2.5595853595
| 12> O 1.4856987472 0.8516947014 1.1348361839
| 13> P 2.2639295864 -0.2375769728 0.2859706928
| 14> S 2.6922123093 -1.9119923825 1.217183157
| 15> O 3.5145797964 0.591949442 -0.2348523737
| 16> C 4.681605655 -0.040109711 -0.7887773204
| 17> C 4.3972272673 -0.6940079118 -2.1255517177
| 18> S 0.9871348841 -0.3746587264 -1.393482333
| 19> C -0.105181846 -1.645916945 -0.6987323116
| 20> S -1.1620301765 -1.0273313296 0.6305416313
| 21> P -2.3414304112 0.2598726949 -0.6053070961
| 22> S -2.7022220233 -0.3836007521 -2.4131540978
| 23> O -1.5790764497 1.6409773808 -0.6073585619
| 24> C -1.3173444192 2.4057410922 0.5938771738
| 25> C -2.3220065755 3.5300533539 0.7373848695
| 26> O -3.6153890193 0.5719443844 0.2932757528
| 27> C -4.7950735186 -0.2535198935 0.2755093678
| 28> C -4.5397344954 -1.641134812 0.8263930035
| 29> H 3.26664133 2.4206541886 2.3486785988
| 30> H 3.1393965643 1.6820062601 3.9572164384
| 31> H 3.8157019715 0.7580754132 2.6078335025
| 32> H 0.9070690691 1.6849361756 2.869376885
| 33> H 1.5103893988 0.0082488584 3.0237165453
| 34> H 5.4010416208 0.7743393693 -0.8832296735
| 35> H 5.0472127317 -0.7808670608 -0.0702533137
| 36> H 3.7216504177 -1.5381780068 -1.9919940132
| 37> H 3.9340449186 0.0178515642 -2.8044859787
| 38> H 5.3266619398 -1.052031799 -2.5566240516
| 39> H 0.4950839508 -2.4511021825 -0.2748261449
| 40> H -0.7275820882 -1.9994994097 -1.5206261036
| 41> H -1.3488707226 1.731826 1.4548365833
| 42> H -0.3023641767 2.7865325187 0.4618018676
| 43> H -3.3220975053 3.1255291855 0.8683151361
| 44> H -2.0615340218 4.1321447962 1.602232516
| 45> H -2.309306545 4.1537948335 -0.1521426984
| 46> H -5.506672223 0.2985727995 0.8911247853
| 47> H -5.1580865005 -0.3102877553 -0.7550958714
| 48> H -3.8863432939 -2.1951575893 0.1541543088
| 49> H -4.0680491006 -1.581518777 1.8041282872
| 50> H -5.4834198784 -2.1702274291 0.9124298959
| 51> *
| 52>
| 53>                          ****END OF INPUT****

CARTESIAN COORDINATES (ANGSTROEM)
---------------------------------
  C      3.068533    1.499069    2.889627
  C      1.683450    0.984395    2.559585
  O      1.485699    0.851695    1.134836
  P      2.263930   -0.237577    0.285971
  S      2.692212   -1.911992    1.217183
  O      3.514580    0.591949   -0.234852
  C      4.681606   -0.040110   -0.788777
  C      4.397227   -0.694008   -2.125552
  S      0.987135   -0.374659   -1.393482
  C     -0.105182   -1.645917   -0.698732
  S     -1.162030   -1.027331    0.630542
  P     -2.341430    0.259873   -0.605307
  S     -2.702222   -0.383601   -2.413154
  O     -1.579076    1.640977   -0.607359
  C     -1.317344    2.405741    0.593877
  C     -2.322007    3.530053    0.737385
  O     -3.615389    0.571944    0.293276
  C     -4.795074   -0.253520    0.275509
  C     -4.539734   -1.641135    0.826393
  H      3.266641    2.420654    2.348679
  H      3.139397    1.682006    3.957216
  H      3.815702    0.758075    2.607834
  H      0.907069    1.684936    2.869377
  H      1.510389    0.008249    3.023717
  H      5.401042    0.774339   -0.883230
  H      5.047213   -0.780867   -0.070253
  H      3.721650   -1.538178   -1.991994
  H      3.934045    0.017852   -2.804486
  H      5.326662   -1.052032   -2.556624
  H      0.495084   -2.451102   -0.274826
  H     -0.727582   -1.999499   -1.520626
  H     -1.348871    1.731826    1.454837
  H     -0.302364    2.786533    0.461802
  H     -3.322098    3.125529    0.868315
  H     -2.061534    4.132145    1.602233
  H     -2.309307    4.153795   -0.152143
  H     -5.506672    0.298573    0.891125
  H     -5.158087   -0.310288   -0.755096
  H     -3.886343   -2.195158    0.154154
  H     -4.068049   -1.581519    1.804128
  H     -5.483420   -2.170227    0.912430

 Total Charge           Charge          ....    0
 Multiplicity           Mult            ....    1
 Number of Electrons    NEL             ....  202
 Basis Dimension        Dim             ....  539

ORBITAL ENERGIES
----------------

  NO   OCC          E(Eh)            E(eV)
   0   2.0000     -88.578068     -2410.3318
   1   2.0000     -88.575299     -2410.2564
   2   2.0000     -88.530817     -2409.0460
   3   2.0000     -88.528978     -2408.9960
   4   2.0000     -76.919975     -2093.0989
   5   2.0000     -76.918560     -2093.0604
   6   2.0000     -18.996398      -516.9183
   7   2.0000     -18.996380      -516.9178
   8   2.0000     -18.992936      -516.8241
   9   2.0000     -18.991719      -516.7909
  10   2.0000     -10.102645      -274.9069
  11   2.0000     -10.091131      -274.5936
  12   2.0000     -10.090853      -274.5861
  13   2.0000     -10.090071      -274.5648
  14   2.0000     -10.088770      -274.5294
  15   2.0000     -10.018710      -272.6230
  16   2.0000     -10.018588      -272.6196
  17   2.0000     -10.018441      -272.6156
  18   2.0000     -10.018182      -272.6086
  19   2.0000      -7.872374      -214.2182
  20   2.0000      -7.869639      -214.1438
  21   2.0000      -7.825998      -212.9562
  22   2.0000      -7.824057      -212.9034
  23   2.0000      -6.598474      -179.5536
  24   2.0000      -6.597277      -179.5210
  25   2.0000      -5.819226      -158.3492
  26   2.0000      -5.816477      -158.2744
  27   2.0000      -5.816295      -158.2694
  28   2.0000      -5.813579      -158.1955
  29   2.0000      -5.809470      -158.0837
  30   2.0000      -5.806718      -158.0088
  31   2.0000      -5.773572      -157.1069
  32   2.0000      -5.771545      -157.0517
  33   2.0000      -5.766159      -156.9052
  34   2.0000      -5.766107      -156.9038
  35   2.0000      -5.764354      -156.8560
  36   2.0000      -5.764145      -156.8504
  37   2.0000      -4.744286      -129.0986
  38   2.0000      -4.743287      -129.0714
  39   2.0000      -4.742602      -129.0528
  40   2.0000      -4.742139      -129.0402
  41   2.0000      -4.742089      -129.0388
  42   2.0000      -4.741237      -129.0156
  43   2.0000      -1.053921       -28.6787
  44   2.0000      -1.052351       -28.6359
  45   2.0000      -1.013017       -27.5656
  46   2.0000      -1.012276       -27.5454
  47   2.0000      -0.803197       -21.8561
  48   2.0000      -0.754998       -20.5445
  49   2.0000      -0.743445       -20.2302
  50   2.0000      -0.726130       -19.7590
  51   2.0000      -0.723540       -19.6885
  52   2.0000      -0.710595       -19.3363
  53   2.0000      -0.690138       -18.7796
  54   2.0000      -0.675027       -18.3684
  55   2.0000      -0.632679       -17.2161
  56   2.0000      -0.620692       -16.8899
  57   2.0000      -0.602112       -16.3843
  58   2.0000      -0.599047       -16.3009
  59   2.0000      -0.588748       -16.0206
  60   2.0000      -0.523635       -14.2488
  61   2.0000      -0.513191       -13.9646
  62   2.0000      -0.491501       -13.3744
  63   2.0000      -0.489300       -13.3145
  64   2.0000      -0.476128       -12.9561
  65   2.0000      -0.464167       -12.6306
  66   2.0000      -0.454341       -12.3633
  67   2.0000      -0.449164       -12.2224
  68   2.0000      -0.438408       -11.9297
  69   2.0000      -0.432755       -11.7759
  70   2.0000      -0.423506       -11.5242
  71   2.0000      -0.408552       -11.1173
  72   2.0000      -0.406250       -11.0546
  73   2.0000      -0.402990       -10.9659
  74   2.0000      -0.393259       -10.7011
  75   2.0000      -0.389132       -10.5888
  76   2.0000      -0.379924       -10.3383
  77   2.0000      -0.371438       -10.1073
  78   2.0000      -0.365519        -9.9463
  79   2.0000      -0.363104        -9.8805
  80   2.0000      -0.355557        -9.6752
  81   2.0000      -0.352004        -9.5785
  82   2.0000      -0.350642        -9.5415
  83   2.0000      -0.347977        -9.4689
  84   2.0000      -0.346109        -9.4181
  85   2.0000      -0.332289        -9.0420
  86   2.0000      -0.321585        -8.7508
  87   2.0000      -0.308453        -8.3934
  88   2.0000      -0.304783        -8.2936
  89   2.0000      -0.303993        -8.2721
  90   2.0000      -0.298726        -8.1288
  91   2.0000      -0.290111        -7.8943
  92   2.0000      -0.281150        -7.6505
  93   2.0000      -0.279385        -7.6025
  94   2.0000      -0.275887        -7.5073
  95   2.0000      -0.249271        -6.7830
  96   2.0000      -0.237757        -6.4697
  97   2.0000      -0.236370        -6.4320
  98   2.0000      -0.227642        -6.1945
  99   2.0000      -0.224262        -6.1025
 100   2.0000      -0.219951        -5.9852
 101   0.0000      -0.050836        -1.3833
 102   0.0000      -0.030900        -0.8408
 103   0.0000      -0.005052        -0.1375
 104   0.0000      -0.004444        -0.1209
 105   0.0000       0.014061         0.3826

MULLIKEN ATOMIC CHARGES
-----------------------
   0 C :   -0.482332
   1 C :   -0.152881
   2 O :   -0.285890
   3 P :    0.722583
   4 S :   -0.533851
   5 O :   -0.332216
   6 C :   -0.150487
   7 C :   -0.488620
   8 S :   -0.128924
   9 C :   -0.255054
  10 S :   -0.159889
  11 P :    0.664060
  12 S :   -0.497870
  13 O :   -0.292267
  14 C :   -0.088761
  15 C :   -0.532332
  16 O :   -0.307314
  17 C :   -0.161822
  18 C :   -0.478704
  19 H :    0.170118
  20 H :    0.172340
  21 H :    0.168536
  22 H :    0.179864
  23 H :    0.177687
  24 H :    0.175857
  25 H :    0.177675
  26 H :    0.172648
  27 H :    0.169774
  28 H :    0.172991
  29 H :    0.232903
  30 H :    0.234647
  31 H :    0.175382
  32 H :    0.181543
  33 H :    0.170280
  34 H :    0.171306
  35 H :    0.168736
  36 H :    0.176143
  37 H :    0.179837
  38 H :    0.173798
  39 H :    0.168013
  40 H :    0.172494
Sum of atomic charges:    0.0000000

LOEWDIN ATOMIC CHARGES
----------------------
   0 C :   -0.402572
   1 C :    0.021222
   2 O :   -0.690483
   3 P :    0.383901
   4 S :   -0.161445
   5 O :   -0.671687
   6 C :    0.025759
   7 C :   -0.409844
   8 S :    0.167576
   9 C :   -0.420193
  10 S :    0.146879
  11 P :    0.385221
  12 S :   -0.141244
  13 O :   -0.675343
  14 C :    0.025060
  15 C :   -0.394721
  16 O :   -0.675939
  17 C :    0.028063
  18 C :   -0.411432
  19 H :    0.164273
  20 H :    0.168787
  21 H :    0.162711
  22 H :    0.190969
  23 H :    0.182157
  24 H :    0.191204
  25 H :    0.181671
  26 H :    0.161657
  27 H :    0.163695
  28 H :    0.168583
  29 H :    0.197225
  30 H :    0.196818
  31 H :    0.183601
  32 H :    0.192241
  33 H :    0.165335
  34 H :    0.168926
  35 H :    0.164246
  36 H :    0.191341
  37 H :    0.181873
  38 H :    0.161812
  39 H :    0.163708
  40 H :    0.168388

  Mayer bond orders larger than 0.100000
B(  0-C ,  1-C ) :   0.9092 B(  0-C , 19-H ) :   0.9714 B(  0-C , 20-H ) :   0.9560
B(  0-C , 21-H ) :   0.9592 B(  1-C ,  2-O ) :   0.7710 B(  1-C , 22-H ) :   0.9507
B(  1-C , 23-H ) :   0.9599 B(  2-O ,  3-P ) :   1.1403 B(  3-P ,  4-S ) :   1.7004
B(  3-P ,  5-O ) :   1.0786 B(  3-P ,  8-S ) :   1.1116 B(  5-O ,  6-C ) :   0.7996
B(  6-C ,  7-C ) :   0.9106 B(  6-C , 24-H ) :   0.9483 B(  6-C , 25-H ) :   0.9649
B(  7-C , 26-H ) :   0.9632 B(  7-C , 27-H ) :   0.9659 B(  7-C , 28-H ) :   0.9532
B(  8-S ,  9-C ) :   0.8994 B(  9-C , 10-S ) :   0.8960 B(  9-C , 29-H ) :   0.9025
B(  9-C , 30-H ) :   0.9026 B( 10-S , 11-P ) :   1.0237 B( 11-P , 12-S ) :   1.8129
B( 11-P , 13-O ) :   1.1483 B( 11-P , 16-O ) :   1.0469 B( 13-O , 14-C ) :   0.7217
B( 14-C , 15-C ) :   0.9274 B( 14-C , 31-H ) :   0.9560 B( 14-C , 32-H ) :   0.9454
B( 15-C , 33-H ) :   0.9698 B( 15-C , 34-H ) :   0.9588 B( 15-C , 35-H ) :   0.9725
B( 16-O , 17-C ) :   0.8059 B( 17-C , 18-C ) :   0.9057 B( 17-C , 36-H ) :   0.9504
B( 17-C , 37-H ) :   0.9674 B( 18-C , 38-H ) :   0.9653 B( 18-C , 39-H ) :   0.9645
B( 18-C , 40-H ) :   0.9513

Dispersion correction           -0.021642876
FINAL SINGLE POINT ENERGY     -2932.473045949995

DIPOLE MOMENT
-------------

Method             : SCF
Type of density    : Electron Density
Multiplicity       :   1
Irrep              :   0
Energy             : -2932.4978773078996710 Eh
Relativity type    :
Basis              : AO
                                X                 Y                 Z
Electronic contribution:     -2.136649017      -8.012718712      -9.692632441
Nuclear contribution   :      2.314487296       9.049811424      11.558643913
                        -----------------------------------------
Total Dipole Moment    :      0.177838279       1.037092712       1.866011472
                        -----------------------------------------
Magnitude (a.u.)       :      2.142238680
Magnitude (Debye)      :      5.445137991

Rotational constants in cm-1:             0.012759             0.004889             0.004521
Rotational constants in MHz :           382.507009           146.575679           135.538040

                             ****ORCA TERMINATED NORMALLY****
TOTAL RUN TIME: 0 days 0 hours 1 minutes 48 seconds 924 msec
