                         Program Version 6.0.0  -   RELEASE  -
|  1> ! r2scan-3c def2/J RI DEFGRID2 scfconv6 printgap
|  2> %output
|  3>     printlevel normal
|  4> end
|  5> * xyz 0 1
|  6> C 5.3026262442 -2.0465670069 -1.4241334901
|  7> C 4.2810956396 -0.9276160167 -1.4521560806
|  8> O 3.2209398973 -1.2722967958 -0.5377836186
|  9> P 2.2162227499 -0.1787418264 0.0219514193
| 10> S 3.0529361413 1.4593778398 0.708984613
| 11> O 1.3620970581 -1.0212440573 1.0521677294
| 12> C 1.6861282911 -1.0431574169 2.4611432218
| 13> C 2.9887083132 -1.7688571347 2.7206480407
| 14> S 0.8434635855 0.0739638008 -1.5677521143
| 15> C 0.1176991079 1.6187520178 -0.9515483799
| 16> S -0.8533251836 1.3869483148 0.5507766465
| 17> P -2.4335595367 0.2770063038 -0.3749258813
| 18> S -2.8617938983 0.785199406 -2.213038383
| 19> O -3.5805664758 0.3334391428 0.7222943643
| 20> C -4.0688614173 1.532317565 1.3546845545
| 21> C -4.5224562015 2.5788393568 0.3592706247
| 22> O -2.0175417219 -1.2422951701 -0.3315134796
| 23> C -1.7514787431 -1.9674725699 0.8923513382
| 24> C -2.9378667759 -2.8356085323 1.2573118501
| 25> H 5.7266846691 -2.1432156664 -0.428762544
| 26> H 4.8302790982 -2.9851155889 -1.6990706065
| 27> H 6.0949672328 -1.8219535786 -2.1305237948
| 28> H 3.8472405659 -0.8067337044 -2.4485938817
| 29> H 4.7190248956 0.0251540328 -1.1353172557
| 30> H 1.7371300457 -0.0102938897 2.8198412904
| 31> H 0.8383266002 -1.5546874885 2.9181618203
| 32> H 3.813300877 -1.2148076722 2.2736291293
| 33> H 3.1532840989 -1.8437082274 3.7909366176
| 34> H 2.9580148265 -2.7644209437 2.2860769062
| 35> H -0.5279759747 1.9943337893 -1.7458962616
| 36> H 0.9126649552 2.3240980133 -0.7091657435
| 37> H -4.9001803407 1.1782437876 1.9668419537
| 38> H -3.2753831035 1.9267137129 1.9955945002
| 39> H -3.6752131318 2.9349847366 -0.2249646615
| 40> H -5.2567647166 2.1596620458 -0.3244668527
| 41> H -4.9621388899 3.4161813913 0.8915058128
| 42> H -0.8647751309 -2.5662932151 0.6736178695
| 43> H -1.5231334985 -1.2510268452 1.6867022932
| 44> H -3.1663003 -3.5131097478 0.4392915709
| 45> H -2.6998045162 -3.4117056027 2.1459471856
| 46> H -3.8093843929 -2.2156575087 1.4509188168
| 47> *
| 48>
| 49>                          ****END OF INPUT****

CARTESIAN COORDINATES (ANGSTROEM)
---------------------------------
  C      5.302626   -2.046567   -1.424133
  C      4.281096   -0.927616   -1.452156
  O      3.220940   -1.272297   -0.537784
  P      2.216223   -0.178742    0.021951
  S      3.052936    1.459378    0.708985
  O      1.362097   -1.021244    1.052168
  C      1.686128   -1.043157    2.461143
  C      2.988708   -1.768857    2.720648
  S      0.843464    0.073964   -1.567752
  C      0.117699    1.618752   -0.951548
  S     -0.853325    1.386948    0.550777
  P     -2.433560    0.277006   -0.374926
  S     -2.861794    0.785199   -2.213038
  O     -3.580566    0.333439    0.722294
  C     -4.068861    1.532318    1.354685
  C     -4.522456    2.578839    0.359271
  O     -2.017542   -1.242295   -0.331513
  C     -1.751479   -1.967473    0.892351
  C     -2.937867   -2.835609    1.257312
  H      5.726685   -2.143216   -0.428763
  H      4.830279   -2.985116   -1.699071
  H      6.094967   -1.821954   -2.130524
  H      3.847241   -0.806734   -2.448594
  H      4.719025    0.025154   -1.135317
  H      1.737130   -0.010294    2.819841
  H      0.838327   -1.554687    2.918162
  H      3.813301   -1.214808    2.273629
  H      3.153284   -1.843708    3.790937
  H      2.958015   -2.764421    2.286077
  H     -0.527976    1.994334   -1.745896
  H      0.912665    2.324098   -0.709166
  H     -4.900180    1.178244    1.966842
  H     -3.275383    1.926714    1.995595
  H     -3.675213    2.934985   -0.224965
  H     -5.256765    2.159662   -0.324467
  H     -4.962139    3.416181    0.891506
  H     -0.864775   -2.566293    0.673618
  H     -1.523133   -1.251027    1.686702
  H     -3.166300   -3.513110    0.439292
  H     -2.699805   -3.411706    2.145947
  H     -3.809384   -2.215658    1.450919

 Total Charge           Charge          ....    0
 Multiplicity           Mult            ....    1
 Number of Electrons    NEL             ....  202
 Basis Dimension        Dim             ....  539

ORBITAL ENERGIES
----------------

  NO   OCC          E(Eh)            E(eV)
   0   2.0000     -88.574366     -2410.2310
   1   2.0000     -88.573938     -2410.2194
   2   2.0000     -88.522611     -2408.8227
   3   2.0000     -88.515327     -2408.6245
   4   2.0000     -76.914896     -2092.9607
   5   2.0000     -76.912630     -2092.8991
   6   2.0000     -18.996107      -516.9104
   7   2.0000     -18.995157      -516.8845
   8   2.0000     -18.994244      -516.8597
   9   2.0000     -18.986627      -516.6524
  10   2.0000     -10.106342      -275.0075
  11   2.0000     -10.102607      -274.9059
  12   2.0000     -10.101951      -274.8881
  13   2.0000     -10.100655      -274.8528
  14   2.0000     -10.098495      -274.7940
  15   2.0000     -10.035266      -273.0735
  16   2.0000     -10.032787      -273.0060
  17   2.0000     -10.030053      -272.9316
  18   2.0000     -10.028207      -272.8814
  19   2.0000      -7.868663      -214.1172
  20   2.0000      -7.867978      -214.0986
  21   2.0000      -7.817442      -212.7234
  22   2.0000      -7.810190      -212.5261
  23   2.0000      -6.593642      -179.4221
  24   2.0000      -6.590895      -179.3474
  25   2.0000      -5.815398      -158.2450
  26   2.0000      -5.814856      -158.2303
  27   2.0000      -5.812439      -158.1645
  28   2.0000      -5.811891      -158.1496
  29   2.0000      -5.806020      -157.9898
  30   2.0000      -5.805092      -157.9646
  31   2.0000      -5.764986      -156.8732
  32   2.0000      -5.758029      -156.6839
  33   2.0000      -5.757730      -156.6758
  34   2.0000      -5.757525      -156.6702
  35   2.0000      -5.750417      -156.4768
  36   2.0000      -5.750045      -156.4667
  37   2.0000      -4.739026      -128.9554
  38   2.0000      -4.738571      -128.9431
  39   2.0000      -4.737436      -128.9122
  40   2.0000      -4.736751      -128.8935
  41   2.0000      -4.736080      -128.8753
  42   2.0000      -4.734097      -128.8213
  43   2.0000      -1.053388       -28.6641
  44   2.0000      -1.051526       -28.6135
  45   2.0000      -1.014675       -27.6107
  46   2.0000      -1.009374       -27.4665
  47   2.0000      -0.801334       -21.8054
  48   2.0000      -0.760431       -20.6924
  49   2.0000      -0.751825       -20.4582
  50   2.0000      -0.736509       -20.0414
  51   2.0000      -0.735557       -20.0155
  52   2.0000      -0.710313       -19.3286
  53   2.0000      -0.685155       -18.6440
  54   2.0000      -0.669117       -18.2076
  55   2.0000      -0.632757       -17.2182
  56   2.0000      -0.621399       -16.9091
  57   2.0000      -0.606801       -16.5119
  58   2.0000      -0.602757       -16.4019
  59   2.0000      -0.596206       -16.2236
  60   2.0000      -0.533894       -14.5280
  61   2.0000      -0.523491       -14.2449
  62   2.0000      -0.500025       -13.6064
  63   2.0000      -0.493715       -13.4347
  64   2.0000      -0.478037       -13.0080
  65   2.0000      -0.468195       -12.7402
  66   2.0000      -0.457112       -12.4386
  67   2.0000      -0.453155       -12.3310
  68   2.0000      -0.451674       -12.2907
  69   2.0000      -0.431891       -11.7524
  70   2.0000      -0.428545       -11.6613
  71   2.0000      -0.417982       -11.3739
  72   2.0000      -0.412942       -11.2367
  73   2.0000      -0.400212       -10.8903
  74   2.0000      -0.397929       -10.8282
  75   2.0000      -0.389745       -10.6055
  76   2.0000      -0.380926       -10.3655
  77   2.0000      -0.375333       -10.2133
  78   2.0000      -0.371854       -10.1187
  79   2.0000      -0.365204        -9.9377
  80   2.0000      -0.364890        -9.9292
  81   2.0000      -0.362273        -9.8579
  82   2.0000      -0.360375        -9.8063
  83   2.0000      -0.353588        -9.6216
  84   2.0000      -0.350587        -9.5400
  85   2.0000      -0.337381        -9.1806
  86   2.0000      -0.327070        -8.9000
  87   2.0000      -0.317964        -8.6522
  88   2.0000      -0.312768        -8.5109
  89   2.0000      -0.306743        -8.3469
  90   2.0000      -0.301918        -8.2156
  91   2.0000      -0.295379        -8.0377
  92   2.0000      -0.291013        -7.9189
  93   2.0000      -0.280043        -7.6204
  94   2.0000      -0.270927        -7.3723
  95   2.0000      -0.246492        -6.7074
  96   2.0000      -0.231054        -6.2873
  97   2.0000      -0.226231        -6.1561
  98   2.0000      -0.217288        -5.9127
  99   2.0000      -0.211643        -5.7591
 100   2.0000      -0.210337        -5.7236
 101   0.0000      -0.045502        -1.2382
 102   0.0000      -0.023745        -0.6461
 103   0.0000      -0.002760        -0.0751
 104   0.0000       0.001648         0.0448
 105   0.0000       0.015072         0.4101

MULLIKEN ATOMIC CHARGES
-----------------------
   0 C :   -0.440019
   1 C :   -0.155772
   2 O :   -0.288157
   3 P :    0.693606
   4 S :   -0.494743
   5 O :   -0.258318
   6 C :   -0.156135
   7 C :   -0.441523
   8 S :   -0.121320
   9 C :   -0.236003
  10 S :   -0.180873
  11 P :    0.651703
  12 S :   -0.429571
  13 O :   -0.294433
  14 C :   -0.162105
  15 C :   -0.426316
  16 O :   -0.252168
  17 C :   -0.106145
  18 C :   -0.485006
  19 H :    0.153821
  20 H :    0.154975
  21 H :    0.147967
  22 H :    0.154202
  23 H :    0.170861
  24 H :    0.177222
  25 H :    0.145798
  26 H :    0.171143
  27 H :    0.147799
  28 H :    0.155811
  29 H :    0.215778
  30 H :    0.214756
  31 H :    0.149054
  32 H :    0.152708
  33 H :    0.170032
  34 H :    0.165004
  35 H :    0.146351
  36 H :    0.169978
  37 H :    0.151463
  38 H :    0.160348
  39 H :    0.143385
  40 H :    0.164842
Sum of atomic charges:   -0.0000000

LOEWDIN ATOMIC CHARGES
----------------------
   0 C :   -0.385445
   1 C :    0.020668
   2 O :   -0.664722
   3 P :    0.374035
   4 S :   -0.138545
   5 O :   -0.675143
   6 C :    0.016142
   7 C :   -0.399366
   8 S :    0.180341
   9 C :   -0.425066
  10 S :    0.133557
  11 P :    0.382839
  12 S :   -0.098463
  13 O :   -0.670464
  14 C :    0.023129
  15 C :   -0.405635
  16 O :   -0.650255
  17 C :    0.019292
  18 C :   -0.392202
  19 H :    0.159651
  20 H :    0.160419
  21 H :    0.160567
  22 H :    0.173108
  23 H :    0.180701
  24 H :    0.182272
  25 H :    0.177220
  26 H :    0.166554
  27 H :    0.159818
  28 H :    0.160834
  29 H :    0.192910
  30 H :    0.191039
  31 H :    0.180654
  32 H :    0.172055
  33 H :    0.167198
  34 H :    0.165982
  35 H :    0.158401
  36 H :    0.186730
  37 H :    0.174065
  38 H :    0.162798
  39 H :    0.157300
  40 H :    0.165027

  Mayer bond orders larger than 0.100000
B(  0-C ,  1-C ) :   0.9564 B(  0-C , 19-H ) :   0.9715 B(  0-C , 20-H ) :   0.9715
B(  0-C , 21-H ) :   0.9641 B(  1-C ,  2-O ) :   0.7785 B(  1-C , 22-H ) :   0.9454
B(  1-C , 23-H ) :   0.9517 B(  2-O ,  3-P ) :   1.0940 B(  3-P ,  4-S ) :   1.7246
B(  3-P ,  5-O ) :   1.1487 B(  3-P ,  8-S ) :   1.0845 B(  5-O ,  6-C ) :   0.7782
B(  6-C ,  7-C ) :   0.9258 B(  6-C , 24-H ) :   0.9626 B(  6-C , 25-H ) :   0.9607
B(  7-C , 26-H ) :   0.9592 B(  7-C , 27-H ) :   0.9621 B(  7-C , 28-H ) :   0.9713
B(  8-S ,  9-C ) :   0.9212 B(  9-C , 10-S ) :   0.9145 B(  9-C , 29-H ) :   0.9049
B(  9-C , 30-H ) :   0.9059 B( 10-S , 11-P ) :   0.9883 B( 11-P , 12-S ) :   1.8606
B( 11-P , 13-O ) :   1.0348 B( 11-P , 16-O ) :   1.1384 B( 13-O , 14-C ) :   0.8053
B( 14-C , 15-C ) :   0.9435 B( 14-C , 31-H ) :   0.9587 B( 14-C , 32-H ) :   0.9607
B( 15-C , 33-H ) :   0.9543 B( 15-C , 34-H ) :   0.9655 B( 15-C , 35-H ) :   0.9616
B( 16-O , 17-C ) :   0.7377 B( 17-C , 18-C ) :   0.9337 B( 17-C , 36-H ) :   0.9541
B( 17-C , 37-H ) :   0.9694 B( 18-C , 38-H ) :   0.9733 B( 18-C , 39-H ) :   0.9669
B( 18-C , 40-H ) :   0.9712

Dispersion correction           -0.021283623
FINAL SINGLE POINT ENERGY     -2932.462707360738

DIPOLE MOMENT
-------------

Method             : SCF
Type of density    : Electron Density
Multiplicity       :   1
Irrep              :   0
Energy             : -2932.4877867463783332 Eh
Relativity type    :
Basis              : AO
                                X                 Y                 Z
Electronic contribution:     -3.595985482      10.849363936     -12.498565775
Nuclear contribution   :      3.898324901     -11.635047758      13.998038184
                        -----------------------------------------
Total Dipole Moment    :      0.302339419      -0.785683822       1.499472409
                        -----------------------------------------
Magnitude (a.u.)       :      1.719629524
Magnitude (Debye)      :      4.370950884

Rotational constants in cm-1:             0.013153             0.004641             0.004388
Rotational constants in MHz :           394.321205           139.132864           131.550992

                             ****ORCA TERMINATED NORMALLY****
TOTAL RUN TIME: 0 days 0 hours 1 minutes 19 seconds 281 msec
