                         Program Version 6.0.0  -   RELEASE  -
|  1> ! r2scan-3c def2/J RI DEFGRID2 scfconv6 printgap
|  2> %output
|  3>     printlevel normal
|  4> end
|  5> %cpcm
|  6>     smd true
|  7>     smdsolvent "water"
|  8> end
|  9> * xyz 0 1
| 10> C 5.3026262442 -2.0465670069 -1.4241334901
| 11> C 4.2810956396 -0.9276160167 -1.4521560806
| 12> O 3.2209398973 -1.2722967958 -0.5377836186
| 13> P 2.2162227499 -0.1787418264 0.0219514193
| 14> S 3.0529361413 1.4593778398 0.708984613
| 15> O 1.3620970581 -1.0212440573 1.0521677294
| 16> C 1.6861282911 -1.0431574169 2.4611432218
| 17> C 2.9887083132 -1.7688571347 2.7206480407
| 18> S 0.8434635855 0.0739638008 -1.5677521143
| 19> C 0.1176991079 1.6187520178 -0.9515483799
| 20> S -0.8533251836 1.3869483148 0.5507766465
| 21> P -2.4335595367 0.2770063038 -0.3749258813
| 22> S -2.8617938983 0.785199406 -2.213038383
| 23> O -3.5805664758 0.3334391428 0.7222943643
| 24> C -4.0688614173 1.532317565 1.3546845545
| 25> C -4.5224562015 2.5788393568 0.3592706247
| 26> O -2.0175417219 -1.2422951701 -0.3315134796
| 27> C -1.7514787431 -1.9674725699 0.8923513382
| 28> C -2.9378667759 -2.8356085323 1.2573118501
| 29> H 5.7266846691 -2.1432156664 -0.428762544
| 30> H 4.8302790982 -2.9851155889 -1.6990706065
| 31> H 6.0949672328 -1.8219535786 -2.1305237948
| 32> H 3.8472405659 -0.8067337044 -2.4485938817
| 33> H 4.7190248956 0.0251540328 -1.1353172557
| 34> H 1.7371300457 -0.0102938897 2.8198412904
| 35> H 0.8383266002 -1.5546874885 2.9181618203
| 36> H 3.813300877 -1.2148076722 2.2736291293
| 37> H 3.1532840989 -1.8437082274 3.7909366176
| 38> H 2.9580148265 -2.7644209437 2.2860769062
| 39> H -0.5279759747 1.9943337893 -1.7458962616
| 40> H 0.9126649552 2.3240980133 -0.7091657435
| 41> H -4.9001803407 1.1782437876 1.9668419537
| 42> H -3.2753831035 1.9267137129 1.9955945002
| 43> H -3.6752131318 2.9349847366 -0.2249646615
| 44> H -5.2567647166 2.1596620458 -0.3244668527
| 45> H -4.9621388899 3.4161813913 0.8915058128
| 46> H -0.8647751309 -2.5662932151 0.6736178695
| 47> H -1.5231334985 -1.2510268452 1.6867022932
| 48> H -3.1663003 -3.5131097478 0.4392915709
| 49> H -2.6998045162 -3.4117056027 2.1459471856
| 50> H -3.8093843929 -2.2156575087 1.4509188168
| 51> *
| 52>
| 53>                          ****END OF INPUT****

CARTESIAN COORDINATES (ANGSTROEM)
---------------------------------
  C      5.302626   -2.046567   -1.424133
  C      4.281096   -0.927616   -1.452156
  O      3.220940   -1.272297   -0.537784
  P      2.216223   -0.178742    0.021951
  S      3.052936    1.459378    0.708985
  O      1.362097   -1.021244    1.052168
  C      1.686128   -1.043157    2.461143
  C      2.988708   -1.768857    2.720648
  S      0.843464    0.073964   -1.567752
  C      0.117699    1.618752   -0.951548
  S     -0.853325    1.386948    0.550777
  P     -2.433560    0.277006   -0.374926
  S     -2.861794    0.785199   -2.213038
  O     -3.580566    0.333439    0.722294
  C     -4.068861    1.532318    1.354685
  C     -4.522456    2.578839    0.359271
  O     -2.017542   -1.242295   -0.331513
  C     -1.751479   -1.967473    0.892351
  C     -2.937867   -2.835609    1.257312
  H      5.726685   -2.143216   -0.428763
  H      4.830279   -2.985116   -1.699071
  H      6.094967   -1.821954   -2.130524
  H      3.847241   -0.806734   -2.448594
  H      4.719025    0.025154   -1.135317
  H      1.737130   -0.010294    2.819841
  H      0.838327   -1.554687    2.918162
  H      3.813301   -1.214808    2.273629
  H      3.153284   -1.843708    3.790937
  H      2.958015   -2.764421    2.286077
  H     -0.527976    1.994334   -1.745896
  H      0.912665    2.324098   -0.709166
  H     -4.900180    1.178244    1.966842
  H     -3.275383    1.926714    1.995595
  H     -3.675213    2.934985   -0.224965
  H     -5.256765    2.159662   -0.324467
  H     -4.962139    3.416181    0.891506
  H     -0.864775   -2.566293    0.673618
  H     -1.523133   -1.251027    1.686702
  H     -3.166300   -3.513110    0.439292
  H     -2.699805   -3.411706    2.145947
  H     -3.809384   -2.215658    1.450919

 Total Charge           Charge          ....    0
 Multiplicity           Mult            ....    1
 Number of Electrons    NEL             ....  202
 Basis Dimension        Dim             ....  539

ORBITAL ENERGIES
----------------

  NO   OCC          E(Eh)            E(eV)
   0   2.0000     -88.579805     -2410.3790
   1   2.0000     -88.578546     -2410.3448
   2   2.0000     -88.528858     -2408.9927
   3   2.0000     -88.527740     -2408.9623
   4   2.0000     -76.920344     -2093.1090
   5   2.0000     -76.919153     -2093.0766
   6   2.0000     -18.996977      -516.9340
   7   2.0000     -18.996521      -516.9216
   8   2.0000     -18.994239      -516.8595
   9   2.0000     -18.992911      -516.8234
  10   2.0000     -10.103741      -274.9368
  11   2.0000     -10.093604      -274.6609
  12   2.0000     -10.090595      -274.5791
  13   2.0000     -10.090508      -274.5767
  14   2.0000     -10.089933      -274.5610
  15   2.0000     -10.019850      -272.6540
  16   2.0000     -10.018931      -272.6290
  17   2.0000     -10.018768      -272.6245
  18   2.0000     -10.018233      -272.6100
  19   2.0000      -7.873977      -214.2618
  20   2.0000      -7.872789      -214.2295
  21   2.0000      -7.823959      -212.9007
  22   2.0000      -7.822997      -212.8746
  23   2.0000      -6.598646      -179.5583
  24   2.0000      -6.597919      -179.5385
  25   2.0000      -5.820789      -158.3917
  26   2.0000      -5.819554      -158.3581
  27   2.0000      -5.817862      -158.3121
  28   2.0000      -5.816603      -158.2778
  29   2.0000      -5.811184      -158.1304
  30   2.0000      -5.810085      -158.1005
  31   2.0000      -5.771458      -157.0494
  32   2.0000      -5.770699      -157.0287
  33   2.0000      -5.764239      -156.8529
  34   2.0000      -5.764044      -156.8476
  35   2.0000      -5.763237      -156.8256
  36   2.0000      -5.762899      -156.8165
  37   2.0000      -4.744416      -129.1021
  38   2.0000      -4.743803      -129.0854
  39   2.0000      -4.743230      -129.0699
  40   2.0000      -4.742849      -129.0595
  41   2.0000      -4.742004      -129.0365
  42   2.0000      -4.741819      -129.0314
  43   2.0000      -1.054470       -28.6936
  44   2.0000      -1.053668       -28.6718
  45   2.0000      -1.014202       -27.5978
  46   2.0000      -1.012129       -27.5414
  47   2.0000      -0.804976       -21.9045
  48   2.0000      -0.756601       -20.5881
  49   2.0000      -0.745695       -20.2914
  50   2.0000      -0.726846       -19.7785
  51   2.0000      -0.724898       -19.7255
  52   2.0000      -0.709907       -19.3176
  53   2.0000      -0.688756       -18.7420
  54   2.0000      -0.675474       -18.3806
  55   2.0000      -0.628127       -17.0922
  56   2.0000      -0.619096       -16.8464
  57   2.0000      -0.601736       -16.3741
  58   2.0000      -0.596930       -16.2433
  59   2.0000      -0.591680       -16.1004
  60   2.0000      -0.530120       -14.4253
  61   2.0000      -0.519603       -14.1391
  62   2.0000      -0.494948       -13.4682
  63   2.0000      -0.489299       -13.3145
  64   2.0000      -0.476999       -12.9798
  65   2.0000      -0.463406       -12.6099
  66   2.0000      -0.452388       -12.3101
  67   2.0000      -0.446617       -12.1531
  68   2.0000      -0.445294       -12.1171
  69   2.0000      -0.429884       -11.6977
  70   2.0000      -0.424062       -11.5393
  71   2.0000      -0.412608       -11.2276
  72   2.0000      -0.410024       -11.1573
  73   2.0000      -0.398416       -10.8415
  74   2.0000      -0.394098       -10.7240
  75   2.0000      -0.384881       -10.4731
  76   2.0000      -0.381715       -10.3870
  77   2.0000      -0.368989       -10.0407
  78   2.0000      -0.363411        -9.8889
  79   2.0000      -0.359664        -9.7870
  80   2.0000      -0.353546        -9.6205
  81   2.0000      -0.352260        -9.5855
  82   2.0000      -0.351937        -9.5767
  83   2.0000      -0.347762        -9.4631
  84   2.0000      -0.346392        -9.4258
  85   2.0000      -0.333240        -9.0679
  86   2.0000      -0.323183        -8.7943
  87   2.0000      -0.313540        -8.5319
  88   2.0000      -0.308120        -8.3844
  89   2.0000      -0.303244        -8.2517
  90   2.0000      -0.298754        -8.1295
  91   2.0000      -0.293163        -7.9774
  92   2.0000      -0.288619        -7.8537
  93   2.0000      -0.279637        -7.6093
  94   2.0000      -0.273146        -7.4327
  95   2.0000      -0.251545        -6.8449
  96   2.0000      -0.238219        -6.4823
  97   2.0000      -0.234237        -6.3739
  98   2.0000      -0.225916        -6.1475
  99   2.0000      -0.222535        -6.0555
 100   2.0000      -0.221285        -6.0215
 101   0.0000      -0.051720        -1.4074
 102   0.0000      -0.031307        -0.8519
 103   0.0000      -0.007751        -0.2109
 104   0.0000      -0.003086        -0.0840
 105   0.0000       0.013949         0.3796

MULLIKEN ATOMIC CHARGES
-----------------------
   0 C :   -0.482687
   1 C :   -0.147539
   2 O :   -0.312992
   3 P :    0.726135
   4 S :   -0.536016
   5 O :   -0.282385
   6 C :   -0.148508
   7 C :   -0.484026
   8 S :   -0.151951
   9 C :   -0.241592
  10 S :   -0.175935
  11 P :    0.671478
  12 S :   -0.492989
  13 O :   -0.311892
  14 C :   -0.161228
  15 C :   -0.465331
  16 O :   -0.287299
  17 C :   -0.093314
  18 C :   -0.531341
  19 H :    0.166246
  20 H :    0.166313
  21 H :    0.169843
  22 H :    0.171997
  23 H :    0.172728
  24 H :    0.178050
  25 H :    0.180515
  26 H :    0.168884
  27 H :    0.173011
  28 H :    0.170493
  29 H :    0.231237
  30 H :    0.235060
  31 H :    0.177932
  32 H :    0.172627
  33 H :    0.165091
  34 H :    0.170435
  35 H :    0.173542
  36 H :    0.180931
  37 H :    0.174839
  38 H :    0.168600
  39 H :    0.171220
  40 H :    0.169818
Sum of atomic charges:   -0.0000000

LOEWDIN ATOMIC CHARGES
----------------------
   0 C :   -0.389074
   1 C :    0.025011
   2 O :   -0.676471
   3 P :    0.378598
   4 S :   -0.163985
   5 O :   -0.683656
   6 C :    0.022798
   7 C :   -0.402669
   8 S :    0.160801
   9 C :   -0.420499
  10 S :    0.142605
  11 P :    0.385841
  12 S :   -0.145941
  13 O :   -0.674251
  14 C :    0.031082
  15 C :   -0.409529
  16 O :   -0.675697
  17 C :    0.025945
  18 C :   -0.394363
  19 H :    0.162715
  20 H :    0.163441
  21 H :    0.169095
  22 H :    0.180032
  23 H :    0.181854
  24 H :    0.182675
  25 H :    0.191375
  26 H :    0.163030
  27 H :    0.169256
  28 H :    0.164401
  29 H :    0.197394
  30 H :    0.196913
  31 H :    0.193102
  32 H :    0.179795
  33 H :    0.162052
  34 H :    0.164477
  35 H :    0.168654
  36 H :    0.191795
  37 H :    0.183554
  38 H :    0.163912
  39 H :    0.168800
  40 H :    0.165131

  Mayer bond orders larger than 0.100000
B(  0-C ,  1-C ) :   0.9525 B(  0-C , 19-H ) :   0.9689 B(  0-C , 20-H ) :   0.9689
B(  0-C , 21-H ) :   0.9582 B(  1-C ,  2-O ) :   0.7711 B(  1-C , 22-H ) :   0.9371
B(  1-C , 23-H ) :   0.9483 B(  2-O ,  3-P ) :   1.1018 B(  3-P ,  4-S ) :   1.6927
B(  3-P ,  5-O ) :   1.1596 B(  3-P ,  8-S ) :   1.0896 B(  5-O ,  6-C ) :   0.7659
B(  6-C ,  7-C ) :   0.9120 B(  6-C , 24-H ) :   0.9591 B(  6-C , 25-H ) :   0.9499
B(  7-C , 26-H ) :   0.9591 B(  7-C , 27-H ) :   0.9560 B(  7-C , 28-H ) :   0.9709
B(  8-S ,  9-C ) :   0.9070 B(  9-C , 10-S ) :   0.9030 B(  9-C , 29-H ) :   0.9007
B(  9-C , 30-H ) :   0.9022 B( 10-S , 11-P ) :   1.0003 B( 11-P , 12-S ) :   1.8252
B( 11-P , 13-O ) :   1.0567 B( 11-P , 16-O ) :   1.1452 B( 13-O , 14-C ) :   0.7934
B( 14-C , 15-C ) :   0.9211 B( 14-C , 31-H ) :   0.9488 B( 14-C , 32-H ) :   0.9571
B( 15-C , 33-H ) :   0.9577 B( 15-C , 34-H ) :   0.9666 B( 15-C , 35-H ) :   0.9557
B( 16-O , 17-C ) :   0.7252 B( 17-C , 18-C ) :   0.9303 B( 17-C , 36-H ) :   0.9455
B( 17-C , 37-H ) :   0.9553 B( 18-C , 38-H ) :   0.9723 B( 18-C , 39-H ) :   0.9594
B( 18-C , 40-H ) :   0.9701

Dispersion correction           -0.021283623
FINAL SINGLE POINT ENERGY     -2932.473330376305

DIPOLE MOMENT
-------------

Method             : SCF
Type of density    : Electron Density
Multiplicity       :   1
Irrep              :   0
Energy             : -2932.4984097619449130 Eh
Relativity type    :
Basis              : AO
                                X                 Y                 Z
Electronic contribution:     -3.492232867      10.777518228     -11.692650929
Nuclear contribution   :      3.898324901     -11.635047758      13.998038184
                        -----------------------------------------
Total Dipole Moment    :      0.406092034      -0.857529530       2.305387256
                        -----------------------------------------
Magnitude (a.u.)       :      2.493005823
Magnitude (Debye)      :      6.336717215

Rotational constants in cm-1:             0.013153             0.004641             0.004388
Rotational constants in MHz :           394.321205           139.132864           131.550992

                             ****ORCA TERMINATED NORMALLY****
TOTAL RUN TIME: 0 days 0 hours 1 minutes 48 seconds 682 msec
