                         Program Version 6.0.0  -   RELEASE  -
|  1> ! r2scan-3c def2/J RI DEFGRID2 scfconv6 printgap
|  2> %output
|  3>     printlevel normal
|  4> end
|  5> * xyz 0 1
|  6> C 0.5876380602 1.7078313758 -0.0165263937
|  7> C 1.3987551286 0.4282971439 -0.2635524159
|  8> H 1.5964223075 0.3221020566 -1.3413093861
|  9> C 0.565457768 -0.7759286236 0.1936813432
| 10> H 0.4036665626 -0.6905423043 1.2792067103
| 11> C -0.7902873285 -0.7585687433 -0.5195488531
| 12> H -0.6196110879 -0.8941711081 -1.5976761629
| 13> C -1.476617213 0.6036881628 -0.2944013958
| 14> H -2.3665248385 0.6746624636 -0.9389013536
| 15> O -0.6600067295 1.6582043064 -0.6971455597
| 16> O -1.8348712017 0.7591524261 1.0492603789
| 17> O -1.6561902304 -1.7454566925 -0.0230078646
| 18> O 1.192113944 -1.999848764 -0.1086112555
| 19> O 2.5995122273 0.4021921041 0.470354707
| 20> H 1.0905536738 2.5857938262 -0.4222169789
| 21> H 0.4243547159 1.8350091699 1.0598760844
| 22> H -2.2927618771 -0.0505805907 1.3272927034
| 23> H -1.1930161555 -2.5968850652 -0.0447311279
| 24> H 2.0901993658 -1.9784645743 0.2534560118
| 25> H 3.1768322117 1.1249147664 0.1877621273
| 26> *
| 27>
| 28>                          ****END OF INPUT****

CARTESIAN COORDINATES (ANGSTROEM)
---------------------------------
  C      0.587638    1.707831   -0.016526
  C      1.398755    0.428297   -0.263552
  H      1.596422    0.322102   -1.341309
  C      0.565458   -0.775929    0.193681
  H      0.403667   -0.690542    1.279207
  C     -0.790287   -0.758569   -0.519549
  H     -0.619611   -0.894171   -1.597676
  C     -1.476617    0.603688   -0.294401
  H     -2.366525    0.674662   -0.938901
  O     -0.660007    1.658204   -0.697146
  O     -1.834871    0.759152    1.049260
  O     -1.656190   -1.745457   -0.023008
  O      1.192114   -1.999849   -0.108611
  O      2.599512    0.402192    0.470355
  H      1.090554    2.585794   -0.422217
  H      0.424355    1.835009    1.059876
  H     -2.292762   -0.050581    1.327293
  H     -1.193016   -2.596885   -0.044731
  H      2.090199   -1.978465    0.253456
  H      3.176832    1.124915    0.187762

 Total Charge           Charge          ....    0
 Multiplicity           Mult            ....    1
 Number of Electrons    NEL             ....   80
 Basis Dimension        Dim             ....  265

ORBITAL ENERGIES
----------------

  NO   OCC          E(Eh)            E(eV)
   0   2.0000     -18.973752      -516.3020
   1   2.0000     -18.970235      -516.2063
   2   2.0000     -18.966665      -516.1092
   3   2.0000     -18.962204      -515.9878
   4   2.0000     -18.955101      -515.7945
   5   2.0000     -10.135119      -275.7906
   6   2.0000     -10.094949      -274.6975
   7   2.0000     -10.091270      -274.5974
   8   2.0000     -10.090216      -274.5687
   9   2.0000     -10.084535      -274.4141
  10   2.0000      -1.046836       -28.4859
  11   2.0000      -1.018208       -27.7069
  12   2.0000      -1.008909       -27.4538
  13   2.0000      -0.990070       -26.9412
  14   2.0000      -0.973379       -26.4870
  15   2.0000      -0.751838       -20.4585
  16   2.0000      -0.723241       -19.6804
  17   2.0000      -0.622918       -16.9505
  18   2.0000      -0.612988       -16.6803
  19   2.0000      -0.554804       -15.0970
  20   2.0000      -0.525616       -14.3027
  21   2.0000      -0.503749       -13.7077
  22   2.0000      -0.490686       -13.3523
  23   2.0000      -0.482098       -13.1185
  24   2.0000      -0.458783       -12.4841
  25   2.0000      -0.437500       -11.9050
  26   2.0000      -0.431525       -11.7424
  27   2.0000      -0.401872       -10.9355
  28   2.0000      -0.389892       -10.6095
  29   2.0000      -0.374644       -10.1946
  30   2.0000      -0.355155        -9.6643
  31   2.0000      -0.342450        -9.3185
  32   2.0000      -0.325329        -8.8527
  33   2.0000      -0.314797        -8.5661
  34   2.0000      -0.301735        -8.2106
  35   2.0000      -0.274033        -7.4568
  36   2.0000      -0.255922        -6.9640
  37   2.0000      -0.252439        -6.8692
  38   2.0000      -0.246965        -6.7203
  39   2.0000      -0.230583        -6.2745
  40   0.0000       0.024175         0.6578
  41   0.0000       0.057333         1.5601
  42   0.0000       0.064298         1.7496
  43   0.0000       0.089991         2.4488
  44   0.0000       0.098132         2.6703

MULLIKEN ATOMIC CHARGES
-----------------------
   0 C :   -0.257125
   1 C :    0.004114
   2 H :    0.149757
   3 C :    0.012832
   4 H :    0.171117
   5 C :   -0.052228
   6 H :    0.167691
   7 C :    0.028862
   8 H :    0.141930
   9 O :   -0.206486
  10 O :   -0.413083
  11 O :   -0.454253
  12 O :   -0.441627
  13 O :   -0.428814
  14 H :    0.142053
  15 H :    0.184061
  16 H :    0.322151
  17 H :    0.318634
  18 H :    0.312346
  19 H :    0.298068
Sum of atomic charges:    0.0000000

LOEWDIN ATOMIC CHARGES
----------------------
   0 C :    0.043730
   1 C :    0.097411
   2 H :    0.177171
   3 C :    0.107638
   4 H :    0.189867
   5 C :    0.118728
   6 H :    0.186068
   7 C :    0.297081
   8 H :    0.197218
   9 O :   -0.657400
  10 O :   -0.520124
  11 O :   -0.574750
  12 O :   -0.578356
  13 O :   -0.590792
  14 H :    0.183390
  15 H :    0.188803
  16 H :    0.289752
  17 H :    0.286017
  18 H :    0.283072
  19 H :    0.275477

  Mayer bond orders larger than 0.100000
B(  0-C ,  1-C ) :   0.8734 B(  0-C ,  9-O ) :   0.9111 B(  0-C , 14-H ) :   0.9385
B(  0-C , 15-H ) :   0.9820 B(  1-C ,  2-H ) :   0.9720 B(  1-C ,  3-C ) :   0.9055
B(  1-C , 13-O ) :   0.9115 B(  3-C ,  4-H ) :   0.9610 B(  3-C ,  5-C ) :   0.8987
B(  3-C , 12-O ) :   0.9303 B(  5-C ,  6-H ) :   0.9721 B(  5-C ,  7-C ) :   0.9075
B(  5-C , 11-O ) :   0.8884 B(  7-C ,  8-H ) :   0.9532 B(  7-C ,  9-O ) :   1.0387
B(  7-C , 10-O ) :   0.9747 B( 10-O , 16-H ) :   0.8614 B( 11-O , 17-H ) :   0.8769
B( 12-O , 18-H ) :   0.8783 B( 13-O , 19-H ) :   0.8966

Dispersion correction           -0.006284097
FINAL SINGLE POINT ENERGY      -572.563397759307

DIPOLE MOMENT
-------------

Method             : SCF
Type of density    : Electron Density
Multiplicity       :   1
Irrep              :   0
Energy             :  -572.5736072889542356 Eh
Relativity type    :
Basis              : AO
                                X                 Y                 Z
Electronic contribution:     -1.302934549      -0.437302075       0.065626638
Nuclear contribution   :      2.161955798       0.297606483      -0.212338169
                        -----------------------------------------
Total Dipole Moment    :      0.859021249      -0.139695592      -0.146711530
                        -----------------------------------------
Magnitude (a.u.)       :      0.882585201
Magnitude (Debye)      :      2.243353299

Rotational constants in cm-1:             0.057518             0.044712             0.029040
Rotational constants in MHz :          1724.344310          1340.440064           870.593177

                             ****ORCA TERMINATED NORMALLY****
TOTAL RUN TIME: 0 days 0 hours 0 minutes 45 seconds 815 msec
