                         Program Version 6.0.0  -   RELEASE  -
|  1> ! r2scan-3c def2/J RI DEFGRID2 scfconv6 printgap
|  2> %output
|  3>     printlevel normal
|  4> end
|  5> %cpcm
|  6>     smd true
|  7>     smdsolvent "water"
|  8> end
|  9> * xyz 0 1
| 10> C 0.5876380602 1.7078313758 -0.0165263937
| 11> C 1.3987551286 0.4282971439 -0.2635524159
| 12> H 1.5964223075 0.3221020566 -1.3413093861
| 13> C 0.565457768 -0.7759286236 0.1936813432
| 14> H 0.4036665626 -0.6905423043 1.2792067103
| 15> C -0.7902873285 -0.7585687433 -0.5195488531
| 16> H -0.6196110879 -0.8941711081 -1.5976761629
| 17> C -1.476617213 0.6036881628 -0.2944013958
| 18> H -2.3665248385 0.6746624636 -0.9389013536
| 19> O -0.6600067295 1.6582043064 -0.6971455597
| 20> O -1.8348712017 0.7591524261 1.0492603789
| 21> O -1.6561902304 -1.7454566925 -0.0230078646
| 22> O 1.192113944 -1.999848764 -0.1086112555
| 23> O 2.5995122273 0.4021921041 0.470354707
| 24> H 1.0905536738 2.5857938262 -0.4222169789
| 25> H 0.4243547159 1.8350091699 1.0598760844
| 26> H -2.2927618771 -0.0505805907 1.3272927034
| 27> H -1.1930161555 -2.5968850652 -0.0447311279
| 28> H 2.0901993658 -1.9784645743 0.2534560118
| 29> H 3.1768322117 1.1249147664 0.1877621273
| 30> *
| 31>
| 32>                          ****END OF INPUT****

CARTESIAN COORDINATES (ANGSTROEM)
---------------------------------
  C      0.587638    1.707831   -0.016526
  C      1.398755    0.428297   -0.263552
  H      1.596422    0.322102   -1.341309
  C      0.565458   -0.775929    0.193681
  H      0.403667   -0.690542    1.279207
  C     -0.790287   -0.758569   -0.519549
  H     -0.619611   -0.894171   -1.597676
  C     -1.476617    0.603688   -0.294401
  H     -2.366525    0.674662   -0.938901
  O     -0.660007    1.658204   -0.697146
  O     -1.834871    0.759152    1.049260
  O     -1.656190   -1.745457   -0.023008
  O      1.192114   -1.999849   -0.108611
  O      2.599512    0.402192    0.470355
  H      1.090554    2.585794   -0.422217
  H      0.424355    1.835009    1.059876
  H     -2.292762   -0.050581    1.327293
  H     -1.193016   -2.596885   -0.044731
  H      2.090199   -1.978465    0.253456
  H      3.176832    1.124915    0.187762

 Total Charge           Charge          ....    0
 Multiplicity           Mult            ....    1
 Number of Electrons    NEL             ....   80
 Basis Dimension        Dim             ....  265

ORBITAL ENERGIES
----------------

  NO   OCC          E(Eh)            E(eV)
   0   2.0000     -18.976427      -516.3748
   1   2.0000     -18.964397      -516.0475
   2   2.0000     -18.962543      -515.9970
   3   2.0000     -18.961738      -515.9751
   4   2.0000     -18.960085      -515.9302
   5   2.0000     -10.135853      -275.8106
   6   2.0000     -10.087381      -274.4916
   7   2.0000     -10.085763      -274.4476
   8   2.0000     -10.084713      -274.4190
   9   2.0000     -10.077476      -274.2221
  10   2.0000      -1.051138       -28.6029
  11   2.0000      -1.013135       -27.5688
  12   2.0000      -1.003569       -27.3085
  13   2.0000      -0.985621       -26.8201
  14   2.0000      -0.978124       -26.6161
  15   2.0000      -0.746221       -20.3057
  16   2.0000      -0.720463       -19.6048
  17   2.0000      -0.617603       -16.8058
  18   2.0000      -0.609179       -16.5766
  19   2.0000      -0.552660       -15.0387
  20   2.0000      -0.518356       -14.1052
  21   2.0000      -0.499700       -13.5975
  22   2.0000      -0.490128       -13.3371
  23   2.0000      -0.475956       -12.9514
  24   2.0000      -0.456555       -12.4235
  25   2.0000      -0.435270       -11.8443
  26   2.0000      -0.428450       -11.6587
  27   2.0000      -0.397060       -10.8046
  28   2.0000      -0.388721       -10.5776
  29   2.0000      -0.370203       -10.0737
  30   2.0000      -0.354038        -9.6339
  31   2.0000      -0.345938        -9.4135
  32   2.0000      -0.327680        -8.9166
  33   2.0000      -0.316803        -8.6206
  34   2.0000      -0.300969        -8.1898
  35   2.0000      -0.273540        -7.4434
  36   2.0000      -0.257125        -6.9967
  37   2.0000      -0.251501        -6.8437
  38   2.0000      -0.245901        -6.6913
  39   2.0000      -0.232462        -6.3256
  40   0.0000       0.037199         1.0122
  41   0.0000       0.070836         1.9276
  42   0.0000       0.079640         2.1671
  43   0.0000       0.099799         2.7157
  44   0.0000       0.106491         2.8978

MULLIKEN ATOMIC CHARGES
-----------------------
   0 C :   -0.269937
   1 C :    0.020696
   2 H :    0.172596
   3 C :    0.006053
   4 H :    0.180485
   5 C :   -0.051591
   6 H :    0.188708
   7 C :    0.035595
   8 H :    0.161594
   9 O :   -0.264766
  10 O :   -0.467167
  11 O :   -0.501811
  12 O :   -0.495500
  13 O :   -0.488690
  14 H :    0.175210
  15 H :    0.183228
  16 H :    0.359080
  17 H :    0.355337
  18 H :    0.350046
  19 H :    0.350835
Sum of atomic charges:    0.0000000

LOEWDIN ATOMIC CHARGES
----------------------
   0 C :    0.047465
   1 C :    0.103417
   2 H :    0.185703
   3 C :    0.105710
   4 H :    0.192743
   5 C :    0.120290
   6 H :    0.194714
   7 C :    0.294219
   8 H :    0.205642
   9 O :   -0.688969
  10 O :   -0.544685
  11 O :   -0.589651
  12 O :   -0.597494
  13 O :   -0.604388
  14 H :    0.196952
  15 H :    0.188322
  16 H :    0.302129
  17 H :    0.298132
  18 H :    0.295090
  19 H :    0.294657

  Mayer bond orders larger than 0.100000
B(  0-C ,  1-C ) :   0.8711 B(  0-C ,  9-O ) :   0.8956 B(  0-C , 14-H ) :   0.9321
B(  0-C , 15-H ) :   0.9781 B(  1-C ,  2-H ) :   0.9690 B(  1-C ,  3-C ) :   0.9075
B(  1-C , 13-O ) :   0.9089 B(  3-C ,  4-H ) :   0.9554 B(  3-C ,  5-C ) :   0.9043
B(  3-C , 12-O ) :   0.9156 B(  5-C ,  6-H ) :   0.9637 B(  5-C ,  7-C ) :   0.9186
B(  5-C , 11-O ) :   0.8803 B(  7-C ,  8-H ) :   0.9425 B(  7-C ,  9-O ) :   1.0286
B(  7-C , 10-O ) :   0.9662 B( 10-O , 16-H ) :   0.8448 B( 11-O , 17-H ) :   0.8587
B( 12-O , 18-H ) :   0.8597 B( 13-O , 19-H ) :   0.8700

Dispersion correction           -0.006284097
FINAL SINGLE POINT ENERGY      -572.588484493167

DIPOLE MOMENT
-------------

Method             : SCF
Type of density    : Electron Density
Multiplicity       :   1
Irrep              :   0
Energy             :  -572.5986940228143567 Eh
Relativity type    :
Basis              : AO
                                X                 Y                 Z
Electronic contribution:     -0.982966854      -0.474120632      -0.057073385
Nuclear contribution   :      2.161955798       0.297606483      -0.212338169
                        -----------------------------------------
Total Dipole Moment    :      1.178988943      -0.176514149      -0.269411554
                        -----------------------------------------
Magnitude (a.u.)       :      1.222192603
Magnitude (Debye)      :      3.106566714

Rotational constants in cm-1:             0.057518             0.044712             0.029040
Rotational constants in MHz :          1724.344310          1340.440064           870.593177

                             ****ORCA TERMINATED NORMALLY****
TOTAL RUN TIME: 0 days 0 hours 0 minutes 51 seconds 864 msec
