                         Program Version 6.0.0  -   RELEASE  -
|  1> ! pbe def2-sv(p) def2/J RI DEFGRID1 loosescf d4 GCP(DFT/SV(P)) printgap
|  2> %output
|  3>     printlevel normal
|  4> end
|  5> * xyz 0 1
|  6> C 5.7651601939 -0.9992919266 -0.4345304916
|  7> C 4.9281375657 -0.3365381157 -1.5086229688
|  8> O 3.5369777598 -0.7102351953 -1.4223327142
|  9> P 2.6100991758 -0.2535025803 -0.2226683639
| 10> S 2.9454702667 1.5504815648 0.4771187375
| 11> O 2.829876461 -1.430295898 0.8255502895
| 12> C 2.4674577453 -1.3147681364 2.2108588653
| 13> C 0.9736358208 -1.4595011578 2.4179197333
| 14> S 0.7446535195 -0.6438785098 -1.1481418863
| 15> C 0.0874958357 1.050610891 -1.1672838176
| 16> S -0.7960855285 1.495526347 0.3526935309
| 17> P -2.4796621615 0.270322866 -0.0017818493
| 18> S -3.118830269 0.1502584178 -1.8559764984
| 19> O -3.5588238314 0.7540498615 1.0582603012
| 20> C -4.5181865287 1.7859911441 0.7697005661
| 21> C -3.8659324023 3.1443109952 0.6111919203
| 22> O -1.9674615825 -1.0790793701 0.6483994168
| 23> C -2.5286579664 -2.3600054536 0.2995590568
| 24> C -3.9527951617 -2.5025036321 0.7938656723
| 25> H 5.4874989105 -0.6123744799 0.5448158042
| 26> H 5.6073098342 -2.0745043226 -0.446227494
| 27> H 6.8141186056 -0.7848827731 -0.6138150365
| 28> H 5.2211981576 -0.6605134745 -2.5080813571
| 29> H 4.9973930638 0.7534292272 -1.4342777828
| 30> H 3.017725149 -2.1217428596 2.6971531488
| 31> H 2.8175703348 -0.346425817 2.584152243
| 32> H 0.7572365218 -1.489860007 3.4808998916
| 33> H 0.44469597 -0.6147423726 1.9786036725
| 34> H 0.617508766 -2.3739002042 1.9502416831
| 35> H -0.6024202991 1.1075678565 -2.0089625001
| 36> H 0.9041837369 1.7628372222 -1.269478906
| 37> H -5.0578332574 1.5111504804 -0.1423734029
| 38> H -5.1947182419 1.7609544602 1.6249655833
| 39> H -4.6349344568 3.9045164494 0.5183886832
| 40> H -3.239396125 3.3658116411 1.4716082241
| 41> H -3.2460508943 3.1582996804 -0.2844568722
| 42> H -2.4793513395 -2.474928349 -0.788046747
| 43> H -1.8603365117 -3.0782933248 0.7757099558
| 44> H -4.5982482253 -1.8001096713 0.2677676242
| 45> H -4.301705123 -3.5125587548 0.6032671113
| 46> H -4.0020429987 -2.294898134 1.8594706907
| 47> *
| 48>
| 49>                          ****END OF INPUT****

CARTESIAN COORDINATES (ANGSTROEM)
---------------------------------
  C      5.765160   -0.999292   -0.434530
  C      4.928138   -0.336538   -1.508623
  O      3.536978   -0.710235   -1.422333
  P      2.610099   -0.253503   -0.222668
  S      2.945470    1.550482    0.477119
  O      2.829876   -1.430296    0.825550
  C      2.467458   -1.314768    2.210859
  C      0.973636   -1.459501    2.417920
  S      0.744654   -0.643879   -1.148142
  C      0.087496    1.050611   -1.167284
  S     -0.796086    1.495526    0.352694
  P     -2.479662    0.270323   -0.001782
  S     -3.118830    0.150258   -1.855976
  O     -3.558824    0.754050    1.058260
  C     -4.518187    1.785991    0.769701
  C     -3.865932    3.144311    0.611192
  O     -1.967462   -1.079079    0.648399
  C     -2.528658   -2.360005    0.299559
  C     -3.952795   -2.502504    0.793866
  H      5.487499   -0.612374    0.544816
  H      5.607310   -2.074504   -0.446227
  H      6.814119   -0.784883   -0.613815
  H      5.221198   -0.660513   -2.508081
  H      4.997393    0.753429   -1.434278
  H      3.017725   -2.121743    2.697153
  H      2.817570   -0.346426    2.584152
  H      0.757237   -1.489860    3.480900
  H      0.444696   -0.614742    1.978604
  H      0.617509   -2.373900    1.950242
  H     -0.602420    1.107568   -2.008963
  H      0.904184    1.762837   -1.269479
  H     -5.057833    1.511150   -0.142373
  H     -5.194718    1.760954    1.624966
  H     -4.634934    3.904516    0.518389
  H     -3.239396    3.365812    1.471608
  H     -3.246051    3.158300   -0.284457
  H     -2.479351   -2.474928   -0.788047
  H     -1.860337   -3.078293    0.775710
  H     -4.598248   -1.800110    0.267768
  H     -4.301705   -3.512559    0.603267
  H     -4.002043   -2.294898    1.859471

 Total Charge           Charge          ....    0
 Multiplicity           Mult            ....    1
 Number of Electrons    NEL             ....  202
 Basis Dimension        Dim             ....  334

ORBITAL ENERGIES
----------------

  NO   OCC          E(Eh)            E(eV)
   0   2.0000     -88.042670     -2395.7628
   1   2.0000     -88.039190     -2395.6682
   2   2.0000     -87.992476     -2394.3970
   3   2.0000     -87.991596     -2394.3731
   4   2.0000     -76.427601     -2079.7008
   5   2.0000     -76.426101     -2079.6599
   6   2.0000     -18.796435      -511.4770
   7   2.0000     -18.791999      -511.3563
   8   2.0000     -18.791108      -511.3320
   9   2.0000     -18.788676      -511.2659
  10   2.0000      -9.954951      -270.8880
  11   2.0000      -9.952161      -270.8121
  12   2.0000      -9.951546      -270.7953
  13   2.0000      -9.951443      -270.7925
  14   2.0000      -9.949356      -270.7357
  15   2.0000      -9.885318      -268.9932
  16   2.0000      -9.884560      -268.9726
  17   2.0000      -9.884089      -268.9597
  18   2.0000      -9.877042      -268.7680
  19   2.0000      -7.687398      -209.1847
  20   2.0000      -7.684477      -209.1053
  21   2.0000      -7.637350      -207.8229
  22   2.0000      -7.636458      -207.7986
  23   2.0000      -6.425364      -174.8430
  24   2.0000      -6.423995      -174.8058
  25   2.0000      -5.715145      -155.5170
  26   2.0000      -5.712365      -155.4413
  27   2.0000      -5.712073      -155.4334
  28   2.0000      -5.709168      -155.3544
  29   2.0000      -5.704342      -155.2230
  30   2.0000      -5.701188      -155.1372
  31   2.0000      -5.666072      -154.1817
  32   2.0000      -5.665191      -154.1577
  33   2.0000      -5.658057      -153.9636
  34   2.0000      -5.657655      -153.9526
  35   2.0000      -5.657106      -153.9377
  36   2.0000      -5.656819      -153.9299
  37   2.0000      -4.647769      -126.4722
  38   2.0000      -4.647068      -126.4531
  39   2.0000      -4.646254      -126.4310
  40   2.0000      -4.645976      -126.4234
  41   2.0000      -4.645697      -126.4158
  42   2.0000      -4.644749      -126.3900
  43   2.0000      -0.989327       -26.9210
  44   2.0000      -0.985795       -26.8249
  45   2.0000      -0.948482       -25.8095
  46   2.0000      -0.944719       -25.7071
  47   2.0000      -0.762681       -20.7536
  48   2.0000      -0.722103       -19.6494
  49   2.0000      -0.707279       -19.2460
  50   2.0000      -0.688381       -18.7318
  51   2.0000      -0.684909       -18.6373
  52   2.0000      -0.674227       -18.3466
  53   2.0000      -0.652842       -17.7647
  54   2.0000      -0.640199       -17.4207
  55   2.0000      -0.605946       -16.4886
  56   2.0000      -0.596760       -16.2387
  57   2.0000      -0.573919       -15.6171
  58   2.0000      -0.570115       -15.5136
  59   2.0000      -0.557287       -15.1645
  60   2.0000      -0.495818       -13.4919
  61   2.0000      -0.491591       -13.3769
  62   2.0000      -0.475927       -12.9506
  63   2.0000      -0.472300       -12.8519
  64   2.0000      -0.457864       -12.4591
  65   2.0000      -0.442735       -12.0474
  66   2.0000      -0.441668       -12.0184
  67   2.0000      -0.437231       -11.8977
  68   2.0000      -0.429725       -11.6934
  69   2.0000      -0.415412       -11.3039
  70   2.0000      -0.404085       -10.9957
  71   2.0000      -0.395068       -10.7503
  72   2.0000      -0.392944       -10.6926
  73   2.0000      -0.389939       -10.6108
  74   2.0000      -0.385263       -10.4835
  75   2.0000      -0.379227       -10.3193
  76   2.0000      -0.368628       -10.0309
  77   2.0000      -0.356941        -9.7129
  78   2.0000      -0.352998        -9.6056
  79   2.0000      -0.350699        -9.5430
  80   2.0000      -0.348380        -9.4799
  81   2.0000      -0.345134        -9.3916
  82   2.0000      -0.341578        -9.2948
  83   2.0000      -0.337917        -9.1952
  84   2.0000      -0.333455        -9.0738
  85   2.0000      -0.319999        -8.7076
  86   2.0000      -0.310349        -8.4450
  87   2.0000      -0.298183        -8.1140
  88   2.0000      -0.293530        -7.9874
  89   2.0000      -0.284594        -7.7442
  90   2.0000      -0.284044        -7.7292
  91   2.0000      -0.275657        -7.5010
  92   2.0000      -0.272457        -7.4139
  93   2.0000      -0.266458        -7.2507
  94   2.0000      -0.261667        -7.1203
  95   2.0000      -0.230853        -6.2818
  96   2.0000      -0.219225        -5.9654
  97   2.0000      -0.214789        -5.8447
  98   2.0000      -0.208513        -5.6739
  99   2.0000      -0.206312        -5.6140
 100   2.0000      -0.204189        -5.5563
 101   0.0000      -0.043154        -1.1743
 102   0.0000      -0.028275        -0.7694
 103   0.0000      -0.005478        -0.1491
 104   0.0000       0.004853         0.1321
 105   0.0000       0.016226         0.4415

MULLIKEN ATOMIC CHARGES
-----------------------
   0 C :   -0.307899
   1 C :   -0.002547
   2 O :   -0.366247
   3 P :    0.615009
   4 S :   -0.336821
   5 O :   -0.371295
   6 C :   -0.006755
   7 C :   -0.330633
   8 S :   -0.070789
   9 C :   -0.365952
  10 S :   -0.062229
  11 P :    0.608818
  12 S :   -0.337455
  13 O :   -0.370785
  14 C :   -0.004490
  15 C :   -0.317036
  16 O :   -0.354195
  17 C :   -0.006497
  18 C :   -0.307155
  19 H :    0.122394
  20 H :    0.118597
  21 H :    0.111889
  22 H :    0.107053
  23 H :    0.110722
  24 H :    0.101638
  25 H :    0.109567
  26 H :    0.106760
  27 H :    0.151162
  28 H :    0.114737
  29 H :    0.194401
  30 H :    0.191358
  31 H :    0.111403
  32 H :    0.106701
  33 H :    0.114445
  34 H :    0.120626
  35 H :    0.127981
  36 H :    0.113110
  37 H :    0.108800
  38 H :    0.121989
  39 H :    0.112508
  40 H :    0.117113
Sum of atomic charges:    0.0000000

LOEWDIN ATOMIC CHARGES
----------------------
   0 C :   -0.364650
   1 C :   -0.115608
   2 O :   -0.244635
   3 P :    0.573074
   4 S :   -0.317209
   5 O :   -0.243091
   6 C :   -0.120302
   7 C :   -0.369326
   8 S :    0.093191
   9 C :   -0.483937
  10 S :    0.107299
  11 P :    0.572739
  12 S :   -0.324069
  13 O :   -0.242358
  14 C :   -0.118453
  15 C :   -0.369539
  16 O :   -0.233722
  17 C :   -0.117055
  18 C :   -0.364729
  19 H :    0.122826
  20 H :    0.127278
  21 H :    0.130229
  22 H :    0.119959
  23 H :    0.110820
  24 H :    0.116613
  25 H :    0.108361
  26 H :    0.128915
  27 H :    0.118247
  28 H :    0.122557
  29 H :    0.128832
  30 H :    0.129692
  31 H :    0.110912
  32 H :    0.119467
  33 H :    0.131836
  34 H :    0.125630
  35 H :    0.121765
  36 H :    0.111151
  37 H :    0.118012
  38 H :    0.122128
  39 H :    0.130548
  40 H :    0.126602

  Mayer bond orders larger than 0.100000
B(  0-C ,  1-C ) :   1.1628 B(  0-C , 19-H ) :   0.9386 B(  0-C , 20-H ) :   0.9461
B(  0-C , 21-H ) :   0.9384 B(  1-C ,  2-O ) :   0.9118 B(  1-C , 22-H ) :   0.9354
B(  1-C , 23-H ) :   0.9184 B(  2-O ,  3-P ) :   1.1343 B(  3-P ,  4-S ) :   1.5913
B(  3-P ,  5-O ) :   1.1073 B(  3-P ,  8-S ) :   0.9631 B(  4-S ,  8-S ) :   0.1139
B(  5-O ,  6-C ) :   0.9096 B(  6-C ,  7-C ) :   1.1624 B(  6-C , 24-H ) :   0.9333
B(  6-C , 25-H ) :   0.9126 B(  7-C , 26-H ) :   0.9379 B(  7-C , 27-H ) :   0.9247
B(  7-C , 28-H ) :   0.9427 B(  8-S ,  9-C ) :   1.0077 B(  9-C , 10-S ) :   1.0048
B(  9-C , 29-H ) :   0.8733 B(  9-C , 30-H ) :   0.8784 B( 10-S , 11-P ) :   0.9642
B( 10-S , 12-S ) :   0.1077 B( 11-P , 12-S ) :   1.5845 B( 11-P , 13-O ) :   1.1122
B( 11-P , 16-O ) :   1.1325 B( 13-O , 14-C ) :   0.9069 B( 14-C , 15-C ) :   1.1664
B( 14-C , 31-H ) :   0.9166 B( 14-C , 32-H ) :   0.9338 B( 15-C , 33-H ) :   0.9376
B( 15-C , 34-H ) :   0.9444 B( 15-C , 35-H ) :   0.9353 B( 16-O , 17-C ) :   0.9075
B( 17-C , 18-C ) :   1.1629 B( 17-C , 36-H ) :   0.9173 B( 17-C , 37-H ) :   0.9308
B( 18-C , 38-H ) :   0.9366 B( 18-C , 39-H ) :   0.9393 B( 18-C , 40-H ) :   0.9459

Dispersion correction           -0.064927500
FINAL SINGLE POINT ENERGY     -2929.526842116477

DIPOLE MOMENT
-------------

Method             : SCF
Type of density    : Electron Density
Multiplicity       :   1
Irrep              :   0
Energy             : -2929.6466672120623116 Eh
Relativity type    :
Basis              : AO
                                X                 Y                 Z
Electronic contribution:      2.402188342       6.061995241      -9.754798955
Nuclear contribution   :     -2.471726165      -6.613044175      10.469713222
                        -----------------------------------------
Total Dipole Moment    :     -0.069537823      -0.551048934       0.714914267
                        -----------------------------------------
Magnitude (a.u.)       :      0.905313673
Magnitude (Debye)      :      2.301124483

Rotational constants in cm-1:             0.014558             0.004277             0.004055
Rotational constants in MHz :           436.449852           128.221538           121.575751

                             ****ORCA TERMINATED NORMALLY****
TOTAL RUN TIME: 0 days 0 hours 0 minutes 20 seconds 938 msec
