                         Program Version 6.0.0  -   RELEASE  -
|  1> ! pbe def2-sv(p) def2/J RI DEFGRID1 loosescf d4 GCP(DFT/SV(P)) printgap
|  2> %output
|  3>     printlevel normal
|  4> end
|  5> * xyz 0 1
|  6> C 0.6350900761 1.6977323399 -0.0419145703
|  7> C 1.3972674773 0.3939369134 -0.2866672324
|  8> H 1.5763820204 0.2760040577 -1.3691044952
|  9> C 0.5382308409 -0.7862301 0.2050074473
| 10> H 0.3753273422 -0.6798145131 1.2840889356
| 11> C -0.8132426365 -0.7414600927 -0.5215929756
| 12> H -0.6499932653 -0.8472759359 -1.6003627246
| 13> C -1.4670864511 0.6333382221 -0.2637365132
| 14> H -2.3647758356 0.7298413986 -0.8912314264
| 15> O -0.6349641353 1.6890013416 -0.6750454709
| 16> O -1.7846071912 0.69486929 1.0910964964
| 17> O -1.6690138219 -1.7874796289 -0.1581111989
| 18> O 1.2180302144 -2.0077681948 0.0459033628
| 19> O 2.6226059593 0.456016913 0.3983655543
| 20> H 1.1729134386 2.5438893235 -0.4671464744
| 21> H 0.5282443181 1.8397898148 1.03971279
| 22> H -2.3193924932 1.4809107474 1.2776703977
| 23> H -1.9253675794 -1.6748238604 0.7703904438
| 24> H 1.1291179671 -2.3213027094 -0.8652016377
| 25> H 2.9545063781 -0.450092253 0.5056027849
| 26> *
| 27>
| 28>                          ****END OF INPUT****

CARTESIAN COORDINATES (ANGSTROEM)
---------------------------------
  C      0.635090    1.697732   -0.041915
  C      1.397267    0.393937   -0.286667
  H      1.576382    0.276004   -1.369104
  C      0.538231   -0.786230    0.205007
  H      0.375327   -0.679815    1.284089
  C     -0.813243   -0.741460   -0.521593
  H     -0.649993   -0.847276   -1.600363
  C     -1.467086    0.633338   -0.263737
  H     -2.364776    0.729841   -0.891231
  O     -0.634964    1.689001   -0.675045
  O     -1.784607    0.694869    1.091096
  O     -1.669014   -1.787480   -0.158111
  O      1.218030   -2.007768    0.045903
  O      2.622606    0.456017    0.398366
  H      1.172913    2.543889   -0.467146
  H      0.528244    1.839790    1.039713
  H     -2.319392    1.480911    1.277670
  H     -1.925368   -1.674824    0.770390
  H      1.129118   -2.321303   -0.865202
  H      2.954506   -0.450092    0.505603

 Total Charge           Charge          ....    0
 Multiplicity           Mult            ....    1
 Number of Electrons    NEL             ....   80
 Basis Dimension        Dim             ....  160

ORBITAL ENERGIES
----------------

  NO   OCC          E(Eh)            E(eV)
   0   2.0000     -18.779593      -511.0187
   1   2.0000     -18.771075      -510.7869
   2   2.0000     -18.759743      -510.4786
   3   2.0000     -18.751255      -510.2476
   4   2.0000     -18.745082      -510.0796
   5   2.0000      -9.990653      -271.8595
   6   2.0000      -9.947084      -270.6739
   7   2.0000      -9.940452      -270.4935
   8   2.0000      -9.938231      -270.4330
   9   2.0000      -9.932129      -270.2670
  10   2.0000      -0.988863       -26.9083
  11   2.0000      -0.946069       -25.7438
  12   2.0000      -0.931303       -25.3421
  13   2.0000      -0.918002       -24.9801
  14   2.0000      -0.913759       -24.8646
  15   2.0000      -0.700754       -19.0685
  16   2.0000      -0.681540       -18.5456
  17   2.0000      -0.589609       -16.0441
  18   2.0000      -0.575764       -15.6673
  19   2.0000      -0.550081       -14.9685
  20   2.0000      -0.503103       -13.6901
  21   2.0000      -0.477684       -12.9984
  22   2.0000      -0.470911       -12.8142
  23   2.0000      -0.447235       -12.1699
  24   2.0000      -0.431871       -11.7518
  25   2.0000      -0.418637       -11.3917
  26   2.0000      -0.406949       -11.0736
  27   2.0000      -0.376400       -10.2424
  28   2.0000      -0.369549       -10.0559
  29   2.0000      -0.351144        -9.5551
  30   2.0000      -0.334644        -9.1061
  31   2.0000      -0.314732        -8.5643
  32   2.0000      -0.302047        -8.2191
  33   2.0000      -0.286526        -7.7968
  34   2.0000      -0.268811        -7.3147
  35   2.0000      -0.263723        -7.1763
  36   2.0000      -0.247247        -6.7279
  37   2.0000      -0.234403        -6.3784
  38   2.0000      -0.218188        -5.9372
  39   2.0000      -0.203199        -5.5293
  40   0.0000       0.012421         0.3380
  41   0.0000       0.021292         0.5794
  42   0.0000       0.039867         1.0848
  43   0.0000       0.061372         1.6700
  44   0.0000       0.069990         1.9045

MULLIKEN ATOMIC CHARGES
-----------------------
   0 C :    0.094591
   1 C :    0.011511
   2 H :    0.042601
   3 C :    0.025907
   4 H :    0.069144
   5 C :    0.055438
   6 H :    0.065135
   7 C :    0.140921
   8 H :    0.072497
   9 O :   -0.313343
  10 O :   -0.409679
  11 O :   -0.414443
  12 O :   -0.411104
  13 O :   -0.419546
  14 H :    0.101568
  15 H :    0.066135
  16 H :    0.314328
  17 H :    0.303423
  18 H :    0.301704
  19 H :    0.303211
Sum of atomic charges:   -0.0000000

LOEWDIN ATOMIC CHARGES
----------------------
   0 C :   -0.116713
   1 C :   -0.084882
   2 H :    0.093320
   3 C :   -0.090128
   4 H :    0.117259
   5 C :   -0.090829
   6 H :    0.115283
   7 C :   -0.010393
   8 H :    0.100749
   9 O :   -0.155884
  10 O :   -0.308308
  11 O :   -0.310843
  12 O :   -0.310954
  13 O :   -0.325093
  14 H :    0.121243
  15 H :    0.104754
  16 H :    0.296089
  17 H :    0.284913
  18 H :    0.287538
  19 H :    0.282878

  Mayer bond orders larger than 0.100000
B(  0-C ,  1-C ) :   1.0553 B(  0-C ,  9-O ) :   0.9969 B(  0-C , 14-H ) :   0.9239
B(  0-C , 15-H ) :   0.8922 B(  1-C ,  2-H ) :   0.8704 B(  1-C ,  3-C ) :   1.0070
B(  1-C , 13-O ) :   1.0880 B(  3-C ,  4-H ) :   0.8731 B(  3-C ,  5-C ) :   0.9871
B(  3-C , 12-O ) :   1.0606 B(  5-C ,  6-H ) :   0.8756 B(  5-C ,  7-C ) :   0.9894
B(  5-C , 11-O ) :   1.0679 B(  7-C ,  8-H ) :   0.9042 B(  7-C ,  9-O ) :   1.0671
B(  7-C , 10-O ) :   1.0829 B( 10-O , 16-H ) :   0.8377 B( 11-O , 17-H ) :   0.8404
B( 12-O , 18-H ) :   0.8470 B( 13-O , 19-H ) :   0.8307

Dispersion correction           -0.019200257
FINAL SINGLE POINT ENERGY      -571.419861683904

DIPOLE MOMENT
-------------

Method             : SCF
Type of density    : Electron Density
Multiplicity       :   1
Irrep              :   0
Energy             :  -571.5284420853899974 Eh
Relativity type    :
Basis              : AO
                                X                 Y                 Z
Electronic contribution:     -0.955697829      -0.665813707       0.218647601
Nuclear contribution   :      0.443798531       0.827503695      -0.285666180
                        -----------------------------------------
Total Dipole Moment    :     -0.511899298       0.161689988      -0.067018579
                        -----------------------------------------
Magnitude (a.u.)       :      0.540995410
Magnitude (Debye)      :      1.375101052

Rotational constants in cm-1:             0.056862             0.044672             0.029015
Rotational constants in MHz :          1704.669082          1339.246345           869.854090

                             ****ORCA TERMINATED NORMALLY****
TOTAL RUN TIME: 0 days 0 hours 0 minutes 11 seconds 124 msec
