                         Program Version 6.0.1  -  RELEASE   -
|  1> ! pbe def2-sv(p) def2/J RI DEFGRID1 loosescf d4 GCP(DFT/SV(P)) printgap
|  2> %output
|  3>     printlevel normal
|  4> end
|  5> * xyz 0 1
|  6> C 3.4331617326 -3.0890405901 0.2356205683
|  7> C 3.0282554975 -1.7105242189 0.7315920942
|  8> O 2.7453024354 -0.8256223227 -0.3705732564
|  9> C 1.5671494928 -0.8892252925 -0.9503489608
| 10> O 0.6663185486 -1.6324929082 -0.60990121
| 11> C 1.4415448083 0.1016754275 -2.0883100426
| 12> C 0.2513236531 1.034274655 -1.8470553634
| 13> H 0.1394885382 1.7116733456 -2.6980935026
| 14> C 0.4117413924 1.8538572906 -0.5798796287
| 15> O -0.478938557 1.9399454457 0.2462379266
| 16> O 1.5770973749 2.4274842031 -0.5017120044
| 17> C 1.9155330361 3.1654012295 0.6945944222
| 18> C 2.5724953734 2.2437951932 1.7083023047
| 19> S -1.3424176277 0.1549004031 -1.7344639687
| 20> P -1.5383680085 -0.3073984615 0.3294479191
| 21> S -0.3421769055 -0.4334319734 1.8806420871
| 22> O -2.7979166144 0.5487942144 0.8395738178
| 23> C -3.921734078 0.8432664767 -0.0004032723
| 24> O -2.2016359127 -1.7378850643 -0.0428413423
| 25> C -2.557171209 -2.6687879109 0.9771680367
| 26> H 3.7086040572 -3.7052424277 1.0848993826
| 27> H 2.6011516954 -3.5589639336 -0.2841563925
| 28> H 4.2787678081 -3.0099190703 -0.4421453902
| 29> H 3.8444465518 -1.2227717474 1.2640065503
| 30> H 2.1433130455 -1.7647515051 1.3728216773
| 31> H 1.2641307569 -0.4538561096 -3.0100302806
| 32> H 2.3600024695 0.6827631201 -2.1627284734
| 33> H 2.6036297605 3.9362741438 0.3480219094
| 34> H 1.0056603695 3.6115712159 1.1034232975
| 35> H 1.872143309 1.4733596945 2.0295845832
| 36> H 3.4434224786 1.7654755663 1.2689670868
| 37> H 2.8761617967 2.8210376663 2.5749178324
| 38> H -4.1350543609 0.0056676142 -0.666728846
| 39> H -3.7101768019 1.7378163785 -0.5852044002
| 40> H -4.7546688146 1.0178789262 0.6767089246
| 41> H -3.0045743976 -3.5127295862 0.4582741589
| 42> H -3.2672710051 -2.2220155777 1.6761281521
| 43> H -1.6648015516 -2.9824564986 1.5210751091
| 44> *
| 45>
| 46>                          ****END OF INPUT****

CARTESIAN COORDINATES (ANGSTROEM)
---------------------------------
  C      3.433162   -3.089041    0.235621
  C      3.028255   -1.710524    0.731592
  O      2.745302   -0.825622   -0.370573
  C      1.567149   -0.889225   -0.950349
  O      0.666319   -1.632493   -0.609901
  C      1.441545    0.101675   -2.088310
  C      0.251324    1.034275   -1.847055
  H      0.139489    1.711673   -2.698094
  C      0.411741    1.853857   -0.579880
  O     -0.478939    1.939945    0.246238
  O      1.577097    2.427484   -0.501712
  C      1.915533    3.165401    0.694594
  C      2.572495    2.243795    1.708302
  S     -1.342418    0.154900   -1.734464
  P     -1.538368   -0.307398    0.329448
  S     -0.342177   -0.433432    1.880642
  O     -2.797917    0.548794    0.839574
  C     -3.921734    0.843266   -0.000403
  O     -2.201636   -1.737885   -0.042841
  C     -2.557171   -2.668788    0.977168
  H      3.708604   -3.705242    1.084899
  H      2.601152   -3.558964   -0.284156
  H      4.278768   -3.009919   -0.442145
  H      3.844447   -1.222772    1.264007
  H      2.143313   -1.764752    1.372822
  H      1.264131   -0.453856   -3.010030
  H      2.360002    0.682763   -2.162728
  H      2.603630    3.936274    0.348022
  H      1.005660    3.611571    1.103423
  H      1.872143    1.473360    2.029585
  H      3.443422    1.765476    1.268967
  H      2.876162    2.821038    2.574918
  H     -4.135054    0.005668   -0.666729
  H     -3.710177    1.737816   -0.585204
  H     -4.754669    1.017879    0.676709
  H     -3.004574   -3.512730    0.458274
  H     -3.267271   -2.222016    1.676128
  H     -1.664802   -2.982456    1.521075

 Total Charge           Charge          ....    0
 Multiplicity           Mult            ....    1
 Number of Electrons    NEL             ....  174
 Basis Dimension        Dim             ....  316

ORBITAL ENERGIES
----------------

  NO   OCC          E(Eh)            E(eV)
   0   2.0000     -88.028308     -2395.3720
   1   2.0000     -87.961502     -2393.5542
   2   2.0000     -76.410598     -2079.2381
   3   2.0000     -18.820968      -512.1446
   4   2.0000     -18.803447      -511.6678
   5   2.0000     -18.764400      -510.6053
   6   2.0000     -18.763062      -510.5689
   7   2.0000     -18.758025      -510.4318
   8   2.0000     -18.735458      -509.8177
   9   2.0000     -10.026532      -272.8358
  10   2.0000     -10.008920      -272.3566
  11   2.0000      -9.955602      -270.9057
  12   2.0000      -9.955338      -270.8985
  13   2.0000      -9.940826      -270.5036
  14   2.0000      -9.930617      -270.2258
  15   2.0000      -9.923354      -270.0282
  16   2.0000      -9.914332      -269.7827
  17   2.0000      -9.884459      -268.9698
  18   2.0000      -9.882821      -268.9252
  19   2.0000      -7.673381      -208.8033
  20   2.0000      -7.606724      -206.9895
  21   2.0000      -6.405619      -174.3058
  22   2.0000      -5.701773      -155.1531
  23   2.0000      -5.698295      -155.0585
  24   2.0000      -5.689336      -154.8147
  25   2.0000      -5.636284      -153.3711
  26   2.0000      -5.627399      -153.1293
  27   2.0000      -5.626028      -153.0920
  28   2.0000      -4.628604      -125.9507
  29   2.0000      -4.627748      -125.9274
  30   2.0000      -4.625994      -125.8797
  31   2.0000      -1.031288       -28.0628
  32   2.0000      -1.009577       -27.4720
  33   2.0000      -0.957154       -26.0455
  34   2.0000      -0.936024       -25.4705
  35   2.0000      -0.915080       -24.9006
  36   2.0000      -0.912510       -24.8307
  37   2.0000      -0.766440       -20.8559
  38   2.0000      -0.710796       -19.3417
  39   2.0000      -0.706712       -19.2306
  40   2.0000      -0.681185       -18.5360
  41   2.0000      -0.651836       -17.7374
  42   2.0000      -0.626232       -17.0406
  43   2.0000      -0.614095       -16.7104
  44   2.0000      -0.598677       -16.2908
  45   2.0000      -0.593967       -16.1627
  46   2.0000      -0.566634       -15.4189
  47   2.0000      -0.509579       -13.8663
  48   2.0000      -0.500205       -13.6113
  49   2.0000      -0.496063       -13.4986
  50   2.0000      -0.481526       -13.1030
  51   2.0000      -0.456980       -12.4351
  52   2.0000      -0.455966       -12.4075
  53   2.0000      -0.450897       -12.2695
  54   2.0000      -0.436062       -11.8658
  55   2.0000      -0.427351       -11.6288
  56   2.0000      -0.417245       -11.3538
  57   2.0000      -0.414383       -11.2759
  58   2.0000      -0.409802       -11.1513
  59   2.0000      -0.399920       -10.8824
  60   2.0000      -0.394081       -10.7235
  61   2.0000      -0.388380       -10.5684
  62   2.0000      -0.384204       -10.4547
  63   2.0000      -0.381326       -10.3764
  64   2.0000      -0.379115       -10.3163
  65   2.0000      -0.363899        -9.9022
  66   2.0000      -0.357337        -9.7236
  67   2.0000      -0.354561        -9.6481
  68   2.0000      -0.347912        -9.4672
  69   2.0000      -0.336812        -9.1651
  70   2.0000      -0.334006        -9.0888
  71   2.0000      -0.325366        -8.8537
  72   2.0000      -0.318964        -8.6794
  73   2.0000      -0.306624        -8.3437
  74   2.0000      -0.302724        -8.2375
  75   2.0000      -0.294819        -8.0224
  76   2.0000      -0.289499        -7.8777
  77   2.0000      -0.276161        -7.5147
  78   2.0000      -0.266062        -7.2399
  79   2.0000      -0.258741        -7.0407
  80   2.0000      -0.252335        -6.8664
  81   2.0000      -0.246884        -6.7180
  82   2.0000      -0.234705        -6.3867
  83   2.0000      -0.226229        -6.1560
  84   2.0000      -0.194543        -5.2938
  85   2.0000      -0.180469        -4.9108
  86   2.0000      -0.169398        -4.6095
  87   0.0000      -0.046357        -1.2614
  88   0.0000      -0.044282        -1.2050
  89   0.0000      -0.028391        -0.7725
  90   0.0000       0.006174         0.1680
  91   0.0000       0.036831         1.0022

MULLIKEN ATOMIC CHARGES
-----------------------
   0 C :   -0.306064
   1 C :   -0.029399
   2 O :   -0.225863
   3 C :    0.091476
   4 O :   -0.191309
   5 C :   -0.016496
   6 C :   -0.326843
   7 H :    0.154209
   8 C :    0.211339
   9 O :   -0.179483
  10 O :   -0.218745
  11 C :   -0.011330
  12 C :   -0.327192
  13 S :   -0.063155
  14 P :    0.635414
  15 S :   -0.333327
  16 O :   -0.374464
  17 C :   -0.106297
  18 O :   -0.396814
  19 C :   -0.096003
  20 H :    0.112930
  21 H :    0.129716
  22 H :    0.107917
  23 H :    0.098670
  24 H :    0.133574
  25 H :    0.124269
  26 H :    0.113419
  27 H :    0.105446
  28 H :    0.119868
  29 H :    0.153402
  30 H :    0.115953
  31 H :    0.112054
  32 H :    0.110656
  33 H :    0.115005
  34 H :    0.120804
  35 H :    0.113063
  36 H :    0.104122
  37 H :    0.119476
Sum of atomic charges:   -0.0000000

LOEWDIN ATOMIC CHARGES
----------------------
   0 C :   -0.356960
   1 C :   -0.115603
   2 O :   -0.049537
   3 C :    0.022407
   4 O :   -0.164028
   5 C :   -0.249367
   6 C :   -0.262415
   7 H :    0.151729
   8 C :    0.014473
   9 O :   -0.146335
  10 O :   -0.036035
  11 C :   -0.103721
  12 C :   -0.362440
  13 S :    0.127083
  14 P :    0.604563
  15 S :   -0.305827
  16 O :   -0.257947
  17 C :   -0.219936
  18 O :   -0.273093
  19 C :   -0.216873
  20 H :    0.131150
  21 H :    0.131127
  22 H :    0.121687
  23 H :    0.115218
  24 H :    0.121170
  25 H :    0.146838
  26 H :    0.137864
  27 H :    0.119095
  28 H :    0.125439
  29 H :    0.130167
  30 H :    0.123813
  31 H :    0.131300
  32 H :    0.103881
  33 H :    0.109870
  34 H :    0.119405
  35 H :    0.115683
  36 H :    0.105477
  37 H :    0.110679

  Mayer bond orders larger than 0.100000
B(  0-C ,  1-C ) :   1.1690 B(  0-C , 20-H ) :   0.9446 B(  0-C , 21-H ) :   0.9450
B(  0-C , 22-H ) :   0.9480 B(  1-C ,  2-O ) :   0.9062 B(  1-C , 23-H ) :   0.9364
B(  1-C , 24-H ) :   0.9032 B(  2-O ,  3-C ) :   1.2451 B(  3-C ,  4-O ) :   1.9755
B(  3-C ,  5-C ) :   0.9999 B(  5-C ,  6-C ) :   1.0130 B(  5-C , 25-H ) :   0.8888
B(  5-C , 26-H ) :   0.8853 B(  6-C ,  7-H ) :   0.8730 B(  6-C ,  8-C ) :   0.8941
B(  6-C , 13-S ) :   1.0659 B(  8-C ,  9-O ) :   1.9591 B(  8-C , 10-O ) :   1.2772
B(  9-O , 14-P ) :   0.1204 B( 10-O , 11-C ) :   0.8923 B( 11-C , 12-C ) :   1.1801
B( 11-C , 27-H ) :   0.9365 B( 11-C , 28-H ) :   0.9127 B( 12-C , 29-H ) :   0.9238
B( 12-C , 30-H ) :   0.9442 B( 12-C , 31-H ) :   0.9394 B( 13-S , 14-P ) :   0.9125
B( 13-S , 15-S ) :   0.1120 B( 14-P , 15-S ) :   1.5271 B( 14-P , 16-O ) :   1.0791
B( 14-P , 18-O ) :   1.0404 B( 16-O , 17-C ) :   0.9408 B( 17-C , 32-H ) :   0.9399
B( 17-C , 33-H ) :   0.9489 B( 17-C , 34-H ) :   0.9568 B( 18-O , 19-C ) :   0.9451
B( 19-C , 35-H ) :   0.9571 B( 19-C , 36-H ) :   0.9478 B( 19-C , 37-H ) :   0.9416

Dispersion correction           -0.056349649
FINAL SINGLE POINT ENERGY     -1978.992942836361

DIPOLE MOMENT
-------------

Method             : SCF
Type of density    : Electron Density
Multiplicity       :   1
Irrep              :   0
Energy             : -1979.1208654948209187 Eh
Relativity type    :
Basis              : AO
                                X                 Y                 Z
Electronic contribution:    -11.437604613       3.712255811      -5.594102989
Nuclear contribution   :     12.302947668      -3.148935442       4.882744337
                        -----------------------------------------
Total Dipole Moment    :      0.865343055       0.563320369      -0.711358653
                        -----------------------------------------
Magnitude (a.u.)       :      1.253865851
Magnitude (Debye)      :      3.187073713

Rotational constants in cm-1:             0.012719             0.009211             0.007468
Rotational constants in MHz :           381.315130           276.126018           223.874484

                             ****ORCA TERMINATED NORMALLY****
TOTAL RUN TIME: 0 days 0 hours 0 minutes 37 seconds 869 msec
