                         Program Version 6.0.0  -   RELEASE  -
|  1> ! pbe def2-sv(p) def2/J RI DEFGRID1 loosescf d4 GCP(DFT/SV(P)) printgap
|  2> %output
|  3>     printlevel normal
|  4> end
|  5> * xyz 0 1
|  6> C 4.0309977075 1.9061086988 -1.4216673915
|  7> C 2.8084634097 1.1531398257 -1.9056464927
|  8> O 2.5435962925 -0.0052865052 -1.0955392235
|  9> P 2.026857536 0.1026710641 0.4086146476
| 10> S 1.0524460988 1.697087419 0.9609878262
| 11> O 3.326398524 -0.0285110631 1.3205531583
| 12> C 4.2643418402 -1.1214920946 1.1818271244
| 13> C 4.18962984 -2.0291698359 2.3936486928
| 14> S 1.075621934 -1.7819612525 0.5576241354
| 15> C -0.4076987929 -1.3023545983 1.5044216485
| 16> S -1.9545843319 -1.6640528036 0.632548108
| 17> P -2.0293038514 -0.0440177299 -0.6998974483
| 18> S -0.5928409792 0.2758555415 -1.9890062312
| 19> O -2.2822120136 1.1213602753 0.3664560051
| 20> C -2.2676192691 2.5087656649 -0.0271946326
| 21> C -2.2497234498 3.3472012467 1.2330915137
| 22> O -3.3834425891 -0.2365156055 -1.5020515353
| 23> C -4.6624084444 -0.4616757048 -0.8565541884
| 24> C -5.039369764 -1.9279296706 -0.9180703627
| 25> H 4.901456898 1.2549762568 -1.4257951522
| 26> H 4.211505179 2.7538394085 -2.0749653498
| 27> H 3.8632849217 2.2689289279 -0.4073710718
| 28> H 2.9444804257 0.7457008761 -2.9084094836
| 29> H 1.9200859592 1.7924051766 -1.8973610109
| 30> H 4.0461229463 -1.6680344695 0.2595119522
| 31> H 5.2446985901 -0.6476330688 1.1038817478
| 32> H 3.2241514011 -2.526665032 2.4371147056
| 33> H 4.9722809785 -2.7778367081 2.3240135231
| 34> H 4.3286528952 -1.4459426511 3.2995812037
| 35> H -0.3560733606 -0.2352857864 1.7344182762
| 36> H -0.4385326796 -1.9052168795 2.4078907706
| 37> H -1.3757339816 2.6881296357 -0.6362284165
| 38> H -3.1571969056 2.7031816945 -0.6332025492
| 39> H -3.0973368663 3.0931147082 1.8624888473
| 40> H -1.3286082535 3.1633108495 1.7805779352
| 41> H -2.2989568867 4.3962968071 0.961541134
| 42> H -4.6103432546 -0.1072123075 0.1758801921
| 43> H -5.3653259774 0.1503937927 -1.4246793764
| 44> H -5.0289319235 -2.2698895018 -1.9492182528
| 45> H -4.3368716384 -2.5263788901 -0.3420318069
| 46> H -6.0360444625 -2.0544827505 -0.5074083045
| 47> *
| 48>
| 49>                          ****END OF INPUT****

CARTESIAN COORDINATES (ANGSTROEM)
---------------------------------
  C      4.030998    1.906109   -1.421667
  C      2.808463    1.153140   -1.905646
  O      2.543596   -0.005287   -1.095539
  P      2.026858    0.102671    0.408615
  S      1.052446    1.697087    0.960988
  O      3.326399   -0.028511    1.320553
  C      4.264342   -1.121492    1.181827
  C      4.189630   -2.029170    2.393649
  S      1.075622   -1.781961    0.557624
  C     -0.407699   -1.302355    1.504422
  S     -1.954584   -1.664053    0.632548
  P     -2.029304   -0.044018   -0.699897
  S     -0.592841    0.275856   -1.989006
  O     -2.282212    1.121360    0.366456
  C     -2.267619    2.508766   -0.027195
  C     -2.249723    3.347201    1.233092
  O     -3.383443   -0.236516   -1.502052
  C     -4.662408   -0.461676   -0.856554
  C     -5.039370   -1.927930   -0.918070
  H      4.901457    1.254976   -1.425795
  H      4.211505    2.753839   -2.074965
  H      3.863285    2.268929   -0.407371
  H      2.944480    0.745701   -2.908409
  H      1.920086    1.792405   -1.897361
  H      4.046123   -1.668034    0.259512
  H      5.244699   -0.647633    1.103882
  H      3.224151   -2.526665    2.437115
  H      4.972281   -2.777837    2.324014
  H      4.328653   -1.445943    3.299581
  H     -0.356073   -0.235286    1.734418
  H     -0.438533   -1.905217    2.407891
  H     -1.375734    2.688130   -0.636228
  H     -3.157197    2.703182   -0.633203
  H     -3.097337    3.093115    1.862489
  H     -1.328608    3.163311    1.780578
  H     -2.298957    4.396297    0.961541
  H     -4.610343   -0.107212    0.175880
  H     -5.365326    0.150394   -1.424679
  H     -5.028932   -2.269890   -1.949218
  H     -4.336872   -2.526379   -0.342032
  H     -6.036044   -2.054483   -0.507408

 Total Charge           Charge          ....    0
 Multiplicity           Mult            ....    1
 Number of Electrons    NEL             ....  202
 Basis Dimension        Dim             ....  334

ORBITAL ENERGIES
----------------

  NO   OCC          E(Eh)            E(eV)
   0   2.0000     -88.042807     -2395.7666
   1   2.0000     -88.038304     -2395.6440
   2   2.0000     -87.985074     -2394.1956
   3   2.0000     -87.973059     -2393.8686
   4   2.0000     -76.421870     -2079.5448
   5   2.0000     -76.418025     -2079.4402
   6   2.0000     -18.789117      -511.2779
   7   2.0000     -18.785846      -511.1889
   8   2.0000     -18.783026      -511.1121
   9   2.0000     -18.782820      -511.1065
  10   2.0000      -9.956807      -270.9385
  11   2.0000      -9.956554      -270.9316
  12   2.0000      -9.953855      -270.8582
  13   2.0000      -9.945739      -270.6373
  14   2.0000      -9.942503      -270.5493
  15   2.0000      -9.888502      -269.0798
  16   2.0000      -9.883825      -268.9526
  17   2.0000      -9.881114      -268.8788
  18   2.0000      -9.878619      -268.8109
  19   2.0000      -7.688411      -209.2123
  20   2.0000      -7.683645      -209.0826
  21   2.0000      -7.630219      -207.6288
  22   2.0000      -7.618177      -207.3011
  23   2.0000      -6.419711      -174.6892
  24   2.0000      -6.416149      -174.5923
  25   2.0000      -5.716295      -155.5483
  26   2.0000      -5.712816      -155.4536
  27   2.0000      -5.711520      -155.4184
  28   2.0000      -5.708397      -155.3334
  29   2.0000      -5.705359      -155.2507
  30   2.0000      -5.700271      -155.1123
  31   2.0000      -5.659132      -153.9928
  32   2.0000      -5.651340      -153.7808
  33   2.0000      -5.649736      -153.7371
  34   2.0000      -5.647262      -153.6698
  35   2.0000      -5.638775      -153.4389
  36   2.0000      -5.638131      -153.4213
  37   2.0000      -4.642422      -126.3267
  38   2.0000      -4.641071      -126.2900
  39   2.0000      -4.640461      -126.2734
  40   2.0000      -4.639204      -126.2392
  41   2.0000      -4.637751      -126.1996
  42   2.0000      -4.636268      -126.1593
  43   2.0000      -0.979777       -26.6611
  44   2.0000      -0.979105       -26.6428
  45   2.0000      -0.937884       -25.5211
  46   2.0000      -0.937469       -25.5098
  47   2.0000      -0.761267       -20.7151
  48   2.0000      -0.719646       -19.5826
  49   2.0000      -0.708123       -19.2690
  50   2.0000      -0.689987       -18.7755
  51   2.0000      -0.686669       -18.6852
  52   2.0000      -0.670759       -18.2523
  53   2.0000      -0.648504       -17.6467
  54   2.0000      -0.632429       -17.2093
  55   2.0000      -0.593715       -16.1558
  56   2.0000      -0.576691       -15.6926
  57   2.0000      -0.571790       -15.5592
  58   2.0000      -0.571396       -15.5485
  59   2.0000      -0.555319       -15.1110
  60   2.0000      -0.506249       -13.7757
  61   2.0000      -0.496854       -13.5201
  62   2.0000      -0.476678       -12.9711
  63   2.0000      -0.472762       -12.8645
  64   2.0000      -0.451478       -12.2853
  65   2.0000      -0.446012       -12.1366
  66   2.0000      -0.439418       -11.9572
  67   2.0000      -0.431311       -11.7366
  68   2.0000      -0.427352       -11.6288
  69   2.0000      -0.413595       -11.2545
  70   2.0000      -0.403887       -10.9903
  71   2.0000      -0.395529       -10.7629
  72   2.0000      -0.386302       -10.5118
  73   2.0000      -0.380534       -10.3548
  74   2.0000      -0.378215       -10.2917
  75   2.0000      -0.367751       -10.0070
  76   2.0000      -0.359626        -9.7859
  77   2.0000      -0.356218        -9.6932
  78   2.0000      -0.354317        -9.6414
  79   2.0000      -0.352179        -9.5833
  80   2.0000      -0.345230        -9.3942
  81   2.0000      -0.342566        -9.3217
  82   2.0000      -0.341768        -9.3000
  83   2.0000      -0.333291        -9.0693
  84   2.0000      -0.327604        -8.9146
  85   2.0000      -0.313077        -8.5193
  86   2.0000      -0.310489        -8.4488
  87   2.0000      -0.306353        -8.3363
  88   2.0000      -0.301503        -8.2043
  89   2.0000      -0.278115        -7.5679
  90   2.0000      -0.273571        -7.4442
  91   2.0000      -0.273055        -7.4302
  92   2.0000      -0.266251        -7.2451
  93   2.0000      -0.262133        -7.1330
  94   2.0000      -0.260007        -7.0752
  95   2.0000      -0.234575        -6.3831
  96   2.0000      -0.217417        -5.9162
  97   2.0000      -0.207714        -5.6522
  98   2.0000      -0.204206        -5.5567
  99   2.0000      -0.188409        -5.1269
 100   2.0000      -0.178987        -4.8705
 101   0.0000      -0.041055        -1.1172
 102   0.0000      -0.028676        -0.7803
 103   0.0000      -0.011460        -0.3118
 104   0.0000       0.006949         0.1891
 105   0.0000       0.024518         0.6672

MULLIKEN ATOMIC CHARGES
-----------------------
   0 C :   -0.311285
   1 C :   -0.008143
   2 O :   -0.381878
   3 P :    0.625672
   4 S :   -0.312463
   5 O :   -0.367240
   6 C :   -0.029421
   7 C :   -0.278887
   8 S :   -0.079302
   9 C :   -0.344965
  10 S :   -0.106644
  11 P :    0.616936
  12 S :   -0.309341
  13 O :   -0.389367
  14 C :   -0.011800
  15 C :   -0.283375
  16 O :   -0.368475
  17 C :   -0.031650
  18 C :   -0.294064
  19 H :    0.109459
  20 H :    0.111928
  21 H :    0.130821
  22 H :    0.106849
  23 H :    0.123436
  24 H :    0.108911
  25 H :    0.108920
  26 H :    0.115370
  27 H :    0.107017
  28 H :    0.117743
  29 H :    0.201296
  30 H :    0.182308
  31 H :    0.116388
  32 H :    0.093375
  33 H :    0.107210
  34 H :    0.131908
  35 H :    0.106889
  36 H :    0.108886
  37 H :    0.110210
  38 H :    0.124405
  39 H :    0.131474
  40 H :    0.110887
Sum of atomic charges:   -0.0000000

LOEWDIN ATOMIC CHARGES
----------------------
   0 C :   -0.366376
   1 C :   -0.117643
   2 O :   -0.246018
   3 P :    0.576782
   4 S :   -0.288290
   5 O :   -0.251616
   6 C :   -0.120500
   7 C :   -0.359881
   8 S :    0.085907
   9 C :   -0.474489
  10 S :    0.084798
  11 P :    0.561545
  12 S :   -0.303181
  13 O :   -0.256738
  14 C :   -0.122473
  15 C :   -0.352386
  16 O :   -0.243930
  17 C :   -0.121197
  18 C :   -0.359954
  19 H :    0.121599
  20 H :    0.130858
  21 H :    0.125172
  22 H :    0.120213
  23 H :    0.111018
  24 H :    0.107098
  25 H :    0.118704
  26 H :    0.118830
  27 H :    0.128325
  28 H :    0.128258
  29 H :    0.125601
  30 H :    0.136897
  31 H :    0.109049
  32 H :    0.105614
  33 H :    0.122697
  34 H :    0.125682
  35 H :    0.128906
  36 H :    0.109054
  37 H :    0.120650
  38 H :    0.131189
  39 H :    0.119572
  40 H :    0.130653

  Mayer bond orders larger than 0.100000
B(  0-C ,  1-C ) :   1.1596 B(  0-C , 19-H ) :   0.9461 B(  0-C , 20-H ) :   0.9396
B(  0-C , 21-H ) :   0.9344 B(  1-C ,  2-O ) :   0.9018 B(  1-C , 22-H ) :   0.9356
B(  1-C , 23-H ) :   0.9136 B(  2-O ,  3-P ) :   1.0983 B(  3-P ,  4-S ) :   1.6109
B(  3-P ,  5-O ) :   1.1015 B(  3-P ,  8-S ) :   0.9487 B(  4-S ,  8-S ) :   0.1077
B(  5-O ,  6-C ) :   0.9028 B(  6-C ,  7-C ) :   1.1632 B(  6-C , 24-H ) :   0.9161
B(  6-C , 25-H ) :   0.9330 B(  7-C , 26-H ) :   0.9383 B(  7-C , 27-H ) :   0.9403
B(  7-C , 28-H ) :   0.9462 B(  8-S ,  9-C ) :   1.0094 B(  9-C , 10-S ) :   0.9985
B(  9-C , 29-H ) :   0.8518 B(  9-C , 30-H ) :   0.9125 B( 10-S , 11-P ) :   0.9667
B( 10-S , 12-S ) :   0.1112 B( 11-P , 12-S ) :   1.6759 B( 11-P , 13-O ) :   1.0702
B( 11-P , 16-O ) :   1.1146 B( 13-O , 14-C ) :   0.8955 B( 14-C , 15-C ) :   1.1629
B( 14-C , 31-H ) :   0.9075 B( 14-C , 32-H ) :   0.9308 B( 15-C , 33-H ) :   0.9498
B( 15-C , 34-H ) :   0.9448 B( 15-C , 35-H ) :   0.9418 B( 16-O , 17-C ) :   0.9007
B( 17-C , 18-C ) :   1.1681 B( 17-C , 36-H ) :   0.9149 B( 17-C , 37-H ) :   0.9328
B( 18-C , 38-H ) :   0.9456 B( 18-C , 39-H ) :   0.9371 B( 18-C , 40-H ) :   0.9388

Dispersion correction           -0.066244910
FINAL SINGLE POINT ENERGY     -2929.513319332407

DIPOLE MOMENT
-------------

Method             : SCF
Type of density    : Electron Density
Multiplicity       :   1
Irrep              :   0
Energy             : -2929.6320507218947569 Eh
Relativity type    :
Basis              : AO
                                X                 Y                 Z
Electronic contribution:     -2.291955829      -6.550199811      -3.652293189
Nuclear contribution   :      2.106438513       6.425281182       4.126329353
                        -----------------------------------------
Total Dipole Moment    :     -0.185517316      -0.124918630       0.474036164
                        -----------------------------------------
Magnitude (a.u.)       :      0.524148474
Magnitude (Debye)      :      1.332279544

Rotational constants in cm-1:             0.012632             0.005150             0.004602
Rotational constants in MHz :           378.698922           154.393871           137.959731

                             ****ORCA TERMINATED NORMALLY****
TOTAL RUN TIME: 0 days 0 hours 0 minutes 20 seconds 666 msec
