                         Program Version 6.0.1  -  RELEASE   -
|  1> ! pbe def2-sv(p) def2/J RI DEFGRID1 loosescf d4 GCP(DFT/SV(P)) printgap
|  2> %output
|  3>     printlevel normal
|  4> end
|  5> * xyz 0 1
|  6> C 3.3364278643 -3.8135177464 0.486028048
|  7> C 2.942745169 -3.3733833587 -0.9147834261
|  8> O 2.8504767257 -1.9368080212 -0.9966744391
|  9> C 1.7341382926 -1.3569756052 -0.6158444402
| 10> O 0.7463699778 -1.9533166516 -0.2376139747
| 11> C 1.8408901803 0.1487830343 -0.6762241001
| 12> C 0.6596143922 0.84450928 -1.3764317399
| 13> H 0.9347301293 1.1145222396 -2.3983653444
| 14> C 0.2717198694 2.1024058902 -0.6110513373
| 15> O -0.8409804201 2.2812068 -0.1655137032
| 16> O 1.277227239 2.92887362 -0.5036240042
| 17> C 1.1055673678 4.1138402896 0.3048886274
| 18> C 1.4671363982 3.8187110445 1.7514202362
| 19> S -0.8639226594 -0.1316187393 -1.5982129373
| 20> P -1.4690437724 -0.3798409496 0.4293315069
| 21> S -0.3581555429 0.1198979706 1.9594812697
| 22> O -2.9557255883 0.2336633019 0.4666567367
| 23> C -3.3396653512 1.5357892595 0.8989393716
| 24> O -1.8696683142 -1.9112965669 0.5344173399
| 25> C -2.6792263098 -2.5832577323 -0.4414480702
| 26> H 2.563821326 -3.5294534545 1.1980653875
| 27> H 3.4520240151 -4.8921238523 0.5050896506
| 28> H 4.2729976722 -3.3462002059 0.7773238302
| 29> H 1.9770845338 -3.8016318074 -1.1976005248
| 30> H 3.7070796567 -3.6356795488 -1.6459617606
| 31> H 2.7767893408 0.4193194304 -1.1614823778
| 32> H 1.8754294878 0.4701233736 0.3705300743
| 33> H 1.7819382834 4.8451324042 -0.136881431
| 34> H 0.0681198794 4.4471959078 0.2214386387
| 35> H 1.323398183 4.7127398634 2.3485672158
| 36> H 0.8325582398 3.0253979029 2.1448124342
| 37> H 2.5034847479 3.5016720383 1.8239219944
| 38> H -3.2992930991 2.2292572662 0.0612137534
| 39> H -2.6738371533 1.8819362263 1.6902217434
| 40> H -4.3559733918 1.4329671192 1.2731908099
| 41> H -2.7849447465 -3.5989532141 -0.0689318047
| 42> H -2.1728729405 -2.5805080927 -1.4071568547
| 43> H -3.6496243462 -2.0956166461 -0.5245565478
| 44> *
| 45>
| 46>                          ****END OF INPUT****

CARTESIAN COORDINATES (ANGSTROEM)
---------------------------------
  C      3.336428   -3.813518    0.486028
  C      2.942745   -3.373383   -0.914783
  O      2.850477   -1.936808   -0.996674
  C      1.734138   -1.356976   -0.615844
  O      0.746370   -1.953317   -0.237614
  C      1.840890    0.148783   -0.676224
  C      0.659614    0.844509   -1.376432
  H      0.934730    1.114522   -2.398365
  C      0.271720    2.102406   -0.611051
  O     -0.840980    2.281207   -0.165514
  O      1.277227    2.928874   -0.503624
  C      1.105567    4.113840    0.304889
  C      1.467136    3.818711    1.751420
  S     -0.863923   -0.131619   -1.598213
  P     -1.469044   -0.379841    0.429332
  S     -0.358156    0.119898    1.959481
  O     -2.955726    0.233663    0.466657
  C     -3.339665    1.535789    0.898939
  O     -1.869668   -1.911297    0.534417
  C     -2.679226   -2.583258   -0.441448
  H      2.563821   -3.529453    1.198065
  H      3.452024   -4.892124    0.505090
  H      4.272998   -3.346200    0.777324
  H      1.977085   -3.801632   -1.197601
  H      3.707080   -3.635680   -1.645962
  H      2.776789    0.419319   -1.161482
  H      1.875429    0.470123    0.370530
  H      1.781938    4.845132   -0.136881
  H      0.068120    4.447196    0.221439
  H      1.323398    4.712740    2.348567
  H      0.832558    3.025398    2.144812
  H      2.503485    3.501672    1.823922
  H     -3.299293    2.229257    0.061214
  H     -2.673837    1.881936    1.690222
  H     -4.355973    1.432967    1.273191
  H     -2.784945   -3.598953   -0.068932
  H     -2.172873   -2.580508   -1.407157
  H     -3.649624   -2.095617   -0.524557

 Total Charge           Charge          ....    0
 Multiplicity           Mult            ....    1
 Number of Electrons    NEL             ....  174
 Basis Dimension        Dim             ....  316

ORBITAL ENERGIES
----------------

  NO   OCC          E(Eh)            E(eV)
   0   2.0000     -88.025283     -2395.2897
   1   2.0000     -87.966122     -2393.6799
   2   2.0000     -76.412516     -2079.2903
   3   2.0000     -18.814969      -511.9813
   4   2.0000     -18.803311      -511.6641
   5   2.0000     -18.768055      -510.7048
   6   2.0000     -18.767990      -510.7030
   7   2.0000     -18.749358      -510.1960
   8   2.0000     -18.737783      -509.8810
   9   2.0000     -10.019935      -272.6563
  10   2.0000     -10.008177      -272.3363
  11   2.0000      -9.953884      -270.8590
  12   2.0000      -9.950763      -270.7740
  13   2.0000      -9.948320      -270.7076
  14   2.0000      -9.933218      -270.2966
  15   2.0000      -9.921749      -269.9845
  16   2.0000      -9.908082      -269.6126
  17   2.0000      -9.886089      -269.0142
  18   2.0000      -9.885305      -268.9928
  19   2.0000      -7.670188      -208.7164
  20   2.0000      -7.611574      -207.1215
  21   2.0000      -6.407904      -174.3679
  22   2.0000      -5.698461      -155.0630
  23   2.0000      -5.695110      -154.9718
  24   2.0000      -5.686279      -154.7315
  25   2.0000      -5.640834      -153.4949
  26   2.0000      -5.632157      -153.2588
  27   2.0000      -5.631250      -153.2341
  28   2.0000      -4.630627      -126.0058
  29   2.0000      -4.629945      -125.9872
  30   2.0000      -4.628468      -125.9470
  31   2.0000      -1.024464       -27.8771
  32   2.0000      -1.011578       -27.5264
  33   2.0000      -0.963154       -26.2087
  34   2.0000      -0.929126       -25.2828
  35   2.0000      -0.917480       -24.9659
  36   2.0000      -0.914100       -24.8739
  37   2.0000      -0.760137       -20.6844
  38   2.0000      -0.711457       -19.3597
  39   2.0000      -0.706351       -19.2208
  40   2.0000      -0.681801       -18.5527
  41   2.0000      -0.653494       -17.7825
  42   2.0000      -0.623089       -16.9551
  43   2.0000      -0.616412       -16.7734
  44   2.0000      -0.605274       -16.4703
  45   2.0000      -0.593780       -16.1576
  46   2.0000      -0.564947       -15.3730
  47   2.0000      -0.506084       -13.7713
  48   2.0000      -0.500949       -13.6315
  49   2.0000      -0.493882       -13.4392
  50   2.0000      -0.480736       -13.0815
  51   2.0000      -0.458147       -12.4668
  52   2.0000      -0.455436       -12.3931
  53   2.0000      -0.448987       -12.2176
  54   2.0000      -0.437818       -11.9136
  55   2.0000      -0.425207       -11.5705
  56   2.0000      -0.417588       -11.3631
  57   2.0000      -0.412188       -11.2162
  58   2.0000      -0.411121       -11.1872
  59   2.0000      -0.401553       -10.9268
  60   2.0000      -0.391468       -10.6524
  61   2.0000      -0.387749       -10.5512
  62   2.0000      -0.387353       -10.5404
  63   2.0000      -0.380156       -10.3446
  64   2.0000      -0.377642       -10.2762
  65   2.0000      -0.366976        -9.9859
  66   2.0000      -0.359741        -9.7891
  67   2.0000      -0.350681        -9.5425
  68   2.0000      -0.343878        -9.3574
  69   2.0000      -0.337462        -9.1828
  70   2.0000      -0.331271        -9.0143
  71   2.0000      -0.325305        -8.8520
  72   2.0000      -0.318385        -8.6637
  73   2.0000      -0.305497        -8.3130
  74   2.0000      -0.301082        -8.1929
  75   2.0000      -0.295213        -8.0332
  76   2.0000      -0.282593        -7.6897
  77   2.0000      -0.277480        -7.5506
  78   2.0000      -0.272333        -7.4105
  79   2.0000      -0.262974        -7.1559
  80   2.0000      -0.250624        -6.8198
  81   2.0000      -0.246781        -6.7153
  82   2.0000      -0.234861        -6.3909
  83   2.0000      -0.225268        -6.1299
  84   2.0000      -0.190568        -5.1856
  85   2.0000      -0.186810        -5.0834
  86   2.0000      -0.180162        -4.9025
  87   0.0000      -0.035301        -0.9606
  88   0.0000      -0.030712        -0.8357
  89   0.0000      -0.021912        -0.5963
  90   0.0000       0.008321         0.2264
  91   0.0000       0.036984         1.0064

MULLIKEN ATOMIC CHARGES
-----------------------
   0 C :   -0.308898
   1 C :   -0.010889
   2 O :   -0.224714
   3 C :    0.114902
   4 O :   -0.189306
   5 C :   -0.073205
   6 C :   -0.284039
   7 H :    0.146670
   8 C :    0.187085
   9 O :   -0.177386
  10 O :   -0.223742
  11 C :   -0.012305
  12 C :   -0.315215
  13 S :   -0.097680
  14 P :    0.656734
  15 S :   -0.343686
  16 O :   -0.400248
  17 C :   -0.080993
  18 O :   -0.359086
  19 C :   -0.107162
  20 H :    0.138099
  21 H :    0.112703
  22 H :    0.113271
  23 H :    0.108231
  24 H :    0.102117
  25 H :    0.104978
  26 H :    0.141127
  27 H :    0.105270
  28 H :    0.112050
  29 H :    0.113071
  30 H :    0.145712
  31 H :    0.114201
  32 H :    0.113207
  33 H :    0.110062
  34 H :    0.108343
  35 H :    0.125173
  36 H :    0.119171
  37 H :    0.116378
Sum of atomic charges:    0.0000000

LOEWDIN ATOMIC CHARGES
----------------------
   0 C :   -0.356684
   1 C :   -0.110582
   2 O :   -0.055145
   3 C :    0.028844
   4 O :   -0.160225
   5 C :   -0.258543
   6 C :   -0.260578
   7 H :    0.149257
   8 C :    0.015005
   9 O :   -0.152530
  10 O :   -0.044825
  11 C :   -0.106878
  12 C :   -0.359049
  13 S :    0.101846
  14 P :    0.604385
  15 S :   -0.321072
  16 O :   -0.263845
  17 C :   -0.210595
  18 O :   -0.237589
  19 C :   -0.212985
  20 H :    0.135329
  21 H :    0.130676
  22 H :    0.124650
  23 H :    0.120166
  24 H :    0.117548
  25 H :    0.137480
  26 H :    0.147014
  27 H :    0.118819
  28 H :    0.121421
  29 H :    0.131214
  30 H :    0.132913
  31 H :    0.125038
  32 H :    0.110281
  33 H :    0.106636
  34 H :    0.111638
  35 H :    0.123455
  36 H :    0.106651
  37 H :    0.110859

  Mayer bond orders larger than 0.100000
B(  0-C ,  1-C ) :   1.1743 B(  0-C , 20-H ) :   0.9435 B(  0-C , 21-H ) :   0.9438
B(  0-C , 22-H ) :   0.9487 B(  1-C ,  2-O ) :   0.9131 B(  1-C , 23-H ) :   0.9143
B(  1-C , 24-H ) :   0.9372 B(  2-O ,  3-C ) :   1.2469 B(  3-C ,  4-O ) :   1.9663
B(  3-C ,  5-C ) :   1.0330 B(  5-C ,  6-C ) :   1.0101 B(  5-C , 25-H ) :   0.8893
B(  5-C , 26-H ) :   0.8660 B(  6-C ,  7-H ) :   0.8729 B(  6-C ,  8-C ) :   0.8911
B(  6-C , 13-S ) :   1.0879 B(  8-C ,  9-O ) :   2.0061 B(  8-C , 10-O ) :   1.2585
B( 10-O , 11-C ) :   0.9016 B( 11-C , 12-C ) :   1.1763 B( 11-C , 27-H ) :   0.9365
B( 11-C , 28-H ) :   0.9130 B( 12-C , 29-H ) :   0.9419 B( 12-C , 30-H ) :   0.9322
B( 12-C , 31-H ) :   0.9482 B( 13-S , 14-P ) :   0.9091 B( 13-S , 15-S ) :   0.1093
B( 14-P , 15-S ) :   1.5727 B( 14-P , 16-O ) :   1.0763 B( 14-P , 18-O ) :   1.1192
B( 16-O , 17-C ) :   0.9365 B( 17-C , 32-H ) :   0.9516 B( 17-C , 33-H ) :   0.9378
B( 17-C , 34-H ) :   0.9547 B( 18-O , 19-C ) :   0.9348 B( 19-C , 35-H ) :   0.9611
B( 19-C , 36-H ) :   0.9372 B( 19-C , 37-H ) :   0.9446

Dispersion correction           -0.054147946
FINAL SINGLE POINT ENERGY     -1979.000474567019

DIPOLE MOMENT
-------------

Method             : SCF
Type of density    : Electron Density
Multiplicity       :   1
Irrep              :   0
Energy             : -1979.1303030420390314 Eh
Relativity type    :
Basis              : AO
                                X                 Y                 Z
Electronic contribution:     -9.045247471      -0.515097392      -4.196193582
Nuclear contribution   :      9.904477823       0.897426123       3.226516631
                        -----------------------------------------
Total Dipole Moment    :      0.859230352       0.382328731      -0.969676952
                        -----------------------------------------
Magnitude (a.u.)       :      1.350823988
Magnitude (Debye)      :      3.433521712

Rotational constants in cm-1:             0.011665             0.008657             0.006210
Rotational constants in MHz :           349.713103           259.519144           186.160828

                             ****ORCA TERMINATED NORMALLY****
TOTAL RUN TIME: 0 days 0 hours 0 minutes 28 seconds 230 msec
