                         Program Version 6.0.0  -   RELEASE  -
|  1> ! pbe def2-sv(p) def2/J RI DEFGRID1 loosescf d4 GCP(DFT/SV(P)) printgap
|  2> %output
|  3>     printlevel normal
|  4> end
|  5> * xyz 0 1
|  6> C 1.5617791109 -2.2070173748 -2.0167895055
|  7> C 2.1283694042 -0.8363475843 -2.3216512706
|  8> O 1.7438935759 0.1582077188 -1.338861489
|  9> P 2.0805423187 0.0897942242 0.1983405453
| 10> S 2.1784953148 1.8361196171 1.0800861546
| 11> O 3.4592664689 -0.7035141844 0.1826016064
| 12> C 4.2131295803 -0.8967067194 1.3958981061
| 13> C 5.6248000702 -1.2895936608 1.0100848663
| 14> S 0.7727660162 -1.3060389617 1.1459415301
| 15> C -0.2703369982 -0.193058126 2.132254584
| 16> S -2.0326739513 -0.4178272515 1.799158699
| 17> P -2.0853427674 0.2475371986 -0.2063500578
| 18> S -0.9400596326 1.7956169589 -0.6233847617
| 19> O -3.6269331042 0.4583519292 -0.5218277091
| 20> C -4.2904129486 1.7136871388 -0.2944997924
| 21> C -4.4533082863 2.0126038 1.1813588863
| 22> O -1.778372777 -1.1050831641 -0.9754870853
| 23> C -2.3560335846 -1.4579156691 -2.2543018959
| 24> C -1.9482466989 -0.4937370962 -3.3486064731
| 25> H 1.764548458 -2.8691254967 -2.8527351548
| 26> H 2.0211074267 -2.6151369052 -1.1182842866
| 27> H 0.4885299361 -2.1453493839 -1.8558644092
| 28> H 1.7282552083 -0.4273754159 -3.2515159428
| 29> H 3.2183882649 -0.8627996234 -2.3691439445
| 30> H 4.1970589198 0.0373208384 1.9673849786
| 31> H 3.7230549964 -1.6816156323 1.978228581
| 32> H 6.2063168998 -1.4509725152 1.9116411255
| 33> H 5.6106868128 -2.2027678421 0.4224263617
| 34> H 6.0851523376 -0.4988600501 0.4242788009
| 35> H 0.0301818017 0.8374521789 1.9197026053
| 36> H -0.1322568548 -0.4303229641 3.1840532412
| 37> H -3.7125165855 2.5038442563 -0.7850379993
| 38> H -5.2544578005 1.5929810585 -0.7905044971
| 39> H -5.0750062927 2.8938209458 1.3027066094
| 40> H -4.9146300456 1.1696401056 1.6892722742
| 41> H -3.4804229051 2.2034970543 1.6320663741
| 42> H -1.9749503008 -2.4640658486 -2.4377662009
| 43> H -3.4413951365 -1.4870960052 -2.1431972255
| 44> H -2.3383498543 0.5008786449 -3.1343378809
| 45> H -0.864762992 -0.4261620428 -3.4121376505
| 46> H -2.3445803666 -0.8350985229 -4.2996541341
| 47> *
| 48>
| 49>                          ****END OF INPUT****

CARTESIAN COORDINATES (ANGSTROEM)
---------------------------------
  C      1.561779   -2.207017   -2.016790
  C      2.128369   -0.836348   -2.321651
  O      1.743894    0.158208   -1.338861
  P      2.080542    0.089794    0.198341
  S      2.178495    1.836120    1.080086
  O      3.459266   -0.703514    0.182602
  C      4.213130   -0.896707    1.395898
  C      5.624800   -1.289594    1.010085
  S      0.772766   -1.306039    1.145942
  C     -0.270337   -0.193058    2.132255
  S     -2.032674   -0.417827    1.799159
  P     -2.085343    0.247537   -0.206350
  S     -0.940060    1.795617   -0.623385
  O     -3.626933    0.458352   -0.521828
  C     -4.290413    1.713687   -0.294500
  C     -4.453308    2.012604    1.181359
  O     -1.778373   -1.105083   -0.975487
  C     -2.356034   -1.457916   -2.254302
  C     -1.948247   -0.493737   -3.348606
  H      1.764548   -2.869125   -2.852735
  H      2.021107   -2.615137   -1.118284
  H      0.488530   -2.145349   -1.855864
  H      1.728255   -0.427375   -3.251516
  H      3.218388   -0.862800   -2.369144
  H      4.197059    0.037321    1.967385
  H      3.723055   -1.681616    1.978229
  H      6.206317   -1.450973    1.911641
  H      5.610687   -2.202768    0.422426
  H      6.085152   -0.498860    0.424279
  H      0.030182    0.837452    1.919703
  H     -0.132257   -0.430323    3.184053
  H     -3.712517    2.503844   -0.785038
  H     -5.254458    1.592981   -0.790504
  H     -5.075006    2.893821    1.302707
  H     -4.914630    1.169640    1.689272
  H     -3.480423    2.203497    1.632066
  H     -1.974950   -2.464066   -2.437766
  H     -3.441395   -1.487096   -2.143197
  H     -2.338350    0.500879   -3.134338
  H     -0.864763   -0.426162   -3.412138
  H     -2.344580   -0.835099   -4.299654

 Total Charge           Charge          ....    0
 Multiplicity           Mult            ....    1
 Number of Electrons    NEL             ....  202
 Basis Dimension        Dim             ....  334

ORBITAL ENERGIES
----------------

  NO   OCC          E(Eh)            E(eV)
   0   2.0000     -88.037978     -2395.6352
   1   2.0000     -88.034875     -2395.5507
   2   2.0000     -87.979047     -2394.0316
   3   2.0000     -87.975048     -2393.9227
   4   2.0000     -76.422953     -2079.5743
   5   2.0000     -76.419927     -2079.4919
   6   2.0000     -18.795375      -511.4482
   7   2.0000     -18.790116      -511.3050
   8   2.0000     -18.785512      -511.1798
   9   2.0000     -18.784939      -511.1642
  10   2.0000      -9.955866      -270.9129
  11   2.0000      -9.954100      -270.8648
  12   2.0000      -9.952868      -270.8313
  13   2.0000      -9.948774      -270.7199
  14   2.0000      -9.947925      -270.6968
  15   2.0000      -9.886966      -269.0380
  16   2.0000      -9.886657      -269.0296
  17   2.0000      -9.885998      -269.0117
  18   2.0000      -9.882927      -268.9281
  19   2.0000      -7.683464      -209.0777
  20   2.0000      -7.679515      -208.9702
  21   2.0000      -7.623666      -207.4505
  22   2.0000      -7.620282      -207.3584
  23   2.0000      -6.420233      -174.7034
  24   2.0000      -6.417130      -174.6190
  25   2.0000      -5.711468      -155.4169
  26   2.0000      -5.707911      -155.3202
  27   2.0000      -5.707339      -155.3046
  28   2.0000      -5.704032      -155.2146
  29   2.0000      -5.700309      -155.1133
  30   2.0000      -5.696607      -155.0126
  31   2.0000      -5.652526      -153.8130
  32   2.0000      -5.649350      -153.7266
  33   2.0000      -5.644389      -153.5916
  34   2.0000      -5.643871      -153.5775
  35   2.0000      -5.640758      -153.4928
  36   2.0000      -5.640376      -153.4824
  37   2.0000      -4.643330      -126.3514
  38   2.0000      -4.641782      -126.3093
  39   2.0000      -4.640417      -126.2722
  40   2.0000      -4.640167      -126.2654
  41   2.0000      -4.638668      -126.2246
  42   2.0000      -4.637413      -126.1904
  43   2.0000      -0.987574       -26.8732
  44   2.0000      -0.984345       -26.7854
  45   2.0000      -0.942947       -25.6589
  46   2.0000      -0.938982       -25.5510
  47   2.0000      -0.757426       -20.6106
  48   2.0000      -0.717565       -19.5259
  49   2.0000      -0.708031       -19.2665
  50   2.0000      -0.690746       -18.7962
  51   2.0000      -0.689148       -18.7527
  52   2.0000      -0.672295       -18.2941
  53   2.0000      -0.647602       -17.6222
  54   2.0000      -0.626793       -17.0559
  55   2.0000      -0.594669       -16.1818
  56   2.0000      -0.588390       -16.0109
  57   2.0000      -0.578350       -15.7377
  58   2.0000      -0.570162       -15.5149
  59   2.0000      -0.556600       -15.1458
  60   2.0000      -0.502102       -13.6629
  61   2.0000      -0.495721       -13.4893
  62   2.0000      -0.471829       -12.8391
  63   2.0000      -0.469536       -12.7767
  64   2.0000      -0.453126       -12.3302
  65   2.0000      -0.445388       -12.1196
  66   2.0000      -0.442236       -12.0339
  67   2.0000      -0.430503       -11.7146
  68   2.0000      -0.427849       -11.6424
  69   2.0000      -0.417319       -11.3558
  70   2.0000      -0.410013       -11.1570
  71   2.0000      -0.406247       -11.0545
  72   2.0000      -0.397099       -10.8056
  73   2.0000      -0.379430       -10.3248
  74   2.0000      -0.375598       -10.2206
  75   2.0000      -0.367825       -10.0090
  76   2.0000      -0.364737        -9.9250
  77   2.0000      -0.353730        -9.6255
  78   2.0000      -0.352759        -9.5991
  79   2.0000      -0.351439        -9.5632
  80   2.0000      -0.347382        -9.4527
  81   2.0000      -0.341453        -9.2914
  82   2.0000      -0.339005        -9.2248
  83   2.0000      -0.335294        -9.1238
  84   2.0000      -0.333862        -9.0848
  85   2.0000      -0.317098        -8.6287
  86   2.0000      -0.311268        -8.4700
  87   2.0000      -0.298354        -8.1186
  88   2.0000      -0.295192        -8.0326
  89   2.0000      -0.290127        -7.8948
  90   2.0000      -0.289469        -7.8769
  91   2.0000      -0.275328        -7.4920
  92   2.0000      -0.268665        -7.3108
  93   2.0000      -0.256769        -6.9870
  94   2.0000      -0.251427        -6.8417
  95   2.0000      -0.231720        -6.3054
  96   2.0000      -0.217469        -5.9176
  97   2.0000      -0.209370        -5.6972
  98   2.0000      -0.194127        -5.2825
  99   2.0000      -0.184891        -5.0312
 100   2.0000      -0.180822        -4.9204
 101   0.0000      -0.039446        -1.0734
 102   0.0000      -0.030169        -0.8209
 103   0.0000      -0.004563        -0.1242
 104   0.0000       0.014918         0.4059
 105   0.0000       0.020348         0.5537

MULLIKEN ATOMIC CHARGES
-----------------------
   0 C :   -0.361581
   1 C :    0.002852
   2 O :   -0.353073
   3 P :    0.616564
   4 S :   -0.297878
   5 O :   -0.391574
   6 C :   -0.005669
   7 C :   -0.280924
   8 S :   -0.120086
   9 C :   -0.349919
  10 S :   -0.092704
  11 P :    0.612779
  12 S :   -0.293185
  13 O :   -0.385307
  14 C :   -0.004598
  15 C :   -0.315607
  16 O :   -0.372155
  17 C :   -0.003288
  18 C :   -0.320792
  19 H :    0.111500
  20 H :    0.122428
  21 H :    0.159001
  22 H :    0.117716
  23 H :    0.109830
  24 H :    0.104234
  25 H :    0.098620
  26 H :    0.111783
  27 H :    0.111923
  28 H :    0.120416
  29 H :    0.207900
  30 H :    0.177646
  31 H :    0.111877
  32 H :    0.102443
  33 H :    0.113808
  34 H :    0.116897
  35 H :    0.131658
  36 H :    0.108695
  37 H :    0.113471
  38 H :    0.127532
  39 H :    0.127889
  40 H :    0.108876
Sum of atomic charges:    0.0000000

LOEWDIN ATOMIC CHARGES
----------------------
   0 C :   -0.375700
   1 C :   -0.107169
   2 O :   -0.229574
   3 P :    0.572828
   4 S :   -0.298666
   5 O :   -0.252255
   6 C :   -0.123630
   7 C :   -0.350725
   8 S :    0.062601
   9 C :   -0.482792
  10 S :    0.082462
  11 P :    0.563550
  12 S :   -0.291450
  13 O :   -0.246377
  14 C :   -0.120513
  15 C :   -0.369547
  16 O :   -0.246800
  17 C :   -0.111338
  18 C :   -0.365755
  19 H :    0.130512
  20 H :    0.118481
  21 H :    0.130223
  22 H :    0.119982
  23 H :    0.114495
  24 H :    0.107795
  25 H :    0.106349
  26 H :    0.130882
  27 H :    0.124235
  28 H :    0.128657
  29 H :    0.124735
  30 H :    0.135572
  31 H :    0.110648
  32 H :    0.117005
  33 H :    0.131686
  34 H :    0.124201
  35 H :    0.123514
  36 H :    0.117232
  37 H :    0.114084
  38 H :    0.124387
  39 H :    0.127542
  40 H :    0.128636

  Mayer bond orders larger than 0.100000
B(  0-C ,  1-C ) :   1.1697 B(  0-C , 19-H ) :   0.9349 B(  0-C , 20-H ) :   0.9345
B(  0-C , 21-H ) :   0.9233 B(  1-C ,  2-O ) :   0.9049 B(  1-C , 22-H ) :   0.9243
B(  1-C , 23-H ) :   0.9275 B(  2-O ,  3-P ) :   1.1369 B(  3-P ,  4-S ) :   1.6386
B(  3-P ,  5-O ) :   1.0603 B(  3-P ,  8-S ) :   0.9453 B(  4-S ,  8-S ) :   0.1214
B(  4-S , 29-H ) :   0.1005 B(  5-O ,  6-C ) :   0.9044 B(  6-C ,  7-C ) :   1.1591
B(  6-C , 24-H ) :   0.9065 B(  6-C , 25-H ) :   0.9258 B(  7-C , 26-H ) :   0.9422
B(  7-C , 27-H ) :   0.9517 B(  7-C , 28-H ) :   0.9508 B(  8-S ,  9-C ) :   0.9987
B(  9-C , 10-S ) :   1.0028 B(  9-C , 29-H ) :   0.8428 B(  9-C , 30-H ) :   0.9110
B( 10-S , 11-P ) :   0.9462 B( 10-S , 12-S ) :   0.1205 B( 11-P , 12-S ) :   1.6498
B( 11-P , 13-O ) :   1.0749 B( 11-P , 16-O ) :   1.1045 B( 13-O , 14-C ) :   0.9047
B( 14-C , 15-C ) :   1.1688 B( 14-C , 31-H ) :   0.9118 B( 14-C , 32-H ) :   0.9330
B( 15-C , 33-H ) :   0.9377 B( 15-C , 34-H ) :   0.9449 B( 15-C , 35-H ) :   0.9343
B( 16-O , 17-C ) :   0.9005 B( 17-C , 18-C ) :   1.1724 B( 17-C , 36-H ) :   0.9282
B( 17-C , 37-H ) :   0.9281 B( 18-C , 38-H ) :   0.9326 B( 18-C , 39-H ) :   0.9416
B( 18-C , 40-H ) :   0.9352

Dispersion correction           -0.067232123
FINAL SINGLE POINT ENERGY     -2929.512558447203

DIPOLE MOMENT
-------------

Method             : SCF
Type of density    : Electron Density
Multiplicity       :   1
Irrep              :   0
Energy             : -2929.6316523702666927 Eh
Relativity type    :
Basis              : AO
                                X                 Y                 Z
Electronic contribution:     -1.874561881       7.128603321      10.745158579
Nuclear contribution   :      1.446656337      -8.496336382     -11.405957431
                        -----------------------------------------
Total Dipole Moment    :     -0.427905544      -1.367733061      -0.660798851
                        -----------------------------------------
Magnitude (a.u.)       :      1.578116600
Magnitude (Debye)      :      4.011253616

Rotational constants in cm-1:             0.013301             0.005317             0.004727
Rotational constants in MHz :           398.745424           159.402627           141.705077

                             ****ORCA TERMINATED NORMALLY****
TOTAL RUN TIME: 0 days 0 hours 0 minutes 21 seconds 468 msec
