                         Program Version 6.0.0  -   RELEASE  -
|  1> ! pbe def2-sv(p) def2/J RI DEFGRID1 loosescf d4 GCP(DFT/SV(P)) printgap
|  2> %output
|  3>     printlevel normal
|  4> end
|  5> * xyz 0 1
|  6> C 5.6526465635 0.1132769283 -0.0101870059
|  7> C 4.4524574337 0.3801067712 -0.8948431811
|  8> O 3.3776159788 0.9969329379 -0.1425402816
|  9> P 2.2125631065 0.1954954421 0.553489996
| 10> S 1.0014323891 1.4144197782 1.4880192981
| 11> O 2.9806819375 -0.8524021505 1.4663115007
| 12> C 2.314970184 -1.6510633902 2.4622863867
| 13> C 1.8507168889 -2.9762652418 1.8899895292
| 14> S 1.351546009 -0.9857146842 -1.0028573948
| 15> C 0.3616320846 0.3465087217 -1.7505526138
| 16> S -1.2560920999 -0.2309371878 -2.336676228
| 17> P -2.4002698545 -0.0479919147 -0.5772573841
| 18> S -4.3127859218 -0.3604641405 -0.8646684861
| 19> O -2.0484180227 1.3656883393 0.0742001776
| 20> C -2.8248249286 2.5407955224 -0.1980191161
| 21> C -2.5286348297 3.1019687592 -1.5743792671
| 22> O -1.5845409645 -1.0417425368 0.3519921875
| 23> C -1.6756757397 -1.0810234018 1.7934097244
| 24> C -3.0928009862 -1.2611511653 2.2919888582
| 25> H 5.4050490956 -0.6169181177 0.7550373859
| 26> H 6.4642124646 -0.2693324306 -0.6213405764
| 27> H 5.9710786706 1.033058386 0.472890638
| 28> H 4.0809013656 -0.5429088749 -1.3487637502
| 29> H 4.6879011561 1.109246454 -1.6721157443
| 30> H 3.0684782985 -1.8002618511 3.2378774873
| 31> H 1.4792708421 -1.0758926056 2.8742886942
| 32> H 1.0984200301 -2.8225620821 1.1190400131
| 33> H 2.6902404162 -3.5073272901 1.45021945
| 34> H 1.4267144557 -3.5787074873 2.6873001258
| 35> H 0.8760887271 0.7201435495 -2.6318087259
| 36> H 0.2184935753 1.1283999817 -1.0015366248
| 37> H -3.8855241665 2.2832084735 -0.1088541801
| 38> H -2.539466072 3.2357330296 0.5933664602
| 39> H -1.4676944152 3.3164090665 -1.6769852438
| 40> H -2.8228150077 2.3832803763 -2.3388130021
| 41> H -3.0931788295 4.0177892079 -1.7163538658
| 42> H -1.0519065102 -1.9362198741 2.0611438906
| 43> H -1.2357765772 -0.1600634129 2.1858740083
| 44> H -3.6958691843 -0.3898160396 2.0407414911
| 45> H -3.5469478715 -2.1376308024 1.8349824157
| 46> H -3.0784764596 -1.3823141018 3.3706243342
| 47> *
| 48>
| 49>                          ****END OF INPUT****

CARTESIAN COORDINATES (ANGSTROEM)
---------------------------------
  C      5.652647    0.113277   -0.010187
  C      4.452457    0.380107   -0.894843
  O      3.377616    0.996933   -0.142540
  P      2.212563    0.195495    0.553490
  S      1.001432    1.414420    1.488019
  O      2.980682   -0.852402    1.466312
  C      2.314970   -1.651063    2.462286
  C      1.850717   -2.976265    1.889990
  S      1.351546   -0.985715   -1.002857
  C      0.361632    0.346509   -1.750553
  S     -1.256092   -0.230937   -2.336676
  P     -2.400270   -0.047992   -0.577257
  S     -4.312786   -0.360464   -0.864668
  O     -2.048418    1.365688    0.074200
  C     -2.824825    2.540796   -0.198019
  C     -2.528635    3.101969   -1.574379
  O     -1.584541   -1.041743    0.351992
  C     -1.675676   -1.081023    1.793410
  C     -3.092801   -1.261151    2.291989
  H      5.405049   -0.616918    0.755037
  H      6.464212   -0.269332   -0.621341
  H      5.971079    1.033058    0.472891
  H      4.080901   -0.542909   -1.348764
  H      4.687901    1.109246   -1.672116
  H      3.068478   -1.800262    3.237877
  H      1.479271   -1.075893    2.874289
  H      1.098420   -2.822562    1.119040
  H      2.690240   -3.507327    1.450219
  H      1.426714   -3.578707    2.687300
  H      0.876089    0.720144   -2.631809
  H      0.218494    1.128400   -1.001537
  H     -3.885524    2.283208   -0.108854
  H     -2.539466    3.235733    0.593366
  H     -1.467694    3.316409   -1.676985
  H     -2.822815    2.383280   -2.338813
  H     -3.093179    4.017789   -1.716354
  H     -1.051907   -1.936220    2.061144
  H     -1.235777   -0.160063    2.185874
  H     -3.695869   -0.389816    2.040741
  H     -3.546948   -2.137631    1.834982
  H     -3.078476   -1.382314    3.370624

 Total Charge           Charge          ....    0
 Multiplicity           Mult            ....    1
 Number of Electrons    NEL             ....  202
 Basis Dimension        Dim             ....  334

ORBITAL ENERGIES
----------------

  NO   OCC          E(Eh)            E(eV)
   0   2.0000     -88.045318     -2395.8349
   1   2.0000     -88.043144     -2395.7758
   2   2.0000     -87.990801     -2394.3514
   3   2.0000     -87.981683     -2394.1033
   4   2.0000     -76.431920     -2079.8183
   5   2.0000     -76.422657     -2079.5662
   6   2.0000     -18.804618      -511.6997
   7   2.0000     -18.797572      -511.5080
   8   2.0000     -18.789656      -511.2925
   9   2.0000     -18.784340      -511.1479
  10   2.0000      -9.962694      -271.0987
  11   2.0000      -9.961122      -271.0559
  12   2.0000      -9.956625      -270.9335
  13   2.0000      -9.947193      -270.6769
  14   2.0000      -9.946522      -270.6586
  15   2.0000      -9.893278      -269.2098
  16   2.0000      -9.890967      -269.1469
  17   2.0000      -9.881431      -268.8874
  18   2.0000      -9.877750      -268.7873
  19   2.0000      -7.690023      -209.2562
  20   2.0000      -7.688423      -209.2126
  21   2.0000      -7.635903      -207.7835
  22   2.0000      -7.626882      -207.5380
  23   2.0000      -6.429684      -174.9606
  24   2.0000      -6.420076      -174.6991
  25   2.0000      -5.717775      -155.5886
  26   2.0000      -5.716718      -155.5598
  27   2.0000      -5.714649      -155.5035
  28   2.0000      -5.712574      -155.4471
  29   2.0000      -5.707081      -155.2976
  30   2.0000      -5.705311      -155.2494
  31   2.0000      -5.664823      -154.1477
  32   2.0000      -5.656579      -153.9233
  33   2.0000      -5.655932      -153.9057
  34   2.0000      -5.655846      -153.9034
  35   2.0000      -5.647439      -153.6746
  36   2.0000      -5.647075      -153.6647
  37   2.0000      -4.652688      -126.6061
  38   2.0000      -4.651390      -126.5708
  39   2.0000      -4.649760      -126.5264
  40   2.0000      -4.642846      -126.3383
  41   2.0000      -4.641907      -126.3127
  42   2.0000      -4.640364      -126.2707
  43   2.0000      -0.996290       -27.1104
  44   2.0000      -0.982245       -26.7282
  45   2.0000      -0.954153       -25.9638
  46   2.0000      -0.939399       -25.5624
  47   2.0000      -0.762843       -20.7580
  48   2.0000      -0.726053       -19.7569
  49   2.0000      -0.709615       -19.3096
  50   2.0000      -0.698537       -19.0082
  51   2.0000      -0.684070       -18.6145
  52   2.0000      -0.676419       -18.4063
  53   2.0000      -0.654378       -17.8065
  54   2.0000      -0.638919       -17.3859
  55   2.0000      -0.601623       -16.3710
  56   2.0000      -0.589161       -16.0319
  57   2.0000      -0.580659       -15.8005
  58   2.0000      -0.572811       -15.5870
  59   2.0000      -0.561715       -15.2850
  60   2.0000      -0.509492       -13.8640
  61   2.0000      -0.491128       -13.3643
  62   2.0000      -0.487140       -13.2557
  63   2.0000      -0.465703       -12.6724
  64   2.0000      -0.458786       -12.4842
  65   2.0000      -0.450217       -12.2510
  66   2.0000      -0.446392       -12.1469
  67   2.0000      -0.437291       -11.8993
  68   2.0000      -0.428517       -11.6605
  69   2.0000      -0.418446       -11.3865
  70   2.0000      -0.411390       -11.1945
  71   2.0000      -0.400765       -10.9054
  72   2.0000      -0.399852       -10.8805
  73   2.0000      -0.392963       -10.6931
  74   2.0000      -0.386570       -10.5191
  75   2.0000      -0.374955       -10.2031
  76   2.0000      -0.362893        -9.8748
  77   2.0000      -0.362051        -9.8519
  78   2.0000      -0.360611        -9.8127
  79   2.0000      -0.354945        -9.6586
  80   2.0000      -0.347547        -9.4572
  81   2.0000      -0.343204        -9.3391
  82   2.0000      -0.340491        -9.2652
  83   2.0000      -0.334573        -9.1042
  84   2.0000      -0.329803        -8.9744
  85   2.0000      -0.326453        -8.8832
  86   2.0000      -0.316936        -8.6243
  87   2.0000      -0.302325        -8.2267
  88   2.0000      -0.298749        -8.1294
  89   2.0000      -0.288760        -7.8576
  90   2.0000      -0.286130        -7.7860
  91   2.0000      -0.279766        -7.6128
  92   2.0000      -0.271181        -7.3792
  93   2.0000      -0.268191        -7.2978
  94   2.0000      -0.259148        -7.0518
  95   2.0000      -0.233165        -6.3447
  96   2.0000      -0.224157        -6.0996
  97   2.0000      -0.210570        -5.7299
  98   2.0000      -0.204502        -5.5648
  99   2.0000      -0.199594        -5.4312
 100   2.0000      -0.196640        -5.3509
 101   0.0000      -0.039774        -1.0823
 102   0.0000      -0.026660        -0.7255
 103   0.0000      -0.018705        -0.5090
 104   0.0000       0.005805         0.1580
 105   0.0000       0.012969         0.3529

MULLIKEN ATOMIC CHARGES
-----------------------
   0 C :   -0.292892
   1 C :   -0.012832
   2 O :   -0.358008
   3 P :    0.595526
   4 S :   -0.299749
   5 O :   -0.378896
   6 C :   -0.012085
   7 C :   -0.326806
   8 S :   -0.087630
   9 C :   -0.373008
  10 S :   -0.065411
  11 P :    0.617758
  12 S :   -0.321219
  13 O :   -0.373319
  14 C :   -0.004515
  15 C :   -0.319824
  16 O :   -0.371603
  17 C :   -0.032314
  18 C :   -0.308165
  19 H :    0.122740
  20 H :    0.111069
  21 H :    0.120993
  22 H :    0.101539
  23 H :    0.109297
  24 H :    0.110516
  25 H :    0.108499
  26 H :    0.154448
  27 H :    0.116580
  28 H :    0.115593
  29 H :    0.180927
  30 H :    0.209068
  31 H :    0.110278
  32 H :    0.105996
  33 H :    0.119237
  34 H :    0.126876
  35 H :    0.112618
  36 H :    0.103729
  37 H :    0.129178
  38 H :    0.127152
  39 H :    0.122348
  40 H :    0.106315
Sum of atomic charges:    0.0000000

LOEWDIN ATOMIC CHARGES
----------------------
   0 C :   -0.360295
   1 C :   -0.116568
   2 O :   -0.238616
   3 P :    0.568784
   4 S :   -0.290891
   5 O :   -0.242501
   6 C :   -0.116486
   7 C :   -0.369290
   8 S :    0.075058
   9 C :   -0.484135
  10 S :    0.099726
  11 P :    0.568098
  12 S :   -0.317863
  13 O :   -0.237657
  14 C :   -0.123026
  15 C :   -0.366921
  16 O :   -0.243410
  17 C :   -0.119993
  18 C :   -0.368606
  19 H :    0.125749
  20 H :    0.130242
  21 H :    0.129346
  22 H :    0.102688
  23 H :    0.120943
  24 H :    0.121131
  25 H :    0.108892
  26 H :    0.124299
  27 H :    0.127078
  28 H :    0.132205
  29 H :    0.134737
  30 H :    0.123923
  31 H :    0.107808
  32 H :    0.118878
  33 H :    0.124419
  34 H :    0.121971
  35 H :    0.131076
  36 H :    0.114258
  37 H :    0.108126
  38 H :    0.120967
  39 H :    0.128049
  40 H :    0.127809

  Mayer bond orders larger than 0.100000
B(  0-C ,  1-C ) :   1.1647 B(  0-C , 19-H ) :   0.9411 B(  0-C , 20-H ) :   0.9392
B(  0-C , 21-H ) :   0.9472 B(  1-C ,  2-O ) :   0.8973 B(  1-C , 22-H ) :   0.9078
B(  1-C , 23-H ) :   0.9362 B(  2-O ,  3-P ) :   1.1322 B(  3-P ,  4-S ) :   1.6370
B(  3-P ,  5-O ) :   1.0886 B(  3-P ,  8-S ) :   0.9657 B(  4-S ,  8-S ) :   0.1126
B(  5-O ,  6-C ) :   0.9013 B(  6-C ,  7-C ) :   1.1708 B(  6-C , 24-H ) :   0.9336
B(  6-C , 25-H ) :   0.9075 B(  7-C , 26-H ) :   0.9232 B(  7-C , 27-H ) :   0.9448
B(  7-C , 28-H ) :   0.9380 B(  8-S ,  9-C ) :   0.9737 B(  9-C , 10-S ) :   0.9987
B(  9-C , 29-H ) :   0.9102 B(  9-C , 30-H ) :   0.8481 B( 10-S , 11-P ) :   0.9724
B( 11-P , 12-S ) :   1.6500 B( 11-P , 13-O ) :   1.0659 B( 11-P , 16-O ) :   1.1260
B( 13-O , 14-C ) :   0.9099 B( 14-C , 15-C ) :   1.1639 B( 14-C , 31-H ) :   0.9099
B( 14-C , 32-H ) :   0.9312 B( 15-C , 33-H ) :   0.9462 B( 15-C , 34-H ) :   0.9363
B( 15-C , 35-H ) :   0.9399 B( 16-O , 17-C ) :   0.9061 B( 17-C , 18-C ) :   1.1638
B( 17-C , 36-H ) :   0.9259 B( 17-C , 37-H ) :   0.9117 B( 18-C , 38-H ) :   0.9359
B( 18-C , 39-H ) :   0.9427 B( 18-C , 40-H ) :   0.9352

Dispersion correction           -0.065496728
FINAL SINGLE POINT ENERGY     -2929.517677497312

DIPOLE MOMENT
-------------

Method             : SCF
Type of density    : Electron Density
Multiplicity       :   1
Irrep              :   0
Energy             : -2929.6386947940131904 Eh
Relativity type    :
Basis              : AO
                                X                 Y                 Z
Electronic contribution:     -8.875785889       0.927598799     -10.477020344
Nuclear contribution   :     10.667213316      -1.051457847      10.977438938
                        -----------------------------------------
Total Dipole Moment    :      1.791427426      -0.123859048       0.500418594
                        -----------------------------------------
Magnitude (a.u.)       :      1.864127693
Magnitude (Debye)      :      4.738236043

Rotational constants in cm-1:             0.012823             0.005039             0.004547
Rotational constants in MHz :           384.420377           151.051431           136.328205

                             ****ORCA TERMINATED NORMALLY****
TOTAL RUN TIME: 0 days 0 hours 0 minutes 21 seconds 508 msec
