                         Program Version 6.0.0  -   RELEASE  -
|  1> ! pbe def2-sv(p) def2/J RI DEFGRID1 loosescf d4 GCP(DFT/SV(P)) printgap
|  2> %output
|  3>     printlevel normal
|  4> end
|  5> * xyz 0 1
|  6> C 3.3557218787 2.0808535244 -1.6551300144
|  7> C 4.0278924397 1.6571992653 -0.364841036
|  8> O 3.6976997775 0.3035474406 -0.0155921276
|  9> P 2.2672102041 -0.0998869291 0.5487402356
| 10> S 1.5266112583 1.2029293722 1.8184683661
| 11> O 2.5148633247 -1.5565404756 1.1168844244
| 12> C 2.8514503968 -1.7834126023 2.5030314163
| 13> C 4.243291702 -1.2859894477 2.8297443567
| 14> S 1.1813057789 -0.6094923568 -1.2048861503
| 15> C -0.0611710913 -1.7045195579 -0.460360056
| 16> S -1.2146783242 -0.8515617253 0.6345371465
| 17> P -2.3862394203 0.0471592803 -0.9104097703
| 18> S -2.5729421459 -1.0194308111 -2.5411383931
| 19> O -1.7426347468 1.4298639269 -1.2987903669
| 20> C -1.1687622027 2.4413548582 -0.4387705957
| 21> C -2.0272676289 2.7960293081 0.7546185278
| 22> O -3.7203760332 0.47666164 -0.1682638779
| 23> C -4.5053539903 -0.3648521971 0.6962034138
| 24> C -4.9110105699 -1.6684671263 0.0410348608
| 25> H 3.6102705568 1.3933998739 -2.457719938
| 26> H 2.27284225 2.0783546314 -1.5298032938
| 27> H 3.6782165223 3.082466877 -1.9205478923
| 28> H 3.728445471 2.3122889156 0.4605758138
| 29> H 5.1143820574 1.6511676465 -0.4600836913
| 30> H 2.1040331393 -1.2835170739 3.1275796974
| 31> H 2.770172252 -2.8650094129 2.6185611331
| 32> H 4.4962552034 -1.5678138214 3.8470377527
| 33> H 4.9671634352 -1.7162129951 2.142654245
| 34> H 4.2782523299 -0.2007382186 2.744005889
| 35> H 0.4337170305 -2.4766243898 0.1220213629
| 36> H -0.6183754049 -2.1291559 -1.298802599
| 37> H -0.1880625382 2.0872657325 -0.1069477875
| 38> H -1.0401421978 3.2922818938 -1.1095348401
| 39> H -3.0291837683 3.0696231309 0.4349652054
| 40> H -2.0849056922 1.9556235019 1.4439065877
| 41> H -1.5683737938 3.6328568634 1.2727022397
| 42> H -3.9275634654 -0.5526999581 1.6057389624
| 43> H -5.3754634943 0.2507021749 0.9310844733
| 44> H -5.4231245294 -1.4769463872 -0.898937069
| 45> H -4.0313673171 -2.2760857312 -0.1665375387
| 46> H -5.5711536133 -2.2157142083 0.7062625399
| 47> *
| 48>
| 49>                          ****END OF INPUT****

CARTESIAN COORDINATES (ANGSTROEM)
---------------------------------
  C      3.355722    2.080854   -1.655130
  C      4.027892    1.657199   -0.364841
  O      3.697700    0.303547   -0.015592
  P      2.267210   -0.099887    0.548740
  S      1.526611    1.202929    1.818468
  O      2.514863   -1.556540    1.116884
  C      2.851450   -1.783413    2.503031
  C      4.243292   -1.285989    2.829744
  S      1.181306   -0.609492   -1.204886
  C     -0.061171   -1.704520   -0.460360
  S     -1.214678   -0.851562    0.634537
  P     -2.386239    0.047159   -0.910410
  S     -2.572942   -1.019431   -2.541138
  O     -1.742635    1.429864   -1.298790
  C     -1.168762    2.441355   -0.438771
  C     -2.027268    2.796029    0.754619
  O     -3.720376    0.476662   -0.168264
  C     -4.505354   -0.364852    0.696203
  C     -4.911011   -1.668467    0.041035
  H      3.610271    1.393400   -2.457720
  H      2.272842    2.078355   -1.529803
  H      3.678217    3.082467   -1.920548
  H      3.728445    2.312289    0.460576
  H      5.114382    1.651168   -0.460084
  H      2.104033   -1.283517    3.127580
  H      2.770172   -2.865009    2.618561
  H      4.496255   -1.567814    3.847038
  H      4.967163   -1.716213    2.142654
  H      4.278252   -0.200738    2.744006
  H      0.433717   -2.476624    0.122021
  H     -0.618375   -2.129156   -1.298803
  H     -0.188063    2.087266   -0.106948
  H     -1.040142    3.292282   -1.109535
  H     -3.029184    3.069623    0.434965
  H     -2.084906    1.955624    1.443907
  H     -1.568374    3.632857    1.272702
  H     -3.927563   -0.552700    1.605739
  H     -5.375463    0.250702    0.931084
  H     -5.423125   -1.476946   -0.898937
  H     -4.031367   -2.276086   -0.166538
  H     -5.571154   -2.215714    0.706263

 Total Charge           Charge          ....    0
 Multiplicity           Mult            ....    1
 Number of Electrons    NEL             ....  202
 Basis Dimension        Dim             ....  334

ORBITAL ENERGIES
----------------

  NO   OCC          E(Eh)            E(eV)
   0   2.0000     -88.043598     -2395.7881
   1   2.0000     -88.042304     -2395.7529
   2   2.0000     -87.994398     -2394.4493
   3   2.0000     -87.976054     -2393.9501
   4   2.0000     -76.432198     -2079.8259
   5   2.0000     -76.422881     -2079.5723
   6   2.0000     -18.800502      -511.5877
   7   2.0000     -18.797800      -511.5142
   8   2.0000     -18.791652      -511.3468
   9   2.0000     -18.782213      -511.0900
  10   2.0000      -9.958848      -270.9940
  11   2.0000      -9.957120      -270.9470
  12   2.0000      -9.957031      -270.9446
  13   2.0000      -9.954804      -270.8840
  14   2.0000      -9.943264      -270.5700
  15   2.0000      -9.890178      -269.1254
  16   2.0000      -9.889340      -269.1026
  17   2.0000      -9.881013      -268.8760
  18   2.0000      -9.879616      -268.8380
  19   2.0000      -7.688606      -209.2176
  20   2.0000      -7.687065      -209.1757
  21   2.0000      -7.638983      -207.8673
  22   2.0000      -7.621459      -207.3904
  23   2.0000      -6.429782      -174.9633
  24   2.0000      -6.419826      -174.6923
  25   2.0000      -5.716576      -155.5560
  26   2.0000      -5.714710      -155.5052
  27   2.0000      -5.713227      -155.4648
  28   2.0000      -5.711559      -155.4194
  29   2.0000      -5.705403      -155.2519
  30   2.0000      -5.704327      -155.2226
  31   2.0000      -5.667708      -154.2262
  32   2.0000      -5.659692      -154.0081
  33   2.0000      -5.659295      -153.9972
  34   2.0000      -5.650511      -153.7582
  35   2.0000      -5.642129      -153.5301
  36   2.0000      -5.641359      -153.5092
  37   2.0000      -4.652372      -126.5975
  38   2.0000      -4.651588      -126.5761
  39   2.0000      -4.650170      -126.5376
  40   2.0000      -4.642540      -126.3299
  41   2.0000      -4.642040      -126.3163
  42   2.0000      -4.639820      -126.2559
  43   2.0000      -0.994154       -27.0523
  44   2.0000      -0.982510       -26.7355
  45   2.0000      -0.954468       -25.9724
  46   2.0000      -0.939671       -25.5697
  47   2.0000      -0.764303       -20.7978
  48   2.0000      -0.722633       -19.6639
  49   2.0000      -0.709515       -19.3069
  50   2.0000      -0.693278       -18.8651
  51   2.0000      -0.686772       -18.6880
  52   2.0000      -0.675472       -18.3805
  53   2.0000      -0.655366       -17.8334
  54   2.0000      -0.637119       -17.3369
  55   2.0000      -0.604674       -16.4540
  56   2.0000      -0.588237       -16.0067
  57   2.0000      -0.578825       -15.7506
  58   2.0000      -0.573757       -15.6127
  59   2.0000      -0.564254       -15.3541
  60   2.0000      -0.501567       -13.6483
  61   2.0000      -0.489716       -13.3259
  62   2.0000      -0.481046       -13.0899
  63   2.0000      -0.465152       -12.6574
  64   2.0000      -0.462675       -12.5900
  65   2.0000      -0.447448       -12.1757
  66   2.0000      -0.444822       -12.1042
  67   2.0000      -0.433898       -11.8070
  68   2.0000      -0.428188       -11.6516
  69   2.0000      -0.417651       -11.3649
  70   2.0000      -0.410278       -11.1642
  71   2.0000      -0.401864       -10.9353
  72   2.0000      -0.395800       -10.7703
  73   2.0000      -0.394332       -10.7303
  74   2.0000      -0.387511       -10.5447
  75   2.0000      -0.377459       -10.2712
  76   2.0000      -0.364875        -9.9288
  77   2.0000      -0.360010        -9.7964
  78   2.0000      -0.354687        -9.6515
  79   2.0000      -0.350217        -9.5299
  80   2.0000      -0.346490        -9.4285
  81   2.0000      -0.345881        -9.4119
  82   2.0000      -0.341027        -9.2798
  83   2.0000      -0.338840        -9.2203
  84   2.0000      -0.335487        -9.1291
  85   2.0000      -0.323409        -8.8004
  86   2.0000      -0.311053        -8.4642
  87   2.0000      -0.300917        -8.1884
  88   2.0000      -0.292802        -7.9675
  89   2.0000      -0.291010        -7.9188
  90   2.0000      -0.280776        -7.6403
  91   2.0000      -0.279563        -7.6073
  92   2.0000      -0.271086        -7.3766
  93   2.0000      -0.266675        -7.2566
  94   2.0000      -0.259278        -7.0553
  95   2.0000      -0.244375        -6.6498
  96   2.0000      -0.221148        -6.0178
  97   2.0000      -0.209482        -5.7003
  98   2.0000      -0.204306        -5.5595
  99   2.0000      -0.195080        -5.3084
 100   2.0000      -0.190183        -5.1751
 101   0.0000      -0.047495        -1.2924
 102   0.0000      -0.023305        -0.6342
 103   0.0000      -0.016933        -0.4608
 104   0.0000      -0.002600        -0.0707
 105   0.0000       0.015797         0.4298

MULLIKEN ATOMIC CHARGES
-----------------------
   0 C :   -0.331344
   1 C :   -0.007196
   2 O :   -0.367531
   3 P :    0.611894
   4 S :   -0.320241
   5 O :   -0.372993
   6 C :   -0.008207
   7 C :   -0.305622
   8 S :   -0.071690
   9 C :   -0.354975
  10 S :   -0.110830
  11 P :    0.603504
  12 S :   -0.319143
  13 O :   -0.352910
  14 C :   -0.024440
  15 C :   -0.304881
  16 O :   -0.373541
  17 C :   -0.010415
  18 C :   -0.305528
  19 H :    0.125707
  20 H :    0.139692
  21 H :    0.117270
  22 H :    0.109539
  23 H :    0.108463
  24 H :    0.114493
  25 H :    0.106968
  26 H :    0.114513
  27 H :    0.120308
  28 H :    0.123145
  29 H :    0.189117
  30 H :    0.195070
  31 H :    0.132374
  32 H :    0.102985
  33 H :    0.119008
  34 H :    0.115334
  35 H :    0.112465
  36 H :    0.110936
  37 H :    0.109152
  38 H :    0.127804
  39 H :    0.122458
  40 H :    0.109288
Sum of atomic charges:   -0.0000000

LOEWDIN ATOMIC CHARGES
----------------------
   0 C :   -0.368545
   1 C :   -0.122035
   2 O :   -0.240728
   3 P :    0.572228
   4 S :   -0.309945
   5 O :   -0.239699
   6 C :   -0.118029
   7 C :   -0.364249
   8 S :    0.097180
   9 C :   -0.484332
  10 S :    0.066012
  11 P :    0.571855
  12 S :   -0.314665
  13 O :   -0.230909
  14 C :   -0.119482
  15 C :   -0.364908
  16 O :   -0.239639
  17 C :   -0.114214
  18 C :   -0.368986
  19 H :    0.128969
  20 H :    0.122537
  21 H :    0.133557
  22 H :    0.107846
  23 H :    0.120263
  24 H :    0.111852
  25 H :    0.119146
  26 H :    0.131887
  27 H :    0.128291
  28 H :    0.122959
  29 H :    0.133309
  30 H :    0.128851
  31 H :    0.100713
  32 H :    0.119495
  33 H :    0.125229
  34 H :    0.117557
  35 H :    0.131853
  36 H :    0.107182
  37 H :    0.121315
  38 H :    0.130988
  39 H :    0.120221
  40 H :    0.129075

  Mayer bond orders larger than 0.100000
B(  0-C ,  1-C ) :   1.1629 B(  0-C , 19-H ) :   0.9442 B(  0-C , 20-H ) :   0.9325
B(  0-C , 21-H ) :   0.9382 B(  1-C ,  2-O ) :   0.9091 B(  1-C , 22-H ) :   0.9108
B(  1-C , 23-H ) :   0.9319 B(  2-O ,  3-P ) :   1.1063 B(  3-P ,  4-S ) :   1.6004
B(  3-P ,  5-O ) :   1.1133 B(  3-P ,  8-S ) :   0.9691 B(  4-S ,  8-S ) :   0.1091
B(  5-O ,  6-C ) :   0.8987 B(  6-C ,  7-C ) :   1.1668 B(  6-C , 24-H ) :   0.9155
B(  6-C , 25-H ) :   0.9334 B(  7-C , 26-H ) :   0.9385 B(  7-C , 27-H ) :   0.9457
B(  7-C , 28-H ) :   0.9360 B(  8-S ,  9-C ) :   0.9987 B(  9-C , 10-S ) :   1.0143
B(  9-C , 29-H ) :   0.8953 B(  9-C , 30-H ) :   0.8587 B( 10-S , 11-P ) :   0.9251
B( 10-S , 12-S ) :   0.1097 B( 11-P , 12-S ) :   1.6267 B( 11-P , 13-O ) :   1.1585
B( 11-P , 16-O ) :   1.0966 B( 12-S , 30-H ) :   0.1089 B( 13-O , 14-C ) :   0.8943
B( 14-C , 15-C ) :   1.1729 B( 14-C , 31-H ) :   0.8924 B( 14-C , 32-H ) :   0.9350
B( 15-C , 33-H ) :   0.9431 B( 15-C , 34-H ) :   0.9396 B( 15-C , 35-H ) :   0.9354
B( 16-O , 17-C ) :   0.9122 B( 17-C , 18-C ) :   1.1668 B( 17-C , 36-H ) :   0.9259
B( 17-C , 37-H ) :   0.9336 B( 18-C , 38-H ) :   0.9425 B( 18-C , 39-H ) :   0.9328
B( 18-C , 40-H ) :   0.9350

Dispersion correction           -0.066364924
FINAL SINGLE POINT ENERGY     -2929.517823263633

DIPOLE MOMENT
-------------

Method             : SCF
Type of density    : Electron Density
Multiplicity       :   1
Irrep              :   0
Energy             : -2929.6369112476891132 Eh
Relativity type    :
Basis              : AO
                                X                 Y                 Z
Electronic contribution:     -3.671225687      -5.648578646      -9.771784770
Nuclear contribution   :      4.460578544       5.765503110      11.151817168
                        -----------------------------------------
Total Dipole Moment    :      0.789352858       0.116924464       1.380032398
                        -----------------------------------------
Magnitude (a.u.)       :      1.594126307
Magnitude (Debye)      :      4.051947059

Rotational constants in cm-1:             0.013085             0.004778             0.004558
Rotational constants in MHz :           392.276533           143.225895           136.639874

                             ****ORCA TERMINATED NORMALLY****
TOTAL RUN TIME: 0 days 0 hours 0 minutes 20 seconds 908 msec
