                         Program Version 6.0.1  -  RELEASE   -
|  1> ! pbe def2-sv(p) def2/J RI DEFGRID1 loosescf d4 GCP(DFT/SV(P)) printgap
|  2> %output
|  3>     printlevel normal
|  4> end
|  5> * xyz 0 1
|  6> C 5.411526369 -1.8598237143 -1.2656254194
|  7> C 4.5743182599 -0.5907259877 -1.2780640284
|  8> O 3.1673644592 -0.8995603398 -1.2770529654
|  9> C 2.5692649797 -1.0896880339 -0.1163855534
| 10> O 3.1169673611 -1.0245537219 0.9595173942
| 11> C 1.0954786394 -1.4106790525 -0.3006615842
| 12> C 0.4064030448 -0.3238887284 -1.1284535132
| 13> H 0.891720896 -0.2389649769 -2.1043151192
| 14> C 0.458097154 1.0113984902 -0.4159033527
| 15> O -0.5450686042 1.6061390022 -0.0729211098
| 16> O 1.6812497341 1.4203166679 -0.2255280663
| 17> C 1.8958180404 2.5923653648 0.5936984312
| 18> C 1.9234029278 2.203567041 2.0623885439
| 19> S -1.3325574551 -0.715920698 -1.474869647
| 20> P -2.3014093177 -0.1672337188 0.3547213943
| 21> S -1.3973787438 -0.1705596669 2.0955023506
| 22> O -3.3003913864 1.0379901313 0.0292618996
| 23> C -3.1310328881 2.4254122666 0.3124403648
| 24> O -3.3701344564 -1.3493690861 0.4216826713
| 25> C -4.3024676249 -1.6437121202 -0.6313271155
| 26> H 5.2448593336 -2.4082352906 -0.3412509943
| 27> H 5.1444916804 -2.4934725969 -2.1067831779
| 28> H 6.4620675774 -1.5975181582 -1.3342300368
| 29> H 4.7275600745 -0.0221585786 -2.1952664692
| 30> H 4.7947755269 0.0268903952 -0.4032246076
| 31> H 0.6353689338 -1.5007779583 0.6861921754
| 32> H 1.0070760758 -2.3614101394 -0.8285335463
| 33> H 2.8592020589 2.9790506153 0.2623600492
| 34> H 1.099201759 3.3123934302 0.3907673327
| 35> H 0.9539268598 1.8153259489 2.371685396
| 36> H 2.6670860879 1.4277692798 2.2298481541
| 37> H 2.1652417815 3.0730413821 2.6638279787
| 38> H -4.1370745392 2.8219928738 0.4329061669
| 39> H -2.6189294802 2.9100798385 -0.5165604981
| 40> H -2.555211317 2.5582194709 1.2281125328
| 41> H -4.8413179745 -2.5256052705 -0.2942715871
| 42> H -3.7663333656 -1.851495089 -1.5577024117
| 43> H -4.9820551013 -0.8052453286 -0.7717054638
| 44> *
| 45>
| 46>                          ****END OF INPUT****

CARTESIAN COORDINATES (ANGSTROEM)
---------------------------------
  C      5.411526   -1.859824   -1.265625
  C      4.574318   -0.590726   -1.278064
  O      3.167364   -0.899560   -1.277053
  C      2.569265   -1.089688   -0.116386
  O      3.116967   -1.024554    0.959517
  C      1.095479   -1.410679   -0.300662
  C      0.406403   -0.323889   -1.128454
  H      0.891721   -0.238965   -2.104315
  C      0.458097    1.011398   -0.415903
  O     -0.545069    1.606139   -0.072921
  O      1.681250    1.420317   -0.225528
  C      1.895818    2.592365    0.593698
  C      1.923403    2.203567    2.062389
  S     -1.332557   -0.715921   -1.474870
  P     -2.301409   -0.167234    0.354721
  S     -1.397379   -0.170560    2.095502
  O     -3.300391    1.037990    0.029262
  C     -3.131033    2.425412    0.312440
  O     -3.370134   -1.349369    0.421683
  C     -4.302468   -1.643712   -0.631327
  H      5.244859   -2.408235   -0.341251
  H      5.144492   -2.493473   -2.106783
  H      6.462068   -1.597518   -1.334230
  H      4.727560   -0.022159   -2.195266
  H      4.794776    0.026890   -0.403225
  H      0.635369   -1.500778    0.686192
  H      1.007076   -2.361410   -0.828534
  H      2.859202    2.979051    0.262360
  H      1.099202    3.312393    0.390767
  H      0.953927    1.815326    2.371685
  H      2.667086    1.427769    2.229848
  H      2.165242    3.073041    2.663828
  H     -4.137075    2.821993    0.432906
  H     -2.618929    2.910080   -0.516560
  H     -2.555211    2.558219    1.228113
  H     -4.841318   -2.525605   -0.294272
  H     -3.766333   -1.851495   -1.557702
  H     -4.982055   -0.805245   -0.771705

 Total Charge           Charge          ....    0
 Multiplicity           Mult            ....    1
 Number of Electrons    NEL             ....  174
 Basis Dimension        Dim             ....  316

ORBITAL ENERGIES
----------------

  NO   OCC          E(Eh)            E(eV)
   0   2.0000     -88.033871     -2395.5234
   1   2.0000     -87.970768     -2393.8063
   2   2.0000     -76.420001     -2079.4940
   3   2.0000     -18.826216      -512.2874
   4   2.0000     -18.805251      -511.7169
   5   2.0000     -18.782219      -511.0902
   6   2.0000     -18.773243      -510.8459
   7   2.0000     -18.762303      -510.5482
   8   2.0000     -18.740052      -509.9427
   9   2.0000     -10.031793      -272.9790
  10   2.0000     -10.011622      -272.4301
  11   2.0000      -9.957768      -270.9646
  12   2.0000      -9.954304      -270.8704
  13   2.0000      -9.952570      -270.8232
  14   2.0000      -9.938917      -270.4517
  15   2.0000      -9.934982      -270.3446
  16   2.0000      -9.907135      -269.5868
  17   2.0000      -9.890677      -269.1390
  18   2.0000      -9.881079      -268.8778
  19   2.0000      -7.679014      -208.9566
  20   2.0000      -7.615937      -207.2402
  21   2.0000      -6.415524      -174.5753
  22   2.0000      -5.707082      -155.2976
  23   2.0000      -5.703620      -155.2034
  24   2.0000      -5.695637      -154.9862
  25   2.0000      -5.645318      -153.6169
  26   2.0000      -5.636759      -153.3840
  27   2.0000      -5.635365      -153.3461
  28   2.0000      -4.638455      -126.2188
  29   2.0000      -4.637430      -126.1909
  30   2.0000      -4.636022      -126.1526
  31   2.0000      -1.036149       -28.1950
  32   2.0000      -1.012809       -27.5599
  33   2.0000      -0.971927       -26.4475
  34   2.0000      -0.941935       -25.6314
  35   2.0000      -0.926359       -25.2075
  36   2.0000      -0.917126       -24.9563
  37   2.0000      -0.769355       -20.9352
  38   2.0000      -0.712518       -19.3886
  39   2.0000      -0.711410       -19.3584
  40   2.0000      -0.688043       -18.7226
  41   2.0000      -0.656802       -17.8725
  42   2.0000      -0.629571       -17.1315
  43   2.0000      -0.622870       -16.9492
  44   2.0000      -0.607851       -16.5405
  45   2.0000      -0.596537       -16.2326
  46   2.0000      -0.570056       -15.5120
  47   2.0000      -0.511776       -13.9261
  48   2.0000      -0.507978       -13.8228
  49   2.0000      -0.501919       -13.6579
  50   2.0000      -0.488307       -13.2875
  51   2.0000      -0.469410       -12.7733
  52   2.0000      -0.465727       -12.6731
  53   2.0000      -0.449331       -12.2269
  54   2.0000      -0.447780       -12.1847
  55   2.0000      -0.427556       -11.6344
  56   2.0000      -0.421668       -11.4742
  57   2.0000      -0.419537       -11.4162
  58   2.0000      -0.415697       -11.3117
  59   2.0000      -0.409152       -11.1336
  60   2.0000      -0.400955       -10.9105
  61   2.0000      -0.395628       -10.7656
  62   2.0000      -0.391799       -10.6614
  63   2.0000      -0.382361       -10.4046
  64   2.0000      -0.379873       -10.3369
  65   2.0000      -0.366405        -9.9704
  66   2.0000      -0.363729        -9.8976
  67   2.0000      -0.349966        -9.5231
  68   2.0000      -0.347464        -9.4550
  69   2.0000      -0.341436        -9.2909
  70   2.0000      -0.337875        -9.1940
  71   2.0000      -0.332248        -9.0409
  72   2.0000      -0.323146        -8.7932
  73   2.0000      -0.312611        -8.5066
  74   2.0000      -0.302833        -8.2405
  75   2.0000      -0.298727        -8.1288
  76   2.0000      -0.292358        -7.9555
  77   2.0000      -0.288022        -7.8375
  78   2.0000      -0.281385        -7.6569
  79   2.0000      -0.263233        -7.1629
  80   2.0000      -0.260506        -7.0887
  81   2.0000      -0.251878        -6.8539
  82   2.0000      -0.247431        -6.7329
  83   2.0000      -0.227401        -6.1879
  84   2.0000      -0.209200        -5.6926
  85   2.0000      -0.190963        -5.1964
  86   2.0000      -0.182337        -4.9616
  87   0.0000      -0.048439        -1.3181
  88   0.0000      -0.040258        -1.0955
  89   0.0000      -0.022939        -0.6242
  90   0.0000       0.002300         0.0626
  91   0.0000       0.032299         0.8789

MULLIKEN ATOMIC CHARGES
-----------------------
   0 C :   -0.304007
   1 C :   -0.010875
   2 O :   -0.243022
   3 C :    0.109664
   4 O :   -0.193764
   5 C :   -0.044371
   6 C :   -0.314558
   7 H :    0.157019
   8 C :    0.219790
   9 O :   -0.192568
  10 O :   -0.217957
  11 C :   -0.011838
  12 C :   -0.327087
  13 S :   -0.111741
  14 P :    0.635874
  15 S :   -0.317066
  16 O :   -0.399211
  17 C :   -0.077845
  18 O :   -0.370950
  19 C :   -0.112703
  20 H :    0.129381
  21 H :    0.114078
  22 H :    0.113540
  23 H :    0.100772
  24 H :    0.106470
  25 H :    0.124579
  26 H :    0.121227
  27 H :    0.105687
  28 H :    0.109795
  29 H :    0.144359
  30 H :    0.137128
  31 H :    0.110087
  32 H :    0.115722
  33 H :    0.111830
  34 H :    0.115674
  35 H :    0.128339
  36 H :    0.120142
  37 H :    0.118404
Sum of atomic charges:   -0.0000000

LOEWDIN ATOMIC CHARGES
----------------------
   0 C :   -0.355722
   1 C :   -0.110277
   2 O :   -0.064422
   3 C :    0.023842
   4 O :   -0.159527
   5 C :   -0.248567
   6 C :   -0.266830
   7 H :    0.150571
   8 C :    0.030229
   9 O :   -0.151620
  10 O :   -0.027100
  11 C :   -0.104322
  12 C :   -0.363101
  13 S :    0.088539
  14 P :    0.586658
  15 S :   -0.316543
  16 O :   -0.254548
  17 C :   -0.206125
  18 O :   -0.255446
  19 C :   -0.214457
  20 H :    0.131869
  21 H :    0.124939
  22 H :    0.130973
  23 H :    0.116775
  24 H :    0.118820
  25 H :    0.137002
  26 H :    0.144379
  27 H :    0.119178
  28 H :    0.120194
  29 H :    0.131444
  30 H :    0.133837
  31 H :    0.129731
  32 H :    0.115684
  33 H :    0.111216
  34 H :    0.111714
  35 H :    0.124401
  36 H :    0.103918
  37 H :    0.112693

  Mayer bond orders larger than 0.100000
B(  0-C ,  1-C ) :   1.1746 B(  0-C , 20-H ) :   0.9459 B(  0-C , 21-H ) :   0.9488
B(  0-C , 22-H ) :   0.9441 B(  1-C ,  2-O ) :   0.9165 B(  1-C , 23-H ) :   0.9371
B(  1-C , 24-H ) :   0.9135 B(  2-O ,  3-C ) :   1.1934 B(  3-C ,  4-O ) :   2.0426
B(  3-C ,  5-C ) :   1.0173 B(  5-C ,  6-C ) :   1.0244 B(  5-C , 25-H ) :   0.8772
B(  5-C , 26-H ) :   0.8859 B(  6-C ,  7-H ) :   0.8648 B(  6-C ,  8-C ) :   0.9037
B(  6-C , 13-S ) :   1.0470 B(  8-C ,  9-O ) :   1.9329 B(  8-C , 10-O ) :   1.2770
B(  9-O , 14-P ) :   0.1131 B( 10-O , 11-C ) :   0.8868 B( 11-C , 12-C ) :   1.1781
B( 11-C , 27-H ) :   0.9361 B( 11-C , 28-H ) :   0.9158 B( 12-C , 29-H ) :   0.9293
B( 12-C , 30-H ) :   0.9389 B( 12-C , 31-H ) :   0.9397 B( 13-S , 14-P ) :   0.9154
B( 13-S , 15-S ) :   0.1104 B( 14-P , 15-S ) :   1.5805 B( 14-P , 16-O ) :   1.0857
B( 14-P , 18-O ) :   1.0998 B( 16-O , 17-C ) :   0.9299 B( 17-C , 32-H ) :   0.9538
B( 17-C , 33-H ) :   0.9533 B( 17-C , 34-H ) :   0.9421 B( 18-O , 19-C ) :   0.9349
B( 19-C , 35-H ) :   0.9606 B( 19-C , 36-H ) :   0.9365 B( 19-C , 37-H ) :   0.9459

Dispersion correction           -0.052834249
FINAL SINGLE POINT ENERGY     -1979.008817169693

DIPOLE MOMENT
-------------

Method             : SCF
Type of density    : Electron Density
Multiplicity       :   1
Irrep              :   0
Energy             : -1979.1408719172832207 Eh
Relativity type    :
Basis              : AO
                                X                 Y                 Z
Electronic contribution:    -16.162743231      -4.087365504       0.755302403
Nuclear contribution   :     16.924212389       4.990125582      -2.390210815
                        -----------------------------------------
Total Dipole Moment    :      0.761469158       0.902760078      -1.634908413
                        -----------------------------------------
Magnitude (a.u.)       :      2.016863048
Magnitude (Debye)      :      5.126458461

Rotational constants in cm-1:             0.017099             0.006183             0.005419
Rotational constants in MHz :           512.619123           185.369592           162.458212

                             ****ORCA TERMINATED NORMALLY****
TOTAL RUN TIME: 0 days 0 hours 0 minutes 44 seconds 334 msec
