                         Program Version 6.0.0  -   RELEASE  -
|  1> ! pbe def2-sv(p) def2/J RI DEFGRID1 loosescf d4 GCP(DFT/SV(P)) printgap
|  2> %output
|  3>     printlevel normal
|  4> end
|  5> * xyz 0 1
|  6> C 4.3877671125 0.9326198228 -2.1757162559
|  7> C 3.1144421913 0.1163883373 -2.091266288
|  8> O 2.2320979814 0.6554101399 -1.0778647607
|  9> P 2.1099155879 0.0965685195 0.3882294814
| 10> S 0.8863258965 1.2289550573 1.406867194
| 11> O 3.6201196829 0.0522629187 0.8778065108
| 12> C 4.1129113297 -0.7390998502 1.9764476422
| 13> C 3.3096998229 -0.5519712877 3.2458378444
| 14> S 1.6625294369 -1.9845649479 0.1974342372
| 15> C 0.0377232841 -1.8689148165 -0.5815543608
| 16> S -1.2850522674 -1.3933438521 0.5772254595
| 17> P -2.1858644748 0.1210498145 -0.6249634353
| 18> S -1.0052633866 1.0703979426 -1.8647684834
| 19> O -3.0777190066 0.9266890257 0.4077179198
| 20> C -2.6156591676 1.7622802308 1.484308969
| 21> C -2.241877924 3.1442709625 0.9892171738
| 22> O -3.2797377686 -0.6348411694 -1.47300172
| 23> C -4.3410487684 -1.4333902431 -0.8937682749
| 24> C -5.6250366876 -0.6347424864 -0.8013181881
| 25> H 4.1472235725 1.9734558386 -2.374564081
| 26> H 4.9360347866 0.8730410755 -1.239214015
| 27> H 5.0045875935 0.5459503999 -2.9808895347
| 28> H 3.3293165657 -0.930717459 -1.8588822475
| 29> H 2.5366005639 0.1820772256 -3.0157911033
| 30> H 4.1066133601 -1.7876520261 1.6662574544
| 31> H 5.1407401378 -0.3935415433 2.1005734333
| 32> H 2.2917006577 -0.9130933301 3.1034204814
| 33> H 3.7736977569 -1.1115564636 4.0515661059
| 34> H 3.2647390783 0.5006807886 3.5156268908
| 35> H -0.1763135484 -2.8636879042 -0.9633914238
| 36> H 0.0656125891 -1.1263692434 -1.3845977307
| 37> H -3.4654361935 1.8008975414 2.1684340028
| 38> H -1.7641301849 1.2882955082 1.978746724
| 39> H -1.374690196 3.0849623214 0.3340082072
| 40> H -3.0688674766 3.587288612 0.4405995622
| 41> H -1.9891107842 3.7700313377 1.8387514215
| 42> H -4.4483972289 -2.2782654873 -1.5763827005
| 43> H -4.0210394952 -1.7893918317 0.0897030278
| 44> H -5.898987842 -0.2582376951 -1.7830205969
| 45> H -6.4166631201 -1.2773448696 -0.4288817176
| 46> H -5.498401091 0.2078245814 -0.1271098403
| 47> *
| 48>
| 49>                          ****END OF INPUT****

CARTESIAN COORDINATES (ANGSTROEM)
---------------------------------
  C      4.387767    0.932620   -2.175716
  C      3.114442    0.116388   -2.091266
  O      2.232098    0.655410   -1.077865
  P      2.109916    0.096569    0.388229
  S      0.886326    1.228955    1.406867
  O      3.620120    0.052263    0.877807
  C      4.112911   -0.739100    1.976448
  C      3.309700   -0.551971    3.245838
  S      1.662529   -1.984565    0.197434
  C      0.037723   -1.868915   -0.581554
  S     -1.285052   -1.393344    0.577225
  P     -2.185864    0.121050   -0.624963
  S     -1.005263    1.070398   -1.864768
  O     -3.077719    0.926689    0.407718
  C     -2.615659    1.762280    1.484309
  C     -2.241878    3.144271    0.989217
  O     -3.279738   -0.634841   -1.473002
  C     -4.341049   -1.433390   -0.893768
  C     -5.625037   -0.634742   -0.801318
  H      4.147224    1.973456   -2.374564
  H      4.936035    0.873041   -1.239214
  H      5.004588    0.545950   -2.980890
  H      3.329317   -0.930717   -1.858882
  H      2.536601    0.182077   -3.015791
  H      4.106613   -1.787652    1.666257
  H      5.140740   -0.393542    2.100573
  H      2.291701   -0.913093    3.103420
  H      3.773698   -1.111556    4.051566
  H      3.264739    0.500681    3.515627
  H     -0.176314   -2.863688   -0.963391
  H      0.065613   -1.126369   -1.384598
  H     -3.465436    1.800898    2.168434
  H     -1.764130    1.288296    1.978747
  H     -1.374690    3.084962    0.334008
  H     -3.068867    3.587289    0.440600
  H     -1.989111    3.770031    1.838751
  H     -4.448397   -2.278265   -1.576383
  H     -4.021039   -1.789392    0.089703
  H     -5.898988   -0.258238   -1.783021
  H     -6.416663   -1.277345   -0.428882
  H     -5.498401    0.207825   -0.127110

 Total Charge           Charge          ....    0
 Multiplicity           Mult            ....    1
 Number of Electrons    NEL             ....  202
 Basis Dimension        Dim             ....  334

ORBITAL ENERGIES
----------------

  NO   OCC          E(Eh)            E(eV)
   0   2.0000     -88.045378     -2395.8365
   1   2.0000     -88.035532     -2395.5686
   2   2.0000     -87.976072     -2393.9506
   3   2.0000     -87.975841     -2393.9443
   4   2.0000     -76.423694     -2079.5944
   5   2.0000     -76.419395     -2079.4775
   6   2.0000     -18.793479      -511.3966
   7   2.0000     -18.791201      -511.3346
   8   2.0000     -18.786657      -511.2109
   9   2.0000     -18.781319      -511.0657
  10   2.0000      -9.960618      -271.0422
  11   2.0000      -9.955114      -270.8924
  12   2.0000      -9.951275      -270.7879
  13   2.0000      -9.950567      -270.7687
  14   2.0000      -9.946915      -270.6693
  15   2.0000      -9.883553      -268.9452
  16   2.0000      -9.883072      -268.9321
  17   2.0000      -9.882473      -268.9158
  18   2.0000      -9.870725      -268.5961
  19   2.0000      -7.690227      -209.2617
  20   2.0000      -7.680502      -208.9971
  21   2.0000      -7.621276      -207.3855
  22   2.0000      -7.621022      -207.3785
  23   2.0000      -6.420813      -174.7192
  24   2.0000      -6.416849      -174.6113
  25   2.0000      -5.717849      -155.5906
  26   2.0000      -5.714626      -155.5029
  27   2.0000      -5.708340      -155.3318
  28   2.0000      -5.707611      -155.3120
  29   2.0000      -5.705106      -155.2438
  30   2.0000      -5.697444      -155.0353
  31   2.0000      -5.650380      -153.7547
  32   2.0000      -5.650101      -153.7471
  33   2.0000      -5.642079      -153.5288
  34   2.0000      -5.641423      -153.5109
  35   2.0000      -5.641165      -153.5039
  36   2.0000      -5.641010      -153.4997
  37   2.0000      -4.643791      -126.3640
  38   2.0000      -4.642986      -126.3421
  39   2.0000      -4.640591      -126.2769
  40   2.0000      -4.639693      -126.2525
  41   2.0000      -4.638687      -126.2251
  42   2.0000      -4.636995      -126.1791
  43   2.0000      -0.986843       -26.8534
  44   2.0000      -0.982959       -26.7477
  45   2.0000      -0.943863       -25.6838
  46   2.0000      -0.938701       -25.5433
  47   2.0000      -0.759869       -20.6771
  48   2.0000      -0.718109       -19.5407
  49   2.0000      -0.709238       -19.2993
  50   2.0000      -0.690621       -18.7928
  51   2.0000      -0.684107       -18.6155
  52   2.0000      -0.671928       -18.2841
  53   2.0000      -0.647570       -17.6213
  54   2.0000      -0.632792       -17.2191
  55   2.0000      -0.587540       -15.9878
  56   2.0000      -0.582918       -15.8620
  57   2.0000      -0.573161       -15.5965
  58   2.0000      -0.569034       -15.4842
  59   2.0000      -0.564964       -15.3735
  60   2.0000      -0.503809       -13.7093
  61   2.0000      -0.496605       -13.5133
  62   2.0000      -0.473019       -12.8715
  63   2.0000      -0.472096       -12.8464
  64   2.0000      -0.454271       -12.3614
  65   2.0000      -0.444944       -12.1075
  66   2.0000      -0.437620       -11.9082
  67   2.0000      -0.434715       -11.8292
  68   2.0000      -0.427350       -11.6288
  69   2.0000      -0.415635       -11.3100
  70   2.0000      -0.411319       -11.1926
  71   2.0000      -0.397322       -10.8117
  72   2.0000      -0.393138       -10.6978
  73   2.0000      -0.384802       -10.4710
  74   2.0000      -0.380985       -10.3671
  75   2.0000      -0.359186        -9.7739
  76   2.0000      -0.354883        -9.6568
  77   2.0000      -0.354346        -9.6422
  78   2.0000      -0.352068        -9.5803
  79   2.0000      -0.347884        -9.4664
  80   2.0000      -0.347051        -9.4437
  81   2.0000      -0.338756        -9.2180
  82   2.0000      -0.337925        -9.1954
  83   2.0000      -0.336322        -9.1518
  84   2.0000      -0.326695        -8.8898
  85   2.0000      -0.319573        -8.6960
  86   2.0000      -0.312965        -8.5162
  87   2.0000      -0.296766        -8.0754
  88   2.0000      -0.288422        -7.8484
  89   2.0000      -0.285989        -7.7822
  90   2.0000      -0.283138        -7.7046
  91   2.0000      -0.275922        -7.5082
  92   2.0000      -0.269066        -7.3216
  93   2.0000      -0.260711        -7.0943
  94   2.0000      -0.256113        -6.9692
  95   2.0000      -0.242930        -6.6105
  96   2.0000      -0.219760        -5.9800
  97   2.0000      -0.199933        -5.4405
  98   2.0000      -0.195612        -5.3229
  99   2.0000      -0.184271        -5.0143
 100   2.0000      -0.179909        -4.8956
 101   0.0000      -0.038114        -1.0371
 102   0.0000      -0.027697        -0.7537
 103   0.0000      -0.015659        -0.4261
 104   0.0000       0.002415         0.0657
 105   0.0000       0.023398         0.6367

MULLIKEN ATOMIC CHARGES
-----------------------
   0 C :   -0.286874
   1 C :   -0.013702
   2 O :   -0.341678
   3 P :    0.604301
   4 S :   -0.307398
   5 O :   -0.379922
   6 C :   -0.013981
   7 C :   -0.311520
   8 S :   -0.126952
   9 C :   -0.339870
  10 S :   -0.096685
  11 P :    0.602164
  12 S :   -0.292626
  13 O :   -0.381861
  14 C :   -0.018679
  15 C :   -0.306017
  16 O :   -0.357917
  17 C :   -0.008636
  18 C :   -0.288395
  19 H :    0.122965
  20 H :    0.118838
  21 H :    0.107534
  22 H :    0.094013
  23 H :    0.113001
  24 H :    0.114581
  25 H :    0.110681
  26 H :    0.129108
  27 H :    0.110959
  28 H :    0.129040
  29 H :    0.181728
  30 H :    0.191754
  31 H :    0.099098
  32 H :    0.130914
  33 H :    0.146702
  34 H :    0.110197
  35 H :    0.106855
  36 H :    0.104476
  37 H :    0.096858
  38 H :    0.118945
  39 H :    0.106534
  40 H :    0.121466
Sum of atomic charges:   -0.0000000

LOEWDIN ATOMIC CHARGES
----------------------
   0 C :   -0.358415
   1 C :   -0.116983
   2 O :   -0.223768
   3 P :    0.568651
   4 S :   -0.298951
   5 O :   -0.246306
   6 C :   -0.114760
   7 C :   -0.371210
   8 S :    0.060474
   9 C :   -0.480930
  10 S :    0.062155
  11 P :    0.566740
  12 S :   -0.291561
  13 O :   -0.239053
  14 C :   -0.116178
  15 C :   -0.365319
  16 O :   -0.242083
  17 C :   -0.117001
  18 C :   -0.359213
  19 H :    0.130188
  20 H :    0.125291
  21 H :    0.128416
  22 H :    0.100499
  23 H :    0.121770
  24 H :    0.108241
  25 H :    0.121838
  26 H :    0.122416
  27 H :    0.129934
  28 H :    0.131065
  29 H :    0.135900
  30 H :    0.121132
  31 H :    0.114998
  32 H :    0.108171
  33 H :    0.128370
  34 H :    0.124103
  35 H :    0.129418
  36 H :    0.118645
  37 H :    0.101103
  38 H :    0.128421
  39 H :    0.127678
  40 H :    0.126116

  Mayer bond orders larger than 0.100000
B(  0-C ,  1-C ) :   1.1667 B(  0-C , 19-H ) :   0.9473 B(  0-C , 20-H ) :   0.9433
B(  0-C , 21-H ) :   0.9402 B(  1-C ,  2-O ) :   0.8956 B(  1-C , 22-H ) :   0.9104
B(  1-C , 23-H ) :   0.9321 B(  2-O ,  3-P ) :   1.1400 B(  3-P ,  4-S ) :   1.6717
B(  3-P ,  5-O ) :   1.0767 B(  3-P ,  8-S ) :   0.9357 B(  4-S ,  8-S ) :   0.1148
B(  5-O ,  6-C ) :   0.9129 B(  6-C ,  7-C ) :   1.1682 B(  6-C , 24-H ) :   0.9265
B(  6-C , 25-H ) :   0.9331 B(  7-C , 26-H ) :   0.9311 B(  7-C , 27-H ) :   0.9336
B(  7-C , 28-H ) :   0.9413 B(  8-S ,  9-C ) :   1.0007 B(  9-C , 10-S ) :   0.9963
B(  9-C , 29-H ) :   0.9119 B(  9-C , 30-H ) :   0.8473 B( 10-S , 11-P ) :   0.9486
B( 10-S , 12-S ) :   0.1165 B( 11-P , 12-S ) :   1.6457 B( 11-P , 13-O ) :   1.0980
B( 11-P , 16-O ) :   1.1233 B( 12-S , 30-H ) :   0.1183 B( 13-O , 14-C ) :   0.8968
B( 14-C , 15-C ) :   1.1735 B( 14-C , 31-H ) :   0.9344 B( 14-C , 32-H ) :   0.9109
B( 15-C , 33-H ) :   0.9286 B( 15-C , 34-H ) :   0.9465 B( 15-C , 35-H ) :   0.9385
B( 16-O , 17-C ) :   0.9013 B( 17-C , 18-C ) :   1.1632 B( 17-C , 36-H ) :   0.9369
B( 17-C , 37-H ) :   0.9115 B( 18-C , 38-H ) :   0.9471 B( 18-C , 39-H ) :   0.9403
B( 18-C , 40-H ) :   0.9431

Dispersion correction           -0.065935230
FINAL SINGLE POINT ENERGY     -2929.509724169684

DIPOLE MOMENT
-------------

Method             : SCF
Type of density    : Electron Density
Multiplicity       :   1
Irrep              :   0
Energy             : -2929.6287437157461682 Eh
Relativity type    :
Basis              : AO
                                X                 Y                 Z
Electronic contribution:     -0.144439334      -3.922812881      -3.102233449
Nuclear contribution   :      0.498365728       2.745510299       3.518779352
                        -----------------------------------------
Total Dipole Moment    :      0.353926394      -1.177302582       0.416545903
                        -----------------------------------------
Magnitude (a.u.)       :      1.298004527
Magnitude (Debye)      :      3.299265310

Rotational constants in cm-1:             0.013054             0.004790             0.004708
Rotational constants in MHz :           391.360989           143.590717           141.148853

                             ****ORCA TERMINATED NORMALLY****
TOTAL RUN TIME: 0 days 0 hours 0 minutes 20 seconds 905 msec
