                         Program Version 6.0.0  -   RELEASE  -
|  1> ! pbe def2-sv(p) def2/J RI DEFGRID1 loosescf d4 GCP(DFT/SV(P)) printgap
|  2> %output
|  3>     printlevel normal
|  4> end
|  5> * xyz 0 1
|  6> C 5.5906892787 1.5821793641 -0.6416283398
|  7> C 4.3283369603 0.8753082634 -1.0914248578
|  8> O 3.4783621594 0.7117681097 0.0625689919
|  9> P 1.9330407852 0.3749154606 -0.0909807549
| 10> S 0.928683714 1.6028225437 -1.238045628
| 11> O 1.4490587788 0.3944211989 1.4040841078
| 12> C 2.1258294518 -0.2945335385 2.4916609917
| 13> C 1.3795151323 -1.5553934561 2.8769389815
| 14> S 1.9962769176 -1.6410264186 -0.7738839341
| 15> C 0.2715831951 -1.8166700384 -1.273040951
| 16> S -0.8711851158 -1.9210502648 0.1477623763
| 17> P -2.0343078462 -0.2084942443 -0.1563508229
| 18> S -2.3196612923 0.3597598361 -2.016497285
| 19> O -1.3937265038 0.8213871759 0.8579679071
| 20> C -1.8503912196 2.1920254295 0.9067580073
| 21> C -0.9984875633 2.9236297226 1.9210265497
| 22> O -3.3872523463 -0.5563997614 0.6075194672
| 23> C -4.4280567786 -1.3511569616 0.0045155789
| 24> C -5.7462925077 -0.971501651 0.6487611041
| 25> H 5.3457358366 2.5570703334 -0.229551931
| 26> H 6.0956676512 0.9941090234 0.1189230489
| 27> H 6.2492266684 1.7090362639 -1.4944762402
| 28> H 4.5457833785 -0.1165786427 -1.4959973026
| 29> H 3.7862657634 1.4588467438 -1.8427927045
| 30> H 3.1521604648 -0.5110786321 2.1919365735
| 31> H 2.1251167629 0.4306731046 3.3068303878
| 32> H 1.4295447592 -2.2967283619 2.0830908354
| 33> H 1.8276264552 -1.9677669031 3.7753676002
| 34> H 0.3344507317 -1.3269262148 3.070021179
| 35> H 0.2083290658 -2.7529259428 -1.8212041414
| 36> H -0.0261054904 -0.9710138187 -1.8993416572
| 37> H -1.7421739496 2.6236445839 -0.0944885586
| 38> H -2.9067458609 2.1928230377 1.18733963
| 39> H -1.1010645153 2.458596753 2.8969256819
| 40> H 0.0449571371 2.8829018275 1.6177804139
| 41> H -1.317478587 3.959445481 1.9730963817
| 42> H -4.4365110571 -1.1544639563 -1.073035235
| 43> H -4.1873787841 -2.4028964577 0.1775205291
| 44> H -6.5342600881 -1.5928789991 0.2363020022
| 45> H -5.6909132396 -1.123690096 1.7227652581
| 46> H -5.9741125333 0.0723560158 0.4509300598
| 47> *
| 48>
| 49>                          ****END OF INPUT****

CARTESIAN COORDINATES (ANGSTROEM)
---------------------------------
  C      5.590689    1.582179   -0.641628
  C      4.328337    0.875308   -1.091425
  O      3.478362    0.711768    0.062569
  P      1.933041    0.374915   -0.090981
  S      0.928684    1.602823   -1.238046
  O      1.449059    0.394421    1.404084
  C      2.125829   -0.294534    2.491661
  C      1.379515   -1.555393    2.876939
  S      1.996277   -1.641026   -0.773884
  C      0.271583   -1.816670   -1.273041
  S     -0.871185   -1.921050    0.147762
  P     -2.034308   -0.208494   -0.156351
  S     -2.319661    0.359760   -2.016497
  O     -1.393727    0.821387    0.857968
  C     -1.850391    2.192025    0.906758
  C     -0.998488    2.923630    1.921027
  O     -3.387252   -0.556400    0.607519
  C     -4.428057   -1.351157    0.004516
  C     -5.746293   -0.971502    0.648761
  H      5.345736    2.557070   -0.229552
  H      6.095668    0.994109    0.118923
  H      6.249227    1.709036   -1.494476
  H      4.545783   -0.116579   -1.495997
  H      3.786266    1.458847   -1.842793
  H      3.152160   -0.511079    2.191937
  H      2.125117    0.430673    3.306830
  H      1.429545   -2.296728    2.083091
  H      1.827626   -1.967767    3.775368
  H      0.334451   -1.326926    3.070021
  H      0.208329   -2.752926   -1.821204
  H     -0.026105   -0.971014   -1.899342
  H     -1.742174    2.623645   -0.094489
  H     -2.906746    2.192823    1.187340
  H     -1.101065    2.458597    2.896926
  H      0.044957    2.882902    1.617780
  H     -1.317479    3.959445    1.973096
  H     -4.436511   -1.154464   -1.073035
  H     -4.187379   -2.402896    0.177521
  H     -6.534260   -1.592879    0.236302
  H     -5.690913   -1.123690    1.722765
  H     -5.974113    0.072356    0.450930

 Total Charge           Charge          ....    0
 Multiplicity           Mult            ....    1
 Number of Electrons    NEL             ....  202
 Basis Dimension        Dim             ....  334

ORBITAL ENERGIES
----------------

  NO   OCC          E(Eh)            E(eV)
   0   2.0000     -88.043707     -2395.7911
   1   2.0000     -88.040739     -2395.7103
   2   2.0000     -87.980812     -2394.0796
   3   2.0000     -87.976378     -2393.9589
   4   2.0000     -76.424403     -2079.6137
   5   2.0000     -76.417705     -2079.4315
   6   2.0000     -18.795127      -511.4414
   7   2.0000     -18.791224      -511.3352
   8   2.0000     -18.786107      -511.1960
   9   2.0000     -18.778823      -510.9977
  10   2.0000      -9.955750      -270.9097
  11   2.0000      -9.954448      -270.8743
  12   2.0000      -9.954343      -270.8715
  13   2.0000      -9.945989      -270.6441
  14   2.0000      -9.939421      -270.4654
  15   2.0000      -9.890006      -269.1207
  16   2.0000      -9.884341      -268.9666
  17   2.0000      -9.881491      -268.8890
  18   2.0000      -9.873117      -268.6612
  19   2.0000      -7.688888      -209.2253
  20   2.0000      -7.686144      -209.1506
  21   2.0000      -7.625751      -207.5072
  22   2.0000      -7.621410      -207.3891
  23   2.0000      -6.421939      -174.7498
  24   2.0000      -6.415536      -174.5756
  25   2.0000      -5.716653      -155.5580
  26   2.0000      -5.714006      -155.4860
  27   2.0000      -5.713267      -155.4659
  28   2.0000      -5.710550      -155.3920
  29   2.0000      -5.706097      -155.2708
  30   2.0000      -5.703106      -155.1894
  31   2.0000      -5.654792      -153.8747
  32   2.0000      -5.650295      -153.7524
  33   2.0000      -5.646246      -153.6422
  34   2.0000      -5.645879      -153.6322
  35   2.0000      -5.642145      -153.5306
  36   2.0000      -5.641484      -153.5126
  37   2.0000      -4.644813      -126.3918
  38   2.0000      -4.643755      -126.3630
  39   2.0000      -4.642037      -126.3163
  40   2.0000      -4.637938      -126.2047
  41   2.0000      -4.637181      -126.1841
  42   2.0000      -4.636189      -126.1571
  43   2.0000      -0.989360       -26.9219
  44   2.0000      -0.978543       -26.6275
  45   2.0000      -0.945063       -25.7165
  46   2.0000      -0.934970       -25.4418
  47   2.0000      -0.761995       -20.7350
  48   2.0000      -0.720985       -19.6190
  49   2.0000      -0.708764       -19.2864
  50   2.0000      -0.691634       -18.8203
  51   2.0000      -0.681756       -18.5515
  52   2.0000      -0.671806       -18.2808
  53   2.0000      -0.645138       -17.5551
  54   2.0000      -0.627750       -17.0819
  55   2.0000      -0.590168       -16.0593
  56   2.0000      -0.582335       -15.8461
  57   2.0000      -0.572902       -15.5895
  58   2.0000      -0.564939       -15.3728
  59   2.0000      -0.554179       -15.0800
  60   2.0000      -0.509631       -13.8678
  61   2.0000      -0.500680       -13.6242
  62   2.0000      -0.478753       -13.0275
  63   2.0000      -0.472884       -12.8678
  64   2.0000      -0.450092       -12.2476
  65   2.0000      -0.444627       -12.0989
  66   2.0000      -0.436969       -11.8905
  67   2.0000      -0.434821       -11.8321
  68   2.0000      -0.429224       -11.6798
  69   2.0000      -0.418098       -11.3770
  70   2.0000      -0.406803       -11.0697
  71   2.0000      -0.389027       -10.5860
  72   2.0000      -0.384857       -10.4725
  73   2.0000      -0.382076       -10.3968
  74   2.0000      -0.376621       -10.2484
  75   2.0000      -0.367593       -10.0027
  76   2.0000      -0.360959        -9.8222
  77   2.0000      -0.353849        -9.6287
  78   2.0000      -0.352447        -9.5906
  79   2.0000      -0.350176        -9.5288
  80   2.0000      -0.344363        -9.3706
  81   2.0000      -0.342675        -9.3247
  82   2.0000      -0.336743        -9.1632
  83   2.0000      -0.333621        -9.0783
  84   2.0000      -0.323754        -8.8098
  85   2.0000      -0.315632        -8.5888
  86   2.0000      -0.308201        -8.3866
  87   2.0000      -0.304730        -8.2921
  88   2.0000      -0.297782        -8.1031
  89   2.0000      -0.293823        -7.9953
  90   2.0000      -0.280327        -7.6281
  91   2.0000      -0.272108        -7.4044
  92   2.0000      -0.261682        -7.1207
  93   2.0000      -0.260468        -7.0877
  94   2.0000      -0.256059        -6.9677
  95   2.0000      -0.235651        -6.4124
  96   2.0000      -0.221608        -6.0303
  97   2.0000      -0.212368        -5.7788
  98   2.0000      -0.200410        -5.4534
  99   2.0000      -0.190034        -5.1711
 100   2.0000      -0.180871        -4.9218
 101   0.0000      -0.040363        -1.0983
 102   0.0000      -0.029105        -0.7920
 103   0.0000      -0.006855        -0.1865
 104   0.0000       0.013158         0.3580
 105   0.0000       0.018365         0.4997

MULLIKEN ATOMIC CHARGES
-----------------------
   0 C :   -0.280474
   1 C :   -0.011566
   2 O :   -0.386397
   3 P :    0.601998
   4 S :   -0.291197
   5 O :   -0.343418
   6 C :   -0.015930
   7 C :   -0.285288
   8 S :   -0.118809
   9 C :   -0.354724
  10 S :   -0.098687
  11 P :    0.613384
  12 S :   -0.322729
  13 O :   -0.355523
  14 C :   -0.003708
  15 C :   -0.278121
  16 O :   -0.385472
  17 C :   -0.006781
  18 C :   -0.282153
  19 H :    0.121772
  20 H :    0.113729
  21 H :    0.113543
  22 H :    0.104534
  23 H :    0.106934
  24 H :    0.105354
  25 H :    0.109180
  26 H :    0.122259
  27 H :    0.105273
  28 H :    0.123839
  29 H :    0.182739
  30 H :    0.211051
  31 H :    0.113184
  32 H :    0.095487
  33 H :    0.104278
  34 H :    0.125790
  35 H :    0.103550
  36 H :    0.103508
  37 H :    0.097232
  38 H :    0.110405
  39 H :    0.114439
  40 H :    0.117518
Sum of atomic charges:   -0.0000000

LOEWDIN ATOMIC CHARGES
----------------------
   0 C :   -0.350230
   1 C :   -0.120591
   2 O :   -0.252321
   3 P :    0.560645
   4 S :   -0.286324
   5 O :   -0.225251
   6 C :   -0.109018
   7 C :   -0.363616
   8 S :    0.060942
   9 C :   -0.477600
  10 S :    0.085109
  11 P :    0.563548
  12 S :   -0.316186
  13 O :   -0.234548
  14 C :   -0.116369
  15 C :   -0.352710
  16 O :   -0.253704
  17 C :   -0.122689
  18 C :   -0.351083
  19 H :    0.129667
  20 H :    0.125389
  21 H :    0.131705
  22 H :    0.108583
  23 H :    0.110198
  24 H :    0.109456
  25 H :    0.121507
  26 H :    0.115168
  27 H :    0.127197
  28 H :    0.127528
  29 H :    0.137838
  30 H :    0.127558
  31 H :    0.110996
  32 H :    0.106701
  33 H :    0.121427
  34 H :    0.126582
  35 H :    0.127185
  36 H :    0.105543
  37 H :    0.108970
  38 H :    0.130004
  39 H :    0.125559
  40 H :    0.127234

  Mayer bond orders larger than 0.100000
B(  0-C ,  1-C ) :   1.1605 B(  0-C , 19-H ) :   0.9506 B(  0-C , 20-H ) :   0.9514
B(  0-C , 21-H ) :   0.9418 B(  1-C ,  2-O ) :   0.9025 B(  1-C , 22-H ) :   0.9288
B(  1-C , 23-H ) :   0.9087 B(  2-O ,  3-P ) :   1.0793 B(  3-P ,  4-S ) :   1.6544
B(  3-P ,  5-O ) :   1.1469 B(  3-P ,  8-S ) :   0.9340 B(  4-S ,  8-S ) :   0.1057
B(  5-O ,  6-C ) :   0.8917 B(  6-C ,  7-C ) :   1.1693 B(  6-C , 24-H ) :   0.9188
B(  6-C , 25-H ) :   0.9345 B(  7-C , 26-H ) :   0.9326 B(  7-C , 27-H ) :   0.9371
B(  7-C , 28-H ) :   0.9429 B(  8-S ,  9-C ) :   1.0093 B(  9-C , 10-S ) :   0.9930
B(  9-C , 29-H ) :   0.9110 B(  9-C , 30-H ) :   0.8465 B( 10-S , 11-P ) :   0.9758
B( 10-S , 12-S ) :   0.1170 B( 11-P , 12-S ) :   1.6180 B( 11-P , 13-O ) :   1.1475
B( 11-P , 16-O ) :   1.0920 B( 13-O , 14-C ) :   0.8930 B( 14-C , 15-C ) :   1.1657
B( 14-C , 31-H ) :   0.9141 B( 14-C , 32-H ) :   0.9275 B( 15-C , 33-H ) :   0.9501
B( 15-C , 34-H ) :   0.9410 B( 15-C , 35-H ) :   0.9410 B( 16-O , 17-C ) :   0.9090
B( 17-C , 18-C ) :   1.1608 B( 17-C , 36-H ) :   0.9023 B( 17-C , 37-H ) :   0.9309
B( 18-C , 38-H ) :   0.9424 B( 18-C , 39-H ) :   0.9510 B( 18-C , 40-H ) :   0.9512

Dispersion correction           -0.066000235
FINAL SINGLE POINT ENERGY     -2929.520878740586

DIPOLE MOMENT
-------------

Method             : SCF
Type of density    : Electron Density
Multiplicity       :   1
Irrep              :   0
Energy             : -2929.6396216732396169 Eh
Relativity type    :
Basis              : AO
                                X                 Y                 Z
Electronic contribution:     -0.599653835      -5.312629810     -13.225983605
Nuclear contribution   :      1.252536272       4.723746834      14.316054129
                        -----------------------------------------
Total Dipole Moment    :      0.652882437      -0.588882977       1.090070524
                        -----------------------------------------
Magnitude (a.u.)       :      1.400461490
Magnitude (Debye)      :      3.559690213

Rotational constants in cm-1:             0.013216             0.005010             0.004901
Rotational constants in MHz :           396.193753           150.210899           146.939423

                             ****ORCA TERMINATED NORMALLY****
TOTAL RUN TIME: 0 days 0 hours 0 minutes 21 seconds 584 msec
