                         Program Version 6.0.0  -   RELEASE  -
|  1> ! pbe def2-sv(p) def2/J RI DEFGRID1 loosescf d4 GCP(DFT/SV(P)) printgap
|  2> %output
|  3>     printlevel normal
|  4> end
|  5> * xyz 0 1
|  6> C 4.3652762604 -0.4398192694 -1.7073538785
|  7> C 4.4615079355 -0.0603746688 -0.243507063
|  8> O 3.3716914581 -0.5847080036 0.530205425
|  9> P 1.8610582399 -0.1140963332 0.3161636048
| 10> S 1.7029169385 1.8202403524 5.40697e-05
| 11> O 1.1876154497 -0.676017827 1.6340089525
| 12> C 1.3849058639 -0.0374340988 2.9130508301
| 13> C 2.4771444834 -0.7299607911 3.7030162892
| 14> S 1.0771805133 -1.4430818519 -1.1175954497
| 15> C 0.2218312387 -0.2746973999 -2.2216257793
| 16> S -1.5769472813 -0.5266554254 -2.3491065369
| 17> P -2.2239437724 0.2701424773 -0.5118059899
| 18> S -4.1523204535 0.3305920039 -0.1837701124
| 19> O -1.4808813657 1.6697423885 -0.5703072897
| 20> C -1.9097400947 2.7990025446 0.2159106789
| 21> C -1.6849227172 2.5763918713 1.6960447545
| 22> O -1.3818268847 -0.5024751574 0.6096042696
| 23> C -1.903580658 -1.6736517344 1.260363785
| 24> C -2.0843606797 -2.8347038522 0.3033310664
| 25> H 5.2745408631 -0.136655464 -2.2165566317
| 26> H 4.2328422032 -1.5136833303 -1.8120539699
| 27> H 3.5188080609 0.0676920571 -2.1686726676
| 28> H 4.4727893017 1.0285609248 -0.1295816116
| 29> H 5.347479883 -0.4912835115 0.2248168272
| 30> H 1.6230526483 1.0198162183 2.7510694221
| 31> H 0.4192085596 -0.1135280395 3.418076767
| 32> H 2.5543720579 -0.2678532779 4.6823233303
| 33> H 2.2395536695 -1.7835250962 3.8193672576
| 34> H 3.430320253 -0.6414808766 3.1881247525
| 35> H 0.5888394696 -0.446175762 -3.2301174919
| 36> H 0.4257060056 0.7450157212 -1.8886413061
| 37> H -1.3031300618 3.622574229 -0.1638204411
| 38> H -2.9685771363 2.9803998011 0.007000549
| 39> H -0.6409194493 2.3329806353 1.8792431778
| 40> H -1.9447909724 3.4790991335 2.2394684667
| 41> H -2.3094927921 1.7555068785 2.0464737987
| 42> H -1.1619515623 -1.8993688605 2.0278172537
| 43> H -2.8596020196 -1.407872575 1.7227014602
| 44> H -2.829392646 -2.5805154966 -0.451048931
| 45> H -1.1462851259 -3.0726186078 -0.1930130053
| 46> H -2.4277825209 -3.7025495565 0.857245193
| 47> *
| 48>
| 49>                          ****END OF INPUT****

CARTESIAN COORDINATES (ANGSTROEM)
---------------------------------
  C      4.365276   -0.439819   -1.707354
  C      4.461508   -0.060375   -0.243507
  O      3.371691   -0.584708    0.530205
  P      1.861058   -0.114096    0.316164
  S      1.702917    1.820240    0.000054
  O      1.187615   -0.676018    1.634009
  C      1.384906   -0.037434    2.913051
  C      2.477144   -0.729961    3.703016
  S      1.077181   -1.443082   -1.117595
  C      0.221831   -0.274697   -2.221626
  S     -1.576947   -0.526655   -2.349107
  P     -2.223944    0.270142   -0.511806
  S     -4.152320    0.330592   -0.183770
  O     -1.480881    1.669742   -0.570307
  C     -1.909740    2.799003    0.215911
  C     -1.684923    2.576392    1.696045
  O     -1.381827   -0.502475    0.609604
  C     -1.903581   -1.673652    1.260364
  C     -2.084361   -2.834704    0.303331
  H      5.274541   -0.136655   -2.216557
  H      4.232842   -1.513683   -1.812054
  H      3.518808    0.067692   -2.168673
  H      4.472789    1.028561   -0.129582
  H      5.347480   -0.491284    0.224817
  H      1.623053    1.019816    2.751069
  H      0.419209   -0.113528    3.418077
  H      2.554372   -0.267853    4.682323
  H      2.239554   -1.783525    3.819367
  H      3.430320   -0.641481    3.188125
  H      0.588839   -0.446176   -3.230117
  H      0.425706    0.745016   -1.888641
  H     -1.303130    3.622574   -0.163820
  H     -2.968577    2.980400    0.007001
  H     -0.640919    2.332981    1.879243
  H     -1.944791    3.479099    2.239468
  H     -2.309493    1.755507    2.046474
  H     -1.161952   -1.899369    2.027817
  H     -2.859602   -1.407873    1.722701
  H     -2.829393   -2.580515   -0.451049
  H     -1.146285   -3.072619   -0.193013
  H     -2.427783   -3.702550    0.857245

 Total Charge           Charge          ....    0
 Multiplicity           Mult            ....    1
 Number of Electrons    NEL             ....  202
 Basis Dimension        Dim             ....  334

ORBITAL ENERGIES
----------------

  NO   OCC          E(Eh)            E(eV)
   0   2.0000     -88.049914     -2395.9600
   1   2.0000     -88.040746     -2395.7105
   2   2.0000     -87.996525     -2394.5072
   3   2.0000     -87.984648     -2394.1840
   4   2.0000     -76.432523     -2079.8347
   5   2.0000     -76.421200     -2079.5266
   6   2.0000     -18.797199      -511.4978
   7   2.0000     -18.794793      -511.4323
   8   2.0000     -18.784438      -511.1506
   9   2.0000     -18.783615      -511.1281
  10   2.0000      -9.959000      -270.9982
  11   2.0000      -9.957620      -270.9606
  12   2.0000      -9.956589      -270.9326
  13   2.0000      -9.944896      -270.6144
  14   2.0000      -9.943948      -270.5886
  15   2.0000      -9.889705      -269.1125
  16   2.0000      -9.889255      -269.1003
  17   2.0000      -9.875776      -268.7335
  18   2.0000      -9.874709      -268.7045
  19   2.0000      -7.694902      -209.3889
  20   2.0000      -7.686299      -209.1548
  21   2.0000      -7.641231      -207.9285
  22   2.0000      -7.629809      -207.6177
  23   2.0000      -6.430243      -174.9758
  24   2.0000      -6.419025      -174.6706
  25   2.0000      -5.722873      -155.7273
  26   2.0000      -5.719465      -155.6345
  27   2.0000      -5.714563      -155.5012
  28   2.0000      -5.711651      -155.4219
  29   2.0000      -5.710482      -155.3901
  30   2.0000      -5.703125      -155.1899
  31   2.0000      -5.669941      -154.2869
  32   2.0000      -5.662297      -154.0789
  33   2.0000      -5.661135      -154.0473
  34   2.0000      -5.658748      -153.9824
  35   2.0000      -5.650504      -153.7580
  36   2.0000      -5.649874      -153.7409
  37   2.0000      -4.652629      -126.6045
  38   2.0000      -4.651855      -126.5834
  39   2.0000      -4.650988      -126.5598
  40   2.0000      -4.641326      -126.2969
  41   2.0000      -4.640969      -126.2872
  42   2.0000      -4.639561      -126.2489
  43   2.0000      -0.992219       -26.9996
  44   2.0000      -0.978771       -26.6337
  45   2.0000      -0.949573       -25.8392
  46   2.0000      -0.938139       -25.5281
  47   2.0000      -0.763935       -20.7877
  48   2.0000      -0.724105       -19.7039
  49   2.0000      -0.705919       -19.2090
  50   2.0000      -0.692540       -18.8450
  51   2.0000      -0.679492       -18.4899
  52   2.0000      -0.675329       -18.3766
  53   2.0000      -0.655231       -17.8297
  54   2.0000      -0.641129       -17.4460
  55   2.0000      -0.605916       -16.4878
  56   2.0000      -0.591662       -16.0999
  57   2.0000      -0.577374       -15.7111
  58   2.0000      -0.565032       -15.3753
  59   2.0000      -0.562260       -15.2999
  60   2.0000      -0.503523       -13.7016
  61   2.0000      -0.486310       -13.2332
  62   2.0000      -0.477566       -12.9952
  63   2.0000      -0.465623       -12.6703
  64   2.0000      -0.459999       -12.5172
  65   2.0000      -0.449157       -12.2222
  66   2.0000      -0.441574       -12.0158
  67   2.0000      -0.433579       -11.7983
  68   2.0000      -0.426396       -11.6028
  69   2.0000      -0.417942       -11.3728
  70   2.0000      -0.408416       -11.1136
  71   2.0000      -0.399428       -10.8690
  72   2.0000      -0.394012       -10.7216
  73   2.0000      -0.388337       -10.5672
  74   2.0000      -0.386911       -10.5284
  75   2.0000      -0.381531       -10.3820
  76   2.0000      -0.363414        -9.8890
  77   2.0000      -0.360610        -9.8127
  78   2.0000      -0.355964        -9.6863
  79   2.0000      -0.349635        -9.5141
  80   2.0000      -0.346446        -9.4273
  81   2.0000      -0.345226        -9.3941
  82   2.0000      -0.339709        -9.2440
  83   2.0000      -0.334601        -9.1050
  84   2.0000      -0.324279        -8.8241
  85   2.0000      -0.316477        -8.6118
  86   2.0000      -0.314593        -8.5605
  87   2.0000      -0.300819        -8.1857
  88   2.0000      -0.293818        -7.9952
  89   2.0000      -0.290020        -7.8919
  90   2.0000      -0.283388        -7.7114
  91   2.0000      -0.275781        -7.5044
  92   2.0000      -0.270977        -7.3737
  93   2.0000      -0.266424        -7.2498
  94   2.0000      -0.258203        -7.0261
  95   2.0000      -0.228045        -6.2054
  96   2.0000      -0.222154        -6.0451
  97   2.0000      -0.214678        -5.8417
  98   2.0000      -0.209347        -5.6966
  99   2.0000      -0.204258        -5.5581
 100   2.0000      -0.200117        -5.4455
 101   0.0000      -0.044247        -1.2040
 102   0.0000      -0.029648        -0.8068
 103   0.0000      -0.020284        -0.5520
 104   0.0000       0.001638         0.0446
 105   0.0000       0.009681         0.2634

MULLIKEN ATOMIC CHARGES
-----------------------
   0 C :   -0.313684
   1 C :   -0.002415
   2 O :   -0.377821
   3 P :    0.621095
   4 S :   -0.319582
   5 O :   -0.360828
   6 C :   -0.024186
   7 C :   -0.280769
   8 S :   -0.073421
   9 C :   -0.372167
  10 S :   -0.073069
  11 P :    0.614851
  12 S :   -0.323112
  13 O :   -0.373624
  14 C :    0.009121
  15 C :   -0.328750
  16 O :   -0.375163
  17 C :   -0.003437
  18 C :   -0.322452
  19 H :    0.114497
  20 H :    0.121053
  21 H :    0.118486
  22 H :    0.110002
  23 H :    0.105220
  24 H :    0.110347
  25 H :    0.112934
  26 H :    0.110992
  27 H :    0.114540
  28 H :    0.119661
  29 H :    0.185483
  30 H :    0.217291
  31 H :    0.103751
  32 H :    0.110856
  33 H :    0.132666
  34 H :    0.106864
  35 H :    0.118239
  36 H :    0.103128
  37 H :    0.107391
  38 H :    0.122664
  39 H :    0.126257
  40 H :    0.107093
Sum of atomic charges:   -0.0000000

LOEWDIN ATOMIC CHARGES
----------------------
   0 C :   -0.369453
   1 C :   -0.120983
   2 O :   -0.248858
   3 P :    0.577068
   4 S :   -0.297101
   5 O :   -0.232525
   6 C :   -0.116700
   7 C :   -0.358376
   8 S :    0.107771
   9 C :   -0.480216
  10 S :    0.091475
  11 P :    0.569529
  12 S :   -0.319836
  13 O :   -0.240788
  14 C :   -0.113803
  15 C :   -0.370745
  16 O :   -0.245792
  17 C :   -0.122900
  18 C :   -0.373056
  19 H :    0.131399
  20 H :    0.125265
  21 H :    0.118422
  22 H :    0.109397
  23 H :    0.118588
  24 H :    0.107643
  25 H :    0.118145
  26 H :    0.130107
  27 H :    0.126420
  28 H :    0.125851
  29 H :    0.138640
  30 H :    0.128228
  31 H :    0.119017
  32 H :    0.110483
  33 H :    0.121988
  34 H :    0.128429
  35 H :    0.119877
  36 H :    0.114476
  37 H :    0.107504
  38 H :    0.118974
  39 H :    0.117795
  40 H :    0.128639

  Mayer bond orders larger than 0.100000
B(  0-C ,  1-C ) :   1.1662 B(  0-C , 19-H ) :   0.9375 B(  0-C , 20-H ) :   0.9426
B(  0-C , 21-H ) :   0.9388 B(  1-C ,  2-O ) :   0.9148 B(  1-C , 22-H ) :   0.9153
B(  1-C , 23-H ) :   0.9333 B(  2-O ,  3-P ) :   1.0836 B(  3-P ,  4-S ) :   1.6015
B(  3-P ,  5-O ) :   1.1348 B(  3-P ,  8-S ) :   0.9702 B(  4-S ,  8-S ) :   0.1176
B(  5-O ,  6-C ) :   0.8980 B(  6-C ,  7-C ) :   1.1657 B(  6-C , 24-H ) :   0.9038
B(  6-C , 25-H ) :   0.9307 B(  7-C , 26-H ) :   0.9403 B(  7-C , 27-H ) :   0.9480
B(  7-C , 28-H ) :   0.9421 B(  8-S ,  9-C ) :   0.9963 B(  9-C , 10-S ) :   0.9932
B(  9-C , 29-H ) :   0.9101 B(  9-C , 30-H ) :   0.8494 B( 10-S , 11-P ) :   0.9735
B( 11-P , 12-S ) :   1.6301 B( 11-P , 13-O ) :   1.1165 B( 11-P , 16-O ) :   1.0777
B( 13-O , 14-C ) :   0.9010 B( 14-C , 15-C ) :   1.1661 B( 14-C , 31-H ) :   0.9320
B( 14-C , 32-H ) :   0.9200 B( 15-C , 33-H ) :   0.9343 B( 15-C , 34-H ) :   0.9371
B( 15-C , 35-H ) :   0.9349 B( 16-O , 17-C ) :   0.9088 B( 17-C , 18-C ) :   1.1683
B( 17-C , 36-H ) :   0.9229 B( 17-C , 37-H ) :   0.9178 B( 18-C , 38-H ) :   0.9334
B( 18-C , 39-H ) :   0.9368 B( 18-C , 40-H ) :   0.9378

Dispersion correction           -0.069211683
FINAL SINGLE POINT ENERGY     -2929.521111819988

DIPOLE MOMENT
-------------

Method             : SCF
Type of density    : Electron Density
Multiplicity       :   1
Irrep              :   0
Energy             : -2929.6407238966176010 Eh
Relativity type    :
Basis              : AO
                                X                 Y                 Z
Electronic contribution:    -12.322577784       0.877358721     -15.136532058
Nuclear contribution   :     14.071616683      -1.108116616      15.896353487
                        -----------------------------------------
Total Dipole Moment    :      1.749038899      -0.230757895       0.759821430
                        -----------------------------------------
Magnitude (a.u.)       :      1.920863056
Magnitude (Debye)      :      4.882445874

Rotational constants in cm-1:             0.011733             0.005892             0.005499
Rotational constants in MHz :           351.736492           176.629410           164.855809

                             ****ORCA TERMINATED NORMALLY****
TOTAL RUN TIME: 0 days 0 hours 0 minutes 22 seconds 738 msec
