                         Program Version 6.0.1  -  RELEASE   -
|  1> ! pbe def2-sv(p) def2/J RI DEFGRID1 loosescf d4 GCP(DFT/SV(P)) printgap
|  2> %output
|  3>     printlevel normal
|  4> end
|  5> * xyz 0 1
|  6> C 5.7274692394 -1.591129359 -0.6748558937
|  7> C 4.6675812083 -2.3050185322 -1.4983417296
|  8> O 3.4439508432 -2.4459778582 -0.7491330523
|  9> C 2.5740587586 -1.4587392861 -0.7683717668
| 10> O 2.7022800276 -0.434981869 -1.4087008543
| 11> C 1.3778763954 -1.7535141332 0.1124614497
| 12> C 0.3034973709 -0.7201981995 -0.1657976096
| 13> H -0.0945864208 -0.8043302141 -1.1827377158
| 14> C 0.7644982432 0.7074473001 0.0395794286
| 15> O 0.2516399258 1.6394674565 -0.5450925792
| 16> O 1.6832495079 0.8161909431 0.9721336656
| 17> C 2.1513544618 2.1370723322 1.3120456363
| 18> C 1.1698988889 2.8532730379 2.2254131172
| 19> S -1.1051996564 -0.8887337879 0.9811631159
| 20> P -2.4506343151 0.3970633223 -0.0580510819
| 21> S -2.3694071405 0.3450774542 -2.010411761
| 22> O -3.8525990228 -0.0719579155 0.5492551676
| 23> C -4.4270291905 -1.3348108471 0.1907737371
| 24> O -2.3351082079 1.8364386075 0.5863264712
| 25> C -2.616069605 2.0572749074 1.9852280425
| 26> H 5.887994014 -2.1153526711 0.2629457442
| 27> H 6.6568448966 -1.562415214 -1.2339267152
| 28> H 5.411658374 -0.5718459705 -0.463962658
| 29> H 4.9636407391 -3.3284398781 -1.7282365068
| 30> H 4.4527821233 -1.7530726855 -2.4178772751
| 31> H 1.6984437609 -1.7005820577 1.1548459976
| 32> H 1.0143421537 -2.7616453162 -0.0838800085
| 33> H 3.1051294443 1.9583185473 1.8082420312
| 34> H 2.3020174021 2.6974946509 0.3850071205
| 35> H 0.9706904164 2.2509001653 3.1076058656
| 36> H 1.5936937944 3.8051678691 2.5273363494
| 37> H 0.2385395855 3.0351479213 1.693930004
| 38> H -5.4640454159 -1.2859699428 0.5124533962
| 39> H -3.8999786383 -2.1372503814 0.7055390046
| 40> H -4.3679094143 -1.4795630608 -0.888961624
| 41> H -2.0351827162 1.3664964991 2.5974154921
| 42> H -3.6786189313 1.9160219777 2.1710363119
| 43> H -2.3237395654 3.0866721279 2.1763516858
| 44> *
| 45>
| 46>                          ****END OF INPUT****

CARTESIAN COORDINATES (ANGSTROEM)
---------------------------------
  C      5.727469   -1.591129   -0.674856
  C      4.667581   -2.305019   -1.498342
  O      3.443951   -2.445978   -0.749133
  C      2.574059   -1.458739   -0.768372
  O      2.702280   -0.434982   -1.408701
  C      1.377876   -1.753514    0.112461
  C      0.303497   -0.720198   -0.165798
  H     -0.094586   -0.804330   -1.182738
  C      0.764498    0.707447    0.039579
  O      0.251640    1.639467   -0.545093
  O      1.683250    0.816191    0.972134
  C      2.151354    2.137072    1.312046
  C      1.169899    2.853273    2.225413
  S     -1.105200   -0.888734    0.981163
  P     -2.450634    0.397063   -0.058051
  S     -2.369407    0.345077   -2.010412
  O     -3.852599   -0.071958    0.549255
  C     -4.427029   -1.334811    0.190774
  O     -2.335108    1.836439    0.586326
  C     -2.616070    2.057275    1.985228
  H      5.887994   -2.115353    0.262946
  H      6.656845   -1.562415   -1.233927
  H      5.411658   -0.571846   -0.463963
  H      4.963641   -3.328440   -1.728237
  H      4.452782   -1.753073   -2.417877
  H      1.698444   -1.700582    1.154846
  H      1.014342   -2.761645   -0.083880
  H      3.105129    1.958319    1.808242
  H      2.302017    2.697495    0.385007
  H      0.970690    2.250900    3.107606
  H      1.593694    3.805168    2.527336
  H      0.238540    3.035148    1.693930
  H     -5.464045   -1.285970    0.512453
  H     -3.899979   -2.137250    0.705539
  H     -4.367909   -1.479563   -0.888962
  H     -2.035183    1.366496    2.597415
  H     -3.678619    1.916022    2.171036
  H     -2.323740    3.086672    2.176352

 Total Charge           Charge          ....    0
 Multiplicity           Mult            ....    1
 Number of Electrons    NEL             ....  174
 Basis Dimension        Dim             ....  316

ORBITAL ENERGIES
----------------

  NO   OCC          E(Eh)            E(eV)
   0   2.0000     -88.041666     -2395.7355
   1   2.0000     -87.975041     -2393.9226
   2   2.0000     -76.420246     -2079.5006
   3   2.0000     -18.810450      -511.8584
   4   2.0000     -18.799820      -511.5691
   5   2.0000     -18.791045      -511.3303
   6   2.0000     -18.788778      -511.2686
   7   2.0000     -18.747872      -510.1555
   8   2.0000     -18.722300      -509.4597
   9   2.0000     -10.019159      -272.6352
  10   2.0000     -10.004159      -272.2270
  11   2.0000      -9.954527      -270.8765
  12   2.0000      -9.946737      -270.6645
  13   2.0000      -9.946368      -270.6544
  14   2.0000      -9.943440      -270.5748
  15   2.0000      -9.937624      -270.4165
  16   2.0000      -9.915345      -269.8103
  17   2.0000      -9.893115      -269.2053
  18   2.0000      -9.884781      -268.9786
  19   2.0000      -7.686014      -209.1471
  20   2.0000      -7.620377      -207.3610
  21   2.0000      -6.417502      -174.6291
  22   2.0000      -5.713516      -155.4727
  23   2.0000      -5.710641      -155.3944
  24   2.0000      -5.703379      -155.1968
  25   2.0000      -5.649556      -153.7322
  26   2.0000      -5.640807      -153.4941
  27   2.0000      -5.640411      -153.4834
  28   2.0000      -4.640374      -126.2710
  29   2.0000      -4.639375      -126.2438
  30   2.0000      -4.637625      -126.1962
  31   2.0000      -1.019068       -27.7303
  32   2.0000      -1.006419       -27.3861
  33   2.0000      -0.984607       -26.7925
  34   2.0000      -0.939559       -25.5667
  35   2.0000      -0.924392       -25.1540
  36   2.0000      -0.905225       -24.6324
  37   2.0000      -0.764816       -20.8117
  38   2.0000      -0.717912       -19.5354
  39   2.0000      -0.702279       -19.1100
  40   2.0000      -0.690121       -18.7791
  41   2.0000      -0.661980       -18.0134
  42   2.0000      -0.636163       -17.3109
  43   2.0000      -0.619323       -16.8526
  44   2.0000      -0.611789       -16.6476
  45   2.0000      -0.599134       -16.3033
  46   2.0000      -0.563637       -15.3374
  47   2.0000      -0.512771       -13.9532
  48   2.0000      -0.505706       -13.7610
  49   2.0000      -0.493718       -13.4348
  50   2.0000      -0.475478       -12.9384
  51   2.0000      -0.473253       -12.8779
  52   2.0000      -0.464768       -12.6470
  53   2.0000      -0.443090       -12.0571
  54   2.0000      -0.434773       -11.8308
  55   2.0000      -0.430498       -11.7145
  56   2.0000      -0.424806       -11.5596
  57   2.0000      -0.422373       -11.4934
  58   2.0000      -0.412761       -11.2318
  59   2.0000      -0.410145       -11.1606
  60   2.0000      -0.403767       -10.9870
  61   2.0000      -0.399575       -10.8730
  62   2.0000      -0.389375       -10.5954
  63   2.0000      -0.385560       -10.4916
  64   2.0000      -0.377441       -10.2707
  65   2.0000      -0.368262       -10.0209
  66   2.0000      -0.357267        -9.7217
  67   2.0000      -0.351326        -9.5601
  68   2.0000      -0.349384        -9.5072
  69   2.0000      -0.336629        -9.1601
  70   2.0000      -0.334697        -9.1076
  71   2.0000      -0.330695        -8.9987
  72   2.0000      -0.324920        -8.8415
  73   2.0000      -0.310970        -8.4619
  74   2.0000      -0.302191        -8.2230
  75   2.0000      -0.300157        -8.1677
  76   2.0000      -0.295439        -8.0393
  77   2.0000      -0.291299        -7.9266
  78   2.0000      -0.270039        -7.3481
  79   2.0000      -0.267689        -7.2842
  80   2.0000      -0.258652        -7.0383
  81   2.0000      -0.249628        -6.7927
  82   2.0000      -0.233874        -6.3640
  83   2.0000      -0.230880        -6.2826
  84   2.0000      -0.216031        -5.8785
  85   2.0000      -0.194053        -5.2804
  86   2.0000      -0.184006        -5.0071
  87   0.0000      -0.045391        -1.2352
  88   0.0000      -0.029443        -0.8012
  89   0.0000      -0.009886        -0.2690
  90   0.0000       0.018958         0.5159
  91   0.0000       0.021080         0.5736

MULLIKEN ATOMIC CHARGES
-----------------------
   0 C :   -0.305590
   1 C :   -0.014098
   2 O :   -0.228078
   3 C :    0.123110
   4 O :   -0.199473
   5 C :   -0.039884
   6 C :   -0.341628
   7 H :    0.156912
   8 C :    0.208782
   9 O :   -0.183100
  10 O :   -0.240687
  11 C :   -0.001258
  12 C :   -0.330717
  13 S :   -0.118279
  14 P :    0.617864
  15 S :   -0.283972
  16 O :   -0.394945
  17 C :   -0.099804
  18 O :   -0.355201
  19 C :   -0.111020
  20 H :    0.115174
  21 H :    0.116473
  22 H :    0.127156
  23 H :    0.106249
  24 H :    0.115289
  25 H :    0.123143
  26 H :    0.120143
  27 H :    0.096916
  28 H :    0.114787
  29 H :    0.109835
  30 H :    0.111088
  31 H :    0.148865
  32 H :    0.124529
  33 H :    0.114053
  34 H :    0.119049
  35 H :    0.113937
  36 H :    0.128191
  37 H :    0.136189
Sum of atomic charges:   -0.0000000

LOEWDIN ATOMIC CHARGES
----------------------
   0 C :   -0.355603
   1 C :   -0.109197
   2 O :   -0.056692
   3 C :    0.042747
   4 O :   -0.153483
   5 C :   -0.255819
   6 C :   -0.265848
   7 H :    0.138345
   8 C :    0.000095
   9 O :   -0.155596
  10 O :   -0.058309
  11 C :   -0.104560
  12 C :   -0.361911
  13 S :    0.088260
  14 P :    0.577348
  15 S :   -0.286633
  16 O :   -0.261000
  17 C :   -0.216336
  18 O :   -0.232190
  19 C :   -0.211216
  20 H :    0.125373
  21 H :    0.132402
  22 H :    0.130636
  23 H :    0.119578
  24 H :    0.122756
  25 H :    0.146629
  26 H :    0.143910
  27 H :    0.115298
  28 H :    0.124589
  29 H :    0.122187
  30 H :    0.130104
  31 H :    0.133583
  32 H :    0.122093
  33 H :    0.108928
  34 H :    0.111880
  35 H :    0.106506
  36 H :    0.116858
  37 H :    0.124286

  Mayer bond orders larger than 0.100000
B(  0-C ,  1-C ) :   1.1744 B(  0-C , 20-H ) :   0.9488 B(  0-C , 21-H ) :   0.9439
B(  0-C , 22-H ) :   0.9461 B(  1-C ,  2-O ) :   0.9100 B(  1-C , 23-H ) :   0.9372
B(  1-C , 24-H ) :   0.9146 B(  2-O ,  3-C ) :   1.2490 B(  3-C ,  4-O ) :   2.0098
B(  3-C ,  5-C ) :   1.0161 B(  5-C ,  6-C ) :   1.0330 B(  5-C , 25-H ) :   0.8709
B(  5-C , 26-H ) :   0.8887 B(  6-C ,  7-H ) :   0.8569 B(  6-C ,  8-C ) :   0.8984
B(  6-C , 13-S ) :   1.0265 B(  8-C ,  9-O ) :   2.0182 B(  8-C , 10-O ) :   1.2255
B( 10-O , 11-C ) :   0.9173 B( 11-C , 12-C ) :   1.1737 B( 11-C , 27-H ) :   0.9388
B( 11-C , 28-H ) :   0.9176 B( 12-C , 29-H ) :   0.9464 B( 12-C , 30-H ) :   0.9418
B( 12-C , 31-H ) :   0.9318 B( 13-S , 14-P ) :   0.9360 B( 13-S , 15-S ) :   0.1155
B( 14-P , 15-S ) :   1.6758 B( 14-P , 16-O ) :   1.0602 B( 14-P , 18-O ) :   1.1217
B( 16-O , 17-C ) :   0.9313 B( 17-C , 32-H ) :   0.9586 B( 17-C , 33-H ) :   0.9495
B( 17-C , 34-H ) :   0.9318 B( 18-O , 19-C ) :   0.9180 B( 19-C , 35-H ) :   0.9363
B( 19-C , 36-H ) :   0.9480 B( 19-C , 37-H ) :   0.9518

Dispersion correction           -0.051056788
FINAL SINGLE POINT ENERGY     -1979.017034839980

DIPOLE MOMENT
-------------

Method             : SCF
Type of density    : Electron Density
Multiplicity       :   1
Irrep              :   0
Energy             : -1979.1488859163468987 Eh
Relativity type    :
Basis              : AO
                                X                 Y                 Z
Electronic contribution:    -16.827510550      -1.209347988      -8.741151865
Nuclear contribution   :     17.734049039       0.258474133      10.489484428
                        -----------------------------------------
Total Dipole Moment    :      0.906538488      -0.950873856       1.748332563
                        -----------------------------------------
Magnitude (a.u.)       :      2.186924752
Magnitude (Debye)      :      5.558720960

Rotational constants in cm-1:             0.016149             0.005767             0.004947
Rotational constants in MHz :           484.126089           172.891372           148.303031

                             ****ORCA TERMINATED NORMALLY****
TOTAL RUN TIME: 0 days 0 hours 0 minutes 42 seconds 922 msec
