                         Program Version 6.0.0  -   RELEASE  -
|  1> ! wb97x-v def2-tzvp def2/J RIJCOSX DEFGRID2 scfconv7 GCP(DFT/TZ) printgap
|  2> %output
|  3>     printlevel normal
|  4> end
|  5> * xyz 0 1
|  6> C 1.4496662524836037 -0.7327235457113123 -0.23774948167664328
|  7> C 1.449820729431595 0.73251363427054 0.2375831273950228
|  8> C 0.045479629715320866 1.2249098856080385 -0.12634807237683943
|  9> C -0.8329210509910293 2.6931787661913107e-05 -0.0004741464241295402
| 10> O -2.05629965516295 0.0001585161986832493 -1.167744624616106e-05
| 11> C 0.04531106628851063 -1.224856812895544 0.12651606725833214
| 12> H 2.2422755611458793 -1.3270521401117785 0.22251573825775733
| 13> H 1.5845167026230393 -0.7691381481701414 -1.3246701966974017
| 14> H 1.584786325648231 0.7688178108277164 1.3244983836266577
| 15> H 2.2424827493304504 1.326766160541893 -0.2226973061208131
| 16> H -0.3412493563471143 2.058222780829824 0.4661770602497762
| 17> H 0.0014267350031882532 1.5248925641513007 -1.1838928948763041
| 18> H 0.0013879469878020335 -1.5244936981285604 1.1841974126025385
| 19> H -0.3416484112261843 -2.0583126123618345 -0.4656653881038478
| 20> *
| 21>
| 22>                          ****END OF INPUT****

CARTESIAN COORDINATES (ANGSTROEM)
---------------------------------
  C      1.449666   -0.732724   -0.237749
  C      1.449821    0.732514    0.237583
  C      0.045480    1.224910   -0.126348
  C     -0.832921    0.000027   -0.000474
  O     -2.056300    0.000159   -0.000012
  C      0.045311   -1.224857    0.126516
  H      2.242276   -1.327052    0.222516
  H      1.584517   -0.769138   -1.324670
  H      1.584786    0.768818    1.324498
  H      2.242483    1.326766   -0.222697
  H     -0.341249    2.058223    0.466177
  H      0.001427    1.524893   -1.183893
  H      0.001388   -1.524494    1.184197
  H     -0.341648   -2.058313   -0.465665

 Total Charge           Charge          ....    0
 Multiplicity           Mult            ....    1
 Number of Electrons    NEL             ....   46
 Basis Dimension        Dim             ....  234

ORBITAL ENERGIES
----------------

  NO   OCC          E(Eh)            E(eV)
   0   2.0000     -21.657556      -589.3321
   1   2.0000     -12.135310      -330.2186
   2   2.0000     -12.058795      -328.1365
   3   2.0000     -12.057944      -328.1133
   4   2.0000     -12.055929      -328.0585
   5   2.0000     -12.055633      -328.0505
   6   2.0000      -1.701019       -46.2871
   7   2.0000      -1.364477       -37.1293
   8   2.0000      -1.240587       -33.7581
   9   2.0000      -1.208980       -32.8980
  10   2.0000      -1.075910       -29.2770
  11   2.0000      -1.068602       -29.0781
  12   2.0000      -0.981187       -26.6995
  13   2.0000      -0.949279       -25.8312
  14   2.0000      -0.919273       -25.0147
  15   2.0000      -0.884794       -24.0765
  16   2.0000      -0.878518       -23.9057
  17   2.0000      -0.863608       -23.5000
  18   2.0000      -0.815454       -22.1896
  19   2.0000      -0.810967       -22.0675
  20   2.0000      -0.805945       -21.9309
  21   2.0000      -0.774094       -21.0642
  22   2.0000      -0.767351       -20.8807
  23   0.0000      -0.303702        -8.2642
  24   0.0000      -0.059925        -1.6306
  25   0.0000      -0.046919        -1.2767
  26   0.0000      -0.044554        -1.2124
  27   0.0000      -0.029616        -0.8059

MULLIKEN ATOMIC CHARGES
-----------------------
   0 C :   -0.190264
   1 C :   -0.190206
   2 C :   -0.171855
   3 C :    0.129135
   4 O :   -0.307419
   5 C :   -0.171855
   6 H :    0.107009
   7 H :    0.100568
   8 H :    0.100553
   9 H :    0.107008
  10 H :    0.126666
  11 H :    0.116992
  12 H :    0.117041
  13 H :    0.126628
Sum of atomic charges:   -0.0000000

LOEWDIN ATOMIC CHARGES
----------------------
   0 C :   -0.245337
   1 C :   -0.245332
   2 C :   -0.216321
   3 C :   -0.304279
   4 O :    0.101626
   5 C :   -0.216318
   6 H :    0.129322
   7 H :    0.134844
   8 H :    0.134850
   9 H :    0.129322
  10 H :    0.143454
  11 H :    0.155361
  12 H :    0.155362
  13 H :    0.143447

  Mayer bond orders larger than 0.100000
B(  0-C ,  1-C ) :   0.9578 B(  0-C ,  5-C ) :   0.9817 B(  0-C ,  6-H ) :   0.9692
B(  0-C ,  7-H ) :   0.9732 B(  1-C ,  2-C ) :   0.9817 B(  1-C ,  8-H ) :   0.9731
B(  1-C ,  9-H ) :   0.9692 B(  2-C ,  3-C ) :   0.9509 B(  2-C , 10-H ) :   0.9595
B(  2-C , 11-H ) :   0.9495 B(  3-C ,  4-O ) :   2.1670 B(  3-C ,  5-C ) :   0.9510
B(  5-C , 12-H ) :   0.9495 B(  5-C , 13-H ) :   0.9595

FINAL SINGLE POINT ENERGY      -270.590414969834

DIPOLE MOMENT
-------------

Method             : SCF
Type of density    : Electron Density
Multiplicity       :   1
Irrep              :   0
Energy             :  -270.5991958444341208 Eh
Relativity type    :
Basis              : AO
                                X                 Y                 Z
Electronic contribution:     -5.195991612       0.000249722      -0.000976513
Nuclear contribution   :      6.508562685      -0.000337005       0.000916392
                        -----------------------------------------
Total Dipole Moment    :      1.312571074      -0.000087283      -0.000060120
                        -----------------------------------------
Magnitude (a.u.)       :      1.312571078
Magnitude (Debye)      :      3.336290541

Rotational constants in cm-1:             0.223146             0.111940             0.080713
Rotational constants in MHz :          6689.751527          3355.866803          2419.717069

                             ****ORCA TERMINATED NORMALLY****
TOTAL RUN TIME: 0 days 0 hours 1 minutes 35 seconds 681 msec
