                         Program Version 6.0.0  -   RELEASE  -
|  1> ! wb97x-v def2-tzvp def2/J RIJCOSX DEFGRID2 scfconv7 GCP(DFT/TZ) printgap
|  2> %output
|  3>     printlevel normal
|  4> end
|  5> %cpcm
|  6>     smd true
|  7>     smdsolvent "water"
|  8> end
|  9> * xyz 0 1
| 10> C 1.4496662524836037 -0.7327235457113123 -0.23774948167664328
| 11> C 1.449820729431595 0.73251363427054 0.2375831273950228
| 12> C 0.045479629715320866 1.2249098856080385 -0.12634807237683943
| 13> C -0.8329210509910293 2.6931787661913107e-05 -0.0004741464241295402
| 14> O -2.05629965516295 0.0001585161986832493 -1.167744624616106e-05
| 15> C 0.04531106628851063 -1.224856812895544 0.12651606725833214
| 16> H 2.2422755611458793 -1.3270521401117785 0.22251573825775733
| 17> H 1.5845167026230393 -0.7691381481701414 -1.3246701966974017
| 18> H 1.584786325648231 0.7688178108277164 1.3244983836266577
| 19> H 2.2424827493304504 1.326766160541893 -0.2226973061208131
| 20> H -0.3412493563471143 2.058222780829824 0.4661770602497762
| 21> H 0.0014267350031882532 1.5248925641513007 -1.1838928948763041
| 22> H 0.0013879469878020335 -1.5244936981285604 1.1841974126025385
| 23> H -0.3416484112261843 -2.0583126123618345 -0.4656653881038478
| 24> *
| 25>
| 26>                          ****END OF INPUT****

CARTESIAN COORDINATES (ANGSTROEM)
---------------------------------
  C      1.449666   -0.732724   -0.237749
  C      1.449821    0.732514    0.237583
  C      0.045480    1.224910   -0.126348
  C     -0.832921    0.000027   -0.000474
  O     -2.056300    0.000159   -0.000012
  C      0.045311   -1.224857    0.126516
  H      2.242276   -1.327052    0.222516
  H      1.584517   -0.769138   -1.324670
  H      1.584786    0.768818    1.324498
  H      2.242483    1.326766   -0.222697
  H     -0.341249    2.058223    0.466177
  H      0.001427    1.524893   -1.183893
  H      0.001388   -1.524494    1.184197
  H     -0.341648   -2.058313   -0.465665

 Total Charge           Charge          ....    0
 Multiplicity           Mult            ....    1
 Number of Electrons    NEL             ....   46
 Basis Dimension        Dim             ....  234

ORBITAL ENERGIES
----------------

  NO   OCC          E(Eh)            E(eV)
   0   2.0000     -21.668896      -589.6406
   1   2.0000     -12.142506      -330.4144
   2   2.0000     -12.044390      -327.7445
   3   2.0000     -12.043860      -327.7301
   4   2.0000     -12.040325      -327.6339
   5   2.0000     -12.039223      -327.6039
   6   2.0000      -1.716133       -46.6984
   7   2.0000      -1.351890       -36.7868
   8   2.0000      -1.228047       -33.4169
   9   2.0000      -1.199738       -32.6465
  10   2.0000      -1.080417       -29.3997
  11   2.0000      -1.062615       -28.9152
  12   2.0000      -0.972298       -26.4576
  13   2.0000      -0.952612       -25.9219
  14   2.0000      -0.926004       -25.1978
  15   2.0000      -0.882431       -24.0122
  16   2.0000      -0.864996       -23.5378
  17   2.0000      -0.847597       -23.0643
  18   2.0000      -0.803923       -21.8759
  19   2.0000      -0.798788       -21.7361
  20   2.0000      -0.789239       -21.4763
  21   2.0000      -0.771340       -20.9892
  22   2.0000      -0.748892       -20.3784
  23   0.0000      -0.300776        -8.1845
  24   0.0000      -0.050730        -1.3804
  25   0.0000      -0.039991        -1.0882
  26   0.0000      -0.031382        -0.8540
  27   0.0000      -0.009477        -0.2579

MULLIKEN ATOMIC CHARGES
-----------------------
   0 C :   -0.209034
   1 C :   -0.209013
   2 C :   -0.196446
   3 C :    0.218878
   4 O :   -0.453924
   5 C :   -0.196446
   6 H :    0.121781
   7 H :    0.113758
   8 H :    0.113743
   9 H :    0.121783
  10 H :    0.143538
  11 H :    0.143919
  12 H :    0.143986
  13 H :    0.143477
Sum of atomic charges:   -0.0000000

LOEWDIN ATOMIC CHARGES
----------------------
   0 C :   -0.241477
   1 C :   -0.241472
   2 C :   -0.211596
   3 C :   -0.282803
   4 O :    0.017574
   5 C :   -0.211593
   6 H :    0.133375
   7 H :    0.139037
   8 H :    0.139042
   9 H :    0.133376
  10 H :    0.147969
  11 H :    0.165302
  12 H :    0.165307
  13 H :    0.147958

  Mayer bond orders larger than 0.100000
B(  0-C ,  1-C ) :   0.9678 B(  0-C ,  5-C ) :   0.9899 B(  0-C ,  6-H ) :   0.9647
B(  0-C ,  7-H ) :   0.9707 B(  1-C ,  2-C ) :   0.9900 B(  1-C ,  8-H ) :   0.9707
B(  1-C ,  9-H ) :   0.9647 B(  2-C ,  3-C ) :   0.9754 B(  2-C , 10-H ) :   0.9502
B(  2-C , 11-H ) :   0.9329 B(  3-C ,  4-O ) :   1.9974 B(  3-C ,  5-C ) :   0.9755
B(  5-C , 12-H ) :   0.9329 B(  5-C , 13-H ) :   0.9502

FINAL SINGLE POINT ENERGY      -270.599457806923

DIPOLE MOMENT
-------------

Method             : SCF
Type of density    : Electron Density
Multiplicity       :   1
Irrep              :   0
Energy             :  -270.6082386815232894 Eh
Relativity type    :
Basis              : AO
                                X                 Y                 Z
Electronic contribution:     -4.681434912       0.000223862      -0.001060256
Nuclear contribution   :      6.508562685      -0.000337005       0.000916392
                        -----------------------------------------
Total Dipole Moment    :      1.827127774      -0.000113144      -0.000143864
                        -----------------------------------------
Magnitude (a.u.)       :      1.827127783
Magnitude (Debye)      :      4.644189744

Rotational constants in cm-1:             0.223146             0.111940             0.080713
Rotational constants in MHz :          6689.751527          3355.866803          2419.717069

                             ****ORCA TERMINATED NORMALLY****
TOTAL RUN TIME: 0 days 0 hours 1 minutes 38 seconds 72 msec
