                         Program Version 6.0.1  -  RELEASE   -
|  1> ! pbe def2-sv(p) def2/J RI DEFGRID1 loosescf d4 GCP(DFT/SV(P)) printgap
|  2> %output
|  3>     printlevel normal
|  4> end
|  5> * xyz 0 1
|  6> C 4.1278338269 -2.4742101421 1.3363027543
|  7> C 2.7604096552 -1.8219114035 1.3798424174
|  8> O 2.4509788172 -1.3444888831 0.0567862883
|  9> C 1.5218083212 -0.4387690199 -0.0846374844
| 10> O 0.9295945946 0.1063088798 0.835201212
| 11> C 1.2928162024 -0.0610081166 -1.5307416416
| 12> C 0.2204272962 1.014594127 -1.6106948217
| 13> H 0.2580354877 1.5192506467 -2.5802188758
| 14> C 0.3894866904 2.0656050253 -0.5201179777
| 15> O -0.5265747518 2.5308848081 0.1195304887
| 16> O 1.6383113727 2.4756708075 -0.4481036223
| 17> C 1.9473272255 3.4838914364 0.5358569654
| 18> C 3.3685663457 3.9537162745 0.2985095413
| 19> S -1.4883730142 0.3808033165 -1.5618846472
| 20> P -1.6892449447 -0.9209703281 0.1045649346
| 21> S -0.5983919559 -2.547021952 0.1686080457
| 22> O -1.7431249074 -0.1515938927 1.4802917586
| 23> C -2.6601842888 0.922666538 1.7663650501
| 24> O -3.2438416638 -1.2613102247 -0.0879671548
| 25> C -3.7001293031 -2.0977510539 -1.1568102533
| 26> H 4.366295768 -2.8677147129 2.3186294855
| 27> H 4.1224861702 -3.2859733096 0.6157068009
| 28> H 4.8816611266 -1.7482662634 1.046487827
| 29> H 2.7244451061 -0.9752408031 2.0728914798
| 30> H 1.9786719935 -2.5355326434 1.6606736111
| 31> H 1.011343577 -0.9515475842 -2.0954149104
| 32> H 2.2349334203 0.3158933329 -1.9327026749
| 33> H 1.2228026353 4.2976970982 0.4327778774
| 34> H 1.8221608467 3.0335075201 1.5260266368
| 35> H 3.6171088203 4.7165657949 1.0286796258
| 36> H 4.0594159419 3.1223232451 0.4003427718
| 37> H 3.46137337 4.3689742555 -0.7004434272
| 38> H -2.6541417795 1.013851173 2.8493363427
| 39> H -3.6551383919 0.6754729534 1.4020661575
| 40> H -2.2941819299 1.8387346873 1.3034245005
| 41> H -3.0556457274 -2.9737983567 -1.2459020779
| 42> H -3.7000655067 -1.5367518359 -2.0903511811
| 43> H -4.7096623026 -2.3950871427 -0.8845356625
| 44> *
| 45>
| 46>                          ****END OF INPUT****

CARTESIAN COORDINATES (ANGSTROEM)
---------------------------------
  C      4.127834   -2.474210    1.336303
  C      2.760410   -1.821911    1.379842
  O      2.450979   -1.344489    0.056786
  C      1.521808   -0.438769   -0.084637
  O      0.929595    0.106309    0.835201
  C      1.292816   -0.061008   -1.530742
  C      0.220427    1.014594   -1.610695
  H      0.258035    1.519251   -2.580219
  C      0.389487    2.065605   -0.520118
  O     -0.526575    2.530885    0.119530
  O      1.638311    2.475671   -0.448104
  C      1.947327    3.483891    0.535857
  C      3.368566    3.953716    0.298510
  S     -1.488373    0.380803   -1.561885
  P     -1.689245   -0.920970    0.104565
  S     -0.598392   -2.547022    0.168608
  O     -1.743125   -0.151594    1.480292
  C     -2.660184    0.922667    1.766365
  O     -3.243842   -1.261310   -0.087967
  C     -3.700129   -2.097751   -1.156810
  H      4.366296   -2.867715    2.318629
  H      4.122486   -3.285973    0.615707
  H      4.881661   -1.748266    1.046488
  H      2.724445   -0.975241    2.072891
  H      1.978672   -2.535533    1.660674
  H      1.011344   -0.951548   -2.095415
  H      2.234933    0.315893   -1.932703
  H      1.222803    4.297697    0.432778
  H      1.822161    3.033508    1.526027
  H      3.617109    4.716566    1.028680
  H      4.059416    3.122323    0.400343
  H      3.461373    4.368974   -0.700443
  H     -2.654142    1.013851    2.849336
  H     -3.655138    0.675473    1.402066
  H     -2.294182    1.838735    1.303425
  H     -3.055646   -2.973798   -1.245902
  H     -3.700066   -1.536752   -2.090351
  H     -4.709662   -2.395087   -0.884536

 Total Charge           Charge          ....    0
 Multiplicity           Mult            ....    1
 Number of Electrons    NEL             ....  174
 Basis Dimension        Dim             ....  316

ORBITAL ENERGIES
----------------

  NO   OCC          E(Eh)            E(eV)
   0   2.0000     -88.032413     -2395.4837
   1   2.0000     -87.972056     -2393.8414
   2   2.0000     -76.418646     -2079.4571
   3   2.0000     -18.803464      -511.6683
   4   2.0000     -18.803086      -511.6580
   5   2.0000     -18.785141      -511.1697
   6   2.0000     -18.779240      -511.0091
   7   2.0000     -18.738336      -509.8960
   8   2.0000     -18.733228      -509.7570
   9   2.0000     -10.013086      -272.4699
  10   2.0000     -10.012583      -272.4562
  11   2.0000      -9.948594      -270.7150
  12   2.0000      -9.948402      -270.7098
  13   2.0000      -9.941842      -270.5313
  14   2.0000      -9.938453      -270.4391
  15   2.0000      -9.926746      -270.1205
  16   2.0000      -9.911194      -269.6973
  17   2.0000      -9.891547      -269.1627
  18   2.0000      -9.885967      -269.0108
  19   2.0000      -7.677267      -208.9091
  20   2.0000      -7.617485      -207.2823
  21   2.0000      -6.415314      -174.5696
  22   2.0000      -5.705393      -155.2516
  23   2.0000      -5.701704      -155.1513
  24   2.0000      -5.694050      -154.9430
  25   2.0000      -5.646537      -153.6501
  26   2.0000      -5.637820      -153.4129
  27   2.0000      -5.637642      -153.4080
  28   2.0000      -4.638357      -126.2161
  29   2.0000      -4.637243      -126.1858
  30   2.0000      -4.635409      -126.1359
  31   2.0000      -1.014786       -27.6137
  32   2.0000      -1.008896       -27.4535
  33   2.0000      -0.976116       -26.5615
  34   2.0000      -0.931325       -25.3426
  35   2.0000      -0.916585       -24.9415
  36   2.0000      -0.912983       -24.8435
  37   2.0000      -0.761556       -20.7230
  38   2.0000      -0.711389       -19.3579
  39   2.0000      -0.707642       -19.2559
  40   2.0000      -0.687603       -18.7106
  41   2.0000      -0.654736       -17.8163
  42   2.0000      -0.628430       -17.1005
  43   2.0000      -0.619420       -16.8553
  44   2.0000      -0.606758       -16.5107
  45   2.0000      -0.585633       -15.9359
  46   2.0000      -0.558721       -15.2036
  47   2.0000      -0.514528       -14.0010
  48   2.0000      -0.507304       -13.8044
  49   2.0000      -0.498506       -13.5650
  50   2.0000      -0.481148       -13.0927
  51   2.0000      -0.464216       -12.6319
  52   2.0000      -0.453238       -12.3332
  53   2.0000      -0.445333       -12.1181
  54   2.0000      -0.437777       -11.9125
  55   2.0000      -0.424435       -11.5495
  56   2.0000      -0.421970       -11.4824
  57   2.0000      -0.416028       -11.3207
  58   2.0000      -0.409087       -11.1318
  59   2.0000      -0.405732       -11.0405
  60   2.0000      -0.399746       -10.8776
  61   2.0000      -0.396934       -10.8011
  62   2.0000      -0.388522       -10.5722
  63   2.0000      -0.380151       -10.3444
  64   2.0000      -0.362848        -9.8736
  65   2.0000      -0.361344        -9.8327
  66   2.0000      -0.357235        -9.7209
  67   2.0000      -0.354729        -9.6527
  68   2.0000      -0.349537        -9.5114
  69   2.0000      -0.340645        -9.2694
  70   2.0000      -0.330432        -8.9915
  71   2.0000      -0.318550        -8.6682
  72   2.0000      -0.316109        -8.6018
  73   2.0000      -0.308319        -8.3898
  74   2.0000      -0.305406        -8.3105
  75   2.0000      -0.296930        -8.0799
  76   2.0000      -0.293676        -7.9913
  77   2.0000      -0.285280        -7.7629
  78   2.0000      -0.263228        -7.1628
  79   2.0000      -0.258678        -7.0390
  80   2.0000      -0.252845        -6.8803
  81   2.0000      -0.248662        -6.7664
  82   2.0000      -0.228809        -6.2262
  83   2.0000      -0.226141        -6.1536
  84   2.0000      -0.216354        -5.8873
  85   2.0000      -0.191936        -5.2228
  86   2.0000      -0.184934        -5.0323
  87   0.0000      -0.033788        -0.9194
  88   0.0000      -0.020173        -0.5489
  89   0.0000      -0.017189        -0.4677
  90   0.0000      -0.004531        -0.1233
  91   0.0000       0.031219         0.8495

MULLIKEN ATOMIC CHARGES
-----------------------
   0 C :   -0.276862
   1 C :   -0.028719
   2 O :   -0.211602
   3 C :    0.117864
   4 O :   -0.214542
   5 C :   -0.072120
   6 C :   -0.293639
   7 H :    0.143433
   8 C :    0.214317
   9 O :   -0.185396
  10 O :   -0.247778
  11 C :   -0.025310
  12 C :   -0.273834
  13 S :   -0.099737
  14 P :    0.633083
  15 S :   -0.342394
  16 O :   -0.349050
  17 C :   -0.124244
  18 O :   -0.392761
  19 C :   -0.103461
  20 H :    0.112033
  21 H :    0.117726
  22 H :    0.109261
  23 H :    0.106554
  24 H :    0.120945
  25 H :    0.138632
  26 H :    0.122127
  27 H :    0.107432
  28 H :    0.112718
  29 H :    0.112610
  30 H :    0.114034
  31 H :    0.113252
  32 H :    0.119620
  33 H :    0.114400
  34 H :    0.152500
  35 H :    0.117945
  36 H :    0.117820
  37 H :    0.123141
Sum of atomic charges:   -0.0000000

LOEWDIN ATOMIC CHARGES
----------------------
   0 C :   -0.350986
   1 C :   -0.108158
   2 O :   -0.040478
   3 C :    0.018713
   4 O :   -0.162509
   5 C :   -0.257347
   6 C :   -0.262371
   7 H :    0.150788
   8 C :    0.013460
   9 O :   -0.159595
  10 O :   -0.065812
  11 C :   -0.104229
  12 C :   -0.350867
  13 S :    0.102534
  14 P :    0.578441
  15 S :   -0.315364
  16 O :   -0.224119
  17 C :   -0.214608
  18 O :   -0.260385
  19 C :   -0.217427
  20 H :    0.130961
  21 H :    0.128052
  22 H :    0.123460
  23 H :    0.116508
  24 H :    0.118923
  25 H :    0.147573
  26 H :    0.147877
  27 H :    0.117118
  28 H :    0.120885
  29 H :    0.131483
  30 H :    0.125925
  31 H :    0.125811
  32 H :    0.121705
  33 H :    0.110056
  34 H :    0.123561
  35 H :    0.110003
  36 H :    0.109025
  37 H :    0.121394

  Mayer bond orders larger than 0.100000
B(  0-C ,  1-C ) :   1.1543 B(  0-C , 20-H ) :   0.9444 B(  0-C , 21-H ) :   0.9482
B(  0-C , 22-H ) :   0.9522 B(  1-C ,  2-O ) :   0.8995 B(  1-C , 23-H ) :   0.9238
B(  1-C , 24-H ) :   0.9224 B(  2-O ,  3-C ) :   1.2735 B(  3-C ,  4-O ) :   1.9103
B(  3-C ,  5-C ) :   1.0083 B(  4-O ,  8-C ) :   0.1006 B(  5-C ,  6-C ) :   1.0367
B(  5-C , 25-H ) :   0.8874 B(  5-C , 26-H ) :   0.8721 B(  6-C ,  7-H ) :   0.8658
B(  6-C ,  8-C ) :   0.8732 B(  6-C , 13-S ) :   1.0574 B(  8-C ,  9-O ) :   2.0471
B(  8-C , 10-O ) :   1.2192 B( 10-O , 11-C ) :   0.9048 B( 11-C , 12-C ) :   1.1521
B( 11-C , 27-H ) :   0.9288 B( 11-C , 28-H ) :   0.9309 B( 12-C , 29-H ) :   0.9438
B( 12-C , 30-H ) :   0.9494 B( 12-C , 31-H ) :   0.9508 B( 13-S , 14-P ) :   0.9717
B( 13-S , 15-S ) :   0.1137 B( 14-P , 15-S ) :   1.5966 B( 14-P , 16-O ) :   1.1562
B( 14-P , 18-O ) :   1.0516 B( 16-O , 17-C ) :   0.9094 B( 17-C , 32-H ) :   0.9590
B( 17-C , 33-H ) :   0.9427 B( 17-C , 34-H ) :   0.9240 B( 18-O , 19-C ) :   0.9342
B( 19-C , 35-H ) :   0.9304 B( 19-C , 36-H ) :   0.9493 B( 19-C , 37-H ) :   0.9586

Dispersion correction           -0.053621559
FINAL SINGLE POINT ENERGY     -1979.012670231153

DIPOLE MOMENT
-------------

Method             : SCF
Type of density    : Electron Density
Multiplicity       :   1
Irrep              :   0
Energy             : -1979.1431136205583243 Eh
Relativity type    :
Basis              : AO
                                X                 Y                 Z
Electronic contribution:    -15.493961325      -5.474043743      -5.163528902
Nuclear contribution   :     16.284123969       6.204603839       4.786318234
                        -----------------------------------------
Total Dipole Moment    :      0.790162644       0.730560096      -0.377210669
                        -----------------------------------------
Magnitude (a.u.)       :      1.140334576
Magnitude (Debye)      :      2.898500145

Rotational constants in cm-1:             0.012358             0.008347             0.006117
Rotational constants in MHz :           370.482021           250.238444           183.368409

                             ****ORCA TERMINATED NORMALLY****
TOTAL RUN TIME: 0 days 0 hours 0 minutes 46 seconds 86 msec
