                         Program Version 6.0.0  -   RELEASE  -
|  1> ! pbe def2-sv(p) def2/J RI DEFGRID1 loosescf d4 GCP(DFT/SV(P)) printgap
|  2> %output
|  3>     printlevel normal
|  4> end
|  5> * xyz 0 1
|  6> C 4.6908886578 -1.3432799578 -1.1288958509
|  7> C 4.7105817642 0.0236402302 -0.4760423889
|  8> O 3.5553840015 0.2459030698 0.3515877603
|  9> P 2.0873717102 0.4023216683 -0.2483793906
| 10> S 2.045243764 1.3995993442 -1.9417774744
| 11> O 1.3424817376 1.0299340406 1.000137526
| 12> C 1.5008229175 2.4272200428 1.3297220782
| 13> C 0.6342950566 2.7160413093 2.5364282856
| 14> S 1.3082688187 -1.5414967846 -0.2347215328
| 15> C 0.1152432388 -1.4207926012 -1.614367006
| 16> S -1.5797387224 -1.7566068775 -1.1024101299
| 17> P -1.8703169537 -0.0542668159 0.1451485026
| 18> S -1.3392089264 1.6325758649 -0.7013136211
| 19> O -1.1596269443 -0.2786448147 1.528834952
| 20> C -1.6036043271 -1.157646388 2.5948759374
| 21> C -1.5878880241 -2.6185454868 2.1979151157
| 22> O -3.4063157925 -0.166374999 0.5273156258
| 23> C -4.4368875114 0.0598752895 -0.456818587
| 24> C -5.7512571045 0.2257666824 0.2781439106
| 25> H 4.5360330685 -2.1174053099 -0.3816893503
| 26> H 3.885334133 -1.3922585868 -1.8603105319
| 27> H 5.6359375665 -1.511552658 -1.6350846197
| 28> H 4.745858402 0.811483868 -1.2353593174
| 29> H 5.5491822839 0.1312305943 0.2131659858
| 30> H 2.5581452219 2.6168402845 1.5339747463
| 31> H 1.1888770437 3.0196111841 0.4622569304
| 32> H 0.9432096477 2.0959865597 3.3727197983
| 33> H 0.730606514 3.7637252352 2.8017758001
| 34> H -0.404290603 2.4989653285 2.2988443942
| 35> H 0.3650097351 -2.1859034239 -2.3447615984
| 36> H 0.186516932 -0.4200708836 -2.0499899765
| 37> H -0.8855922343 -0.9526486288 3.3906049607
| 38> H -2.6023484873 -0.8416490219 2.9001312793
| 39> H -0.6146132915 -2.8916205961 1.7955096826
| 40> H -1.790835312 -3.221363934 3.0777432055
| 41> H -2.3491030918 -2.8207341194 1.4478269536
| 42> H -4.1786927254 0.9559730448 -1.0305561436
| 43> H -4.4589532666 -0.8011252445 -1.1298513331
| 44> H -5.6993313968 1.0780707219 0.9498459113
| 45> H -6.5434065437 0.3885610317 -0.445113009
| 46> H -5.9697360275 -0.6675185952 0.8557284341
| 47> *
| 48>
| 49>                          ****END OF INPUT****

CARTESIAN COORDINATES (ANGSTROEM)
---------------------------------
  C      4.690889   -1.343280   -1.128896
  C      4.710582    0.023640   -0.476042
  O      3.555384    0.245903    0.351588
  P      2.087372    0.402322   -0.248379
  S      2.045244    1.399599   -1.941777
  O      1.342482    1.029934    1.000138
  C      1.500823    2.427220    1.329722
  C      0.634295    2.716041    2.536428
  S      1.308269   -1.541497   -0.234722
  C      0.115243   -1.420793   -1.614367
  S     -1.579739   -1.756607   -1.102410
  P     -1.870317   -0.054267    0.145149
  S     -1.339209    1.632576   -0.701314
  O     -1.159627   -0.278645    1.528835
  C     -1.603604   -1.157646    2.594876
  C     -1.587888   -2.618545    2.197915
  O     -3.406316   -0.166375    0.527316
  C     -4.436888    0.059875   -0.456819
  C     -5.751257    0.225767    0.278144
  H      4.536033   -2.117405   -0.381689
  H      3.885334   -1.392259   -1.860311
  H      5.635938   -1.511553   -1.635085
  H      4.745858    0.811484   -1.235359
  H      5.549182    0.131231    0.213166
  H      2.558145    2.616840    1.533975
  H      1.188877    3.019611    0.462257
  H      0.943210    2.095987    3.372720
  H      0.730607    3.763725    2.801776
  H     -0.404291    2.498965    2.298844
  H      0.365010   -2.185903   -2.344762
  H      0.186517   -0.420071   -2.049990
  H     -0.885592   -0.952649    3.390605
  H     -2.602348   -0.841649    2.900131
  H     -0.614613   -2.891621    1.795510
  H     -1.790835   -3.221364    3.077743
  H     -2.349103   -2.820734    1.447827
  H     -4.178693    0.955973   -1.030556
  H     -4.458953   -0.801125   -1.129851
  H     -5.699331    1.078071    0.949846
  H     -6.543407    0.388561   -0.445113
  H     -5.969736   -0.667519    0.855728

 Total Charge           Charge          ....    0
 Multiplicity           Mult            ....    1
 Number of Electrons    NEL             ....  202
 Basis Dimension        Dim             ....  334

ORBITAL ENERGIES
----------------

  NO   OCC          E(Eh)            E(eV)
   0   2.0000     -88.041231     -2395.7237
   1   2.0000     -88.041173     -2395.7221
   2   2.0000     -87.978358     -2394.0128
   3   2.0000     -87.977705     -2393.9951
   4   2.0000     -76.424197     -2079.6081
   5   2.0000     -76.417860     -2079.4357
   6   2.0000     -18.797575      -511.5080
   7   2.0000     -18.789801      -511.2965
   8   2.0000     -18.785643      -511.1833
   9   2.0000     -18.776202      -510.9264
  10   2.0000      -9.956275      -270.9240
  11   2.0000      -9.956022      -270.9171
  12   2.0000      -9.953539      -270.8496
  13   2.0000      -9.945950      -270.6431
  14   2.0000      -9.937933      -270.4249
  15   2.0000      -9.891570      -269.1633
  16   2.0000      -9.885727      -269.0043
  17   2.0000      -9.879705      -268.8404
  18   2.0000      -9.872716      -268.6503
  19   2.0000      -7.686423      -209.1582
  20   2.0000      -7.686389      -209.1573
  21   2.0000      -7.623334      -207.4415
  22   2.0000      -7.622649      -207.4228
  23   2.0000      -6.421489      -174.7376
  24   2.0000      -6.415596      -174.5772
  25   2.0000      -5.714265      -155.4931
  26   2.0000      -5.714250      -155.4926
  27   2.0000      -5.710940      -155.4026
  28   2.0000      -5.710847      -155.4000
  29   2.0000      -5.703493      -155.1999
  30   2.0000      -5.703229      -155.1928
  31   2.0000      -5.652181      -153.8037
  32   2.0000      -5.651618      -153.7883
  33   2.0000      -5.644133      -153.5847
  34   2.0000      -5.643401      -153.5647
  35   2.0000      -5.643352      -153.5634
  36   2.0000      -5.642648      -153.5443
  37   2.0000      -4.644574      -126.3853
  38   2.0000      -4.643241      -126.3490
  39   2.0000      -4.641480      -126.3011
  40   2.0000      -4.637949      -126.2050
  41   2.0000      -4.637161      -126.1836
  42   2.0000      -4.636408      -126.1631
  43   2.0000      -0.989933       -26.9375
  44   2.0000      -0.977467       -26.5982
  45   2.0000      -0.945581       -25.7306
  46   2.0000      -0.933610       -25.4048
  47   2.0000      -0.761609       -20.7244
  48   2.0000      -0.720292       -19.6001
  49   2.0000      -0.706736       -19.2313
  50   2.0000      -0.694095       -18.8873
  51   2.0000      -0.680462       -18.5163
  52   2.0000      -0.671513       -18.2728
  53   2.0000      -0.645596       -17.5676
  54   2.0000      -0.628143       -17.0926
  55   2.0000      -0.594190       -16.1687
  56   2.0000      -0.587362       -15.9829
  57   2.0000      -0.575043       -15.6477
  58   2.0000      -0.564075       -15.3493
  59   2.0000      -0.553697       -15.0669
  60   2.0000      -0.507564       -13.8115
  61   2.0000      -0.494332       -13.4515
  62   2.0000      -0.474659       -12.9161
  63   2.0000      -0.464723       -12.6458
  64   2.0000      -0.449046       -12.2192
  65   2.0000      -0.445055       -12.1106
  66   2.0000      -0.441274       -12.0077
  67   2.0000      -0.432524       -11.7696
  68   2.0000      -0.427593       -11.6354
  69   2.0000      -0.417621       -11.3640
  70   2.0000      -0.407558       -11.0902
  71   2.0000      -0.400099       -10.8872
  72   2.0000      -0.386657       -10.5215
  73   2.0000      -0.382247       -10.4015
  74   2.0000      -0.377967       -10.2850
  75   2.0000      -0.367501       -10.0002
  76   2.0000      -0.363084        -9.8800
  77   2.0000      -0.355116        -9.6632
  78   2.0000      -0.350529        -9.5384
  79   2.0000      -0.347602        -9.4587
  80   2.0000      -0.343678        -9.3520
  81   2.0000      -0.341244        -9.2857
  82   2.0000      -0.338651        -9.2152
  83   2.0000      -0.332909        -9.0589
  84   2.0000      -0.324566        -8.8319
  85   2.0000      -0.320488        -8.7209
  86   2.0000      -0.307252        -8.3607
  87   2.0000      -0.304763        -8.2930
  88   2.0000      -0.296154        -8.0588
  89   2.0000      -0.289757        -7.8847
  90   2.0000      -0.276536        -7.5249
  91   2.0000      -0.273227        -7.4349
  92   2.0000      -0.262634        -7.1466
  93   2.0000      -0.259614        -7.0645
  94   2.0000      -0.255242        -6.9455
  95   2.0000      -0.233295        -6.3483
  96   2.0000      -0.217922        -5.9300
  97   2.0000      -0.211179        -5.7465
  98   2.0000      -0.199776        -5.4362
  99   2.0000      -0.188245        -5.1224
 100   2.0000      -0.181428        -4.9369
 101   0.0000      -0.042610        -1.1595
 102   0.0000      -0.030512        -0.8303
 103   0.0000      -0.005739        -0.1562
 104   0.0000       0.013090         0.3562
 105   0.0000       0.020202         0.5497

MULLIKEN ATOMIC CHARGES
-----------------------
   0 C :   -0.310643
   1 C :   -0.000692
   2 O :   -0.381001
   3 P :    0.611824
   4 S :   -0.321058
   5 O :   -0.354967
   6 C :   -0.002261
   7 C :   -0.276944
   8 S :   -0.090690
   9 C :   -0.356248
  10 S :   -0.116874
  11 P :    0.607496
  12 S :   -0.298035
  13 O :   -0.344394
  14 C :    0.006331
  15 C :   -0.320519
  16 O :   -0.389515
  17 C :   -0.013100
  18 C :   -0.280495
  19 H :    0.115181
  20 H :    0.119765
  21 H :    0.110389
  22 H :    0.109134
  23 H :    0.101174
  24 H :    0.094525
  25 H :    0.112090
  26 H :    0.104351
  27 H :    0.103177
  28 H :    0.123214
  29 H :    0.181591
  30 H :    0.211803
  31 H :    0.110107
  32 H :    0.108686
  33 H :    0.129989
  34 H :    0.111062
  35 H :    0.120954
  36 H :    0.108639
  37 H :    0.106107
  38 H :    0.121644
  39 H :    0.114454
  40 H :    0.113749
Sum of atomic charges:   -0.0000000

LOEWDIN ATOMIC CHARGES
----------------------
   0 C :   -0.369218
   1 C :   -0.120750
   2 O :   -0.250159
   3 P :    0.568614
   4 S :   -0.312465
   5 O :   -0.234847
   6 C :   -0.117090
   7 C :   -0.352249
   8 S :    0.089081
   9 C :   -0.478468
  10 S :    0.066746
  11 P :    0.562830
  12 S :   -0.295659
  13 O :   -0.223842
  14 C :   -0.105790
  15 C :   -0.371064
  16 O :   -0.252543
  17 C :   -0.120084
  18 C :   -0.350356
  19 H :    0.122952
  20 H :    0.119194
  21 H :    0.129448
  22 H :    0.109134
  23 H :    0.116618
  24 H :    0.106302
  25 H :    0.110804
  26 H :    0.121097
  27 H :    0.127008
  28 H :    0.126023
  29 H :    0.136786
  30 H :    0.127038
  31 H :    0.122525
  32 H :    0.113767
  33 H :    0.124333
  34 H :    0.130044
  35 H :    0.116646
  36 H :    0.111370
  37 H :    0.109109
  38 H :    0.129491
  39 H :    0.132252
  40 H :    0.125372

  Mayer bond orders larger than 0.100000
B(  0-C ,  1-C ) :   1.1655 B(  0-C , 19-H ) :   0.9449 B(  0-C , 20-H ) :   0.9366
B(  0-C , 21-H ) :   0.9384 B(  1-C ,  2-O ) :   0.9145 B(  1-C , 22-H ) :   0.9131
B(  1-C , 23-H ) :   0.9340 B(  2-O ,  3-P ) :   1.0931 B(  3-P ,  4-S ) :   1.6034
B(  3-P ,  5-O ) :   1.1461 B(  3-P ,  8-S ) :   0.9695 B(  4-S ,  8-S ) :   0.1167
B(  5-O ,  6-C ) :   0.8966 B(  6-C ,  7-C ) :   1.1656 B(  6-C , 24-H ) :   0.9270
B(  6-C , 25-H ) :   0.9148 B(  7-C , 26-H ) :   0.9499 B(  7-C , 27-H ) :   0.9413
B(  7-C , 28-H ) :   0.9422 B(  8-S ,  9-C ) :   0.9944 B(  9-C , 10-S ) :   1.0088
B(  9-C , 29-H ) :   0.9115 B(  9-C , 30-H ) :   0.8453 B( 10-S , 11-P ) :   0.9347
B( 10-S , 12-S ) :   0.1059 B( 11-P , 12-S ) :   1.6564 B( 11-P , 13-O ) :   1.1454
B( 11-P , 16-O ) :   1.0716 B( 13-O , 14-C ) :   0.8956 B( 14-C , 15-C ) :   1.1716
B( 14-C , 31-H ) :   0.9332 B( 14-C , 32-H ) :   0.9284 B( 15-C , 33-H ) :   0.9380
B( 15-C , 34-H ) :   0.9350 B( 15-C , 35-H ) :   0.9394 B( 16-O , 17-C ) :   0.9020
B( 17-C , 18-C ) :   1.1600 B( 17-C , 36-H ) :   0.9097 B( 17-C , 37-H ) :   0.9286
B( 18-C , 38-H ) :   0.9507 B( 18-C , 39-H ) :   0.9416 B( 18-C , 40-H ) :   0.9512

Dispersion correction           -0.067469269
FINAL SINGLE POINT ENERGY     -2929.517315874485

DIPOLE MOMENT
-------------

Method             : SCF
Type of density    : Electron Density
Multiplicity       :   1
Irrep              :   0
Energy             : -2929.6352221995657601 Eh
Relativity type    :
Basis              : AO
                                X                 Y                 Z
Electronic contribution:      4.578006324       1.614389874     -11.446475176
Nuclear contribution   :     -5.054008247      -2.602081767      12.442348972
                        -----------------------------------------
Total Dipole Moment    :     -0.476001923      -0.987691892       0.995873796
                        -----------------------------------------
Magnitude (a.u.)       :      1.481174440
Magnitude (Debye)      :      3.764846230

Rotational constants in cm-1:             0.012923             0.005312             0.005022
Rotational constants in MHz :           387.429761           159.240085           150.544241

                             ****ORCA TERMINATED NORMALLY****
TOTAL RUN TIME: 0 days 0 hours 0 minutes 22 seconds 293 msec
