                         Program Version 6.0.1  -  RELEASE   -
|  1> ! pbe def2-sv(p) def2/J RI DEFGRID1 loosescf d4 GCP(DFT/SV(P)) printgap
|  2> %output
|  3>     printlevel normal
|  4> end
|  5> * xyz 0 1
|  6> C 2.0357332268 -3.2609251591 -2.8137581068
|  7> C 3.0484322545 -3.0555313715 -1.6982739709
|  8> O 2.8666559578 -1.7627136455 -1.0890131521
|  9> C 2.0483600091 -1.6607216385 -0.0626844296
| 10> O 1.4841618241 -2.5902710118 0.4700648792
| 11> C 1.8654720378 -0.2122473385 0.3532302771
| 12> C 0.9916245807 0.4819166376 -0.6927200523
| 13> H 1.5501960069 0.5986110448 -1.6265402979
| 14> C 0.4945703317 1.8487628727 -0.2527092029
| 15> O -0.6311872234 2.2412521285 -0.4896945296
| 16> O 1.4159814838 2.5340263848 0.3619986052
| 17> C 1.0566215403 3.8406956078 0.8611006288
| 18> C 2.2951589516 4.4615216127 1.4736020546
| 19> S -0.4663729458 -0.5094877814 -1.1657706991
| 20> P -1.7785615428 -0.0632199726 0.4446272498
| 21> S -1.0724140902 0.6308073144 2.1335522163
| 22> O -2.987493915 0.787108214 -0.1060118371
| 23> C -3.6806820487 0.4656107118 -1.3274798403
| 24> O -2.5033995548 -1.4865511724 0.6173159618
| 25> C -1.8444554414 -2.5784518965 1.2661271681
| 26> H 2.1960909858 -4.2315055414 -3.2709956062
| 27> H 1.0249386561 -3.2177697399 -2.413785862
| 28> H 2.1440489348 -2.4863417262 -3.5673849323
| 29> H 4.0684767331 -3.0412739667 -2.0823560861
| 30> H 2.9410838812 -3.82321445 -0.9270476154
| 31> H 2.8303026636 0.2910637664 0.3978683877
| 32> H 1.385520568 -0.1859279515 1.3330495786
| 33> H 0.6672623112 4.4321206981 0.0270664248
| 34> H 0.2563212946 3.7085833098 1.5963104778
| 35> H 3.0774951346 4.5496102421 0.7260263452
| 36> H 2.0481021308 5.4473209398 1.8528175982
| 37> H 2.6537235689 3.8439107739 2.2911626935
| 38> H -4.4405739502 1.2358898225 -1.428902017
| 39> H -4.1320266452 -0.522007544 -1.2496975149
| 40> H -2.9852340327 0.4993532957 -2.1661051056
| 41> H -2.5364406518 -3.413829638 1.2063839528
| 42> H -1.6397362277 -2.3215239001 2.3061159257
| 43> H -0.9050708417 -2.8198826203 0.7662901732
| 44> *
| 45>
| 46>                          ****END OF INPUT****

CARTESIAN COORDINATES (ANGSTROEM)
---------------------------------
  C      2.035733   -3.260925   -2.813758
  C      3.048432   -3.055531   -1.698274
  O      2.866656   -1.762714   -1.089013
  C      2.048360   -1.660722   -0.062684
  O      1.484162   -2.590271    0.470065
  C      1.865472   -0.212247    0.353230
  C      0.991625    0.481917   -0.692720
  H      1.550196    0.598611   -1.626540
  C      0.494570    1.848763   -0.252709
  O     -0.631187    2.241252   -0.489695
  O      1.415981    2.534026    0.361999
  C      1.056622    3.840696    0.861101
  C      2.295159    4.461522    1.473602
  S     -0.466373   -0.509488   -1.165771
  P     -1.778562   -0.063220    0.444627
  S     -1.072414    0.630807    2.133552
  O     -2.987494    0.787108   -0.106012
  C     -3.680682    0.465611   -1.327480
  O     -2.503400   -1.486551    0.617316
  C     -1.844455   -2.578452    1.266127
  H      2.196091   -4.231506   -3.270996
  H      1.024939   -3.217770   -2.413786
  H      2.144049   -2.486342   -3.567385
  H      4.068477   -3.041274   -2.082356
  H      2.941084   -3.823214   -0.927048
  H      2.830303    0.291064    0.397868
  H      1.385521   -0.185928    1.333050
  H      0.667262    4.432121    0.027066
  H      0.256321    3.708583    1.596310
  H      3.077495    4.549610    0.726026
  H      2.048102    5.447321    1.852818
  H      2.653724    3.843911    2.291163
  H     -4.440574    1.235890   -1.428902
  H     -4.132027   -0.522008   -1.249698
  H     -2.985234    0.499353   -2.166105
  H     -2.536441   -3.413830    1.206384
  H     -1.639736   -2.321524    2.306116
  H     -0.905071   -2.819883    0.766290

 Total Charge           Charge          ....    0
 Multiplicity           Mult            ....    1
 Number of Electrons    NEL             ....  174
 Basis Dimension        Dim             ....  316

ORBITAL ENERGIES
----------------

  NO   OCC          E(Eh)            E(eV)
   0   2.0000     -88.038200     -2395.6412
   1   2.0000     -87.977757     -2393.9965
   2   2.0000     -76.420605     -2079.5104
   3   2.0000     -18.814055      -511.9565
   4   2.0000     -18.806344      -511.7466
   5   2.0000     -18.783569      -511.1269
   6   2.0000     -18.779891      -511.0268
   7   2.0000     -18.740521      -509.9555
   8   2.0000     -18.739818      -509.9364
   9   2.0000     -10.019233      -272.6372
  10   2.0000     -10.011262      -272.4203
  11   2.0000      -9.953310      -270.8433
  12   2.0000      -9.950804      -270.7751
  13   2.0000      -9.950720      -270.7729
  14   2.0000      -9.942150      -270.5397
  15   2.0000      -9.926462      -270.1128
  16   2.0000      -9.903679      -269.4928
  17   2.0000      -9.891193      -269.1530
  18   2.0000      -9.889830      -269.1160
  19   2.0000      -7.682843      -209.0608
  20   2.0000      -7.622958      -207.4312
  21   2.0000      -6.417202      -174.6209
  22   2.0000      -5.710845      -155.4000
  23   2.0000      -5.707409      -155.3065
  24   2.0000      -5.699623      -155.0946
  25   2.0000      -5.652128      -153.8022
  26   2.0000      -5.643606      -153.5703
  27   2.0000      -5.642731      -153.5465
  28   2.0000      -4.639853      -126.2568
  29   2.0000      -4.639195      -126.2389
  30   2.0000      -4.637636      -126.1965
  31   2.0000      -1.022499       -27.8236
  32   2.0000      -1.013952       -27.5910
  33   2.0000      -0.976410       -26.5695
  34   2.0000      -0.931242       -25.3404
  35   2.0000      -0.921989       -25.0886
  36   2.0000      -0.917384       -24.9633
  37   2.0000      -0.766944       -20.8696
  38   2.0000      -0.714006       -19.4291
  39   2.0000      -0.710471       -19.3329
  40   2.0000      -0.688063       -18.7232
  41   2.0000      -0.655486       -17.8367
  42   2.0000      -0.625861       -17.0306
  43   2.0000      -0.620266       -16.8783
  44   2.0000      -0.615338       -16.7442
  45   2.0000      -0.592622       -16.1261
  46   2.0000      -0.564773       -15.3683
  47   2.0000      -0.515876       -14.0377
  48   2.0000      -0.504662       -13.7325
  49   2.0000      -0.501442       -13.6449
  50   2.0000      -0.481214       -13.0945
  51   2.0000      -0.464503       -12.6398
  52   2.0000      -0.456838       -12.4312
  53   2.0000      -0.450262       -12.2523
  54   2.0000      -0.441189       -12.0054
  55   2.0000      -0.430736       -11.7209
  56   2.0000      -0.421844       -11.4790
  57   2.0000      -0.416642       -11.3374
  58   2.0000      -0.410798       -11.1784
  59   2.0000      -0.405161       -11.0250
  60   2.0000      -0.398664       -10.8482
  61   2.0000      -0.392092       -10.6694
  62   2.0000      -0.391261       -10.6468
  63   2.0000      -0.380719       -10.3599
  64   2.0000      -0.374845       -10.2000
  65   2.0000      -0.366714        -9.9788
  66   2.0000      -0.361718        -9.8428
  67   2.0000      -0.359961        -9.7950
  68   2.0000      -0.346233        -9.4215
  69   2.0000      -0.336927        -9.1683
  70   2.0000      -0.335169        -9.1204
  71   2.0000      -0.330184        -8.9848
  72   2.0000      -0.322349        -8.7716
  73   2.0000      -0.311067        -8.4646
  74   2.0000      -0.308314        -8.3897
  75   2.0000      -0.297720        -8.1014
  76   2.0000      -0.292301        -7.9539
  77   2.0000      -0.287253        -7.8166
  78   2.0000      -0.269491        -7.3332
  79   2.0000      -0.264593        -7.1999
  80   2.0000      -0.261916        -7.1271
  81   2.0000      -0.249837        -6.7984
  82   2.0000      -0.238107        -6.4792
  83   2.0000      -0.220149        -5.9905
  84   2.0000      -0.215382        -5.8608
  85   2.0000      -0.196930        -5.3587
  86   2.0000      -0.192185        -5.2296
  87   0.0000      -0.044095        -1.1999
  88   0.0000      -0.031736        -0.8636
  89   0.0000      -0.018133        -0.4934
  90   0.0000       0.005669         0.1542
  91   0.0000       0.024704         0.6722

MULLIKEN ATOMIC CHARGES
-----------------------
   0 C :   -0.305581
   1 C :   -0.016557
   2 O :   -0.235068
   3 C :    0.116338
   4 O :   -0.189319
   5 C :   -0.028594
   6 C :   -0.330504
   7 H :    0.154538
   8 C :    0.191905
   9 O :   -0.187770
  10 O :   -0.220063
  11 C :   -0.030215
  12 C :   -0.273553
  13 S :   -0.098567
  14 P :    0.622663
  15 S :   -0.320136
  16 O :   -0.352215
  17 C :   -0.104595
  18 O :   -0.392504
  19 C :   -0.124637
  20 H :    0.113654
  21 H :    0.129390
  22 H :    0.112081
  23 H :    0.104290
  24 H :    0.112310
  25 H :    0.109981
  26 H :    0.116513
  27 H :    0.107985
  28 H :    0.123130
  29 H :    0.113036
  30 H :    0.114413
  31 H :    0.120660
  32 H :    0.131059
  33 H :    0.121143
  34 H :    0.122787
  35 H :    0.113762
  36 H :    0.116880
  37 H :    0.141360
Sum of atomic charges:   -0.0000000

LOEWDIN ATOMIC CHARGES
----------------------
   0 C :   -0.356945
   1 C :   -0.111973
   2 O :   -0.061690
   3 C :    0.023181
   4 O :   -0.160178
   5 C :   -0.255191
   6 C :   -0.258503
   7 H :    0.150375
   8 C :   -0.000993
   9 O :   -0.164525
  10 O :   -0.040957
  11 C :   -0.103787
  12 C :   -0.350735
  13 S :    0.109301
  14 P :    0.590251
  15 S :   -0.303102
  16 O :   -0.229741
  17 C :   -0.208490
  18 O :   -0.265080
  19 C :   -0.224810
  20 H :    0.130926
  21 H :    0.128872
  22 H :    0.123605
  23 H :    0.118005
  24 H :    0.121243
  25 H :    0.141062
  26 H :    0.133462
  27 H :    0.118266
  28 H :    0.124742
  29 H :    0.125624
  30 H :    0.132834
  31 H :    0.129405
  32 H :    0.126587
  33 H :    0.114276
  34 H :    0.111331
  35 H :    0.117292
  36 H :    0.112195
  37 H :    0.113866

  Mayer bond orders larger than 0.100000
B(  0-C ,  1-C ) :   1.1750 B(  0-C , 20-H ) :   0.9432 B(  0-C , 21-H ) :   0.9421
B(  0-C , 22-H ) :   0.9498 B(  1-C ,  2-O ) :   0.9120 B(  1-C , 23-H ) :   0.9370
B(  1-C , 24-H ) :   0.9109 B(  2-O ,  3-C ) :   1.2159 B(  3-C ,  4-O ) :   2.0119
B(  3-C ,  5-C ) :   1.0234 B(  5-C ,  6-C ) :   1.0511 B(  5-C , 25-H ) :   0.8714
B(  5-C , 26-H ) :   0.8749 B(  6-C ,  7-H ) :   0.8564 B(  6-C ,  8-C ) :   0.9107
B(  6-C , 13-S ) :   1.0303 B(  8-C ,  9-O ) :   2.0271 B(  8-C , 10-O ) :   1.2709
B( 10-O , 11-C ) :   0.8910 B( 11-C , 12-C ) :   1.1535 B( 11-C , 27-H ) :   0.9302
B( 11-C , 28-H ) :   0.9262 B( 12-C , 29-H ) :   0.9503 B( 12-C , 30-H ) :   0.9428
B( 12-C , 31-H ) :   0.9487 B( 13-S , 14-P ) :   0.9400 B( 13-S , 15-S ) :   0.1127
B( 14-P , 15-S ) :   1.5955 B( 14-P , 16-O ) :   1.1450 B( 14-P , 18-O ) :   1.0744
B( 16-O , 17-C ) :   0.9207 B( 17-C , 32-H ) :   0.9599 B( 17-C , 33-H ) :   0.9464
B( 17-C , 34-H ) :   0.9391 B( 18-O , 19-C ) :   0.9242 B( 19-C , 35-H ) :   0.9564
B( 19-C , 36-H ) :   0.9436 B( 19-C , 37-H ) :   0.9244

Dispersion correction           -0.052898837
FINAL SINGLE POINT ENERGY     -1979.017497674091

DIPOLE MOMENT
-------------

Method             : SCF
Type of density    : Electron Density
Multiplicity       :   1
Irrep              :   0
Energy             : -1979.1465772618553274 Eh
Relativity type    :
Basis              : AO
                                X                 Y                 Z
Electronic contribution:    -10.261512973       1.330176187       4.991151249
Nuclear contribution   :     11.201991390      -1.317869501      -6.273326767
                        -----------------------------------------
Total Dipole Moment    :      0.940478418       0.012306686      -1.282175518
                        -----------------------------------------
Magnitude (a.u.)       :      1.590165138
Magnitude (Debye)      :      4.041878569

Rotational constants in cm-1:             0.010631             0.008560             0.005995
Rotational constants in MHz :           318.715921           256.608786           179.715086

                             ****ORCA TERMINATED NORMALLY****
TOTAL RUN TIME: 0 days 0 hours 0 minutes 51 seconds 161 msec
