                         Program Version 6.0.0  -   RELEASE  -
|  1> ! pbe def2-sv(p) def2/J RI DEFGRID1 loosescf d4 GCP(DFT/SV(P)) printgap
|  2> %output
|  3>     printlevel normal
|  4> end
|  5> * xyz 0 1
|  6> C 3.3440133167 -0.8124958363 -3.1832371128
|  7> C 4.1734981047 -0.8333542868 -1.9172329276
|  8> O 3.6632069638 0.0476690487 -0.8964032401
|  9> P 2.1598789679 0.0984766868 -0.3877569972
| 10> S 0.8983697782 1.1009227414 -1.5008754304
| 11> O 2.3147857215 0.8146336575 1.003995668
| 12> C 3.2189941857 0.3653554773 2.0461672354
| 13> C 2.7528175458 0.9745648732 3.3519546228
| 14> S 1.7702561335 -1.9596192502 0.0048156055
| 15> C 0.1111572804 -1.8528765347 0.7191097153
| 16> S -1.1881869552 -1.4575210651 -0.4942792154
| 17> P -1.8897369663 0.3296493354 0.3575824178
| 18> S -0.8698469928 1.1585058876 1.808448472
| 19> O -3.2975915955 -0.2411711657 0.8713016329
| 20> C -4.1927205536 0.6009083939 1.6218051682
| 21> C -5.3954858198 -0.2345655506 2.0087770788
| 22> O -2.2240315516 1.3817928942 -0.7786092115
| 23> C -2.5539691782 1.0808989086 -2.1546473544
| 24> C -3.7549935016 0.1679914036 -2.2845525787
| 25> H 3.2532418323 0.2031869862 -3.5614524256
| 26> H 3.817178619 -1.4367876344 -3.934187167
| 27> H 2.3434293846 -1.1939021906 -2.9828055544
| 28> H 5.1835538327 -0.4597918594 -2.0943320302
| 29> H 4.216449514 -1.8424601258 -1.4988322594
| 30> H 3.1976187551 -0.7280585483 2.0818246492
| 31> H 4.2233925357 0.699068442 1.7792434792
| 32> H 2.8098074253 2.0579659704 3.3000283844
| 33> H 1.7179702104 0.7010234653 3.5447604789
| 34> H 3.3811364 0.6154309064 4.1602547677
| 35> H 0.0935192288 -1.0895813207 1.5026087721
| 36> H -0.0953357617 -2.8416552066 1.1202264489
| 37> H -3.6587176326 0.9740754482 2.5024066043
| 38> H -4.4762416663 1.455993743 0.999539748
| 39> H -6.0856660754 0.3776108665 2.5799769171
| 40> H -5.8929247387 -0.6063074674 1.1177658168
| 41> H -5.0781540504 -1.0798802763 2.6120528695
| 42> H -2.7421591812 2.0663739807 -2.5837837672
| 43> H -1.6668014436 0.6474866067 -2.6241846838
| 44> H -4.6210214897 0.6074297605 -1.7953002664
| 45> H -3.9736651211 0.0260278969 -3.3382792505
| 46> H -3.545582356 -0.8013971532 -1.8342736279
| 47> *
| 48>
| 49>                          ****END OF INPUT****

CARTESIAN COORDINATES (ANGSTROEM)
---------------------------------
  C      3.344013   -0.812496   -3.183237
  C      4.173498   -0.833354   -1.917233
  O      3.663207    0.047669   -0.896403
  P      2.159879    0.098477   -0.387757
  S      0.898370    1.100923   -1.500875
  O      2.314786    0.814634    1.003996
  C      3.218994    0.365355    2.046167
  C      2.752818    0.974565    3.351955
  S      1.770256   -1.959619    0.004816
  C      0.111157   -1.852877    0.719110
  S     -1.188187   -1.457521   -0.494279
  P     -1.889737    0.329649    0.357582
  S     -0.869847    1.158506    1.808448
  O     -3.297592   -0.241171    0.871302
  C     -4.192721    0.600908    1.621805
  C     -5.395486   -0.234566    2.008777
  O     -2.224032    1.381793   -0.778609
  C     -2.553969    1.080899   -2.154647
  C     -3.754994    0.167991   -2.284553
  H      3.253242    0.203187   -3.561452
  H      3.817179   -1.436788   -3.934187
  H      2.343429   -1.193902   -2.982806
  H      5.183554   -0.459792   -2.094332
  H      4.216450   -1.842460   -1.498832
  H      3.197619   -0.728059    2.081825
  H      4.223393    0.699068    1.779243
  H      2.809807    2.057966    3.300028
  H      1.717970    0.701023    3.544760
  H      3.381136    0.615431    4.160255
  H      0.093519   -1.089581    1.502609
  H     -0.095336   -2.841655    1.120226
  H     -3.658718    0.974075    2.502407
  H     -4.476242    1.455994    0.999540
  H     -6.085666    0.377611    2.579977
  H     -5.892925   -0.606307    1.117766
  H     -5.078154   -1.079880    2.612053
  H     -2.742159    2.066374   -2.583784
  H     -1.666801    0.647487   -2.624185
  H     -4.621021    0.607430   -1.795300
  H     -3.973665    0.026028   -3.338279
  H     -3.545582   -0.801397   -1.834274

 Total Charge           Charge          ....    0
 Multiplicity           Mult            ....    1
 Number of Electrons    NEL             ....  202
 Basis Dimension        Dim             ....  334

ORBITAL ENERGIES
----------------

  NO   OCC          E(Eh)            E(eV)
   0   2.0000     -88.044485     -2395.8122
   1   2.0000     -88.039581     -2395.6788
   2   2.0000     -87.974443     -2393.9063
   3   2.0000     -87.974187     -2393.8993
   4   2.0000     -76.420606     -2079.5104
   5   2.0000     -76.416923     -2079.4102
   6   2.0000     -18.788645      -511.2650
   7   2.0000     -18.785133      -511.1695
   8   2.0000     -18.782164      -511.0887
   9   2.0000     -18.776747      -510.9412
  10   2.0000      -9.957808      -270.9657
  11   2.0000      -9.957410      -270.9549
  12   2.0000      -9.950896      -270.7777
  13   2.0000      -9.948326      -270.7077
  14   2.0000      -9.943166      -270.5673
  15   2.0000      -9.888384      -269.0766
  16   2.0000      -9.883075      -268.9321
  17   2.0000      -9.881616      -268.8924
  18   2.0000      -9.879801      -268.8431
  19   2.0000      -7.689371      -209.2384
  20   2.0000      -7.684919      -209.1173
  21   2.0000      -7.619768      -207.3444
  22   2.0000      -7.619164      -207.3280
  23   2.0000      -6.417745      -174.6357
  24   2.0000      -6.414749      -174.5542
  25   2.0000      -5.716978      -155.5669
  26   2.0000      -5.713735      -155.4786
  27   2.0000      -5.712826      -155.4539
  28   2.0000      -5.709623      -155.3667
  29   2.0000      -5.706787      -155.2896
  30   2.0000      -5.701565      -155.1475
  31   2.0000      -5.648744      -153.7101
  32   2.0000      -5.648282      -153.6976
  33   2.0000      -5.640890      -153.4964
  34   2.0000      -5.639638      -153.4624
  35   2.0000      -5.639263      -153.4522
  36   2.0000      -5.639218      -153.4509
  37   2.0000      -4.640648      -126.2784
  38   2.0000      -4.639942      -126.2592
  39   2.0000      -4.637610      -126.1958
  40   2.0000      -4.637571      -126.1947
  41   2.0000      -4.636396      -126.1627
  42   2.0000      -4.635038      -126.1258
  43   2.0000      -0.982891       -26.7458
  44   2.0000      -0.974670       -26.5221
  45   2.0000      -0.938962       -25.5505
  46   2.0000      -0.933671       -25.4065
  47   2.0000      -0.761803       -20.7297
  48   2.0000      -0.717700       -19.5296
  49   2.0000      -0.708583       -19.2815
  50   2.0000      -0.689724       -18.7683
  51   2.0000      -0.686817       -18.6892
  52   2.0000      -0.672642       -18.3035
  53   2.0000      -0.645503       -17.5650
  54   2.0000      -0.630709       -17.1625
  55   2.0000      -0.590534       -16.0692
  56   2.0000      -0.582933       -15.8624
  57   2.0000      -0.574030       -15.6202
  58   2.0000      -0.564616       -15.3640
  59   2.0000      -0.557043       -15.1579
  60   2.0000      -0.504071       -13.7165
  61   2.0000      -0.495627       -13.4867
  62   2.0000      -0.472010       -12.8441
  63   2.0000      -0.469730       -12.7820
  64   2.0000      -0.455275       -12.3887
  65   2.0000      -0.446347       -12.1457
  66   2.0000      -0.434395       -11.8205
  67   2.0000      -0.431312       -11.7366
  68   2.0000      -0.427564       -11.6346
  69   2.0000      -0.416631       -11.3371
  70   2.0000      -0.407414       -11.0863
  71   2.0000      -0.400055       -10.8860
  72   2.0000      -0.395087       -10.7509
  73   2.0000      -0.381816       -10.3897
  74   2.0000      -0.374853       -10.2003
  75   2.0000      -0.361039        -9.8244
  76   2.0000      -0.355371        -9.6701
  77   2.0000      -0.353254        -9.6125
  78   2.0000      -0.351153        -9.5554
  79   2.0000      -0.347543        -9.4571
  80   2.0000      -0.345105        -9.3908
  81   2.0000      -0.342650        -9.3240
  82   2.0000      -0.340257        -9.2589
  83   2.0000      -0.333367        -9.0714
  84   2.0000      -0.331207        -9.0126
  85   2.0000      -0.315937        -8.5971
  86   2.0000      -0.307872        -8.3776
  87   2.0000      -0.304793        -8.2938
  88   2.0000      -0.293714        -7.9924
  89   2.0000      -0.288935        -7.8623
  90   2.0000      -0.274241        -7.4625
  91   2.0000      -0.269453        -7.3322
  92   2.0000      -0.263690        -7.1754
  93   2.0000      -0.257878        -7.0172
  94   2.0000      -0.256453        -6.9784
  95   2.0000      -0.242462        -6.5977
  96   2.0000      -0.217835        -5.9276
  97   2.0000      -0.200232        -5.4486
  98   2.0000      -0.194677        -5.2974
  99   2.0000      -0.183510        -4.9936
 100   2.0000      -0.177229        -4.8226
 101   0.0000      -0.040428        -1.1001
 102   0.0000      -0.028815        -0.7841
 103   0.0000      -0.011188        -0.3044
 104   0.0000       0.001508         0.0410
 105   0.0000       0.023301         0.6340

MULLIKEN ATOMIC CHARGES
-----------------------
   0 C :   -0.311412
   1 C :   -0.010971
   2 O :   -0.383356
   3 P :    0.601072
   4 S :   -0.297996
   5 O :   -0.343160
   6 C :   -0.013077
   7 C :   -0.284658
   8 S :   -0.131829
   9 C :   -0.332755
  10 S :   -0.084726
  11 P :    0.617202
  12 S :   -0.307912
  13 O :   -0.383620
  14 C :   -0.017579
  15 C :   -0.274027
  16 O :   -0.371362
  17 C :   -0.013053
  18 C :   -0.324368
  19 H :    0.128645
  20 H :    0.109706
  21 H :    0.126722
  22 H :    0.109888
  23 H :    0.112676
  24 H :    0.094431
  25 H :    0.104728
  26 H :    0.121924
  27 H :    0.131877
  28 H :    0.105296
  29 H :    0.192213
  30 H :    0.183899
  31 H :    0.104507
  32 H :    0.096529
  33 H :    0.108710
  34 H :    0.111532
  35 H :    0.116793
  36 H :    0.110951
  37 H :    0.128423
  38 H :    0.118059
  39 H :    0.116048
  40 H :    0.134032
Sum of atomic charges:   -0.0000000

LOEWDIN ATOMIC CHARGES
----------------------
   0 C :   -0.371455
   1 C :   -0.113879
   2 O :   -0.248502
   3 P :    0.563274
   4 S :   -0.295638
   5 O :   -0.225770
   6 C :   -0.117028
   7 C :   -0.352235
   8 S :    0.060120
   9 C :   -0.478034
  10 S :    0.088258
  11 P :    0.572425
  12 S :   -0.297508
  13 O :   -0.264417
  14 C :   -0.124078
  15 C :   -0.350683
  16 O :   -0.235893
  17 C :   -0.117333
  18 C :   -0.367887
  19 H :    0.130738
  20 H :    0.129213
  21 H :    0.121266
  22 H :    0.121728
  23 H :    0.107814
  24 H :    0.099337
  25 H :    0.113884
  26 H :    0.130446
  27 H :    0.128655
  28 H :    0.127151
  29 H :    0.121548
  30 H :    0.138591
  31 H :    0.107621
  32 H :    0.105079
  33 H :    0.128964
  34 H :    0.123937
  35 H :    0.127801
  36 H :    0.123419
  37 H :    0.111098
  38 H :    0.125508
  39 H :    0.133051
  40 H :    0.119412

  Mayer bond orders larger than 0.100000
B(  0-C ,  1-C ) :   1.1673 B(  0-C , 19-H ) :   0.9413 B(  0-C , 20-H ) :   0.9338
B(  0-C , 21-H ) :   0.9315 B(  1-C ,  2-O ) :   0.9158 B(  1-C , 22-H ) :   0.9336
B(  1-C , 23-H ) :   0.9274 B(  2-O ,  3-P ) :   1.0820 B(  3-P ,  4-S ) :   1.6640
B(  3-P ,  5-O ) :   1.1421 B(  3-P ,  8-S ) :   0.9365 B(  4-S ,  8-S ) :   0.1157
B(  5-O ,  6-C ) :   0.8937 B(  6-C ,  7-C ) :   1.1629 B(  6-C , 24-H ) :   0.9112
B(  6-C , 25-H ) :   0.9305 B(  7-C , 26-H ) :   0.9496 B(  7-C , 27-H ) :   0.9452
B(  7-C , 28-H ) :   0.9408 B(  8-S ,  9-C ) :   0.9927 B(  9-C , 10-S ) :   1.0087
B(  9-C , 29-H ) :   0.8458 B(  9-C , 30-H ) :   0.9116 B( 10-S , 11-P ) :   0.9573
B( 10-S , 12-S ) :   0.1119 B( 11-P , 12-S ) :   1.6225 B( 11-P , 13-O ) :   1.0698
B( 11-P , 16-O ) :   1.1196 B( 12-S , 29-H ) :   0.1222 B( 13-O , 14-C ) :   0.9153
B( 14-C , 15-C ) :   1.1570 B( 14-C , 31-H ) :   0.9148 B( 14-C , 32-H ) :   0.9238
B( 15-C , 33-H ) :   0.9427 B( 15-C , 34-H ) :   0.9519 B( 15-C , 35-H ) :   0.9502
B( 16-O , 17-C ) :   0.9029 B( 17-C , 18-C ) :   1.1604 B( 17-C , 36-H ) :   0.9356
B( 17-C , 37-H ) :   0.9135 B( 18-C , 38-H ) :   0.9436 B( 18-C , 39-H ) :   0.9361
B( 18-C , 40-H ) :   0.9350

Dispersion correction           -0.066622833
FINAL SINGLE POINT ENERGY     -2929.506378080316

DIPOLE MOMENT
-------------

Method             : SCF
Type of density    : Electron Density
Multiplicity       :   1
Irrep              :   0
Energy             : -2929.6244204747868025 Eh
Relativity type    :
Basis              : AO
                                X                 Y                 Z
Electronic contribution:      7.421891483       0.841247006      -1.186639436
Nuclear contribution   :     -7.381430226      -1.865602332       1.023329318
                        -----------------------------------------
Total Dipole Moment    :      0.040461257      -1.024355326      -0.163310118
                        -----------------------------------------
Magnitude (a.u.)       :      1.038080508
Magnitude (Debye)      :      2.638590959

Rotational constants in cm-1:             0.012562             0.005340             0.004595
Rotational constants in MHz :           376.595785           160.101596           137.769348

                             ****ORCA TERMINATED NORMALLY****
TOTAL RUN TIME: 0 days 0 hours 0 minutes 21 seconds 85 msec
