                         Program Version 6.0.0  -   RELEASE  -
|  1> ! pbe def2-sv(p) def2/J RI DEFGRID1 loosescf d4 GCP(DFT/SV(P)) printgap
|  2> %output
|  3>     printlevel normal
|  4> end
|  5> * xyz 0 1
|  6> C 5.0128933614 1.0936933953 0.4318654023
|  7> C 3.7660552435 1.5296954368 -0.307549871
|  8> O 2.9601079878 0.3994053584 -0.7056051185
|  9> P 2.1641677827 -0.4692715285 0.350511158
| 10> S 1.5700390169 0.4708063199 1.9683279113
| 11> O 3.1743143401 -1.6604832238 0.6513215886
| 12> C 2.9939346238 -2.5541634912 1.7606528312
| 13> C 1.9001768427 -3.5667066155 1.4867247193
| 14> S 0.7366683076 -1.3530765837 -0.9513626187
| 15> C 0.2220511398 0.1315701211 -1.8608624633
| 16> S -0.5604057465 1.3877890143 -0.8226664446
| 17> P -2.4107506489 0.3520852701 -0.561931767
| 18> S -3.0191855789 -0.6702833303 -2.1114952552
| 19> O -3.3998772902 1.4728821546 -0.0226586921
| 20> C -4.1710611435 2.3170309402 -0.8988810659
| 21> C -3.3015304068 3.2482364139 -1.7180032466
| 22> O -2.2238175393 -0.5596734164 0.7095846694
| 23> C -2.0277581077 -0.0332822793 2.0474579013
| 24> C -1.6723229604 -1.1974470619 2.9462416607
| 25> H 5.5652907765 0.3677606674 -0.1588627576
| 26> H 5.6394308814 1.9593959771 0.6222508381
| 27> H 4.7390422397 0.6385963051 1.3827268312
| 28> H 4.0051981387 2.0255965166 -1.2491364475
| 29> H 3.1544186922 2.1893910367 0.3163677413
| 30> H 3.9656362752 -3.0352427369 1.8794942
| 31> H 2.760970328 -1.9603470978 2.6516598211
| 32> H 1.8208604272 -4.2518632488 2.3246024543
| 33> H 0.9452719569 -3.058163885 1.3509720596
| 34> H 2.1204078663 -4.1250298651 0.5807379942
| 35> H -0.4979570418 -0.2150604281 -2.6046502064
| 36> H 1.0873881931 0.5915262373 -2.3296690218
| 37> H -4.7710024432 1.6762009312 -1.5520185189
| 38> H -4.8210706787 2.8677802804 -0.217438001
| 39> H -2.6178448892 3.794130726 -1.072396448
| 40> H -2.7221734174 2.6775576832 -2.4420684173
| 41> H -3.9342933506 3.9511418844 -2.2502528756
| 42> H -1.2228911425 0.7075358999 2.0223357187
| 43> H -2.9546986902 0.4511628289 2.3583559462
| 44> H -2.4417787148 -1.9618747732 2.8905263527
| 45> H -0.7227721113 -1.6281609515 2.6392513891
| 46> H -1.5810962472 -0.8407505561 3.9668392087
| 47> *
| 48>
| 49>                          ****END OF INPUT****

CARTESIAN COORDINATES (ANGSTROEM)
---------------------------------
  C      5.012893    1.093693    0.431865
  C      3.766055    1.529695   -0.307550
  O      2.960108    0.399405   -0.705605
  P      2.164168   -0.469272    0.350511
  S      1.570039    0.470806    1.968328
  O      3.174314   -1.660483    0.651322
  C      2.993935   -2.554163    1.760653
  C      1.900177   -3.566707    1.486725
  S      0.736668   -1.353077   -0.951363
  C      0.222051    0.131570   -1.860862
  S     -0.560406    1.387789   -0.822666
  P     -2.410751    0.352085   -0.561932
  S     -3.019186   -0.670283   -2.111495
  O     -3.399877    1.472882   -0.022659
  C     -4.171061    2.317031   -0.898881
  C     -3.301530    3.248236   -1.718003
  O     -2.223818   -0.559673    0.709585
  C     -2.027758   -0.033282    2.047458
  C     -1.672323   -1.197447    2.946242
  H      5.565291    0.367761   -0.158863
  H      5.639431    1.959396    0.622251
  H      4.739042    0.638596    1.382727
  H      4.005198    2.025597   -1.249136
  H      3.154419    2.189391    0.316368
  H      3.965636   -3.035243    1.879494
  H      2.760970   -1.960347    2.651660
  H      1.820860   -4.251863    2.324602
  H      0.945272   -3.058164    1.350972
  H      2.120408   -4.125030    0.580738
  H     -0.497957   -0.215060   -2.604650
  H      1.087388    0.591526   -2.329669
  H     -4.771002    1.676201   -1.552019
  H     -4.821071    2.867780   -0.217438
  H     -2.617845    3.794131   -1.072396
  H     -2.722173    2.677558   -2.442068
  H     -3.934293    3.951142   -2.250253
  H     -1.222891    0.707536    2.022336
  H     -2.954699    0.451163    2.358356
  H     -2.441779   -1.961875    2.890526
  H     -0.722772   -1.628161    2.639251
  H     -1.581096   -0.840751    3.966839

 Total Charge           Charge          ....    0
 Multiplicity           Mult            ....    1
 Number of Electrons    NEL             ....  202
 Basis Dimension        Dim             ....  334

ORBITAL ENERGIES
----------------

  NO   OCC          E(Eh)            E(eV)
   0   2.0000     -88.039607     -2395.6795
   1   2.0000     -88.038017     -2395.6362
   2   2.0000     -87.990648     -2394.3473
   3   2.0000     -87.984048     -2394.1677
   4   2.0000     -76.429533     -2079.7533
   5   2.0000     -76.422875     -2079.5721
   6   2.0000     -18.798514      -511.5336
   7   2.0000     -18.795129      -511.4415
   8   2.0000     -18.793838      -511.4063
   9   2.0000     -18.784065      -511.1404
  10   2.0000      -9.956833      -270.9392
  11   2.0000      -9.954588      -270.8781
  12   2.0000      -9.953545      -270.8497
  13   2.0000      -9.952412      -270.8189
  14   2.0000      -9.942555      -270.5507
  15   2.0000      -9.888314      -269.0747
  16   2.0000      -9.887502      -269.0526
  17   2.0000      -9.883848      -268.9532
  18   2.0000      -9.877340      -268.7761
  19   2.0000      -7.684757      -209.1129
  20   2.0000      -7.682938      -209.0634
  21   2.0000      -7.635423      -207.7704
  22   2.0000      -7.629355      -207.6053
  23   2.0000      -6.427210      -174.8933
  24   2.0000      -6.420488      -174.7104
  25   2.0000      -5.712792      -155.4530
  26   2.0000      -5.710668      -155.3952
  27   2.0000      -5.709395      -155.3605
  28   2.0000      -5.707546      -155.3102
  29   2.0000      -5.701453      -155.1444
  30   2.0000      -5.699951      -155.1036
  31   2.0000      -5.664079      -154.1274
  32   2.0000      -5.658232      -153.9683
  33   2.0000      -5.656134      -153.9112
  34   2.0000      -5.655755      -153.9009
  35   2.0000      -5.649961      -153.7433
  36   2.0000      -5.649526      -153.7314
  37   2.0000      -4.649843      -126.5287
  38   2.0000      -4.649024      -126.5064
  39   2.0000      -4.647548      -126.4662
  40   2.0000      -4.643434      -126.3543
  41   2.0000      -4.642028      -126.3160
  42   2.0000      -4.640820      -126.2831
  43   2.0000      -0.991925       -26.9916
  44   2.0000      -0.985077       -26.8053
  45   2.0000      -0.952182       -25.9102
  46   2.0000      -0.940174       -25.5834
  47   2.0000      -0.761538       -20.7225
  48   2.0000      -0.721049       -19.6207
  49   2.0000      -0.708044       -19.2668
  50   2.0000      -0.691157       -18.8073
  51   2.0000      -0.686406       -18.6781
  52   2.0000      -0.672186       -18.2911
  53   2.0000      -0.653619       -17.7859
  54   2.0000      -0.636793       -17.3280
  55   2.0000      -0.603075       -16.4105
  56   2.0000      -0.591034       -16.0828
  57   2.0000      -0.576369       -15.6838
  58   2.0000      -0.563880       -15.3440
  59   2.0000      -0.558207       -15.1896
  60   2.0000      -0.502344       -13.6695
  61   2.0000      -0.496349       -13.5063
  62   2.0000      -0.479563       -13.0496
  63   2.0000      -0.471664       -12.8346
  64   2.0000      -0.461521       -12.5586
  65   2.0000      -0.445028       -12.1098
  66   2.0000      -0.442077       -12.0295
  67   2.0000      -0.436001       -11.8642
  68   2.0000      -0.424376       -11.5478
  69   2.0000      -0.415511       -11.3066
  70   2.0000      -0.411236       -11.1903
  71   2.0000      -0.397435       -10.8148
  72   2.0000      -0.393597       -10.7103
  73   2.0000      -0.385962       -10.5026
  74   2.0000      -0.378656       -10.3038
  75   2.0000      -0.373816       -10.1721
  76   2.0000      -0.362788        -9.8720
  77   2.0000      -0.360363        -9.8060
  78   2.0000      -0.357977        -9.7411
  79   2.0000      -0.352863        -9.6019
  80   2.0000      -0.348962        -9.4957
  81   2.0000      -0.346833        -9.4378
  82   2.0000      -0.338458        -9.2099
  83   2.0000      -0.335441        -9.1278
  84   2.0000      -0.332254        -9.0411
  85   2.0000      -0.319180        -8.6853
  86   2.0000      -0.307215        -8.3597
  87   2.0000      -0.298667        -8.1271
  88   2.0000      -0.296971        -8.0810
  89   2.0000      -0.293605        -7.9894
  90   2.0000      -0.288911        -7.8617
  91   2.0000      -0.278262        -7.5719
  92   2.0000      -0.267262        -7.2726
  93   2.0000      -0.264128        -7.1873
  94   2.0000      -0.256537        -6.9807
  95   2.0000      -0.239695        -6.5224
  96   2.0000      -0.219465        -5.9719
  97   2.0000      -0.208694        -5.6788
  98   2.0000      -0.205722        -5.5980
  99   2.0000      -0.200966        -5.4686
 100   2.0000      -0.192935        -5.2500
 101   0.0000      -0.045871        -1.2482
 102   0.0000      -0.020611        -0.5609
 103   0.0000      -0.016263        -0.4425
 104   0.0000       0.001815         0.0494
 105   0.0000       0.016141         0.4392

MULLIKEN ATOMIC CHARGES
-----------------------
   0 C :   -0.305067
   1 C :   -0.007679
   2 O :   -0.374034
   3 P :    0.614759
   4 S :   -0.324143
   5 O :   -0.367241
   6 C :   -0.009319
   7 C :   -0.343112
   8 S :   -0.077258
   9 C :   -0.361750
  10 S :   -0.095637
  11 P :    0.618042
  12 S :   -0.319337
  13 O :   -0.387025
  14 C :    0.001102
  15 C :   -0.317687
  16 O :   -0.356144
  17 C :   -0.022287
  18 C :   -0.289993
  19 H :    0.119380
  20 H :    0.113751
  21 H :    0.123149
  22 H :    0.105605
  23 H :    0.115109
  24 H :    0.107082
  25 H :    0.109608
  26 H :    0.116801
  27 H :    0.158138
  28 H :    0.123400
  29 H :    0.193210
  30 H :    0.189230
  31 H :    0.112936
  32 H :    0.104944
  33 H :    0.118583
  34 H :    0.127278
  35 H :    0.113317
  36 H :    0.122424
  37 H :    0.101914
  38 H :    0.114197
  39 H :    0.129025
  40 H :    0.104726
Sum of atomic charges:   -0.0000000

LOEWDIN ATOMIC CHARGES
----------------------
   0 C :   -0.364055
   1 C :   -0.117875
   2 O :   -0.239732
   3 P :    0.572175
   4 S :   -0.307929
   5 O :   -0.241305
   6 C :   -0.122759
   7 C :   -0.368753
   8 S :    0.090316
   9 C :   -0.485165
  10 S :    0.074662
  11 P :    0.575336
  12 S :   -0.312450
  13 O :   -0.247208
  14 C :   -0.114969
  15 C :   -0.371281
  16 O :   -0.235378
  17 C :   -0.117750
  18 C :   -0.352442
  19 H :    0.127884
  20 H :    0.131473
  21 H :    0.123219
  22 H :    0.118525
  23 H :    0.112019
  24 H :    0.119670
  25 H :    0.107053
  26 H :    0.133155
  27 H :    0.122887
  28 H :    0.128844
  29 H :    0.127903
  30 H :    0.133324
  31 H :    0.113413
  32 H :    0.118760
  33 H :    0.123820
  34 H :    0.121273
  35 H :    0.131216
  36 H :    0.104574
  37 H :    0.110382
  38 H :    0.126095
  39 H :    0.121579
  40 H :    0.129496

  Mayer bond orders larger than 0.100000
B(  0-C ,  1-C ) :   1.1661 B(  0-C , 19-H ) :   0.9459 B(  0-C , 20-H ) :   0.9387
B(  0-C , 21-H ) :   0.9363 B(  1-C ,  2-O ) :   0.8996 B(  1-C , 22-H ) :   0.9336
B(  1-C , 23-H ) :   0.9151 B(  2-O ,  3-P ) :   1.1124 B(  3-P ,  4-S ) :   1.6023
B(  3-P ,  5-O ) :   1.1045 B(  3-P ,  8-S ) :   0.9717 B(  4-S ,  8-S ) :   0.1085
B(  5-O ,  6-C ) :   0.9111 B(  6-C ,  7-C ) :   1.1643 B(  6-C , 24-H ) :   0.9318
B(  6-C , 25-H ) :   0.9097 B(  7-C , 26-H ) :   0.9395 B(  7-C , 27-H ) :   0.9218
B(  7-C , 28-H ) :   0.9432 B(  8-S ,  9-C ) :   0.9973 B(  9-C , 10-S ) :   1.0128
B(  9-C , 29-H ) :   0.8668 B(  9-C , 30-H ) :   0.8972 B( 10-S , 11-P ) :   0.9429
B( 10-S , 12-S ) :   0.1093 B( 11-P , 12-S ) :   1.6290 B( 11-P , 13-O ) :   1.0866
B( 11-P , 16-O ) :   1.1514 B( 13-O , 14-C ) :   0.9072 B( 14-C , 15-C ) :   1.1669
B( 14-C , 31-H ) :   0.9191 B( 14-C , 32-H ) :   0.9344 B( 15-C , 33-H ) :   0.9435
B( 15-C , 34-H ) :   0.9348 B( 15-C , 35-H ) :   0.9367 B( 16-O , 17-C ) :   0.8856
B( 17-C , 18-C ) :   1.1705 B( 17-C , 36-H ) :   0.9039 B( 17-C , 37-H ) :   0.9285
B( 18-C , 38-H ) :   0.9490 B( 18-C , 39-H ) :   0.9327 B( 18-C , 40-H ) :   0.9386

Dispersion correction           -0.065759908
FINAL SINGLE POINT ENERGY     -2929.522883390878

DIPOLE MOMENT
-------------

Method             : SCF
Type of density    : Electron Density
Multiplicity       :   1
Irrep              :   0
Energy             : -2929.6419696470898089 Eh
Relativity type    :
Basis              : AO
                                X                 Y                 Z
Electronic contribution:     -6.476277572      -2.025609632     -10.166030474
Nuclear contribution   :      7.316348922       2.751172634      10.676512169
                        -----------------------------------------
Total Dipole Moment    :      0.840071350       0.725563001       0.510481695
                        -----------------------------------------
Magnitude (a.u.)       :      1.221782756
Magnitude (Debye)      :      3.105524966

Rotational constants in cm-1:             0.012473             0.005040             0.004601
Rotational constants in MHz :           373.944682           151.085591           137.927327

                             ****ORCA TERMINATED NORMALLY****
TOTAL RUN TIME: 0 days 0 hours 0 minutes 21 seconds 266 msec
