                         Program Version 6.0.0  -   RELEASE  -
|  1> ! pbe def2-sv(p) def2/J RI DEFGRID1 loosescf d4 GCP(DFT/SV(P)) printgap
|  2> %output
|  3>     printlevel normal
|  4> end
|  5> * xyz 0 1
|  6> C 5.1343649465 -1.2055434526 -1.8123902314
|  7> C 4.8777087757 -0.2760235491 -0.6428252093
|  8> O 3.6167518077 -0.5996025727 -0.0129614102
|  9> P 2.3004916102 0.2316737699 -0.3023941183
| 10> S 1.910696644 0.5920062967 -2.195231846
| 11> O 2.5901475131 1.5311762 0.571715235
| 12> C 1.7697392528 2.7113525296 0.5757687276
| 13> C 0.8717632414 2.7322687892 1.7967823027
| 14> S 0.9656758794 -0.9569825778 0.7949908049
| 15> C 0.0175943731 -1.6833709113 -0.5942159643
| 16> S -1.7021292862 -1.9626795314 -0.1504186994
| 17> P -2.2406061292 0.0652211651 0.2468398306
| 18> S -1.3700326456 1.4318305451 -0.8525414248
| 19> O -1.9568419351 0.3662875294 1.7668746064
| 20> C -2.4782518036 -0.4233291819 2.8672982858
| 21> C -1.3884352272 -1.2924427233 3.4621246121
| 22> O -3.8287895285 0.002367859 0.238665352
| 23> C -4.6386556771 -0.6025009897 -0.786959213
| 24> C -4.3380741785 -0.0575721844 -2.1673582681
| 25> H 5.0978316136 -2.239104085 -1.4803496771
| 26> H 4.3795199945 -1.0551672147 -2.5814367886
| 27> H 6.1135062921 -0.9944300201 -2.2301318233
| 28> H 4.8634056004 0.7685672105 -0.9650930568
| 29> H 5.6223379863 -0.4061138304 0.1441446972
| 30> H 2.4762023733 3.5436940428 0.5911553488
| 31> H 1.1826252774 2.749849087 -0.3481941226
| 32> H 0.3539819064 3.6851396904 1.838659408
| 33> H 0.1304123132 1.9372781957 1.7392946689
| 34> H 1.4658719924 2.5993959009 2.6965479825
| 35> H 0.4314927845 -2.6568904682 -0.8448209213
| 36> H 0.0766944615 -0.995137422 -1.4426240429
| 37> H -2.8344843417 0.3150523441 3.5872350838
| 38> H -3.3173819758 -1.0235746821 2.5107783985
| 39> H -1.0493002374 -2.0339060064 2.7428262453
| 40> H -0.537156086 -0.6822225776 3.7503026174
| 41> H -1.7809363907 -1.798887125 4.3380007674
| 42> H -4.4787110293 -1.6836644311 -0.7547496439
| 43> H -5.6587201243 -0.3663227036 -0.4788891146
| 44> H -4.4362887578 1.0255547122 -2.1782633156
| 45> H -3.3196212723 -0.3110339855 -2.4593290359
| 46> H -5.0283830486 -0.4888709982 -2.8850432342
| 47> *
| 48>
| 49>                          ****END OF INPUT****

CARTESIAN COORDINATES (ANGSTROEM)
---------------------------------
  C      5.134365   -1.205543   -1.812390
  C      4.877709   -0.276024   -0.642825
  O      3.616752   -0.599603   -0.012961
  P      2.300492    0.231674   -0.302394
  S      1.910697    0.592006   -2.195232
  O      2.590148    1.531176    0.571715
  C      1.769739    2.711353    0.575769
  C      0.871763    2.732269    1.796782
  S      0.965676   -0.956983    0.794991
  C      0.017594   -1.683371   -0.594216
  S     -1.702129   -1.962680   -0.150419
  P     -2.240606    0.065221    0.246840
  S     -1.370033    1.431831   -0.852541
  O     -1.956842    0.366288    1.766875
  C     -2.478252   -0.423329    2.867298
  C     -1.388435   -1.292443    3.462125
  O     -3.828790    0.002368    0.238665
  C     -4.638656   -0.602501   -0.786959
  C     -4.338074   -0.057572   -2.167358
  H      5.097832   -2.239104   -1.480350
  H      4.379520   -1.055167   -2.581437
  H      6.113506   -0.994430   -2.230132
  H      4.863406    0.768567   -0.965093
  H      5.622338   -0.406114    0.144145
  H      2.476202    3.543694    0.591155
  H      1.182625    2.749849   -0.348194
  H      0.353982    3.685140    1.838659
  H      0.130412    1.937278    1.739295
  H      1.465872    2.599396    2.696548
  H      0.431493   -2.656890   -0.844821
  H      0.076694   -0.995137   -1.442624
  H     -2.834484    0.315052    3.587235
  H     -3.317382   -1.023575    2.510778
  H     -1.049300   -2.033906    2.742826
  H     -0.537156   -0.682223    3.750303
  H     -1.780936   -1.798887    4.338001
  H     -4.478711   -1.683664   -0.754750
  H     -5.658720   -0.366323   -0.478889
  H     -4.436289    1.025555   -2.178263
  H     -3.319621   -0.311034   -2.459329
  H     -5.028383   -0.488871   -2.885043

 Total Charge           Charge          ....    0
 Multiplicity           Mult            ....    1
 Number of Electrons    NEL             ....  202
 Basis Dimension        Dim             ....  334

ORBITAL ENERGIES
----------------

  NO   OCC          E(Eh)            E(eV)
   0   2.0000     -88.050933     -2395.9877
   1   2.0000     -88.039953     -2395.6889
   2   2.0000     -87.981266     -2394.0920
   3   2.0000     -87.981256     -2394.0917
   4   2.0000     -76.428224     -2079.7177
   5   2.0000     -76.419800     -2079.4885
   6   2.0000     -18.797131      -511.4959
   7   2.0000     -18.792567      -511.3717
   8   2.0000     -18.783817      -511.1336
   9   2.0000     -18.781083      -511.0593
  10   2.0000      -9.961257      -271.0596
  11   2.0000      -9.957458      -270.9562
  12   2.0000      -9.954709      -270.8814
  13   2.0000      -9.947907      -270.6963
  14   2.0000      -9.938385      -270.4372
  15   2.0000      -9.885657      -269.0024
  16   2.0000      -9.884179      -268.9622
  17   2.0000      -9.876977      -268.7662
  18   2.0000      -9.867616      -268.5115
  19   2.0000      -7.695655      -209.4094
  20   2.0000      -7.684923      -209.1174
  21   2.0000      -7.626186      -207.5191
  22   2.0000      -7.626165      -207.5185
  23   2.0000      -6.425115      -174.8363
  24   2.0000      -6.417576      -174.6311
  25   2.0000      -5.723437      -155.7426
  26   2.0000      -5.719963      -155.6481
  27   2.0000      -5.713000      -155.4586
  28   2.0000      -5.712801      -155.4532
  29   2.0000      -5.709590      -155.3659
  30   2.0000      -5.701675      -155.1505
  31   2.0000      -5.655321      -153.8891
  32   2.0000      -5.655036      -153.8814
  33   2.0000      -5.646972      -153.6619
  34   2.0000      -5.646559      -153.6507
  35   2.0000      -5.646312      -153.6440
  36   2.0000      -5.646224      -153.6416
  37   2.0000      -4.647919      -126.4763
  38   2.0000      -4.647246      -126.4580
  39   2.0000      -4.645106      -126.3998
  40   2.0000      -4.640016      -126.2612
  41   2.0000      -4.639227      -126.2398
  42   2.0000      -4.638246      -126.2131
  43   2.0000      -0.990948       -26.9651
  44   2.0000      -0.978338       -26.6219
  45   2.0000      -0.946738       -25.7620
  46   2.0000      -0.934988       -25.4423
  47   2.0000      -0.764492       -20.8029
  48   2.0000      -0.721219       -19.6254
  49   2.0000      -0.709077       -19.2950
  50   2.0000      -0.691708       -18.8223
  51   2.0000      -0.676373       -18.4051
  52   2.0000      -0.673803       -18.3351
  53   2.0000      -0.649624       -17.6772
  54   2.0000      -0.631879       -17.1943
  55   2.0000      -0.592351       -16.1187
  56   2.0000      -0.587100       -15.9758
  57   2.0000      -0.577895       -15.7253
  58   2.0000      -0.563450       -15.3322
  59   2.0000      -0.560673       -15.2567
  60   2.0000      -0.506503       -13.7826
  61   2.0000      -0.494918       -13.4674
  62   2.0000      -0.474199       -12.9036
  63   2.0000      -0.465832       -12.6759
  64   2.0000      -0.451918       -12.2973
  65   2.0000      -0.448291       -12.1986
  66   2.0000      -0.441934       -12.0256
  67   2.0000      -0.432561       -11.7706
  68   2.0000      -0.427701       -11.6383
  69   2.0000      -0.415147       -11.2967
  70   2.0000      -0.409048       -11.1308
  71   2.0000      -0.398351       -10.8397
  72   2.0000      -0.390173       -10.6171
  73   2.0000      -0.386998       -10.5307
  74   2.0000      -0.373798       -10.1716
  75   2.0000      -0.368591       -10.0299
  76   2.0000      -0.358753        -9.7622
  77   2.0000      -0.355543        -9.6748
  78   2.0000      -0.351622        -9.5681
  79   2.0000      -0.346985        -9.4419
  80   2.0000      -0.346433        -9.4269
  81   2.0000      -0.342579        -9.3221
  82   2.0000      -0.336852        -9.1662
  83   2.0000      -0.334954        -9.1145
  84   2.0000      -0.322841        -8.7850
  85   2.0000      -0.317953        -8.6519
  86   2.0000      -0.304040        -8.2734
  87   2.0000      -0.299170        -8.1408
  88   2.0000      -0.296859        -8.0779
  89   2.0000      -0.286017        -7.7829
  90   2.0000      -0.281452        -7.6587
  91   2.0000      -0.279776        -7.6131
  92   2.0000      -0.267969        -7.2918
  93   2.0000      -0.264689        -7.2026
  94   2.0000      -0.256671        -6.9844
  95   2.0000      -0.233913        -6.3651
  96   2.0000      -0.223306        -6.0765
  97   2.0000      -0.210499        -5.7280
  98   2.0000      -0.196707        -5.3527
  99   2.0000      -0.195013        -5.3066
 100   2.0000      -0.185317        -5.0427
 101   0.0000      -0.046460        -1.2642
 102   0.0000      -0.033928        -0.9232
 103   0.0000      -0.012534        -0.3411
 104   0.0000       0.009373         0.2551
 105   0.0000       0.017394         0.4733

MULLIKEN ATOMIC CHARGES
-----------------------
   0 C :   -0.288505
   1 C :   -0.001257
   2 O :   -0.371407
   3 P :    0.627064
   4 S :   -0.320383
   5 O :   -0.377669
   6 C :   -0.009971
   7 C :   -0.313146
   8 S :   -0.105234
   9 C :   -0.340098
  10 S :   -0.132114
  11 P :    0.596540
  12 S :   -0.293652
  13 O :   -0.346181
  14 C :   -0.008802
  15 C :   -0.289529
  16 O :   -0.376823
  17 C :   -0.011588
  18 C :   -0.308965
  19 H :    0.110552
  20 H :    0.124149
  21 H :    0.105734
  22 H :    0.103176
  23 H :    0.104954
  24 H :    0.097053
  25 H :    0.119319
  26 H :    0.104632
  27 H :    0.146282
  28 H :    0.101503
  29 H :    0.181571
  30 H :    0.214294
  31 H :    0.111945
  32 H :    0.099216
  33 H :    0.122184
  34 H :    0.124573
  35 H :    0.108872
  36 H :    0.112531
  37 H :    0.109821
  38 H :    0.128272
  39 H :    0.129446
  40 H :    0.111643
Sum of atomic charges:   -0.0000000

LOEWDIN ATOMIC CHARGES
----------------------
   0 C :   -0.361278
   1 C :   -0.112520
   2 O :   -0.249901
   3 P :    0.567107
   4 S :   -0.304913
   5 O :   -0.245708
   6 C :   -0.118160
   7 C :   -0.367962
   8 S :    0.088636
   9 C :   -0.476727
  10 S :    0.067147
  11 P :    0.562852
  12 S :   -0.285950
  13 O :   -0.229550
  14 C :   -0.111665
  15 C :   -0.362419
  16 O :   -0.245583
  17 C :   -0.115305
  18 C :   -0.368275
  19 H :    0.124540
  20 H :    0.124485
  21 H :    0.127494
  22 H :    0.110132
  23 H :    0.117946
  24 H :    0.114051
  25 H :    0.107221
  26 H :    0.128836
  27 H :    0.121619
  28 H :    0.119239
  29 H :    0.135037
  30 H :    0.124103
  31 H :    0.122531
  32 H :    0.107133
  33 H :    0.114704
  34 H :    0.128880
  35 H :    0.128962
  36 H :    0.107121
  37 H :    0.121643
  38 H :    0.131424
  39 H :    0.122785
  40 H :    0.130288

  Mayer bond orders larger than 0.100000
B(  0-C ,  1-C ) :   1.1684 B(  0-C , 19-H ) :   0.9476 B(  0-C , 20-H ) :   0.9355
B(  0-C , 21-H ) :   0.9408 B(  1-C ,  2-O ) :   0.8944 B(  1-C , 22-H ) :   0.9154
B(  1-C , 23-H ) :   0.9351 B(  2-O ,  3-P ) :   1.1290 B(  3-P ,  4-S ) :   1.6115
B(  3-P ,  5-O ) :   1.1171 B(  3-P ,  8-S ) :   0.9601 B(  4-S ,  8-S ) :   0.1191
B(  5-O ,  6-C ) :   0.9010 B(  6-C ,  7-C ) :   1.1709 B(  6-C , 24-H ) :   0.9346
B(  6-C , 25-H ) :   0.9040 B(  7-C , 26-H ) :   0.9402 B(  7-C , 27-H ) :   0.9239
B(  7-C , 28-H ) :   0.9463 B(  8-S ,  9-C ) :   0.9933 B(  9-C , 10-S ) :   1.0132
B(  9-C , 29-H ) :   0.9080 B(  9-C , 30-H ) :   0.8464 B( 10-S , 11-P ) :   0.9212
B( 10-S , 12-S ) :   0.1089 B( 11-P , 12-S ) :   1.6582 B( 11-P , 13-O ) :   1.1227
B( 11-P , 16-O ) :   1.0908 B( 13-O , 14-C ) :   0.8908 B( 14-C , 15-C ) :   1.1667
B( 14-C , 31-H ) :   0.9349 B( 14-C , 32-H ) :   0.9178 B( 15-C , 33-H ) :   0.9320
B( 15-C , 34-H ) :   0.9454 B( 15-C , 35-H ) :   0.9387 B( 16-O , 17-C ) :   0.9110
B( 17-C , 18-C ) :   1.1667 B( 17-C , 36-H ) :   0.9260 B( 17-C , 37-H ) :   0.9332
B( 18-C , 38-H ) :   0.9430 B( 18-C , 39-H ) :   0.9327 B( 18-C , 40-H ) :   0.9350

Dispersion correction           -0.066461062
FINAL SINGLE POINT ENERGY     -2929.518365941992

DIPOLE MOMENT
-------------

Method             : SCF
Type of density    : Electron Density
Multiplicity       :   1
Irrep              :   0
Energy             : -2929.6364660225012813 Eh
Relativity type    :
Basis              : AO
                                X                 Y                 Z
Electronic contribution:     -0.341144479      -0.455010034      -4.265632264
Nuclear contribution   :     -0.273424370      -0.324033020       5.120129780
                        -----------------------------------------
Total Dipole Moment    :     -0.614568850      -0.779043054       0.854497516
                        -----------------------------------------
Magnitude (a.u.)       :      1.309491869
Magnitude (Debye)      :      3.328463814

Rotational constants in cm-1:             0.012695             0.004976             0.004778
Rotational constants in MHz :           380.582519           149.167217           143.254744

                             ****ORCA TERMINATED NORMALLY****
TOTAL RUN TIME: 0 days 0 hours 0 minutes 21 seconds 174 msec
