                         Program Version 6.0.0  -   RELEASE  -
|  1> ! pbe def2-sv(p) def2/J RI DEFGRID1 loosescf d4 GCP(DFT/SV(P)) printgap
|  2> %output
|  3>     printlevel normal
|  4> end
|  5> * xyz 0 1
|  6> C 1.3816902738 -3.3155051563 -0.1186605584
|  7> C 2.6756211055 -2.528137626 -0.0937066042
|  8> O 2.4474635682 -1.2333581549 0.5019042444
|  9> P 2.7877218224 0.1623922348 -0.1958550597
| 10> S 3.2279427475 0.0703320512 -2.0980961015
| 11> O 3.9836060094 0.7706859068 0.6447768554
| 12> C 4.0122320036 0.7975369922 2.0950465224
| 13> C 3.581245186 2.151583402 2.6214375521
| 14> S 1.1156973977 1.3446153339 0.3273560768
| 15> C 0.0569209066 0.8865875072 -1.0704719981
| 16> S -0.929413699 -0.5979217367 -0.7880622761
| 17> P -2.8161150522 0.284592215 -0.2853107376
| 18> S -2.8747233563 2.239080279 -0.413931614
| 19> O -3.2511519163 -0.3188800909 1.121847367
| 20> C -2.8869153393 0.2772854861 2.3779023465
| 21> C -1.4532613034 -0.0316613356 2.7583016508
| 22> O -3.8525128334 -0.3957640391 -1.2603917416
| 23> C -4.4169966729 -1.7197045754 -1.0934235024
| 24> C -3.3626644911 -2.8054208558 -1.1104860624
| 25> H 0.9743675742 -3.3936938622 0.8848131126
| 26> H 0.6522913059 -2.8223124745 -0.7563164395
| 27> H 1.5815507686 -4.3094182955 -0.5052100902
| 28> H 3.0749435347 -2.3879945133 -1.1036678682
| 29> H 3.4274937823 -3.0197617973 0.5274260337
| 30> H 3.3727510747 -0.0007919844 2.4774008112
| 31> H 5.0545328395 0.5915625995 2.3448113619
| 32> H 2.5401847103 2.3468252202 2.3731398074
| 33> H 3.6978906605 2.164360651 3.7005319995
| 34> H 4.1960085862 2.9338997789 2.1849558876
| 35> H 0.6929426982 0.7061123641 -1.9383420359
| 36> H -0.6188500486 1.7276996408 -1.2398650234
| 37> H -3.0484796715 1.358112592 2.3125723786
| 38> H -3.5917031664 -0.1591855606 3.0876850843
| 39> H -0.7652747469 0.4758912696 2.0846609581
| 40> H -1.2695084001 0.3189914857 3.7686750822
| 41> H -1.2728635374 -1.102290417 2.7103286981
| 42> H -4.9789237892 -1.7343976283 -0.1577400509
| 43> H -5.1001216561 -1.8062695059 -1.9396493458
| 44> H -2.7795408094 -2.7560325711 -2.0263761727
| 45> H -2.6907592884 -2.6894467302 -0.2618533309
| 46> H -3.8492314467 -3.7737321798 -1.0475928955
| 47> *
| 48>
| 49>                          ****END OF INPUT****

CARTESIAN COORDINATES (ANGSTROEM)
---------------------------------
  C      1.381690   -3.315505   -0.118661
  C      2.675621   -2.528138   -0.093707
  O      2.447464   -1.233358    0.501904
  P      2.787722    0.162392   -0.195855
  S      3.227943    0.070332   -2.098096
  O      3.983606    0.770686    0.644777
  C      4.012232    0.797537    2.095047
  C      3.581245    2.151583    2.621438
  S      1.115697    1.344615    0.327356
  C      0.056921    0.886588   -1.070472
  S     -0.929414   -0.597922   -0.788062
  P     -2.816115    0.284592   -0.285311
  S     -2.874723    2.239080   -0.413932
  O     -3.251152   -0.318880    1.121847
  C     -2.886915    0.277285    2.377902
  C     -1.453261   -0.031661    2.758302
  O     -3.852513   -0.395764   -1.260392
  C     -4.416997   -1.719705   -1.093424
  C     -3.362664   -2.805421   -1.110486
  H      0.974368   -3.393694    0.884813
  H      0.652291   -2.822312   -0.756316
  H      1.581551   -4.309418   -0.505210
  H      3.074944   -2.387995   -1.103668
  H      3.427494   -3.019762    0.527426
  H      3.372751   -0.000792    2.477401
  H      5.054533    0.591563    2.344811
  H      2.540185    2.346825    2.373140
  H      3.697891    2.164361    3.700532
  H      4.196009    2.933900    2.184956
  H      0.692943    0.706112   -1.938342
  H     -0.618850    1.727700   -1.239865
  H     -3.048480    1.358113    2.312572
  H     -3.591703   -0.159186    3.087685
  H     -0.765275    0.475891    2.084661
  H     -1.269508    0.318991    3.768675
  H     -1.272864   -1.102290    2.710329
  H     -4.978924   -1.734398   -0.157740
  H     -5.100122   -1.806270   -1.939649
  H     -2.779541   -2.756033   -2.026376
  H     -2.690759   -2.689447   -0.261853
  H     -3.849231   -3.773732   -1.047593

 Total Charge           Charge          ....    0
 Multiplicity           Mult            ....    1
 Number of Electrons    NEL             ....  202
 Basis Dimension        Dim             ....  334

ORBITAL ENERGIES
----------------

  NO   OCC          E(Eh)            E(eV)
   0   2.0000     -88.043740     -2395.7920
   1   2.0000     -88.043305     -2395.7801
   2   2.0000     -87.990484     -2394.3428
   3   2.0000     -87.987535     -2394.2625
   4   2.0000     -76.429955     -2079.7648
   5   2.0000     -76.427146     -2079.6884
   6   2.0000     -18.797644      -511.5099
   7   2.0000     -18.794500      -511.4243
   8   2.0000     -18.793199      -511.3889
   9   2.0000     -18.791842      -511.3520
  10   2.0000      -9.961069      -271.0545
  11   2.0000      -9.960939      -271.0509
  12   2.0000      -9.955855      -270.9126
  13   2.0000      -9.952225      -270.8138
  14   2.0000      -9.948524      -270.7131
  15   2.0000      -9.894580      -269.2452
  16   2.0000      -9.891605      -269.1642
  17   2.0000      -9.884984      -268.9841
  18   2.0000      -9.884079      -268.9595
  19   2.0000      -7.688373      -209.2113
  20   2.0000      -7.687731      -209.1938
  21   2.0000      -7.635581      -207.7747
  22   2.0000      -7.632770      -207.6982
  23   2.0000      -6.427479      -174.9006
  24   2.0000      -6.425127      -174.8366
  25   2.0000      -5.716093      -155.5428
  26   2.0000      -5.715620      -155.5299
  27   2.0000      -5.712967      -155.4577
  28   2.0000      -5.712226      -155.4376
  29   2.0000      -5.705444      -155.2530
  30   2.0000      -5.704849      -155.2368
  31   2.0000      -5.664540      -154.1400
  32   2.0000      -5.661748      -154.0640
  33   2.0000      -5.656067      -153.9094
  34   2.0000      -5.655805      -153.9023
  35   2.0000      -5.653370      -153.8360
  36   2.0000      -5.652823      -153.8211
  37   2.0000      -4.650397      -126.5437
  38   2.0000      -4.648868      -126.5021
  39   2.0000      -4.648090      -126.4810
  40   2.0000      -4.647981      -126.4780
  41   2.0000      -4.646440      -126.4360
  42   2.0000      -4.645623      -126.4138
  43   2.0000      -0.992013       -26.9941
  44   2.0000      -0.986350       -26.8400
  45   2.0000      -0.947536       -25.7838
  46   2.0000      -0.944612       -25.7042
  47   2.0000      -0.762475       -20.7480
  48   2.0000      -0.725758       -19.7489
  49   2.0000      -0.714727       -19.4487
  50   2.0000      -0.695280       -18.9195
  51   2.0000      -0.693911       -18.8823
  52   2.0000      -0.679131       -18.4801
  53   2.0000      -0.652695       -17.7607
  54   2.0000      -0.638349       -17.3703
  55   2.0000      -0.603439       -16.4204
  56   2.0000      -0.590821       -16.0771
  57   2.0000      -0.583041       -15.8654
  58   2.0000      -0.579309       -15.7638
  59   2.0000      -0.554554       -15.0902
  60   2.0000      -0.508133       -13.8270
  61   2.0000      -0.499954       -13.6044
  62   2.0000      -0.480527       -13.0758
  63   2.0000      -0.475666       -12.9435
  64   2.0000      -0.459708       -12.5093
  65   2.0000      -0.452144       -12.3035
  66   2.0000      -0.448757       -12.2113
  67   2.0000      -0.436443       -11.8762
  68   2.0000      -0.433625       -11.7995
  69   2.0000      -0.429004       -11.6738
  70   2.0000      -0.409967       -11.1558
  71   2.0000      -0.401846       -10.9348
  72   2.0000      -0.390827       -10.6349
  73   2.0000      -0.386646       -10.5212
  74   2.0000      -0.376906       -10.2561
  75   2.0000      -0.375857       -10.2276
  76   2.0000      -0.369354       -10.0506
  77   2.0000      -0.364122        -9.9083
  78   2.0000      -0.360870        -9.8198
  79   2.0000      -0.356148        -9.6913
  80   2.0000      -0.353749        -9.6260
  81   2.0000      -0.351023        -9.5518
  82   2.0000      -0.344781        -9.3820
  83   2.0000      -0.342549        -9.3212
  84   2.0000      -0.336966        -9.1693
  85   2.0000      -0.320389        -8.7182
  86   2.0000      -0.312189        -8.4951
  87   2.0000      -0.304368        -8.2823
  88   2.0000      -0.301143        -8.1945
  89   2.0000      -0.298696        -8.1279
  90   2.0000      -0.285508        -7.7691
  91   2.0000      -0.277524        -7.5518
  92   2.0000      -0.274083        -7.4582
  93   2.0000      -0.270878        -7.3710
  94   2.0000      -0.257574        -7.0089
  95   2.0000      -0.231102        -6.2886
  96   2.0000      -0.221086        -6.0161
  97   2.0000      -0.212194        -5.7741
  98   2.0000      -0.206869        -5.6292
  99   2.0000      -0.204976        -5.5777
 100   2.0000      -0.200579        -5.4580
 101   0.0000      -0.042822        -1.1652
 102   0.0000      -0.033163        -0.9024
 103   0.0000      -0.014605        -0.3974
 104   0.0000       0.004272         0.1162
 105   0.0000       0.005586         0.1520

MULLIKEN ATOMIC CHARGES
-----------------------
   0 C :   -0.296356
   1 C :   -0.013911
   2 O :   -0.389920
   3 P :    0.620970
   4 S :   -0.306393
   5 O :   -0.363651
   6 C :   -0.027639
   7 C :   -0.300580
   8 S :   -0.104477
   9 C :   -0.342189
  10 S :   -0.119380
  11 P :    0.618620
  12 S :   -0.306805
  13 O :   -0.384929
  14 C :   -0.003490
  15 C :   -0.323555
  16 O :   -0.362423
  17 C :    0.008689
  18 C :   -0.338498
  19 H :    0.111681
  20 H :    0.134290
  21 H :    0.107717
  22 H :    0.113664
  23 H :    0.098840
  24 H :    0.111043
  25 H :    0.112487
  26 H :    0.135262
  27 H :    0.112150
  28 H :    0.126111
  29 H :    0.190528
  30 H :    0.197809
  31 H :    0.112393
  32 H :    0.103071
  33 H :    0.141347
  34 H :    0.108125
  35 H :    0.112923
  36 H :    0.110720
  37 H :    0.113709
  38 H :    0.132716
  39 H :    0.130985
  40 H :    0.118347
Sum of atomic charges:   -0.0000000

LOEWDIN ATOMIC CHARGES
----------------------
   0 C :   -0.359143
   1 C :   -0.118150
   2 O :   -0.258899
   3 P :    0.569881
   4 S :   -0.300331
   5 O :   -0.242934
   6 C :   -0.116096
   7 C :   -0.360930
   8 S :    0.095518
   9 C :   -0.491830
  10 S :    0.084860
  11 P :    0.572302
  12 S :   -0.295810
  13 O :   -0.247632
  14 C :   -0.117478
  15 C :   -0.371137
  16 O :   -0.239445
  17 C :   -0.107587
  18 C :   -0.372273
  19 H :    0.123818
  20 H :    0.117087
  21 H :    0.129103
  22 H :    0.107103
  23 H :    0.113037
  24 H :    0.111535
  25 H :    0.122419
  26 H :    0.119549
  27 H :    0.131297
  28 H :    0.131992
  29 H :    0.127550
  30 H :    0.128253
  31 H :    0.111113
  32 H :    0.117333
  33 H :    0.111608
  34 H :    0.129590
  35 H :    0.123883
  36 H :    0.115145
  37 H :    0.124320
  38 H :    0.129524
  39 H :    0.117879
  40 H :    0.133975

  Mayer bond orders larger than 0.100000
B(  0-C ,  1-C ) :   1.1668 B(  0-C , 19-H ) :   0.9498 B(  0-C , 20-H ) :   0.9359
B(  0-C , 21-H ) :   0.9385 B(  1-C ,  2-O ) :   0.9030 B(  1-C , 22-H ) :   0.9001
B(  1-C , 23-H ) :   0.9333 B(  2-O ,  3-P ) :   1.0774 B(  3-P ,  4-S ) :   1.6370
B(  3-P ,  5-O ) :   1.1360 B(  3-P ,  8-S ) :   0.9688 B(  4-S ,  8-S ) :   0.1000
B(  5-O ,  6-C ) :   0.9000 B(  6-C ,  7-C ) :   1.1668 B(  6-C , 24-H ) :   0.9164
B(  6-C , 25-H ) :   0.9341 B(  7-C , 26-H ) :   0.9341 B(  7-C , 27-H ) :   0.9382
B(  7-C , 28-H ) :   0.9460 B(  8-S ,  9-C ) :   1.0074 B(  9-C , 10-S ) :   1.0128
B(  9-C , 29-H ) :   0.8604 B(  9-C , 30-H ) :   0.8507 B( 10-S , 11-P ) :   0.9443
B( 10-S , 12-S ) :   0.1159 B( 11-P , 12-S ) :   1.6387 B( 11-P , 13-O ) :   1.0707
B( 11-P , 16-O ) :   1.1398 B( 12-S , 30-H ) :   0.1138 B( 13-O , 14-C ) :   0.9088
B( 14-C , 15-C ) :   1.1640 B( 14-C , 31-H ) :   0.9128 B( 14-C , 32-H ) :   0.9340
B( 15-C , 33-H ) :   0.9227 B( 15-C , 34-H ) :   0.9375 B( 15-C , 35-H ) :   0.9451
B( 16-O , 17-C ) :   0.9012 B( 17-C , 18-C ) :   1.1699 B( 17-C , 36-H ) :   0.9273
B( 17-C , 37-H ) :   0.9333 B( 18-C , 38-H ) :   0.9411 B( 18-C , 39-H ) :   0.9324
B( 18-C , 40-H ) :   0.9353

Dispersion correction           -0.062756701
FINAL SINGLE POINT ENERGY     -2929.515012161019

DIPOLE MOMENT
-------------

Method             : SCF
Type of density    : Electron Density
Multiplicity       :   1
Irrep              :   0
Energy             : -2929.6374522191167671 Eh
Relativity type    :
Basis              : AO
                                X                 Y                 Z
Electronic contribution:      0.397539857      15.058352848     -15.132932972
Nuclear contribution   :     -0.657209678     -16.765558577      16.930514410
                        -----------------------------------------
Total Dipole Moment    :     -0.259669821      -1.707205729       1.797581438
                        -----------------------------------------
Magnitude (a.u.)       :      2.492644950
Magnitude (Debye)      :      6.335799947

Rotational constants in cm-1:             0.011696             0.004646             0.004221
Rotational constants in MHz :           350.625408           139.291368           126.539073

                             ****ORCA TERMINATED NORMALLY****
TOTAL RUN TIME: 0 days 0 hours 0 minutes 20 seconds 882 msec
