                         Program Version 6.0.0  -   RELEASE  -
|  1> ! pbe def2-sv(p) def2/J RI DEFGRID1 loosescf d4 GCP(DFT/SV(P)) printgap
|  2> %output
|  3>     printlevel normal
|  4> end
|  5> * xyz 0 1
|  6> C 4.3679817617 1.8308856119 -1.5144322025
|  7> C 4.606010075 0.3458092048 -1.3353458893
|  8> O 3.3762226743 -0.3982651566 -1.1977924857
|  9> P 2.3172698456 -0.1863610505 -0.0387634777
| 10> S 1.0521245191 1.3135118001 -0.2210631271
| 11> O 3.2572960208 -0.0857503511 1.2400240865
| 12> C 2.772540732 0.391103349 2.5072644351
| 13> C 1.857271172 -0.612888341 3.1780253248
| 14> S 1.5127035991 -2.1398851078 -0.0174199248
| 15> C -0.1923548029 -1.8564743026 -0.5578966834
| 16> S -1.2422959281 -1.0978641442 0.7204267788
| 17> P -2.2490546591 0.3923637301 -0.432801728
| 18> S -1.8253209654 0.3947270012 -2.3463454603
| 19> O -2.0215497178 1.8272487871 0.1670453247
| 20> C -2.4932519775 2.3135847582 1.4473146206
| 21> C -1.7997057911 1.6367451116 2.6110564008
| 22> O -3.7754234196 0.1589381959 -0.0312284223
| 23> C -4.4656093216 -1.1022587874 -0.04756718
| 24> C -4.550721173 -1.7061088503 -1.4343767263
| 25> H 3.9072844285 2.2483434276 -0.6198901175
| 26> H 5.3149107605 2.3305219268 -1.6930712996
| 27> H 3.7027399598 2.0086352668 -2.3567600676
| 28> H 5.2224428792 0.1518491754 -0.4550373482
| 29> H 5.0695139732 -0.0943398482 -2.2198546451
| 30> H 3.6796634231 0.5613112155 3.0887800926
| 31> H 2.2531127706 1.3407284866 2.3403272773
| 32> H 1.6117223837 -0.2643119752 4.1759163727
| 33> H 0.935559784 -0.7246149244 2.6080984438
| 34> H 2.3450727731 -1.5818411647 3.2427512491
| 35> H -0.5837991988 -2.8459276833 -0.7809499373
| 36> H -0.21720008 -1.2134756688 -1.4420835339
| 37> H -2.2543734561 3.3776002321 1.4050630282
| 38> H -3.5750844489 2.1739470187 1.4909786666
| 39> H -0.7219089452 1.6847128077 2.4739514133
| 40> H -2.0671964078 2.1479909632 3.5302853708
| 41> H -2.0995292497 0.5927644767 2.6827559354
| 42> H -3.9575472814 -1.7824938955 0.6420772955
| 43> H -5.4563288173 -0.8554795358 0.3385007621
| 44> H -3.5556371952 -1.9477934646 -1.8043313801
| 45> H -5.1469445409 -2.6120120548 -1.3964838379
| 46> H -5.0064849636 -1.0021295049 -2.1264099944
| 47> *
| 48>
| 49>                          ****END OF INPUT****

CARTESIAN COORDINATES (ANGSTROEM)
---------------------------------
  C      4.367982    1.830886   -1.514432
  C      4.606010    0.345809   -1.335346
  O      3.376223   -0.398265   -1.197792
  P      2.317270   -0.186361   -0.038763
  S      1.052125    1.313512   -0.221063
  O      3.257296   -0.085750    1.240024
  C      2.772541    0.391103    2.507264
  C      1.857271   -0.612888    3.178025
  S      1.512704   -2.139885   -0.017420
  C     -0.192355   -1.856474   -0.557897
  S     -1.242296   -1.097864    0.720427
  P     -2.249055    0.392364   -0.432802
  S     -1.825321    0.394727   -2.346345
  O     -2.021550    1.827249    0.167045
  C     -2.493252    2.313585    1.447315
  C     -1.799706    1.636745    2.611056
  O     -3.775423    0.158938   -0.031228
  C     -4.465609   -1.102259   -0.047567
  C     -4.550721   -1.706109   -1.434377
  H      3.907284    2.248343   -0.619890
  H      5.314911    2.330522   -1.693071
  H      3.702740    2.008635   -2.356760
  H      5.222443    0.151849   -0.455037
  H      5.069514   -0.094340   -2.219855
  H      3.679663    0.561311    3.088780
  H      2.253113    1.340728    2.340327
  H      1.611722   -0.264312    4.175916
  H      0.935560   -0.724615    2.608098
  H      2.345073   -1.581841    3.242751
  H     -0.583799   -2.845928   -0.780950
  H     -0.217200   -1.213476   -1.442084
  H     -2.254373    3.377600    1.405063
  H     -3.575084    2.173947    1.490979
  H     -0.721909    1.684713    2.473951
  H     -2.067196    2.147991    3.530285
  H     -2.099529    0.592764    2.682756
  H     -3.957547   -1.782494    0.642077
  H     -5.456329   -0.855480    0.338501
  H     -3.555637   -1.947793   -1.804331
  H     -5.146945   -2.612012   -1.396484
  H     -5.006485   -1.002130   -2.126410

 Total Charge           Charge          ....    0
 Multiplicity           Mult            ....    1
 Number of Electrons    NEL             ....  202
 Basis Dimension        Dim             ....  334

ORBITAL ENERGIES
----------------

  NO   OCC          E(Eh)            E(eV)
   0   2.0000     -88.041417     -2395.7288
   1   2.0000     -88.040561     -2395.7055
   2   2.0000     -87.982124     -2394.1153
   3   2.0000     -87.975737     -2393.9415
   4   2.0000     -76.422853     -2079.5715
   5   2.0000     -76.422361     -2079.5582
   6   2.0000     -18.791947      -511.3549
   7   2.0000     -18.787990      -511.2472
   8   2.0000     -18.786208      -511.1987
   9   2.0000     -18.784596      -511.1548
  10   2.0000      -9.953235      -270.8413
  11   2.0000      -9.952629      -270.8248
  12   2.0000      -9.952166      -270.8122
  13   2.0000      -9.951873      -270.8042
  14   2.0000      -9.951236      -270.7869
  15   2.0000      -9.886925      -269.0369
  16   2.0000      -9.882379      -268.9132
  17   2.0000      -9.879912      -268.8461
  18   2.0000      -9.879575      -268.8369
  19   2.0000      -7.686753      -209.1672
  20   2.0000      -7.684434      -209.1041
  21   2.0000      -7.626540      -207.5287
  22   2.0000      -7.621013      -207.3783
  23   2.0000      -6.420236      -174.7035
  24   2.0000      -6.418969      -174.6690
  25   2.0000      -5.714694      -155.5047
  26   2.0000      -5.712287      -155.4392
  27   2.0000      -5.711149      -155.4083
  28   2.0000      -5.708951      -155.3485
  29   2.0000      -5.703705      -155.2057
  30   2.0000      -5.701621      -155.1490
  31   2.0000      -5.655396      -153.8912
  32   2.0000      -5.650132      -153.7479
  33   2.0000      -5.647213      -153.6685
  34   2.0000      -5.646825      -153.6579
  35   2.0000      -5.641533      -153.5139
  36   2.0000      -5.641000      -153.4994
  37   2.0000      -4.643120      -126.3457
  38   2.0000      -4.641829      -126.3106
  39   2.0000      -4.641788      -126.3095
  40   2.0000      -4.640849      -126.2839
  41   2.0000      -4.640619      -126.2777
  42   2.0000      -4.639196      -126.2389
  43   2.0000      -0.985244       -26.8098
  44   2.0000      -0.983518       -26.7629
  45   2.0000      -0.941303       -25.6142
  46   2.0000      -0.938286       -25.5321
  47   2.0000      -0.758173       -20.6309
  48   2.0000      -0.718356       -19.5475
  49   2.0000      -0.708108       -19.2686
  50   2.0000      -0.687585       -18.7101
  51   2.0000      -0.686675       -18.6854
  52   2.0000      -0.673720       -18.3328
  53   2.0000      -0.649483       -17.6733
  54   2.0000      -0.631533       -17.1849
  55   2.0000      -0.594284       -16.1713
  56   2.0000      -0.585563       -15.9340
  57   2.0000      -0.578253       -15.7351
  58   2.0000      -0.575318       -15.6552
  59   2.0000      -0.558432       -15.1957
  60   2.0000      -0.496466       -13.5095
  61   2.0000      -0.493958       -13.4413
  62   2.0000      -0.468927       -12.7601
  63   2.0000      -0.468134       -12.7386
  64   2.0000      -0.451466       -12.2850
  65   2.0000      -0.447393       -12.1742
  66   2.0000      -0.438013       -11.9189
  67   2.0000      -0.430310       -11.7093
  68   2.0000      -0.425683       -11.5834
  69   2.0000      -0.418519       -11.3885
  70   2.0000      -0.408640       -11.1197
  71   2.0000      -0.404990       -11.0203
  72   2.0000      -0.402883       -10.9630
  73   2.0000      -0.390115       -10.6156
  74   2.0000      -0.375866       -10.2278
  75   2.0000      -0.368084       -10.0161
  76   2.0000      -0.353995        -9.6327
  77   2.0000      -0.353142        -9.6095
  78   2.0000      -0.351034        -9.5521
  79   2.0000      -0.348087        -9.4719
  80   2.0000      -0.345312        -9.3964
  81   2.0000      -0.341540        -9.2938
  82   2.0000      -0.339089        -9.2271
  83   2.0000      -0.334963        -9.1148
  84   2.0000      -0.332854        -9.0574
  85   2.0000      -0.316713        -8.6182
  86   2.0000      -0.310770        -8.4565
  87   2.0000      -0.296156        -8.0588
  88   2.0000      -0.291828        -7.9410
  89   2.0000      -0.287816        -7.8319
  90   2.0000      -0.285712        -7.7746
  91   2.0000      -0.273964        -7.4549
  92   2.0000      -0.272066        -7.4033
  93   2.0000      -0.259282        -7.0554
  94   2.0000      -0.254271        -6.9191
  95   2.0000      -0.233779        -6.3615
  96   2.0000      -0.219308        -5.9677
  97   2.0000      -0.208757        -5.6806
  98   2.0000      -0.194253        -5.2859
  99   2.0000      -0.188794        -5.1374
 100   2.0000      -0.182272        -4.9599
 101   0.0000      -0.038432        -1.0458
 102   0.0000      -0.031968        -0.8699
 103   0.0000      -0.013790        -0.3752
 104   0.0000       0.005241         0.1426
 105   0.0000       0.014741         0.4011

MULLIKEN ATOMIC CHARGES
-----------------------
   0 C :   -0.313625
   1 C :    0.000778
   2 O :   -0.370921
   3 P :    0.617853
   4 S :   -0.304678
   5 O :   -0.382375
   6 C :   -0.009076
   7 C :   -0.330437
   8 S :   -0.099360
   9 C :   -0.328707
  10 S :   -0.136564
  11 P :    0.628488
  12 S :   -0.296205
  13 O :   -0.350131
  14 C :    0.002646
  15 C :   -0.336856
  16 O :   -0.384476
  17 C :   -0.005516
  18 C :   -0.304600
  19 H :    0.125299
  20 H :    0.107833
  21 H :    0.128544
  22 H :    0.107156
  23 H :    0.107820
  24 H :    0.101719
  25 H :    0.112054
  26 H :    0.108798
  27 H :    0.150231
  28 H :    0.116196
  29 H :    0.177668
  30 H :    0.205068
  31 H :    0.110395
  32 H :    0.109400
  33 H :    0.141232
  34 H :    0.111532
  35 H :    0.124297
  36 H :    0.104644
  37 H :    0.102810
  38 H :    0.120298
  39 H :    0.107163
  40 H :    0.123602
Sum of atomic charges:   -0.0000000

LOEWDIN ATOMIC CHARGES
----------------------
   0 C :   -0.367328
   1 C :   -0.109687
   2 O :   -0.245772
   3 P :    0.563392
   4 S :   -0.292820
   5 O :   -0.247792
   6 C :   -0.120318
   7 C :   -0.372224
   8 S :    0.089867
   9 C :   -0.480827
  10 S :    0.069796
  11 P :    0.571812
  12 S :   -0.291181
  13 O :   -0.225735
  14 C :   -0.108109
  15 C :   -0.370214
  16 O :   -0.249973
  17 C :   -0.120285
  18 C :   -0.367508
  19 H :    0.121055
  20 H :    0.127963
  21 H :    0.131899
  22 H :    0.112198
  23 H :    0.120818
  24 H :    0.116747
  25 H :    0.106675
  26 H :    0.129220
  27 H :    0.116541
  28 H :    0.125369
  29 H :    0.134329
  30 H :    0.125065
  31 H :    0.123291
  32 H :    0.112981
  33 H :    0.129029
  34 H :    0.130308
  35 H :    0.114967
  36 H :    0.101850
  37 H :    0.117679
  38 H :    0.119036
  39 H :    0.127803
  40 H :    0.130082

  Mayer bond orders larger than 0.100000
B(  0-C ,  1-C ) :   1.1663 B(  0-C , 19-H ) :   0.9363 B(  0-C , 20-H ) :   0.9359
B(  0-C , 21-H ) :   0.9447 B(  1-C ,  2-O ) :   0.9098 B(  1-C , 22-H ) :   0.9299
B(  1-C , 23-H ) :   0.9353 B(  2-O ,  3-P ) :   1.1299 B(  3-P ,  4-S ) :   1.6325
B(  3-P ,  5-O ) :   1.0777 B(  3-P ,  8-S ) :   0.9556 B(  4-S ,  8-S ) :   0.1220
B(  5-O ,  6-C ) :   0.9109 B(  6-C ,  7-C ) :   1.1685 B(  6-C , 24-H ) :   0.9326
B(  6-C , 25-H ) :   0.9108 B(  7-C , 26-H ) :   0.9379 B(  7-C , 27-H ) :   0.9231
B(  7-C , 28-H ) :   0.9436 B(  8-S ,  9-C ) :   1.0026 B(  9-C , 10-S ) :   0.9893
B(  9-C , 29-H ) :   0.9093 B(  9-C , 30-H ) :   0.8455 B( 10-S , 11-P ) :   0.9260
B( 10-S , 12-S ) :   0.1188 B( 11-P , 12-S ) :   1.6379 B( 11-P , 13-O ) :   1.1383
B( 11-P , 16-O ) :   1.0670 B( 12-S , 30-H ) :   0.1207 B( 13-O , 14-C ) :   0.9029
B( 14-C , 15-C ) :   1.1677 B( 14-C , 31-H ) :   0.9335 B( 14-C , 32-H ) :   0.9262
B( 15-C , 33-H ) :   0.9339 B( 15-C , 34-H ) :   0.9359 B( 15-C , 35-H ) :   0.9360
B( 16-O , 17-C ) :   0.9208 B( 17-C , 18-C ) :   1.1649 B( 17-C , 36-H ) :   0.9172
B( 17-C , 37-H ) :   0.9334 B( 18-C , 38-H ) :   0.9333 B( 18-C , 39-H ) :   0.9364
B( 18-C , 40-H ) :   0.9454

Dispersion correction           -0.066803311
FINAL SINGLE POINT ENERGY     -2929.512092379360

DIPOLE MOMENT
-------------

Method             : SCF
Type of density    : Electron Density
Multiplicity       :   1
Irrep              :   0
Energy             : -2929.6299953332877521 Eh
Relativity type    :
Basis              : AO
                                X                 Y                 Z
Electronic contribution:      0.721515330      -3.642212468     -11.206465529
Nuclear contribution   :     -0.596920662       3.348050903      12.791094823
                        -----------------------------------------
Total Dipole Moment    :      0.124594668      -0.294161565       1.584629294
                        -----------------------------------------
Magnitude (a.u.)       :      1.616510085
Magnitude (Debye)      :      4.108842102

Rotational constants in cm-1:             0.012543             0.005055             0.004839
Rotational constants in MHz :           376.025492           151.554107           145.080817

                             ****ORCA TERMINATED NORMALLY****
TOTAL RUN TIME: 0 days 0 hours 0 minutes 21 seconds 397 msec
