                         Program Version 6.0.1  -  RELEASE   -
|  1> ! r2scan-3c def2/J RI DEFGRID2 scfconv6 printgap
|  2> %output
|  3>     printlevel normal
|  4> end
|  5> * xyz 0 1
|  6> C 2.4677596361 -2.9688073799 0.4022978989
|  7> C 3.2124736801 -2.6803879225 -0.8918732391
|  8> O 2.385208021 -1.8982879633 -1.7756654783
|  9> C 2.3591307624 -0.5944506888 -1.6182975737
| 10> O 3.0537155107 0.0250151056 -0.8399165902
| 11> C 1.3026885843 0.0561827483 -2.4914072355
| 12> C 0.1839672469 0.5452404026 -1.5638554283
| 13> H -0.5690778196 1.0905102602 -2.1389712889
| 14> C 0.7821089682 1.4975267644 -0.5416771368
| 15> O 1.1960762881 2.587686743 -0.8607861835
| 16> O 0.8286101221 1.005711131 0.6797893605
| 17> C 1.4933417426 1.8180880887 1.6700698577
| 18> C 1.5203653059 1.0672616255 2.9847454894
| 19> S -0.6153698604 -0.8913213864 -0.7767259443
| 20> P -1.905685178 0.1579701384 0.5450654106
| 21> S -2.204399524 2.0562155937 0.1556321003
| 22> O -3.2324059858 -0.7369829671 0.5039044897
| 23> C -4.0624386875 -0.7846608851 -0.6618624719
| 24> O -1.4315003328 -0.120525393 2.0234656415
| 25> C -1.2336295437 -1.466074275 2.5082717575
| 26> H 1.5278918954 -3.4685212892 0.1839499121
| 27> H 3.077436412 -3.6011762043 1.0387020442
| 28> H 2.2592374108 -2.0361458487 0.9228439694
| 29> H 3.4200634371 -3.5942644625 -1.4475101374
| 30> H 4.1375108468 -2.1301491519 -0.6973502945
| 31> H 0.914136025 -0.6668496878 -3.2062812926
| 32> H 1.7314611974 0.9215147971 -2.9985730411
| 33> H 2.4997952034 2.0234814275 1.2917047206
| 34> H 0.9478679053 2.764196139 1.7481682613
| 35> H 2.0203135929 0.1114940379 2.8573732314
| 36> H 2.0620170952 1.6595473654 3.7145827242
| 37> H 0.5069427125 0.9016226582 3.3373289325
| 38> H -3.5614376391 -1.346904571 -1.4496987704
| 39> H -4.284787303 0.2264875116 -1.0062162971
| 40> H -4.9741232234 -1.2881995841 -0.3508657507
| 41> H -2.179551474 -2.0031867098 2.5040387006
| 42> H -0.8566031683 -1.3544497691 3.5213088784
| 43> H -0.5066872478 -1.981402207 1.8808117771
| 44> *
| 45>
| 46>                          ****END OF INPUT****

CARTESIAN COORDINATES (ANGSTROEM)
---------------------------------
  C      2.467760   -2.968807    0.402298
  C      3.212474   -2.680388   -0.891873
  O      2.385208   -1.898288   -1.775665
  C      2.359131   -0.594451   -1.618298
  O      3.053716    0.025015   -0.839917
  C      1.302689    0.056183   -2.491407
  C      0.183967    0.545240   -1.563855
  H     -0.569078    1.090510   -2.138971
  C      0.782109    1.497527   -0.541677
  O      1.196076    2.587687   -0.860786
  O      0.828610    1.005711    0.679789
  C      1.493342    1.818088    1.670070
  C      1.520365    1.067262    2.984745
  S     -0.615370   -0.891321   -0.776726
  P     -1.905685    0.157970    0.545065
  S     -2.204400    2.056216    0.155632
  O     -3.232406   -0.736983    0.503904
  C     -4.062439   -0.784661   -0.661862
  O     -1.431500   -0.120525    2.023466
  C     -1.233630   -1.466074    2.508272
  H      1.527892   -3.468521    0.183950
  H      3.077436   -3.601176    1.038702
  H      2.259237   -2.036146    0.922844
  H      3.420063   -3.594264   -1.447510
  H      4.137511   -2.130149   -0.697350
  H      0.914136   -0.666850   -3.206281
  H      1.731461    0.921515   -2.998573
  H      2.499795    2.023481    1.291705
  H      0.947868    2.764196    1.748168
  H      2.020314    0.111494    2.857373
  H      2.062017    1.659547    3.714583
  H      0.506943    0.901623    3.337329
  H     -3.561438   -1.346905   -1.449699
  H     -4.284787    0.226488   -1.006216
  H     -4.974123   -1.288200   -0.350866
  H     -2.179551   -2.003187    2.504039
  H     -0.856603   -1.354450    3.521309
  H     -0.506687   -1.981402    1.880812

 Total Charge           Charge          ....    0
 Multiplicity           Mult            ....    1
 Number of Electrons    NEL             ....  174
 Basis Dimension        Dim             ....  510

ORBITAL ENERGIES
----------------

  NO   OCC          E(Eh)            E(eV)
   0   2.0000     -88.576674     -2410.2938
   1   2.0000     -88.520211     -2408.7574
   2   2.0000     -76.916295     -2092.9988
   3   2.0000     -19.010294      -517.2964
   4   2.0000     -18.998478      -516.9749
   5   2.0000     -18.994190      -516.8582
   6   2.0000     -18.993025      -516.8265
   7   2.0000     -18.939304      -515.3647
   8   2.0000     -18.924346      -514.9576
   9   2.0000     -10.165398      -276.6145
  10   2.0000     -10.154078      -276.3065
  11   2.0000     -10.102538      -274.9040
  12   2.0000     -10.101098      -274.8648
  13   2.0000     -10.099133      -274.8114
  14   2.0000     -10.094451      -274.6840
  15   2.0000     -10.082709      -274.3645
  16   2.0000     -10.066084      -273.9121
  17   2.0000     -10.036651      -273.1111
  18   2.0000     -10.025341      -272.8034
  19   2.0000      -7.871203      -214.1863
  20   2.0000      -7.814716      -212.6492
  21   2.0000      -6.594611      -179.4485
  22   2.0000      -5.817956      -158.3146
  23   2.0000      -5.815038      -158.2352
  24   2.0000      -5.808414      -158.0550
  25   2.0000      -5.762637      -156.8093
  26   2.0000      -5.754913      -156.5992
  27   2.0000      -5.754584      -156.5902
  28   2.0000      -4.740345      -128.9914
  29   2.0000      -4.739666      -128.9729
  30   2.0000      -4.738051      -128.9289
  31   2.0000      -1.087401       -29.5897
  32   2.0000      -1.071755       -29.1639
  33   2.0000      -1.054956       -28.7068
  34   2.0000      -1.012406       -27.5490
  35   2.0000      -0.989044       -26.9133
  36   2.0000      -0.974485       -26.5171
  37   2.0000      -0.815220       -22.1833
  38   2.0000      -0.759474       -20.6663
  39   2.0000      -0.737951       -20.0807
  40   2.0000      -0.736996       -20.0547
  41   2.0000      -0.700195       -19.0533
  42   2.0000      -0.680412       -18.5149
  43   2.0000      -0.659922       -17.9574
  44   2.0000      -0.650475       -17.7003
  45   2.0000      -0.629275       -17.1234
  46   2.0000      -0.593542       -16.1511
  47   2.0000      -0.544558       -14.8182
  48   2.0000      -0.536352       -14.5949
  49   2.0000      -0.526793       -14.3348
  50   2.0000      -0.499413       -13.5897
  51   2.0000      -0.495812       -13.4917
  52   2.0000      -0.489426       -13.3179
  53   2.0000      -0.471462       -12.8291
  54   2.0000      -0.459178       -12.4949
  55   2.0000      -0.455823       -12.4036
  56   2.0000      -0.447907       -12.1882
  57   2.0000      -0.439344       -11.9552
  58   2.0000      -0.437151       -11.8955
  59   2.0000      -0.429282       -11.6814
  60   2.0000      -0.425776       -11.5860
  61   2.0000      -0.422292       -11.4912
  62   2.0000      -0.408906       -11.1269
  63   2.0000      -0.405353       -11.0302
  64   2.0000      -0.394035       -10.7222
  65   2.0000      -0.380269       -10.3476
  66   2.0000      -0.371194       -10.1007
  67   2.0000      -0.369845       -10.0640
  68   2.0000      -0.363792        -9.8993
  69   2.0000      -0.355055        -9.6615
  70   2.0000      -0.351949        -9.5770
  71   2.0000      -0.347511        -9.4563
  72   2.0000      -0.339269        -9.2320
  73   2.0000      -0.329540        -8.9672
  74   2.0000      -0.322538        -8.7767
  75   2.0000      -0.319417        -8.6918
  76   2.0000      -0.314941        -8.5700
  77   2.0000      -0.313693        -8.5360
  78   2.0000      -0.291018        -7.9190
  79   2.0000      -0.284716        -7.7475
  80   2.0000      -0.279087        -7.5944
  81   2.0000      -0.265265        -7.2182
  82   2.0000      -0.251697        -6.8490
  83   2.0000      -0.246749        -6.7144
  84   2.0000      -0.224681        -6.1139
  85   2.0000      -0.218336        -5.9412
  86   2.0000      -0.216314        -5.8862
  87   0.0000      -0.042302        -1.1511
  88   0.0000      -0.031760        -0.8642
  89   0.0000      -0.012050        -0.3279
  90   0.0000       0.002645         0.0720
  91   0.0000       0.011499         0.3129

MULLIKEN ATOMIC CHARGES
-----------------------
   0 C :   -0.483852
   1 C :   -0.129957
   2 O :   -0.153989
   3 C :    0.334487
   4 O :   -0.362765
   5 C :   -0.420594
   6 C :    0.027805
   7 H :    0.236028
   8 C :    0.181162
   9 O :   -0.357914
  10 O :   -0.118774
  11 C :   -0.129883
  12 C :   -0.486229
  13 S :   -0.219237
  14 P :    0.768647
  15 S :   -0.418561
  16 O :   -0.349428
  17 C :   -0.298443
  18 O :   -0.308149
  19 C :   -0.295045
  20 H :    0.155761
  21 H :    0.149249
  22 H :    0.177632
  23 H :    0.151552
  24 H :    0.171140
  25 H :    0.181614
  26 H :    0.208716
  27 H :    0.173194
  28 H :    0.165791
  29 H :    0.150621
  30 H :    0.147408
  31 H :    0.165106
  32 H :    0.158494
  33 H :    0.175695
  34 H :    0.152345
  35 H :    0.170718
  36 H :    0.160280
  37 H :    0.169375
Sum of atomic charges:   -0.0000000

LOEWDIN ATOMIC CHARGES
----------------------
   0 C :   -0.394705
   1 C :    0.032308
   2 O :   -0.585236
   3 C :    0.351724
   4 O :   -0.415360
   5 C :   -0.197298
   6 C :   -0.191828
   7 H :    0.203551
   8 C :    0.317106
   9 O :   -0.399960
  10 O :   -0.624855
  11 C :    0.040822
  12 C :   -0.387665
  13 S :    0.203190
  14 P :    0.400112
  15 S :   -0.051696
  16 O :   -0.686255
  17 C :   -0.059873
  18 O :   -0.653886
  19 C :   -0.054610
  20 H :    0.158871
  21 H :    0.158706
  22 H :    0.167210
  23 H :    0.179638
  24 H :    0.189097
  25 H :    0.185533
  26 H :    0.200322
  27 H :    0.190406
  28 H :    0.186808
  29 H :    0.157881
  30 H :    0.159614
  31 H :    0.167066
  32 H :    0.168926
  33 H :    0.176896
  34 H :    0.177382
  35 H :    0.175936
  36 H :    0.180465
  37 H :    0.173656

  Mayer bond orders larger than 0.100000
B(  0-C ,  1-C ) :   0.9284 B(  0-C , 20-H ) :   0.9688 B(  0-C , 21-H ) :   0.9629
B(  0-C , 22-H ) :   0.9692 B(  1-C ,  2-O ) :   0.8149 B(  1-C , 23-H ) :   0.9615
B(  1-C , 24-H ) :   0.9706 B(  2-O ,  3-C ) :   1.0693 B(  3-C ,  4-O ) :   1.8060
B(  3-C ,  5-C ) :   0.9280 B(  4-O ,  8-C ) :   0.1231 B(  5-C ,  6-C ) :   0.8574
B(  5-C , 25-H ) :   0.9824 B(  5-C , 26-H ) :   0.9606 B(  6-C ,  7-H ) :   0.9252
B(  6-C ,  8-C ) :   0.8828 B(  6-C , 13-S ) :   0.8817 B(  8-C ,  9-O ) :   1.8440
B(  8-C , 10-O ) :   1.1005 B( 10-O , 11-C ) :   0.8057 B( 11-C , 12-C ) :   0.9236
B( 11-C , 27-H ) :   0.9540 B( 11-C , 28-H ) :   0.9500 B( 12-C , 29-H ) :   0.9769
B( 12-C , 30-H ) :   0.9666 B( 12-C , 31-H ) :   0.9670 B( 13-S , 14-P ) :   0.9807
B( 14-P , 15-S ) :   1.7973 B( 14-P , 16-O ) :   1.0284 B( 14-P , 18-O ) :   1.1490
B( 16-O , 17-C ) :   0.8314 B( 17-C , 32-H ) :   0.9565 B( 17-C , 33-H ) :   0.9590
B( 17-C , 34-H ) :   0.9673 B( 18-O , 19-C ) :   0.7896 B( 19-C , 35-H ) :   0.9588
B( 19-C , 36-H ) :   0.9638 B( 19-C , 37-H ) :   0.9576

Dispersion correction           -0.018711237
FINAL SINGLE POINT ENERGY     -1981.453111348051

DIPOLE MOMENT
-------------

Method             : SCF
Type of density    : Electron Density
Multiplicity       :   1
Irrep              :   0
Energy             : -1981.4716505112655796 Eh
Relativity type    :
Basis              : AO
                                X                 Y                 Z
Electronic contribution:     -9.539692775      10.636598782      -8.369979233
Nuclear contribution   :      9.492951364     -13.082960651       8.632251116
                        -----------------------------------------
Total Dipole Moment    :     -0.046741410      -2.446361869       0.262271882
                        -----------------------------------------
Magnitude (a.u.)       :      2.460824596
Magnitude (Debye)      :      6.254919037

Rotational constants in cm-1:             0.013336             0.007902             0.007429
Rotational constants in MHz :           399.803008           236.906772           222.703751

                             ****ORCA TERMINATED NORMALLY****
TOTAL RUN TIME: 0 days 0 hours 1 minutes 41 seconds 875 msec
