                         Program Version 6.0.1  -  RELEASE   -
|  1> ! r2scan-3c def2/J RI DEFGRID2 scfconv6 printgap
|  2> %output
|  3>     printlevel normal
|  4> end
|  5> %cpcm
|  6>     smd true
|  7>     smdsolvent "water"
|  8> end
|  9> * xyz 0 1
| 10> C 2.4677596361 -2.9688073799 0.4022978989
| 11> C 3.2124736801 -2.6803879225 -0.8918732391
| 12> O 2.385208021 -1.8982879633 -1.7756654783
| 13> C 2.3591307624 -0.5944506888 -1.6182975737
| 14> O 3.0537155107 0.0250151056 -0.8399165902
| 15> C 1.3026885843 0.0561827483 -2.4914072355
| 16> C 0.1839672469 0.5452404026 -1.5638554283
| 17> H -0.5690778196 1.0905102602 -2.1389712889
| 18> C 0.7821089682 1.4975267644 -0.5416771368
| 19> O 1.1960762881 2.587686743 -0.8607861835
| 20> O 0.8286101221 1.005711131 0.6797893605
| 21> C 1.4933417426 1.8180880887 1.6700698577
| 22> C 1.5203653059 1.0672616255 2.9847454894
| 23> S -0.6153698604 -0.8913213864 -0.7767259443
| 24> P -1.905685178 0.1579701384 0.5450654106
| 25> S -2.204399524 2.0562155937 0.1556321003
| 26> O -3.2324059858 -0.7369829671 0.5039044897
| 27> C -4.0624386875 -0.7846608851 -0.6618624719
| 28> O -1.4315003328 -0.120525393 2.0234656415
| 29> C -1.2336295437 -1.466074275 2.5082717575
| 30> H 1.5278918954 -3.4685212892 0.1839499121
| 31> H 3.077436412 -3.6011762043 1.0387020442
| 32> H 2.2592374108 -2.0361458487 0.9228439694
| 33> H 3.4200634371 -3.5942644625 -1.4475101374
| 34> H 4.1375108468 -2.1301491519 -0.6973502945
| 35> H 0.914136025 -0.6668496878 -3.2062812926
| 36> H 1.7314611974 0.9215147971 -2.9985730411
| 37> H 2.4997952034 2.0234814275 1.2917047206
| 38> H 0.9478679053 2.764196139 1.7481682613
| 39> H 2.0203135929 0.1114940379 2.8573732314
| 40> H 2.0620170952 1.6595473654 3.7145827242
| 41> H 0.5069427125 0.9016226582 3.3373289325
| 42> H -3.5614376391 -1.346904571 -1.4496987704
| 43> H -4.284787303 0.2264875116 -1.0062162971
| 44> H -4.9741232234 -1.2881995841 -0.3508657507
| 45> H -2.179551474 -2.0031867098 2.5040387006
| 46> H -0.8566031683 -1.3544497691 3.5213088784
| 47> H -0.5066872478 -1.981402207 1.8808117771
| 48> *
| 49>
| 50>                          ****END OF INPUT****

CARTESIAN COORDINATES (ANGSTROEM)
---------------------------------
  C      2.467760   -2.968807    0.402298
  C      3.212474   -2.680388   -0.891873
  O      2.385208   -1.898288   -1.775665
  C      2.359131   -0.594451   -1.618298
  O      3.053716    0.025015   -0.839917
  C      1.302689    0.056183   -2.491407
  C      0.183967    0.545240   -1.563855
  H     -0.569078    1.090510   -2.138971
  C      0.782109    1.497527   -0.541677
  O      1.196076    2.587687   -0.860786
  O      0.828610    1.005711    0.679789
  C      1.493342    1.818088    1.670070
  C      1.520365    1.067262    2.984745
  S     -0.615370   -0.891321   -0.776726
  P     -1.905685    0.157970    0.545065
  S     -2.204400    2.056216    0.155632
  O     -3.232406   -0.736983    0.503904
  C     -4.062439   -0.784661   -0.661862
  O     -1.431500   -0.120525    2.023466
  C     -1.233630   -1.466074    2.508272
  H      1.527892   -3.468521    0.183950
  H      3.077436   -3.601176    1.038702
  H      2.259237   -2.036146    0.922844
  H      3.420063   -3.594264   -1.447510
  H      4.137511   -2.130149   -0.697350
  H      0.914136   -0.666850   -3.206281
  H      1.731461    0.921515   -2.998573
  H      2.499795    2.023481    1.291705
  H      0.947868    2.764196    1.748168
  H      2.020314    0.111494    2.857373
  H      2.062017    1.659547    3.714583
  H      0.506943    0.901623    3.337329
  H     -3.561438   -1.346905   -1.449699
  H     -4.284787    0.226488   -1.006216
  H     -4.974123   -1.288200   -0.350866
  H     -2.179551   -2.003187    2.504039
  H     -0.856603   -1.354450    3.521309
  H     -0.506687   -1.981402    1.880812

 Total Charge           Charge          ....    0
 Multiplicity           Mult            ....    1
 Number of Electrons    NEL             ....  174
 Basis Dimension        Dim             ....  510

ORBITAL ENERGIES
----------------

  NO   OCC          E(Eh)            E(eV)
   0   2.0000     -88.579776     -2410.3782
   1   2.0000     -88.531860     -2409.0744
   2   2.0000     -76.922258     -2093.1611
   3   2.0000     -19.011472      -517.3285
   4   2.0000     -19.008974      -517.2605
   5   2.0000     -18.999512      -517.0030
   6   2.0000     -18.995233      -516.8866
   7   2.0000     -18.951154      -515.6871
   8   2.0000     -18.950404      -515.6667
   9   2.0000     -10.175201      -276.8813
  10   2.0000     -10.172734      -276.8142
  11   2.0000     -10.102285      -274.8971
  12   2.0000     -10.087059      -274.4828
  13   2.0000     -10.086943      -274.4797
  14   2.0000     -10.085914      -274.4517
  15   2.0000     -10.082098      -274.3478
  16   2.0000     -10.061990      -273.8007
  17   2.0000     -10.019780      -272.6521
  18   2.0000     -10.019143      -272.6347
  19   2.0000      -7.874226      -214.2686
  20   2.0000      -7.826795      -212.9779
  21   2.0000      -6.600660      -179.6131
  22   2.0000      -5.821060      -158.3991
  23   2.0000      -5.818122      -158.3192
  24   2.0000      -5.811298      -158.1335
  25   2.0000      -5.774559      -157.1337
  26   2.0000      -5.767009      -156.9283
  27   2.0000      -5.766718      -156.9204
  28   2.0000      -4.746321      -129.1540
  29   2.0000      -4.745664      -129.1361
  30   2.0000      -4.744270      -129.0982
  31   2.0000      -1.092396       -29.7256
  32   2.0000      -1.087892       -29.6031
  33   2.0000      -1.055830       -28.7306
  34   2.0000      -1.012356       -27.5476
  35   2.0000      -0.999135       -27.1878
  36   2.0000      -0.998315       -27.1655
  37   2.0000      -0.818282       -22.2666
  38   2.0000      -0.753922       -20.5153
  39   2.0000      -0.740046       -20.1377
  40   2.0000      -0.733142       -19.9498
  41   2.0000      -0.696180       -18.9440
  42   2.0000      -0.671753       -18.2793
  43   2.0000      -0.661187       -17.9918
  44   2.0000      -0.651748       -17.7350
  45   2.0000      -0.625468       -17.0198
  46   2.0000      -0.592976       -16.1357
  47   2.0000      -0.544125       -14.8064
  48   2.0000      -0.537116       -14.6157
  49   2.0000      -0.525428       -14.2976
  50   2.0000      -0.501380       -13.6432
  51   2.0000      -0.493565       -13.4306
  52   2.0000      -0.491549       -13.3757
  53   2.0000      -0.470056       -12.7909
  54   2.0000      -0.467120       -12.7110
  55   2.0000      -0.456631       -12.4256
  56   2.0000      -0.451893       -12.2966
  57   2.0000      -0.447430       -12.1752
  58   2.0000      -0.441020       -12.0008
  59   2.0000      -0.428722       -11.6661
  60   2.0000      -0.421553       -11.4710
  61   2.0000      -0.411932       -11.2092
  62   2.0000      -0.407928       -11.1003
  63   2.0000      -0.404213       -10.9992
  64   2.0000      -0.393608       -10.7106
  65   2.0000      -0.376173       -10.2362
  66   2.0000      -0.374443       -10.1891
  67   2.0000      -0.365490        -9.9455
  68   2.0000      -0.359312        -9.7774
  69   2.0000      -0.354845        -9.6558
  70   2.0000      -0.350389        -9.5346
  71   2.0000      -0.345851        -9.4111
  72   2.0000      -0.336548        -9.1579
  73   2.0000      -0.328268        -8.9326
  74   2.0000      -0.326509        -8.8848
  75   2.0000      -0.319544        -8.6952
  76   2.0000      -0.317663        -8.6441
  77   2.0000      -0.308191        -8.3863
  78   2.0000      -0.292226        -7.9519
  79   2.0000      -0.286094        -7.7850
  80   2.0000      -0.282033        -7.6745
  81   2.0000      -0.278876        -7.5886
  82   2.0000      -0.266726        -7.2580
  83   2.0000      -0.259485        -7.0610
  84   2.0000      -0.239166        -6.5080
  85   2.0000      -0.230494        -6.2721
  86   2.0000      -0.228785        -6.2255
  87   0.0000      -0.047869        -1.3026
  88   0.0000      -0.040984        -1.1152
  89   0.0000      -0.026587        -0.7235
  90   0.0000       0.001822         0.0496
  91   0.0000       0.007330         0.1995

MULLIKEN ATOMIC CHARGES
-----------------------
   0 C :   -0.505837
   1 C :   -0.133031
   2 O :   -0.167956
   3 C :    0.370811
   4 O :   -0.434169
   5 C :   -0.460057
   6 C :    0.045233
   7 H :    0.267176
   8 C :    0.171393
   9 O :   -0.435019
  10 O :   -0.130054
  11 C :   -0.140925
  12 C :   -0.513645
  13 S :   -0.201127
  14 P :    0.793569
  15 S :   -0.485262
  16 O :   -0.376250
  17 C :   -0.305786
  18 O :   -0.345163
  19 C :   -0.301026
  20 H :    0.169868
  21 H :    0.173175
  22 H :    0.173010
  23 H :    0.178041
  24 H :    0.176754
  25 H :    0.216297
  26 H :    0.239165
  27 H :    0.178728
  28 H :    0.177889
  29 H :    0.169661
  30 H :    0.171204
  31 H :    0.172963
  32 H :    0.175663
  33 H :    0.176887
  34 H :    0.180226
  35 H :    0.186432
  36 H :    0.188128
  37 H :    0.183029
Sum of atomic charges:   -0.0000000

LOEWDIN ATOMIC CHARGES
----------------------
   0 C :   -0.394163
   1 C :    0.037933
   2 O :   -0.583487
   3 C :    0.358888
   4 O :   -0.466297
   5 C :   -0.186738
   6 C :   -0.189388
   7 H :    0.213619
   8 C :    0.317077
   9 O :   -0.462652
  10 O :   -0.628748
  11 C :    0.040252
  12 C :   -0.386520
  13 S :    0.222399
  14 P :    0.403461
  15 S :   -0.101062
  16 O :   -0.693940
  17 C :   -0.053901
  18 O :   -0.672095
  19 C :   -0.044640
  20 H :    0.163411
  21 H :    0.168152
  22 H :    0.163958
  23 H :    0.191320
  24 H :    0.191200
  25 H :    0.199726
  26 H :    0.208107
  27 H :    0.191365
  28 H :    0.189043
  29 H :    0.165191
  30 H :    0.168910
  31 H :    0.169706
  32 H :    0.176515
  33 H :    0.177602
  34 H :    0.189232
  35 H :    0.183540
  36 H :    0.192482
  37 H :    0.180545

  Mayer bond orders larger than 0.100000
B(  0-C ,  1-C ) :   0.9199 B(  0-C , 20-H ) :   0.9662 B(  0-C , 21-H ) :   0.9577
B(  0-C , 22-H ) :   0.9673 B(  1-C ,  2-O ) :   0.7967 B(  1-C , 23-H ) :   0.9508
B(  1-C , 24-H ) :   0.9654 B(  2-O ,  3-C ) :   1.0962 B(  3-C ,  4-O ) :   1.7460
B(  3-C ,  5-C ) :   0.8974 B(  4-O ,  8-C ) :   0.1218 B(  5-C ,  6-C ) :   0.8207
B(  5-C , 25-H ) :   0.9743 B(  5-C , 26-H ) :   0.9685 B(  6-C ,  7-H ) :   0.9170
B(  6-C ,  8-C ) :   0.8774 B(  6-C , 13-S ) :   0.8707 B(  8-C ,  9-O ) :   1.7901
B(  8-C , 10-O ) :   1.1123 B( 10-O , 11-C ) :   0.7852 B( 11-C , 12-C ) :   0.9328
B( 11-C , 27-H ) :   0.9441 B( 11-C , 28-H ) :   0.9443 B( 12-C , 29-H ) :   0.9698
B( 12-C , 30-H ) :   0.9600 B( 12-C , 31-H ) :   0.9634 B( 13-S , 14-P ) :   0.9994
B( 14-P , 15-S ) :   1.7588 B( 14-P , 16-O ) :   1.0400 B( 14-P , 18-O ) :   1.1567
B( 16-O , 17-C ) :   0.8236 B( 17-C , 32-H ) :   0.9499 B( 17-C , 33-H ) :   0.9551
B( 17-C , 34-H ) :   0.9571 B( 18-O , 19-C ) :   0.7793 B( 19-C , 35-H ) :   0.9503
B( 19-C , 36-H ) :   0.9530 B( 19-C , 37-H ) :   0.9476

Dispersion correction           -0.018711237
FINAL SINGLE POINT ENERGY     -1981.470722854740

DIPOLE MOMENT
-------------

Method             : SCF
Type of density    : Electron Density
Multiplicity       :   1
Irrep              :   0
Energy             : -1981.4892620179539335 Eh
Relativity type    :
Basis              : AO
                                X                 Y                 Z
Electronic contribution:     -9.671282351       9.417533356      -8.423216008
Nuclear contribution   :      9.492951364     -13.082960651       8.632251116
                        -----------------------------------------
Total Dipole Moment    :     -0.178330987      -3.665427294       0.209035107
                        -----------------------------------------
Magnitude (a.u.)       :      3.675711478
Magnitude (Debye)      :      9.342916083

Rotational constants in cm-1:             0.013336             0.007902             0.007429
Rotational constants in MHz :           399.803008           236.906772           222.703751

                             ****ORCA TERMINATED NORMALLY****
TOTAL RUN TIME: 0 days 0 hours 2 minutes 9 seconds 927 msec
