                         Program Version 6.0.0  -   RELEASE  -
|  1> ! pbe def2-sv(p) def2/J RI DEFGRID1 loosescf d4 GCP(DFT/SV(P)) printgap
|  2> %output
|  3>     printlevel normal
|  4> end
|  5> * xyz 0 1
|  6> C 4.2807246451 1.8957729352 -0.7492716953
|  7> C 4.4608003138 0.6109504623 0.0346438257
|  8> O 3.3482586622 -0.2796783426 -0.1254578413
|  9> P 1.9018237779 0.0413456353 0.4791363554
| 10> S 1.9552979437 0.8737856679 2.2510420785
| 11> O 1.2328679816 -1.3889519971 0.3580891564
| 12> C 1.2168541495 -2.3144486048 1.4584871954
| 13> C 2.5843682241 -2.916071646 1.703406133
| 14> S 0.8991307304 1.0898905076 -1.0644988701
| 15> C 0.4364835739 -0.2638267329 -2.1600319946
| 16> S -0.9489519671 -1.336652332 -1.5894237673
| 17> P -2.1041609715 -0.1033420417 -0.3570881693
| 18> S -3.8674101017 -0.838306497 0.0758935415
| 19> O -2.1572357938 1.3593018644 -0.9930612014
| 20> C -3.1962342328 1.7592131789 -1.903114503
| 21> C -2.9217932736 1.2700138965 -3.3110772037
| 22> O -1.1268489953 0.132743502 0.8820211018
| 23> C -1.6217954503 0.8455417073 2.0418085135
| 24> C -1.9465119673 -0.1205175383 3.1618462763
| 25> H 4.0965119916 1.6796733494 -1.7982331529
| 26> H 3.4338348388 2.4564061398 -0.3530375021
| 27> H 5.1770604588 2.5007199178 -0.6574368606
| 28> H 4.5793704495 0.8278842636 1.1014490009
| 29> H 5.3155337307 0.0355763734 -0.3237067819
| 30> H 0.8587939938 -1.7893686106 2.3501398104
| 31> H 0.4859389487 -3.0675845956 1.1578608509
| 32> H 2.5073877094 -3.6802389812 2.4704718671
| 33> H 2.969102839 -3.3578980857 0.7882091904
| 34> H 3.2732689124 -2.1428456727 2.0407948471
| 35> H 1.2780801386 -0.9377014855 -2.3011544366
| 36> H 0.1420103219 0.2025549277 -3.0968870226
| 37> H -4.1508550777 1.3688246413 -1.5339238466
| 38> H -3.1933532114 2.8485803062 -1.8473805881
| 39> H -1.9608229051 1.6419593681 -3.656372057
| 40> H -2.9181492743 0.180931823 -3.3340250028
| 41> H -3.7028672122 1.6319386519 -3.9719795828
| 42> H -0.8150724842 1.5254634579 2.3248332174
| 43> H -2.5032847008 1.4242043935 1.7531492057
| 44> H -1.0563211671 -0.6742395876 3.4488778456
| 45> H -2.3069020745 0.4401601533 4.0183016004
| 46> H -2.7148786744 -0.8218441813 2.8429324551
| 47> *
| 48>
| 49>                          ****END OF INPUT****

CARTESIAN COORDINATES (ANGSTROEM)
---------------------------------
  C      4.280725    1.895773   -0.749272
  C      4.460800    0.610950    0.034644
  O      3.348259   -0.279678   -0.125458
  P      1.901824    0.041346    0.479136
  S      1.955298    0.873786    2.251042
  O      1.232868   -1.388952    0.358089
  C      1.216854   -2.314449    1.458487
  C      2.584368   -2.916072    1.703406
  S      0.899131    1.089891   -1.064499
  C      0.436484   -0.263827   -2.160032
  S     -0.948952   -1.336652   -1.589424
  P     -2.104161   -0.103342   -0.357088
  S     -3.867410   -0.838306    0.075894
  O     -2.157236    1.359302   -0.993061
  C     -3.196234    1.759213   -1.903115
  C     -2.921793    1.270014   -3.311077
  O     -1.126849    0.132744    0.882021
  C     -1.621795    0.845542    2.041809
  C     -1.946512   -0.120518    3.161846
  H      4.096512    1.679673   -1.798233
  H      3.433835    2.456406   -0.353038
  H      5.177060    2.500720   -0.657437
  H      4.579370    0.827884    1.101449
  H      5.315534    0.035576   -0.323707
  H      0.858794   -1.789369    2.350140
  H      0.485939   -3.067585    1.157861
  H      2.507388   -3.680239    2.470472
  H      2.969103   -3.357898    0.788209
  H      3.273269   -2.142846    2.040795
  H      1.278080   -0.937701   -2.301154
  H      0.142010    0.202555   -3.096887
  H     -4.150855    1.368825   -1.533924
  H     -3.193353    2.848580   -1.847381
  H     -1.960823    1.641959   -3.656372
  H     -2.918149    0.180932   -3.334025
  H     -3.702867    1.631939   -3.971980
  H     -0.815072    1.525463    2.324833
  H     -2.503285    1.424204    1.753149
  H     -1.056321   -0.674240    3.448878
  H     -2.306902    0.440160    4.018302
  H     -2.714879   -0.821844    2.842932

 Total Charge           Charge          ....    0
 Multiplicity           Mult            ....    1
 Number of Electrons    NEL             ....  202
 Basis Dimension        Dim             ....  334

ORBITAL ENERGIES
----------------

  NO   OCC          E(Eh)            E(eV)
   0   2.0000     -88.046772     -2395.8745
   1   2.0000     -88.042181     -2395.7496
   2   2.0000     -87.994907     -2394.4631
   3   2.0000     -87.981384     -2394.0952
   4   2.0000     -76.430690     -2079.7848
   5   2.0000     -76.423078     -2079.5777
   6   2.0000     -18.792504      -511.3700
   7   2.0000     -18.792010      -511.3566
   8   2.0000     -18.789940      -511.3003
   9   2.0000     -18.781967      -511.0833
  10   2.0000      -9.965920      -271.1865
  11   2.0000      -9.953556      -270.8500
  12   2.0000      -9.951745      -270.8008
  13   2.0000      -9.949802      -270.7479
  14   2.0000      -9.939181      -270.4589
  15   2.0000      -9.887366      -269.0489
  16   2.0000      -9.887076      -269.0410
  17   2.0000      -9.884254      -268.9642
  18   2.0000      -9.871846      -268.6266
  19   2.0000      -7.691848      -209.3058
  20   2.0000      -7.687212      -209.1797
  21   2.0000      -7.639771      -207.8887
  22   2.0000      -7.626586      -207.5300
  23   2.0000      -6.428022      -174.9154
  24   2.0000      -6.420579      -174.7128
  25   2.0000      -5.720300      -155.6573
  26   2.0000      -5.716288      -155.5481
  27   2.0000      -5.715783      -155.5344
  28   2.0000      -5.711377      -155.4145
  29   2.0000      -5.708164      -155.3270
  30   2.0000      -5.703810      -155.2086
  31   2.0000      -5.668658      -154.2520
  32   2.0000      -5.660647      -154.0340
  33   2.0000      -5.659716      -154.0087
  34   2.0000      -5.655501      -153.8940
  35   2.0000      -5.647230      -153.6689
  36   2.0000      -5.646707      -153.6547
  37   2.0000      -4.650415      -126.5442
  38   2.0000      -4.649934      -126.5311
  39   2.0000      -4.648594      -126.4947
  40   2.0000      -4.643054      -126.3439
  41   2.0000      -4.642570      -126.3308
  42   2.0000      -4.640968      -126.2872
  43   2.0000      -0.988947       -26.9106
  44   2.0000      -0.980305       -26.6755
  45   2.0000      -0.946867       -25.7656
  46   2.0000      -0.937779       -25.5183
  47   2.0000      -0.765243       -20.8233
  48   2.0000      -0.720708       -19.6115
  49   2.0000      -0.705833       -19.2067
  50   2.0000      -0.687758       -18.7148
  51   2.0000      -0.683994       -18.6124
  52   2.0000      -0.673844       -18.3362
  53   2.0000      -0.658147       -17.9091
  54   2.0000      -0.637373       -17.3438
  55   2.0000      -0.601549       -16.3690
  56   2.0000      -0.591221       -16.0879
  57   2.0000      -0.573797       -15.6138
  58   2.0000      -0.572641       -15.5823
  59   2.0000      -0.559134       -15.2148
  60   2.0000      -0.499527       -13.5928
  61   2.0000      -0.494072       -13.4444
  62   2.0000      -0.474820       -12.9205
  63   2.0000      -0.465928       -12.6785
  64   2.0000      -0.463861       -12.6223
  65   2.0000      -0.442765       -12.0482
  66   2.0000      -0.439194       -11.9511
  67   2.0000      -0.433317       -11.7912
  68   2.0000      -0.424386       -11.5481
  69   2.0000      -0.419311       -11.4100
  70   2.0000      -0.415174       -11.2975
  71   2.0000      -0.396273       -10.7831
  72   2.0000      -0.394932       -10.7466
  73   2.0000      -0.392863       -10.6903
  74   2.0000      -0.378621       -10.3028
  75   2.0000      -0.371883       -10.1194
  76   2.0000      -0.368286       -10.0216
  77   2.0000      -0.359176        -9.7737
  78   2.0000      -0.352761        -9.5991
  79   2.0000      -0.350181        -9.5289
  80   2.0000      -0.348317        -9.4782
  81   2.0000      -0.346758        -9.4358
  82   2.0000      -0.340544        -9.2667
  83   2.0000      -0.334861        -9.1120
  84   2.0000      -0.328458        -8.9378
  85   2.0000      -0.319896        -8.7048
  86   2.0000      -0.308415        -8.3924
  87   2.0000      -0.298063        -8.1107
  88   2.0000      -0.294420        -8.0116
  89   2.0000      -0.292084        -7.9480
  90   2.0000      -0.283555        -7.7159
  91   2.0000      -0.272163        -7.4059
  92   2.0000      -0.268634        -7.3099
  93   2.0000      -0.264297        -7.1919
  94   2.0000      -0.260126        -7.0784
  95   2.0000      -0.225907        -6.1472
  96   2.0000      -0.218067        -5.9339
  97   2.0000      -0.215032        -5.8513
  98   2.0000      -0.206769        -5.6265
  99   2.0000      -0.200540        -5.4570
 100   2.0000      -0.195866        -5.3298
 101   0.0000      -0.044904        -1.2219
 102   0.0000      -0.033543        -0.9127
 103   0.0000      -0.020054        -0.5457
 104   0.0000      -0.001293        -0.0352
 105   0.0000       0.016003         0.4355

MULLIKEN ATOMIC CHARGES
-----------------------
   0 C :   -0.307986
   1 C :   -0.007712
   2 O :   -0.374997
   3 P :    0.639120
   4 S :   -0.324848
   5 O :   -0.370792
   6 C :   -0.022854
   7 C :   -0.300013
   8 S :   -0.081119
   9 C :   -0.325352
  10 S :   -0.084400
  11 P :    0.619759
  12 S :   -0.326613
  13 O :   -0.377593
  14 C :   -0.007436
  15 C :   -0.321763
  16 O :   -0.377757
  17 C :   -0.003521
  18 C :   -0.298041
  19 H :    0.113938
  20 H :    0.122254
  21 H :    0.113321
  22 H :    0.110139
  23 H :    0.104361
  24 H :    0.129161
  25 H :    0.109246
  26 H :    0.112602
  27 H :    0.114681
  28 H :    0.119598
  29 H :    0.184149
  30 H :    0.189201
  31 H :    0.112219
  32 H :    0.104808
  33 H :    0.113337
  34 H :    0.128817
  35 H :    0.114410
  36 H :    0.114618
  37 H :    0.095860
  38 H :    0.122215
  39 H :    0.104106
  40 H :    0.120878
Sum of atomic charges:    0.0000000

LOEWDIN ATOMIC CHARGES
----------------------
   0 C :   -0.367154
   1 C :   -0.122627
   2 O :   -0.252494
   3 P :    0.583640
   4 S :   -0.304523
   5 O :   -0.233784
   6 C :   -0.116157
   7 C :   -0.362920
   8 S :    0.113407
   9 C :   -0.468211
  10 S :    0.092048
  11 P :    0.559897
  12 S :   -0.325348
  13 O :   -0.247414
  14 C :   -0.123324
  15 C :   -0.366454
  16 O :   -0.249140
  17 C :   -0.121661
  18 C :   -0.359846
  19 H :    0.123099
  20 H :    0.118516
  21 H :    0.130753
  22 H :    0.108553
  23 H :    0.118111
  24 H :    0.110845
  25 H :    0.120239
  26 H :    0.130731
  27 H :    0.125794
  28 H :    0.122032
  29 H :    0.136200
  30 H :    0.134921
  31 H :    0.108610
  32 H :    0.118118
  33 H :    0.119983
  34 H :    0.122880
  35 H :    0.132118
  36 H :    0.111709
  37 H :    0.105680
  38 H :    0.121473
  39 H :    0.128310
  40 H :    0.123393

  Mayer bond orders larger than 0.100000
B(  0-C ,  1-C ) :   1.1640 B(  0-C , 19-H ) :   0.9446 B(  0-C , 20-H ) :   0.9372
B(  0-C , 21-H ) :   0.9386 B(  1-C ,  2-O ) :   0.9205 B(  1-C , 22-H ) :   0.9149
B(  1-C , 23-H ) :   0.9336 B(  2-O ,  3-P ) :   1.0750 B(  3-P ,  4-S ) :   1.6150
B(  3-P ,  5-O ) :   1.1173 B(  3-P ,  8-S ) :   0.9541 B(  5-O ,  6-C ) :   0.8986
B(  6-C ,  7-C ) :   1.1622 B(  6-C , 24-H ) :   0.9083 B(  6-C , 25-H ) :   0.9316
B(  7-C , 26-H ) :   0.9396 B(  7-C , 27-H ) :   0.9460 B(  7-C , 28-H ) :   0.9383
B(  8-S ,  9-C ) :   1.0280 B(  9-C , 10-S ) :   0.9451 B(  9-C , 29-H ) :   0.9051
B(  9-C , 30-H ) :   0.9022 B( 10-S , 11-P ) :   1.0120 B( 11-P , 12-S ) :   1.6313
B( 11-P , 13-O ) :   1.0659 B( 11-P , 16-O ) :   1.0997 B( 13-O , 14-C ) :   0.9158
B( 14-C , 15-C ) :   1.1624 B( 14-C , 31-H ) :   0.9059 B( 14-C , 32-H ) :   0.9331
B( 15-C , 33-H ) :   0.9426 B( 15-C , 34-H ) :   0.9369 B( 15-C , 35-H ) :   0.9388
B( 16-O , 17-C ) :   0.8801 B( 17-C , 18-C ) :   1.1747 B( 17-C , 36-H ) :   0.9114
B( 17-C , 37-H ) :   0.9093 B( 18-C , 38-H ) :   0.9385 B( 18-C , 39-H ) :   0.9396
B( 18-C , 40-H ) :   0.9359

Dispersion correction           -0.069036602
FINAL SINGLE POINT ENERGY     -2929.515183017411

DIPOLE MOMENT
-------------

Method             : SCF
Type of density    : Electron Density
Multiplicity       :   1
Irrep              :   0
Energy             : -2929.6331641647702781 Eh
Relativity type    :
Basis              : AO
                                X                 Y                 Z
Electronic contribution:     -7.325955749      -1.869172057      -2.068176507
Nuclear contribution   :      8.507437646       2.210269790       1.237124294
                        -----------------------------------------
Total Dipole Moment    :      1.181481896       0.341097733      -0.831052213
                        -----------------------------------------
Magnitude (a.u.)       :      1.484215252
Magnitude (Debye)      :      3.772575360

Rotational constants in cm-1:             0.012026             0.005915             0.005158
Rotational constants in MHz :           360.537743           177.314870           154.634387

                             ****ORCA TERMINATED NORMALLY****
TOTAL RUN TIME: 0 days 0 hours 0 minutes 22 seconds 222 msec
