                         Program Version 6.0.0  -   RELEASE  -
|  1> ! wb97x-v def2-tzvp def2/J RIJCOSX DEFGRID2 scfconv7 GCP(DFT/TZ) printgap
|  2> %output
|  3>     printlevel normal
|  4> end
|  5> * xyz 0 1
|  6> C -3.094035548399641 0.37058604161524483 -0.0036457772408479885
|  7> C -1.6312888344012548 0.02530837128005685 -0.010869340683149898
|  8> C -1.193155496064648 -1.2960708371358587 -0.10429708187606279
|  9> C 0.17091375892060595 -1.5894965793308666 -0.10761120115102529
| 10> C 1.1401363813967769 -0.5925157170400603 -0.018726189920937154
| 11> C 0.6854794401170001 0.731790418147183 0.07483920550286964
| 12> C -0.6713942291985283 1.0385539275415958 0.07864062313755445
| 13> O 1.6495181295179344 1.714687069034852 0.1635990414090506
| 14> C 2.608716898705925 -0.8977045023943856 -0.015278387384164002
| 15> H -3.7103111561541677 -0.5266087052012173 -0.09993482048626863
| 16> H -3.3743039630214873 0.879234917012126 0.9253292021877341
| 17> H -3.3435725082390224 1.0478254025505076 -0.8276370601081648
| 18> H -1.9192271783258084 -2.1005666124816638 -0.17559094939806663
| 19> H 0.49603555814972977 -2.624100712708299 -0.1813326082762447
| 20> H -0.9821154569384174 2.0789739272070324 0.1525684358105807
| 21> H 1.2148454046601698 2.5771008079845648 0.22025476274099304
| 22> H 3.1302654210937084 -0.3688425183885805 -0.8198772791279567
| 23> H 3.07885462867661 -0.5865808677294477 0.9241352209184677
| 24> H 2.776577161362753 -1.9691259213633927 -0.1428931809697183
| 25> *
| 26>
| 27>                          ****END OF INPUT****

CARTESIAN COORDINATES (ANGSTROEM)
---------------------------------
  C     -3.094036    0.370586   -0.003646
  C     -1.631289    0.025308   -0.010869
  C     -1.193155   -1.296071   -0.104297
  C      0.170914   -1.589497   -0.107611
  C      1.140136   -0.592516   -0.018726
  C      0.685479    0.731790    0.074839
  C     -0.671394    1.038554    0.078641
  O      1.649518    1.714687    0.163599
  C      2.608717   -0.897705   -0.015278
  H     -3.710311   -0.526609   -0.099935
  H     -3.374304    0.879235    0.925329
  H     -3.343573    1.047825   -0.827637
  H     -1.919227   -2.100567   -0.175591
  H      0.496036   -2.624101   -0.181333
  H     -0.982115    2.078974    0.152568
  H      1.214845    2.577101    0.220255
  H      3.130265   -0.368843   -0.819877
  H      3.078855   -0.586581    0.924135
  H      2.776577   -1.969126   -0.142893

 Total Charge           Charge          ....    0
 Multiplicity           Mult            ....    1
 Number of Electrons    NEL             ....   66
 Basis Dimension        Dim             ....  339

ORBITAL ENERGIES
----------------

  NO   OCC          E(Eh)            E(eV)
   0   2.0000     -21.701475      -590.5271
   1   2.0000     -12.107936      -329.4737
   2   2.0000     -12.059080      -328.1443
   3   2.0000     -12.050580      -327.9129
   4   2.0000     -12.046656      -327.8062
   5   2.0000     -12.044960      -327.7600
   6   2.0000     -12.043367      -327.7167
   7   2.0000     -12.037787      -327.5648
   8   2.0000     -12.036091      -327.5187
   9   2.0000      -1.713733       -46.6331
  10   2.0000      -1.385011       -37.6881
  11   2.0000      -1.308518       -35.6066
  12   2.0000      -1.271978       -34.6123
  13   2.0000      -1.221466       -33.2378
  14   2.0000      -1.170890       -31.8615
  15   2.0000      -1.145580       -31.1728
  16   2.0000      -1.082999       -29.4699
  17   2.0000      -1.054184       -28.6858
  18   2.0000      -0.995468       -27.0880
  19   2.0000      -0.945256       -25.7217
  20   2.0000      -0.943624       -25.6773
  21   2.0000      -0.933358       -25.3980
  22   2.0000      -0.888410       -24.1749
  23   2.0000      -0.866845       -23.5881
  24   2.0000      -0.838495       -22.8166
  25   2.0000      -0.837507       -22.7897
  26   2.0000      -0.827986       -22.5306
  27   2.0000      -0.820423       -22.3248
  28   2.0000      -0.810768       -22.0621
  29   2.0000      -0.797907       -21.7122
  30   2.0000      -0.749423       -20.3928
  31   2.0000      -0.635403       -17.2902
  32   2.0000      -0.624812       -17.0020
  33   0.0000      -0.240920        -6.5558
  34   0.0000      -0.238097        -6.4789
  35   0.0000      -0.146619        -3.9897
  36   0.0000      -0.072915        -1.9841
  37   0.0000      -0.069197        -1.8830

MULLIKEN ATOMIC CHARGES
-----------------------
   0 C :   -0.368464
   1 C :    0.144335
   2 C :   -0.220439
   3 C :   -0.140800
   4 C :    0.002181
   5 C :    0.259566
   6 C :   -0.288698
   7 O :   -0.396349
   8 C :   -0.334471
   9 H :    0.117453
  10 H :    0.121786
  11 H :    0.121495
  12 H :    0.107367
  13 H :    0.109779
  14 H :    0.100021
  15 H :    0.310313
  16 H :    0.123027
  17 H :    0.121284
  18 H :    0.110614
Sum of atomic charges:   -0.0000000

LOEWDIN ATOMIC CHARGES
----------------------
   0 C :   -0.251779
   1 C :   -0.171895
   2 C :   -0.137793
   3 C :   -0.111235
   4 C :   -0.157807
   5 C :   -0.229306
   6 C :   -0.123842
   7 O :    0.066694
   8 C :   -0.249906
   9 H :    0.124614
  10 H :    0.126489
  11 H :    0.126303
  12 H :    0.141057
  13 H :    0.144026
  14 H :    0.141021
  15 H :    0.184104
  16 H :    0.128243
  17 H :    0.128313
  18 H :    0.122700

  Mayer bond orders larger than 0.100000
B(  0-C ,  1-C ) :   0.9059 B(  0-C ,  9-H ) :   0.9969 B(  0-C , 10-H ) :   0.9755
B(  0-C , 11-H ) :   0.9773 B(  1-C ,  2-C ) :   1.4245 B(  1-C ,  6-C ) :   1.3774
B(  2-C ,  3-C ) :   1.4286 B(  2-C , 12-H ) :   0.9709 B(  3-C ,  4-C ) :   1.4451
B(  3-C , 13-H ) :   0.9707 B(  4-C ,  5-C ) :   1.3377 B(  4-C ,  8-C ) :   0.9593
B(  5-C ,  6-C ) :   1.4001 B(  5-C ,  7-O ) :   1.1698 B(  6-C , 14-H ) :   0.9606
B(  7-O , 15-H ) :   0.8900 B(  8-C , 16-H ) :   0.9681 B(  8-C , 17-H ) :   0.9664
B(  8-C , 18-H ) :   0.9946

FINAL SINGLE POINT ENERGY      -386.123293984360

DIPOLE MOMENT
-------------

Method             : SCF
Type of density    : Electron Density
Multiplicity       :   1
Irrep              :   0
Energy             :  -386.1344371165603206 Eh
Relativity type    :
Basis              : AO
                                X                 Y                 Z
Electronic contribution:      2.050480985       1.780507613       0.145702990
Nuclear contribution   :     -2.438030043      -1.414174964      -0.121596236
                        -----------------------------------------
Total Dipole Moment    :     -0.387549058       0.366332649       0.024106754
                        -----------------------------------------
Magnitude (a.u.)       :      0.533830513
Magnitude (Debye)      :      1.356889332

Rotational constants in cm-1:             0.101857             0.043248             0.030703
Rotational constants in MHz :          3053.591711          1296.538795           920.461166

                             ****ORCA TERMINATED NORMALLY****
TOTAL RUN TIME: 0 days 0 hours 3 minutes 46 seconds 964 msec
