                         Program Version 6.0.0  -   RELEASE  -
|  1> ! wb97x-v def2-tzvp def2/J RIJCOSX DEFGRID2 scfconv7 GCP(DFT/TZ) printgap
|  2> %output
|  3>     printlevel normal
|  4> end
|  5> %cpcm
|  6>     smd true
|  7>     smdsolvent "water"
|  8> end
|  9> * xyz 0 1
| 10> C -3.094035548399641 0.37058604161524483 -0.0036457772408479885
| 11> C -1.6312888344012548 0.02530837128005685 -0.010869340683149898
| 12> C -1.193155496064648 -1.2960708371358587 -0.10429708187606279
| 13> C 0.17091375892060595 -1.5894965793308666 -0.10761120115102529
| 14> C 1.1401363813967769 -0.5925157170400603 -0.018726189920937154
| 15> C 0.6854794401170001 0.731790418147183 0.07483920550286964
| 16> C -0.6713942291985283 1.0385539275415958 0.07864062313755445
| 17> O 1.6495181295179344 1.714687069034852 0.1635990414090506
| 18> C 2.608716898705925 -0.8977045023943856 -0.015278387384164002
| 19> H -3.7103111561541677 -0.5266087052012173 -0.09993482048626863
| 20> H -3.3743039630214873 0.879234917012126 0.9253292021877341
| 21> H -3.3435725082390224 1.0478254025505076 -0.8276370601081648
| 22> H -1.9192271783258084 -2.1005666124816638 -0.17559094939806663
| 23> H 0.49603555814972977 -2.624100712708299 -0.1813326082762447
| 24> H -0.9821154569384174 2.0789739272070324 0.1525684358105807
| 25> H 1.2148454046601698 2.5771008079845648 0.22025476274099304
| 26> H 3.1302654210937084 -0.3688425183885805 -0.8198772791279567
| 27> H 3.07885462867661 -0.5865808677294477 0.9241352209184677
| 28> H 2.776577161362753 -1.9691259213633927 -0.1428931809697183
| 29> *
| 30>
| 31>                          ****END OF INPUT****

CARTESIAN COORDINATES (ANGSTROEM)
---------------------------------
  C     -3.094036    0.370586   -0.003646
  C     -1.631289    0.025308   -0.010869
  C     -1.193155   -1.296071   -0.104297
  C      0.170914   -1.589497   -0.107611
  C      1.140136   -0.592516   -0.018726
  C      0.685479    0.731790    0.074839
  C     -0.671394    1.038554    0.078641
  O      1.649518    1.714687    0.163599
  C      2.608717   -0.897705   -0.015278
  H     -3.710311   -0.526609   -0.099935
  H     -3.374304    0.879235    0.925329
  H     -3.343573    1.047825   -0.827637
  H     -1.919227   -2.100567   -0.175591
  H      0.496036   -2.624101   -0.181333
  H     -0.982115    2.078974    0.152568
  H      1.214845    2.577101    0.220255
  H      3.130265   -0.368843   -0.819877
  H      3.078855   -0.586581    0.924135
  H      2.776577   -1.969126   -0.142893

 Total Charge           Charge          ....    0
 Multiplicity           Mult            ....    1
 Number of Electrons    NEL             ....   66
 Basis Dimension        Dim             ....  339

ORBITAL ENERGIES
----------------

  NO   OCC          E(Eh)            E(eV)
   0   2.0000     -21.699669      -590.4780
   1   2.0000     -12.108026      -329.4761
   2   2.0000     -12.057756      -328.1082
   3   2.0000     -12.051548      -327.9393
   4   2.0000     -12.045980      -327.7878
   5   2.0000     -12.041229      -327.6585
   6   2.0000     -12.036798      -327.5379
   7   2.0000     -12.034069      -327.4637
   8   2.0000     -12.033320      -327.4433
   9   2.0000      -1.712305       -46.5942
  10   2.0000      -1.385542       -37.7025
  11   2.0000      -1.307571       -35.5808
  12   2.0000      -1.271547       -34.6006
  13   2.0000      -1.218060       -33.1451
  14   2.0000      -1.167771       -31.7767
  15   2.0000      -1.144024       -31.1305
  16   2.0000      -1.081571       -29.4310
  17   2.0000      -1.052845       -28.6494
  18   2.0000      -0.996292       -27.1105
  19   2.0000      -0.946212       -25.7477
  20   2.0000      -0.943540       -25.6750
  21   2.0000      -0.930014       -25.3070
  22   2.0000      -0.884196       -24.0602
  23   2.0000      -0.863654       -23.5012
  24   2.0000      -0.833627       -22.6841
  25   2.0000      -0.832426       -22.6515
  26   2.0000      -0.825777       -22.4705
  27   2.0000      -0.816492       -22.2179
  28   2.0000      -0.805303       -21.9134
  29   2.0000      -0.793913       -21.6035
  30   2.0000      -0.749974       -20.4078
  31   2.0000      -0.636320       -17.3151
  32   2.0000      -0.626413       -17.0456
  33   0.0000      -0.242648        -6.6028
  34   0.0000      -0.238311        -6.4848
  35   0.0000      -0.144841        -3.9413
  36   0.0000      -0.072871        -1.9829
  37   0.0000      -0.040862        -1.1119

MULLIKEN ATOMIC CHARGES
-----------------------
   0 C :   -0.393829
   1 C :    0.134734
   2 C :   -0.275539
   3 C :   -0.185870
   4 C :   -0.016250
   5 C :    0.261080
   6 C :   -0.339953
   7 O :   -0.472817
   8 C :   -0.394041
   9 H :    0.140928
  10 H :    0.140079
  11 H :    0.140270
  12 H :    0.153619
  13 H :    0.155590
  14 H :    0.160280
  15 H :    0.374804
  16 H :    0.137310
  17 H :    0.138015
  18 H :    0.141590
Sum of atomic charges:   -0.0000000

LOEWDIN ATOMIC CHARGES
----------------------
   0 C :   -0.253465
   1 C :   -0.181110
   2 C :   -0.151439
   3 C :   -0.124457
   4 C :   -0.171226
   5 C :   -0.239476
   6 C :   -0.118674
   7 O :    0.043678
   8 C :   -0.257212
   9 H :    0.129361
  10 H :    0.131686
  11 H :    0.131564
  12 H :    0.150049
  13 H :    0.153600
  14 H :    0.158045
  15 H :    0.209015
  16 H :    0.129437
  17 H :    0.130187
  18 H :    0.130435

  Mayer bond orders larger than 0.100000
B(  0-C ,  1-C ) :   0.9227 B(  0-C ,  9-H ) :   0.9925 B(  0-C , 10-H ) :   0.9689
B(  0-C , 11-H ) :   0.9706 B(  1-C ,  2-C ) :   1.3926 B(  1-C ,  6-C ) :   1.3255
B(  2-C ,  3-C ) :   1.4111 B(  2-C , 12-H ) :   0.9806 B(  3-C ,  4-C ) :   1.4270
B(  3-C , 13-H ) :   0.9756 B(  4-C ,  5-C ) :   1.3203 B(  4-C ,  8-C ) :   0.9501
B(  5-C ,  6-C ) :   1.4143 B(  5-C ,  7-O ) :   1.1352 B(  6-C , 14-H ) :   0.9779
B(  7-O , 15-H ) :   0.8496 B(  8-C , 16-H ) :   0.9686 B(  8-C , 17-H ) :   0.9670
B(  8-C , 18-H ) :   0.9884

FINAL SINGLE POINT ENERGY      -386.131429697718

DIPOLE MOMENT
-------------

Method             : SCF
Type of density    : Electron Density
Multiplicity       :   1
Irrep              :   0
Energy             :  -386.1425728299178104 Eh
Relativity type    :
Basis              : AO
                                X                 Y                 Z
Electronic contribution:      1.840715889       1.946977402       0.157292350
Nuclear contribution   :     -2.438030043      -1.414174964      -0.121596236
                        -----------------------------------------
Total Dipole Moment    :     -0.597314154       0.532802438       0.035696114
                        -----------------------------------------
Magnitude (a.u.)       :      0.801209616
Magnitude (Debye)      :      2.036512999

Rotational constants in cm-1:             0.101857             0.043248             0.030703
Rotational constants in MHz :          3053.591711          1296.538795           920.461166

                             ****ORCA TERMINATED NORMALLY****
TOTAL RUN TIME: 0 days 0 hours 3 minutes 49 seconds 656 msec
