                         Program Version 6.0.0  -   RELEASE  -
|  1> ! pbe def2-sv(p) def2/J RI DEFGRID1 loosescf d4 GCP(DFT/SV(P)) printgap
|  2> %output
|  3>     printlevel normal
|  4> end
|  5> * xyz 0 1
|  6> C 4.4083073961 2.135509598 -0.0589996341
|  7> C 4.6048234793 0.6924068887 -0.4764576057
|  8> O 3.3704536027 0.0716368154 -0.8794934586
|  9> P 2.2029472722 -0.2430247843 0.1490240872
| 10> S 2.7876731487 -0.8696815761 1.9147562945
| 11> O 1.2899272206 -1.2373271424 -0.6767602383
| 12> C 1.4241314252 -2.669125181 -0.6004595899
| 13> C 2.7340096998 -3.1444706508 -1.1913779116
| 14> S 0.9823218694 1.4742988601 0.0978826778
| 15> C 0.0229557633 1.0846574548 1.585865842
| 16> S -1.0237784773 -0.3920169741 1.4180725472
| 17> P -2.0980866929 0.1025684786 -0.3439286833
| 18> S -1.3837143277 -0.2466961008 -2.1275068164
| 19> O -2.405241597 1.6346902405 -0.0005352493
| 20> C -2.6342567917 2.6102829791 -1.0350055992
| 21> C -4.010645024 2.4462379749 -1.6462196257
| 22> O -3.4500242386 -0.7081828719 -0.1739662488
| 23> C -4.2953927708 -0.6265860203 1.0001932417
| 24> C -4.1781000836 -1.8943413891 1.8222468707
| 25> H 3.8835972364 2.6852494563 -0.8365955754
| 26> H 3.8232575726 2.1816443769 0.8587230899
| 27> H 5.3765476061 2.5931748168 0.1167357654
| 28> H 5.03121528 0.1092285658 0.3462133389
| 29> H 5.2390466948 0.6096235435 -1.3600110838
| 30> H 1.3366230167 -2.9672480762 0.4499700651
| 31> H 0.5645785039 -3.038147323 -1.1632080558
| 32> H 2.7497275999 -4.2297390647 -1.2044568719
| 33> H 2.8448415606 -2.7662712175 -2.2044992066
| 34> H 3.5651031307 -2.7839529472 -0.5858312009
| 35> H -0.5969725967 1.9511772851 1.7979880124
| 36> H 0.7015893838 0.8676390701 2.4117573361
| 37> H -2.5231031116 3.5696090739 -0.527947172
| 38> H -1.8564348925 2.5001549727 -1.7970296639
| 39> H -4.7781247921 2.52652971 -0.8808390972
| 40> H -4.1664626616 3.2161437679 -2.3951402618
| 41> H -4.0842590137 1.4688904487 -2.1227629079
| 42> H -4.0156913726 0.253843163 1.5836042677
| 43> H -5.305952579 -0.5040264574 0.6067340625
| 44> H -4.8694832542 -1.8426783811 2.6572922876
| 45> H -4.4186292404 -2.758002313 1.2086456201
| 46> H -3.1653015883 -2.007249019 2.2036700152
| 47> *
| 48>
| 49>                          ****END OF INPUT****

CARTESIAN COORDINATES (ANGSTROEM)
---------------------------------
  C      4.408307    2.135510   -0.059000
  C      4.604823    0.692407   -0.476458
  O      3.370454    0.071637   -0.879493
  P      2.202947   -0.243025    0.149024
  S      2.787673   -0.869682    1.914756
  O      1.289927   -1.237327   -0.676760
  C      1.424131   -2.669125   -0.600460
  C      2.734010   -3.144471   -1.191378
  S      0.982322    1.474299    0.097883
  C      0.022956    1.084657    1.585866
  S     -1.023778   -0.392017    1.418073
  P     -2.098087    0.102568   -0.343929
  S     -1.383714   -0.246696   -2.127507
  O     -2.405242    1.634690   -0.000535
  C     -2.634257    2.610283   -1.035006
  C     -4.010645    2.446238   -1.646220
  O     -3.450024   -0.708183   -0.173966
  C     -4.295393   -0.626586    1.000193
  C     -4.178100   -1.894341    1.822247
  H      3.883597    2.685249   -0.836596
  H      3.823258    2.181644    0.858723
  H      5.376548    2.593175    0.116736
  H      5.031215    0.109229    0.346213
  H      5.239047    0.609624   -1.360011
  H      1.336623   -2.967248    0.449970
  H      0.564579   -3.038147   -1.163208
  H      2.749728   -4.229739   -1.204457
  H      2.844842   -2.766271   -2.204499
  H      3.565103   -2.783953   -0.585831
  H     -0.596973    1.951177    1.797988
  H      0.701589    0.867639    2.411757
  H     -2.523103    3.569609   -0.527947
  H     -1.856435    2.500155   -1.797030
  H     -4.778125    2.526530   -0.880839
  H     -4.166463    3.216144   -2.395140
  H     -4.084259    1.468890   -2.122763
  H     -4.015691    0.253843    1.583604
  H     -5.305953   -0.504026    0.606734
  H     -4.869483   -1.842678    2.657292
  H     -4.418629   -2.758002    1.208646
  H     -3.165302   -2.007249    2.203670

 Total Charge           Charge          ....    0
 Multiplicity           Mult            ....    1
 Number of Electrons    NEL             ....  202
 Basis Dimension        Dim             ....  334

ORBITAL ENERGIES
----------------

  NO   OCC          E(Eh)            E(eV)
   0   2.0000     -88.041990     -2395.7444
   1   2.0000     -88.040431     -2395.7019
   2   2.0000     -87.987232     -2394.2543
   3   2.0000     -87.976192     -2393.9539
   4   2.0000     -76.423856     -2079.5988
   5   2.0000     -76.421534     -2079.5357
   6   2.0000     -18.793640      -511.4009
   7   2.0000     -18.792213      -511.3621
   8   2.0000     -18.790650      -511.3196
   9   2.0000     -18.780105      -511.0326
  10   2.0000      -9.956551      -270.9315
  11   2.0000      -9.955958      -270.9154
  12   2.0000      -9.952053      -270.8091
  13   2.0000      -9.951093      -270.7830
  14   2.0000      -9.940859      -270.5045
  15   2.0000      -9.887336      -269.0481
  16   2.0000      -9.884793      -268.9789
  17   2.0000      -9.884111      -268.9603
  18   2.0000      -9.876526      -268.7539
  19   2.0000      -7.687105      -209.1768
  20   2.0000      -7.685282      -209.1272
  21   2.0000      -7.632175      -207.6821
  22   2.0000      -7.621544      -207.3928
  23   2.0000      -6.421418      -174.7357
  24   2.0000      -6.419125      -174.6733
  25   2.0000      -5.714940      -155.5114
  26   2.0000      -5.713337      -155.4678
  27   2.0000      -5.711752      -155.4247
  28   2.0000      -5.709666      -155.3679
  29   2.0000      -5.703912      -155.2113
  30   2.0000      -5.702205      -155.1649
  31   2.0000      -5.660912      -154.0413
  32   2.0000      -5.652942      -153.8244
  33   2.0000      -5.652402      -153.8097
  34   2.0000      -5.650684      -153.7629
  35   2.0000      -5.642001      -153.5267
  36   2.0000      -5.641582      -153.5152
  37   2.0000      -4.643750      -126.3629
  38   2.0000      -4.643110      -126.3454
  39   2.0000      -4.642258      -126.3223
  40   2.0000      -4.642180      -126.3201
  41   2.0000      -4.640701      -126.2799
  42   2.0000      -4.639261      -126.2407
  43   2.0000      -0.983869       -26.7724
  44   2.0000      -0.982750       -26.7420
  45   2.0000      -0.944773       -25.7086
  46   2.0000      -0.940881       -25.6027
  47   2.0000      -0.763620       -20.7792
  48   2.0000      -0.719002       -19.5650
  49   2.0000      -0.706440       -19.2232
  50   2.0000      -0.691531       -18.8175
  51   2.0000      -0.683204       -18.5909
  52   2.0000      -0.670403       -18.2426
  53   2.0000      -0.648867       -17.6566
  54   2.0000      -0.637186       -17.3387
  55   2.0000      -0.599243       -16.3062
  56   2.0000      -0.586293       -15.9538
  57   2.0000      -0.575211       -15.6523
  58   2.0000      -0.568156       -15.4603
  59   2.0000      -0.561384       -15.2760
  60   2.0000      -0.501001       -13.6329
  61   2.0000      -0.488765       -13.3000
  62   2.0000      -0.479511       -13.0482
  63   2.0000      -0.468830       -12.7575
  64   2.0000      -0.455869       -12.4048
  65   2.0000      -0.443251       -12.0615
  66   2.0000      -0.437385       -11.9018
  67   2.0000      -0.435103       -11.8398
  68   2.0000      -0.423789       -11.5319
  69   2.0000      -0.410513       -11.1706
  70   2.0000      -0.408856       -11.1255
  71   2.0000      -0.399346       -10.8667
  72   2.0000      -0.387148       -10.5348
  73   2.0000      -0.383332       -10.4310
  74   2.0000      -0.379145       -10.3171
  75   2.0000      -0.376602       -10.2479
  76   2.0000      -0.367043        -9.9877
  77   2.0000      -0.357444        -9.7266
  78   2.0000      -0.356175        -9.6920
  79   2.0000      -0.351340        -9.5604
  80   2.0000      -0.345673        -9.4063
  81   2.0000      -0.344279        -9.3683
  82   2.0000      -0.343678        -9.3520
  83   2.0000      -0.337637        -9.1876
  84   2.0000      -0.330301        -8.9880
  85   2.0000      -0.317729        -8.6458
  86   2.0000      -0.310296        -8.4436
  87   2.0000      -0.301033        -8.1915
  88   2.0000      -0.293913        -7.9978
  89   2.0000      -0.280898        -7.6436
  90   2.0000      -0.277747        -7.5579
  91   2.0000      -0.270642        -7.3645
  92   2.0000      -0.267703        -7.2846
  93   2.0000      -0.265005        -7.2112
  94   2.0000      -0.262124        -7.1328
  95   2.0000      -0.234340        -6.3767
  96   2.0000      -0.217702        -5.9240
  97   2.0000      -0.208253        -5.6669
  98   2.0000      -0.204531        -5.5656
  99   2.0000      -0.192480        -5.2376
 100   2.0000      -0.187153        -5.0927
 101   0.0000      -0.046469        -1.2645
 102   0.0000      -0.019865        -0.5406
 103   0.0000      -0.009433        -0.2567
 104   0.0000       0.005526         0.1504
 105   0.0000       0.021466         0.5841

MULLIKEN ATOMIC CHARGES
-----------------------
   0 C :   -0.315935
   1 C :   -0.004818
   2 O :   -0.367838
   3 P :    0.622101
   4 S :   -0.344404
   5 O :   -0.342730
   6 C :    0.003189
   7 C :   -0.310178
   8 S :   -0.079243
   9 C :   -0.341770
  10 S :   -0.105452
  11 P :    0.617538
  12 S :   -0.291376
  13 O :   -0.396780
  14 C :   -0.009555
  15 C :   -0.308757
  16 O :   -0.365764
  17 C :   -0.021408
  18 C :   -0.290909
  19 H :    0.119532
  20 H :    0.124958
  21 H :    0.113250
  22 H :    0.111340
  23 H :    0.107180
  24 H :    0.107440
  25 H :    0.107451
  26 H :    0.109812
  27 H :    0.119479
  28 H :    0.117782
  29 H :    0.184752
  30 H :    0.190353
  31 H :    0.099621
  32 H :    0.117198
  33 H :    0.108950
  34 H :    0.113255
  35 H :    0.130045
  36 H :    0.104589
  37 H :    0.108619
  38 H :    0.109955
  39 H :    0.120730
  40 H :    0.127795
Sum of atomic charges:   -0.0000000

LOEWDIN ATOMIC CHARGES
----------------------
   0 C :   -0.369795
   1 C :   -0.118800
   2 O :   -0.240098
   3 P :    0.576626
   4 S :   -0.329680
   5 O :   -0.226343
   6 C :   -0.116388
   7 C :   -0.365176
   8 S :    0.099010
   9 C :   -0.477458
  10 S :    0.083157
  11 P :    0.562673
  12 S :   -0.295769
  13 O :   -0.257299
  14 C :   -0.122620
  15 C :   -0.364822
  16 O :   -0.244123
  17 C :   -0.120699
  18 C :   -0.359347
  19 H :    0.125039
  20 H :    0.120315
  21 H :    0.131185
  22 H :    0.110588
  23 H :    0.119683
  24 H :    0.108666
  25 H :    0.119649
  26 H :    0.129221
  27 H :    0.127489
  28 H :    0.119763
  29 H :    0.132717
  30 H :    0.129535
  31 H :    0.114968
  32 H :    0.111652
  33 H :    0.121672
  34 H :    0.131407
  35 H :    0.126472
  36 H :    0.107159
  37 H :    0.119652
  38 H :    0.130126
  39 H :    0.129266
  40 H :    0.120730

  Mayer bond orders larger than 0.100000
B(  0-C ,  1-C ) :   1.1663 B(  0-C , 19-H ) :   0.9446 B(  0-C , 20-H ) :   0.9351
B(  0-C , 21-H ) :   0.9378 B(  1-C ,  2-O ) :   0.9078 B(  1-C , 22-H ) :   0.9159
B(  1-C , 23-H ) :   0.9337 B(  2-O ,  3-P ) :   1.1133 B(  3-P ,  4-S ) :   1.5813
B(  3-P ,  5-O ) :   1.1506 B(  3-P ,  8-S ) :   0.9514 B(  4-S ,  8-S ) :   0.1087
B(  5-O ,  6-C ) :   0.9053 B(  6-C ,  7-C ) :   1.1636 B(  6-C , 24-H ) :   0.9195
B(  6-C , 25-H ) :   0.9290 B(  7-C , 26-H ) :   0.9399 B(  7-C , 27-H ) :   0.9457
B(  7-C , 28-H ) :   0.9375 B(  8-S ,  9-C ) :   1.0141 B(  9-C , 10-S ) :   0.9939
B(  9-C , 29-H ) :   0.9034 B(  9-C , 30-H ) :   0.8801 B( 10-S , 11-P ) :   0.9510
B( 10-S , 12-S ) :   0.1044 B( 11-P , 12-S ) :   1.6671 B( 11-P , 13-O ) :   1.0533
B( 11-P , 16-O ) :   1.1184 B( 13-O , 14-C ) :   0.9041 B( 14-C , 15-C ) :   1.1636
B( 14-C , 31-H ) :   0.9336 B( 14-C , 32-H ) :   0.9102 B( 15-C , 33-H ) :   0.9474
B( 15-C , 34-H ) :   0.9401 B( 15-C , 35-H ) :   0.9345 B( 16-O , 17-C ) :   0.8976
B( 17-C , 18-C ) :   1.1668 B( 17-C , 36-H ) :   0.9146 B( 17-C , 37-H ) :   0.9320
B( 18-C , 38-H ) :   0.9399 B( 18-C , 39-H ) :   0.9460 B( 18-C , 40-H ) :   0.9385

Dispersion correction           -0.066765653
FINAL SINGLE POINT ENERGY     -2929.520393306674

DIPOLE MOMENT
-------------

Method             : SCF
Type of density    : Electron Density
Multiplicity       :   1
Irrep              :   0
Energy             : -2929.6380852226570823 Eh
Relativity type    :
Basis              : AO
                                X                 Y                 Z
Electronic contribution:      3.999088576      -0.865498640       1.052224400
Nuclear contribution   :     -4.526733571       1.657410724      -0.674446565
                        -----------------------------------------
Total Dipole Moment    :     -0.527644995       0.791912084       0.377777834
                        -----------------------------------------
Magnitude (a.u.)       :      1.023840848
Magnitude (Debye)      :      2.602396619

Rotational constants in cm-1:             0.012696             0.005098             0.004685
Rotational constants in MHz :           380.629294           152.843329           140.464693

                             ****ORCA TERMINATED NORMALLY****
TOTAL RUN TIME: 0 days 0 hours 0 minutes 21 seconds 166 msec
