                         Program Version 6.0.0  -   RELEASE  -
|  1> ! r2scan-3c def2/J RI DEFGRID2 scfconv6 printgap
|  2> %output
|  3>     printlevel normal
|  4> end
|  5> %cpcm
|  6>     smd true
|  7>     smdsolvent "water"
|  8> end
|  9> * xyz 0 1
| 10> C 1.5135928982 0.0296389396 0.5150182691
| 11> C 0.7217960323 0.0928760848 -0.5496675596
| 12> C -0.7218122767 -0.0925899443 -0.5497089457
| 13> C -1.5135828405 -0.029859271 0.515005537
| 14> H 2.57657324 0.1771330698 0.4363718106
| 15> H 1.132433743 -0.1815437129 1.4993139831
| 16> H 1.1589560044 0.2797486206 -1.5224691808
| 17> H -1.1589323444 -0.279558887 -1.52250948
| 18> H -2.5765334412 -0.1775775995 0.4363330145
| 19> H -1.1324234806 0.1810143201 1.4993744557
| 20> *
| 21>
| 22>                          ****END OF INPUT****

CARTESIAN COORDINATES (ANGSTROEM)
---------------------------------
  C      1.513593    0.029639    0.515018
  C      0.721796    0.092876   -0.549668
  C     -0.721812   -0.092590   -0.549709
  C     -1.513583   -0.029859    0.515006
  H      2.576573    0.177133    0.436372
  H      1.132434   -0.181544    1.499314
  H      1.158956    0.279749   -1.522469
  H     -1.158932   -0.279559   -1.522509
  H     -2.576533   -0.177578    0.436333
  H     -1.132423    0.181014    1.499374

 Total Charge           Charge          ....    0
 Multiplicity           Mult            ....    1
 Number of Electrons    NEL             ....   30
 Basis Dimension        Dim             ....  106

ORBITAL ENERGIES
----------------

  NO   OCC          E(Eh)            E(eV)
   0   2.0000     -10.036258      -273.1005
   1   2.0000     -10.036014      -273.0938
   2   2.0000     -10.023576      -272.7554
   3   2.0000     -10.023568      -272.7551
   4   2.0000      -0.775256       -21.0958
   5   2.0000      -0.696403       -18.9501
   6   2.0000      -0.588489       -16.0136
   7   2.0000      -0.494055       -13.4439
   8   2.0000      -0.459021       -12.4906
   9   2.0000      -0.406938       -11.0734
  10   2.0000      -0.384724       -10.4689
  11   2.0000      -0.328555        -8.9404
  12   2.0000      -0.313119        -8.5204
  13   2.0000      -0.302285        -8.2256
  14   2.0000      -0.218179        -5.9370
  15   0.0000      -0.066013        -1.7963
  16   0.0000       0.049391         1.3440
  17   0.0000       0.112580         3.0635
  18   0.0000       0.135430         3.6852
  19   0.0000       0.155248         4.2245

MULLIKEN ATOMIC CHARGES
-----------------------
   0 C :   -0.372895
   1 C :   -0.145265
   2 C :   -0.145236
   3 C :   -0.372904
   4 H :    0.173360
   5 H :    0.165999
   6 H :    0.178791
   7 H :    0.178795
   8 H :    0.173358
   9 H :    0.165997
Sum of atomic charges:    0.0000000

LOEWDIN ATOMIC CHARGES
----------------------
   0 C :   -0.297598
   1 C :   -0.207529
   2 C :   -0.207531
   3 C :   -0.297602
   4 H :    0.166694
   5 H :    0.165190
   6 H :    0.173244
   7 H :    0.173246
   8 H :    0.166694
   9 H :    0.165191

  Mayer bond orders larger than 0.100000
B(  0-C ,  1-C ) :   1.8339 B(  0-C ,  3-C ) :   0.1171 B(  0-C ,  4-H ) :   0.9575
B(  0-C ,  5-H ) :   0.9719 B(  1-C ,  2-C ) :   1.0175 B(  1-C ,  6-H ) :   0.9454
B(  2-C ,  3-C ) :   1.8339 B(  2-C ,  7-H ) :   0.9454 B(  3-C ,  8-H ) :   0.9575
B(  3-C ,  9-H ) :   0.9720

Dispersion correction           -0.001929759
FINAL SINGLE POINT ENERGY      -155.929836370690

DIPOLE MOMENT
-------------

Method             : SCF
Type of density    : Electron Density
Multiplicity       :   1
Irrep              :   0
Energy             :  -155.9305610743392378 Eh
Relativity type    :
Basis              : AO
                                X                 Y                 Z
Electronic contribution:     -0.000030950       0.000484218      -0.806521331
Nuclear contribution   :      0.000069163      -0.000735704       0.775319501
                        -----------------------------------------
Total Dipole Moment    :      0.000038213      -0.000251486      -0.031201829
                        -----------------------------------------
Magnitude (a.u.)       :      0.031202866
Magnitude (Debye)      :      0.079311383

Rotational constants in cm-1:             0.715477             0.194346             0.153787
Rotational constants in MHz :         21449.455361          5826.345796          4610.423361

                             ****ORCA TERMINATED NORMALLY****
TOTAL RUN TIME: 0 days 0 hours 0 minutes 22 seconds 903 msec
