                         Program Version 6.0.0  -   RELEASE  -
|  1> ! pbe def2-sv(p) def2/J RI DEFGRID1 loosescf d4 GCP(DFT/SV(P)) printgap
|  2> %output
|  3>     printlevel normal
|  4> end
|  5> * xyz 0 1
|  6> C 5.1563883337 -1.5099169075 -1.5575849133
|  7> C 3.70872361 -1.701409595 -1.9664049534
|  8> O 2.8482810844 -1.727546592 -0.8088013104
|  9> P 2.0952797298 -0.4329207261 -0.27088428
| 10> S 3.206493607 1.1542000689 0.0493862115
| 11> O 1.3565524558 -1.0349174574 0.9870127441
| 12> C 1.8574521306 -0.9446504729 2.3398619019
| 13> C 0.8232268606 -0.2715538525 3.2204234849
| 14> S 0.5231754066 -0.2135637294 -1.6650385107
| 15> C 0.0740940254 1.4864505687 -1.2238575973
| 16> S -0.5416303459 1.6224243972 0.4700183709
| 17> P -2.2625789036 0.4080550583 0.2069415402
| 18> S -3.1523103736 0.5601257542 -1.5390585972
| 19> O -3.1111854051 0.7256040272 1.5074919556
| 20> C -3.4284807904 2.0411829209 1.9990053978
| 21> C -4.1230335803 2.9030158535 0.9647047621
| 22> O -1.8260229812 -1.066004175 0.5901113972
| 23> C -2.0747137041 -2.2258960512 -0.232188899
| 24> C -0.9770962073 -3.2417119971 0.0078546341
| 25> H 5.4520865356 -2.2867531651 -0.8581630477
| 26> H 5.7865113299 -1.5607417726 -2.4395844111
| 27> H 5.2892675762 -0.540501851 -1.0824535423
| 28> H 3.5548560978 -2.6701309454 -2.4452991783
| 29> H 3.3820868692 -0.9056877227 -2.6418414164
| 30> H 2.0446066163 -1.9722882063 2.6567074684
| 31> H 2.7975770077 -0.384032195 2.337844038
| 32> H 1.1273264019 -0.358780625 4.2584398717
| 33> H 0.7329624763 0.7807087241 2.9612321638
| 34> H -0.1448630945 -0.7480604315 3.0851431688
| 35> H -0.7026559365 1.791189719 -1.9251351598
| 36> H 0.952026582 2.1285769375 -1.2897380283
| 37> H -4.0769817237 1.8436005455 2.8544062622
| 38> H -2.5023168173 2.513662848 2.3381298279
| 39> H -5.0020618299 2.3943168673 0.575979932
| 40> H -4.4226103471 3.8413450971 1.4202641084
| 41> H -3.4501697148 3.1110560145 0.1340474956
| 42> H -3.0498031887 -2.6251552673 0.0577081318
| 43> H -2.1153289802 -1.91929046 -1.2829323979
| 44> H -0.9336515624 -3.4991402463 1.0621691519
| 45> H -1.1900673832 -4.1326995657 -0.5739279932
| 46> H -0.0124925651 -2.8409070256 -0.2940941865
| 47> *
| 48>
| 49>                          ****END OF INPUT****

CARTESIAN COORDINATES (ANGSTROEM)
---------------------------------
  C      5.156388   -1.509917   -1.557585
  C      3.708724   -1.701410   -1.966405
  O      2.848281   -1.727547   -0.808801
  P      2.095280   -0.432921   -0.270884
  S      3.206494    1.154200    0.049386
  O      1.356552   -1.034917    0.987013
  C      1.857452   -0.944650    2.339862
  C      0.823227   -0.271554    3.220423
  S      0.523175   -0.213564   -1.665039
  C      0.074094    1.486451   -1.223858
  S     -0.541630    1.622424    0.470018
  P     -2.262579    0.408055    0.206942
  S     -3.152310    0.560126   -1.539059
  O     -3.111185    0.725604    1.507492
  C     -3.428481    2.041183    1.999005
  C     -4.123034    2.903016    0.964705
  O     -1.826023   -1.066004    0.590111
  C     -2.074714   -2.225896   -0.232189
  C     -0.977096   -3.241712    0.007855
  H      5.452087   -2.286753   -0.858163
  H      5.786511   -1.560742   -2.439584
  H      5.289268   -0.540502   -1.082454
  H      3.554856   -2.670131   -2.445299
  H      3.382087   -0.905688   -2.641841
  H      2.044607   -1.972288    2.656707
  H      2.797577   -0.384032    2.337844
  H      1.127326   -0.358781    4.258440
  H      0.732962    0.780709    2.961232
  H     -0.144863   -0.748060    3.085143
  H     -0.702656    1.791190   -1.925135
  H      0.952027    2.128577   -1.289738
  H     -4.076982    1.843601    2.854406
  H     -2.502317    2.513663    2.338130
  H     -5.002062    2.394317    0.575980
  H     -4.422610    3.841345    1.420264
  H     -3.450170    3.111056    0.134047
  H     -3.049803   -2.625155    0.057708
  H     -2.115329   -1.919290   -1.282932
  H     -0.933652   -3.499140    1.062169
  H     -1.190067   -4.132700   -0.573928
  H     -0.012493   -2.840907   -0.294094

 Total Charge           Charge          ....    0
 Multiplicity           Mult            ....    1
 Number of Electrons    NEL             ....  202
 Basis Dimension        Dim             ....  334

ORBITAL ENERGIES
----------------

  NO   OCC          E(Eh)            E(eV)
   0   2.0000     -88.047227     -2395.8869
   1   2.0000     -88.044886     -2395.8231
   2   2.0000     -87.991236     -2394.3633
   3   2.0000     -87.985878     -2394.2174
   4   2.0000     -76.429803     -2079.7607
   5   2.0000     -76.426888     -2079.6814
   6   2.0000     -18.795981      -511.4646
   7   2.0000     -18.793061      -511.3852
   8   2.0000     -18.790584      -511.3178
   9   2.0000     -18.785101      -511.1686
  10   2.0000      -9.957957      -270.9698
  11   2.0000      -9.956713      -270.9359
  12   2.0000      -9.956451      -270.9288
  13   2.0000      -9.951422      -270.7920
  14   2.0000      -9.944046      -270.5913
  15   2.0000      -9.883012      -268.9304
  16   2.0000      -9.882853      -268.9261
  17   2.0000      -9.879622      -268.8382
  18   2.0000      -9.876927      -268.7648
  19   2.0000      -7.692088      -209.3124
  20   2.0000      -7.689571      -209.2439
  21   2.0000      -7.636160      -207.7905
  22   2.0000      -7.630876      -207.6467
  23   2.0000      -6.427106      -174.8904
  24   2.0000      -6.423882      -174.8027
  25   2.0000      -5.719901      -155.6464
  26   2.0000      -5.717355      -155.5771
  27   2.0000      -5.716601      -155.5566
  28   2.0000      -5.714073      -155.4878
  29   2.0000      -5.709141      -155.3536
  30   2.0000      -5.706662      -155.2862
  31   2.0000      -5.664965      -154.1515
  32   2.0000      -5.659739      -154.0093
  33   2.0000      -5.656827      -153.9301
  34   2.0000      -5.656403      -153.9185
  35   2.0000      -5.651491      -153.7849
  36   2.0000      -5.651106      -153.7744
  37   2.0000      -4.649576      -126.5214
  38   2.0000      -4.648931      -126.5039
  39   2.0000      -4.647638      -126.4686
  40   2.0000      -4.646233      -126.4304
  41   2.0000      -4.645874      -126.4207
  42   2.0000      -4.644388      -126.3802
  43   2.0000      -0.988337       -26.8940
  44   2.0000      -0.984949       -26.8018
  45   2.0000      -0.946302       -25.7502
  46   2.0000      -0.941182       -25.6109
  47   2.0000      -0.768616       -20.9151
  48   2.0000      -0.722940       -19.6722
  49   2.0000      -0.710356       -19.3298
  50   2.0000      -0.686244       -18.6736
  51   2.0000      -0.683673       -18.6037
  52   2.0000      -0.674090       -18.3429
  53   2.0000      -0.650710       -17.7067
  54   2.0000      -0.640798       -17.4370
  55   2.0000      -0.599086       -16.3020
  56   2.0000      -0.591810       -16.1040
  57   2.0000      -0.575404       -15.6575
  58   2.0000      -0.566609       -15.4182
  59   2.0000      -0.557306       -15.1651
  60   2.0000      -0.507245       -13.8028
  61   2.0000      -0.498913       -13.5761
  62   2.0000      -0.479638       -13.0516
  63   2.0000      -0.470282       -12.7970
  64   2.0000      -0.460372       -12.5274
  65   2.0000      -0.442352       -12.0370
  66   2.0000      -0.438455       -11.9310
  67   2.0000      -0.430593       -11.7170
  68   2.0000      -0.424374       -11.5478
  69   2.0000      -0.416580       -11.3357
  70   2.0000      -0.409507       -11.1433
  71   2.0000      -0.401596       -10.9280
  72   2.0000      -0.395315       -10.7571
  73   2.0000      -0.385880       -10.5003
  74   2.0000      -0.382586       -10.4107
  75   2.0000      -0.376431       -10.2432
  76   2.0000      -0.364007        -9.9051
  77   2.0000      -0.352661        -9.5964
  78   2.0000      -0.350138        -9.5277
  79   2.0000      -0.348515        -9.4836
  80   2.0000      -0.346454        -9.4275
  81   2.0000      -0.343926        -9.3587
  82   2.0000      -0.340036        -9.2528
  83   2.0000      -0.335618        -9.1326
  84   2.0000      -0.329143        -8.9564
  85   2.0000      -0.323664        -8.8073
  86   2.0000      -0.308848        -8.4042
  87   2.0000      -0.300448        -8.1756
  88   2.0000      -0.296655        -8.0724
  89   2.0000      -0.290808        -7.9133
  90   2.0000      -0.283031        -7.7017
  91   2.0000      -0.279444        -7.6041
  92   2.0000      -0.271974        -7.4008
  93   2.0000      -0.267300        -7.2736
  94   2.0000      -0.254507        -6.9255
  95   2.0000      -0.234634        -6.3847
  96   2.0000      -0.221413        -6.0249
  97   2.0000      -0.213850        -5.8191
  98   2.0000      -0.208082        -5.6622
  99   2.0000      -0.200499        -5.4558
 100   2.0000      -0.199241        -5.4216
 101   0.0000      -0.049205        -1.3389
 102   0.0000      -0.026373        -0.7176
 103   0.0000      -0.005642        -0.1535
 104   0.0000      -0.002089        -0.0568
 105   0.0000       0.004799         0.1306

MULLIKEN ATOMIC CHARGES
-----------------------
   0 C :   -0.291090
   1 C :   -0.009206
   2 O :   -0.377465
   3 P :    0.612800
   4 S :   -0.329398
   5 O :   -0.358356
   6 C :   -0.004179
   7 C :   -0.296821
   8 S :   -0.078965
   9 C :   -0.355211
  10 S :   -0.098592
  11 P :    0.616427
  12 S :   -0.334832
  13 O :   -0.365880
  14 C :   -0.013733
  15 C :   -0.306861
  16 O :   -0.360262
  17 C :   -0.006310
  18 C :   -0.288307
  19 H :    0.112268
  20 H :    0.108422
  21 H :    0.128955
  22 H :    0.107780
  23 H :    0.102441
  24 H :    0.103184
  25 H :    0.105975
  26 H :    0.104814
  27 H :    0.125378
  28 H :    0.124619
  29 H :    0.192950
  30 H :    0.191987
  31 H :    0.109870
  32 H :    0.114602
  33 H :    0.126009
  34 H :    0.110915
  35 H :    0.124143
  36 H :    0.101047
  37 H :    0.113213
  38 H :    0.108565
  39 H :    0.103296
  40 H :    0.125807
Sum of atomic charges:   -0.0000000

LOEWDIN ATOMIC CHARGES
----------------------
   0 C :   -0.362576
   1 C :   -0.115963
   2 O :   -0.249166
   3 P :    0.566523
   4 S :   -0.321834
   5 O :   -0.229792
   6 C :   -0.111648
   7 C :   -0.360377
   8 S :    0.097241
   9 C :   -0.481728
  10 S :    0.090894
  11 P :    0.571438
  12 S :   -0.318334
  13 O :   -0.240565
  14 C :   -0.115221
  15 C :   -0.368509
  16 O :   -0.236841
  17 C :   -0.118276
  18 C :   -0.355157
  19 H :    0.125377
  20 H :    0.129159
  21 H :    0.124802
  22 H :    0.119126
  23 H :    0.107708
  24 H :    0.115766
  25 H :    0.107214
  26 H :    0.126730
  27 H :    0.120807
  28 H :    0.127143
  29 H :    0.130559
  30 H :    0.131033
  31 H :    0.121752
  32 H :    0.108069
  33 H :    0.130084
  34 H :    0.129743
  35 H :    0.120817
  36 H :    0.112088
  37 H :    0.104037
  38 H :    0.123235
  39 H :    0.127017
  40 H :    0.117625

  Mayer bond orders larger than 0.100000
B(  0-C ,  1-C ) :   1.1677 B(  0-C , 19-H ) :   0.9476 B(  0-C , 20-H ) :   0.9396
B(  0-C , 21-H ) :   0.9328 B(  1-C ,  2-O ) :   0.9032 B(  1-C , 22-H ) :   0.9356
B(  1-C , 23-H ) :   0.9153 B(  2-O ,  3-P ) :   1.0977 B(  3-P ,  4-S ) :   1.5965
B(  3-P ,  5-O ) :   1.1311 B(  3-P ,  8-S ) :   0.9635 B(  4-S ,  8-S ) :   0.1068
B(  5-O ,  6-C ) :   0.8961 B(  6-C ,  7-C ) :   1.1693 B(  6-C , 24-H ) :   0.9341
B(  6-C , 25-H ) :   0.9059 B(  7-C , 26-H ) :   0.9391 B(  7-C , 27-H ) :   0.9421
B(  7-C , 28-H ) :   0.9443 B(  8-S ,  9-C ) :   1.0016 B(  9-C , 10-S ) :   1.0125
B(  9-C , 29-H ) :   0.8790 B(  9-C , 30-H ) :   0.8815 B( 10-S , 11-P ) :   0.9354
B( 10-S , 12-S ) :   0.1087 B( 11-P , 12-S ) :   1.6005 B( 11-P , 13-O ) :   1.1268
B( 11-P , 16-O ) :   1.1290 B( 13-O , 14-C ) :   0.9159 B( 14-C , 15-C ) :   1.1640
B( 14-C , 31-H ) :   0.9339 B( 14-C , 32-H ) :   0.9253 B( 15-C , 33-H ) :   0.9434
B( 15-C , 34-H ) :   0.9356 B( 15-C , 35-H ) :   0.9337 B( 16-O , 17-C ) :   0.8961
B( 17-C , 18-C ) :   1.1632 B( 17-C , 36-H ) :   0.9347 B( 17-C , 37-H ) :   0.9044
B( 18-C , 38-H ) :   0.9487 B( 18-C , 39-H ) :   0.9400 B( 18-C , 40-H ) :   0.9380

Dispersion correction           -0.067354138
FINAL SINGLE POINT ENERGY     -2929.524916813487

DIPOLE MOMENT
-------------

Method             : SCF
Type of density    : Electron Density
Multiplicity       :   1
Irrep              :   0
Energy             : -2929.6425781073003236 Eh
Relativity type    :
Basis              : AO
                                X                 Y                 Z
Electronic contribution:     -3.185276262       7.144755418      -7.939869772
Nuclear contribution   :      3.436499429      -7.656775767       8.526633715
                        -----------------------------------------
Total Dipole Moment    :      0.251223168      -0.512020349       0.586763943
                        -----------------------------------------
Magnitude (a.u.)       :      0.818272475
Magnitude (Debye)      :      2.079883339

Rotational constants in cm-1:             0.013226             0.005145             0.004953
Rotational constants in MHz :           396.507695           154.230008           148.496854

                             ****ORCA TERMINATED NORMALLY****
TOTAL RUN TIME: 0 days 0 hours 0 minutes 21 seconds 693 msec
