                         Program Version 6.0.1  -  RELEASE   -
|  1> ! pbe def2-sv(p) def2/J RI DEFGRID1 loosescf d4 GCP(DFT/SV(P)) printgap
|  2> %output
|  3>     printlevel normal
|  4> end
|  5> * xyz 0 1
|  6> C 3.6885578807 -1.3165483328 1.7605735259
|  7> C 2.8557742768 -2.170557597 0.8187201794
|  8> O 2.5801033282 -1.4626911422 -0.4075041971
|  9> C 1.5872392114 -0.6187435003 -0.4411466705
| 10> O 0.8550336385 -0.3573164615 0.504518238
| 11> C 1.4027105843 0.0459050274 -1.7824611924
| 12> C 0.3428926437 1.1261470765 -1.6264765139
| 13> H 0.3049653918 1.7685451408 -2.5103640896
| 14> C 0.6060238448 1.9969876348 -0.4046432351
| 15> O -0.2618121592 2.4538379106 0.3012587003
| 16> O 1.8956895677 2.2243472496 -0.2555699656
| 17> C 2.3122205594 3.0718526448 0.8351467045
| 18> C 2.197518838 4.5411279985 0.463909061
| 19> S -1.3633541098 0.4649580369 -1.5565984585
| 20> P -1.593623037 -0.9149258065 0.0261183204
| 21> S -0.8104884764 -2.712061848 0.0506430242
| 22> O -1.6147132232 -0.256022225 1.4804493331
| 23> C -2.4488569478 0.8630930041 1.8200948007
| 24> O -3.1642920515 -0.9957688826 -0.3725824071
| 25> C -4.0006078502 -2.1009583493 -0.0270049237
| 26> H 3.9412397492 -1.899059547 2.6401500648
| 27> H 4.6012104786 -0.9961262799 1.265919489
| 28> H 3.1217037085 -0.4408555514 2.0699903983
| 29> H 1.9049065894 -2.4555304593 1.2781370333
| 30> H 3.3965491496 -3.0597493757 0.4962396415
| 31> H 1.0956491482 -0.7014892938 -2.5163577733
| 32> H 2.3542722936 0.4738203237 -2.1001256057
| 33> H 1.6971944052 2.8392220436 1.709277098
| 34> H 3.3488509356 2.7857547326 1.0144087126
| 35> H 2.5812593764 5.1450627216 1.2794323836
| 36> H 2.771681296 4.7453652868 -0.4353940205
| 37> H 1.1566619572 4.8036889911 0.2898084172
| 38> H -3.3919987103 0.8182316326 1.2749013404
| 39> H -1.9245767536 1.7865807462 1.5779033484
| 40> H -2.6159065781 0.7831636159 2.891483933
| 41> H -3.4395345443 -3.0353095628 -0.0974894441
| 42> H -4.8137300668 -2.0932230432 -0.7488376754
| 43> H -4.3846090653 -1.9813250456 0.986487828
| 44> *
| 45>
| 46>                          ****END OF INPUT****

CARTESIAN COORDINATES (ANGSTROEM)
---------------------------------
  C      3.688558   -1.316548    1.760574
  C      2.855774   -2.170558    0.818720
  O      2.580103   -1.462691   -0.407504
  C      1.587239   -0.618744   -0.441147
  O      0.855034   -0.357316    0.504518
  C      1.402711    0.045905   -1.782461
  C      0.342893    1.126147   -1.626477
  H      0.304965    1.768545   -2.510364
  C      0.606024    1.996988   -0.404643
  O     -0.261812    2.453838    0.301259
  O      1.895690    2.224347   -0.255570
  C      2.312221    3.071853    0.835147
  C      2.197519    4.541128    0.463909
  S     -1.363354    0.464958   -1.556598
  P     -1.593623   -0.914926    0.026118
  S     -0.810488   -2.712062    0.050643
  O     -1.614713   -0.256022    1.480449
  C     -2.448857    0.863093    1.820095
  O     -3.164292   -0.995769   -0.372582
  C     -4.000608   -2.100958   -0.027005
  H      3.941240   -1.899060    2.640150
  H      4.601210   -0.996126    1.265919
  H      3.121704   -0.440856    2.069990
  H      1.904907   -2.455530    1.278137
  H      3.396549   -3.059749    0.496240
  H      1.095649   -0.701489   -2.516358
  H      2.354272    0.473820   -2.100126
  H      1.697194    2.839222    1.709277
  H      3.348851    2.785755    1.014409
  H      2.581259    5.145063    1.279432
  H      2.771681    4.745365   -0.435394
  H      1.156662    4.803689    0.289808
  H     -3.391999    0.818232    1.274901
  H     -1.924577    1.786581    1.577903
  H     -2.615907    0.783164    2.891484
  H     -3.439535   -3.035310   -0.097489
  H     -4.813730   -2.093223   -0.748838
  H     -4.384609   -1.981325    0.986488

 Total Charge           Charge          ....    0
 Multiplicity           Mult            ....    1
 Number of Electrons    NEL             ....  174
 Basis Dimension        Dim             ....  316

ORBITAL ENERGIES
----------------

  NO   OCC          E(Eh)            E(eV)
   0   2.0000     -88.030239     -2395.4246
   1   2.0000     -87.964313     -2393.6307
   2   2.0000     -76.413167     -2079.3080
   3   2.0000     -18.812348      -511.9100
   4   2.0000     -18.811344      -511.8827
   5   2.0000     -18.772564      -510.8274
   6   2.0000     -18.772172      -510.8168
   7   2.0000     -18.749198      -510.1916
   8   2.0000     -18.742770      -510.0167
   9   2.0000     -10.019760      -272.6515
  10   2.0000     -10.019129      -272.6344
  11   2.0000      -9.955198      -270.8947
  12   2.0000      -9.948941      -270.7245
  13   2.0000      -9.946582      -270.6603
  14   2.0000      -9.928979      -270.1813
  15   2.0000      -9.923726      -270.0383
  16   2.0000      -9.915245      -269.8075
  17   2.0000      -9.892534      -269.1895
  18   2.0000      -9.888454      -269.0785
  19   2.0000      -7.674977      -208.8467
  20   2.0000      -7.609791      -207.0729
  21   2.0000      -6.409336      -174.4069
  22   2.0000      -5.703493      -155.1999
  23   2.0000      -5.699322      -155.0864
  24   2.0000      -5.691474      -154.8729
  25   2.0000      -5.639142      -153.4488
  26   2.0000      -5.630169      -153.2047
  27   2.0000      -5.629609      -153.1894
  28   2.0000      -4.632706      -126.0623
  29   2.0000      -4.631041      -126.0170
  30   2.0000      -4.629529      -125.9759
  31   2.0000      -1.022877       -27.8339
  32   2.0000      -1.016942       -27.6724
  33   2.0000      -0.962926       -26.2025
  34   2.0000      -0.927317       -25.2336
  35   2.0000      -0.922444       -25.1010
  36   2.0000      -0.919493       -25.0207
  37   2.0000      -0.763443       -20.7743
  38   2.0000      -0.713402       -19.4126
  39   2.0000      -0.708388       -19.2762
  40   2.0000      -0.686553       -18.6821
  41   2.0000      -0.651258       -17.7216
  42   2.0000      -0.629231       -17.1222
  43   2.0000      -0.617574       -16.8050
  44   2.0000      -0.601767       -16.3749
  45   2.0000      -0.598176       -16.2772
  46   2.0000      -0.567069       -15.4307
  47   2.0000      -0.512279       -13.9398
  48   2.0000      -0.501181       -13.6378
  49   2.0000      -0.493052       -13.4166
  50   2.0000      -0.484933       -13.1957
  51   2.0000      -0.463481       -12.6120
  52   2.0000      -0.453224       -12.3329
  53   2.0000      -0.444469       -12.0946
  54   2.0000      -0.436050       -11.8655
  55   2.0000      -0.429196       -11.6790
  56   2.0000      -0.425459       -11.5773
  57   2.0000      -0.422032       -11.4841
  58   2.0000      -0.411635       -11.2011
  59   2.0000      -0.401367       -10.9218
  60   2.0000      -0.395378       -10.7588
  61   2.0000      -0.393769       -10.7150
  62   2.0000      -0.385895       -10.5007
  63   2.0000      -0.384556       -10.4643
  64   2.0000      -0.378246       -10.2926
  65   2.0000      -0.370983       -10.0950
  66   2.0000      -0.361411        -9.8345
  67   2.0000      -0.355749        -9.6804
  68   2.0000      -0.342143        -9.3102
  69   2.0000      -0.339718        -9.2442
  70   2.0000      -0.332579        -9.0499
  71   2.0000      -0.329538        -8.9672
  72   2.0000      -0.322560        -8.7773
  73   2.0000      -0.307726        -8.3737
  74   2.0000      -0.304361        -8.2821
  75   2.0000      -0.298602        -8.1254
  76   2.0000      -0.292512        -7.9596
  77   2.0000      -0.269838        -7.3427
  78   2.0000      -0.268095        -7.2952
  79   2.0000      -0.262353        -7.1390
  80   2.0000      -0.252783        -6.8786
  81   2.0000      -0.242969        -6.6115
  82   2.0000      -0.236172        -6.4266
  83   2.0000      -0.230874        -6.2824
  84   2.0000      -0.214623        -5.8402
  85   2.0000      -0.181536        -4.9399
  86   2.0000      -0.179735        -4.8908
  87   0.0000      -0.046799        -1.2735
  88   0.0000      -0.028552        -0.7769
  89   0.0000      -0.017990        -0.4895
  90   0.0000       0.003159         0.0860
  91   0.0000       0.030622         0.8333

MULLIKEN ATOMIC CHARGES
-----------------------
   0 C :   -0.312985
   1 C :   -0.017547
   2 O :   -0.208335
   3 C :    0.142929
   4 O :   -0.227675
   5 C :   -0.053122
   6 C :   -0.315251
   7 H :    0.145570
   8 C :    0.215689
   9 O :   -0.178613
  10 O :   -0.245021
  11 C :   -0.010625
  12 C :   -0.305153
  13 S :   -0.068257
  14 P :    0.663336
  15 S :   -0.357486
  16 O :   -0.368660
  17 C :   -0.132052
  18 O :   -0.416197
  19 C :   -0.101223
  20 H :    0.116745
  21 H :    0.110030
  22 H :    0.128102
  23 H :    0.133887
  24 H :    0.105184
  25 H :    0.138623
  26 H :    0.122274
  27 H :    0.116301
  28 H :    0.103347
  29 H :    0.115331
  30 H :    0.112393
  31 H :    0.130529
  32 H :    0.112400
  33 H :    0.147349
  34 H :    0.114322
  35 H :    0.121734
  36 H :    0.116718
  37 H :    0.105411
Sum of atomic charges:   -0.0000000

LOEWDIN ATOMIC CHARGES
----------------------
   0 C :   -0.357616
   1 C :   -0.109237
   2 O :   -0.031384
   3 C :    0.038551
   4 O :   -0.166373
   5 C :   -0.254626
   6 C :   -0.266546
   7 H :    0.151630
   8 C :    0.018868
   9 O :   -0.153797
  10 O :   -0.059570
  11 C :   -0.107415
  12 C :   -0.356873
  13 S :    0.129109
  14 P :    0.586880
  15 S :   -0.334463
  16 O :   -0.242754
  17 C :   -0.221601
  18 O :   -0.281697
  19 C :   -0.217536
  20 H :    0.132922
  21 H :    0.122493
  22 H :    0.129082
  23 H :    0.125167
  24 H :    0.120111
  25 H :    0.151360
  26 H :    0.147118
  27 H :    0.123810
  28 H :    0.117725
  29 H :    0.132136
  30 H :    0.124392
  31 H :    0.131687
  32 H :    0.107918
  33 H :    0.120831
  34 H :    0.117403
  35 H :    0.106770
  36 H :    0.117677
  37 H :    0.107847

  Mayer bond orders larger than 0.100000
B(  0-C ,  1-C ) :   1.1677 B(  0-C , 20-H ) :   0.9439 B(  0-C , 21-H ) :   0.9477
B(  0-C , 22-H ) :   0.9442 B(  1-C ,  2-O ) :   0.9001 B(  1-C , 23-H ) :   0.9069
B(  1-C , 24-H ) :   0.9387 B(  2-O ,  3-C ) :   1.2993 B(  3-C ,  4-O ) :   1.8509
B(  3-C ,  5-C ) :   1.0122 B(  4-O , 14-P ) :   0.1075 B(  5-C ,  6-C ) :   1.0300
B(  5-C , 25-H ) :   0.8790 B(  5-C , 26-H ) :   0.8743 B(  6-C ,  7-H ) :   0.8651
B(  6-C ,  8-C ) :   0.8734 B(  6-C , 13-S ) :   1.0476 B(  8-C ,  9-O ) :   2.0391
B(  8-C , 10-O ) :   1.2244 B( 10-O , 11-C ) :   0.9086 B( 11-C , 12-C ) :   1.1748
B( 11-C , 27-H ) :   0.9155 B( 11-C , 28-H ) :   0.9364 B( 12-C , 29-H ) :   0.9438
B( 12-C , 30-H ) :   0.9480 B( 12-C , 31-H ) :   0.9443 B( 13-S , 14-P ) :   0.9668
B( 13-S , 15-S ) :   0.1055 B( 14-P , 15-S ) :   1.5868 B( 14-P , 16-O ) :   1.1070
B( 14-P , 18-O ) :   1.0104 B( 16-O , 17-C ) :   0.9261 B( 17-C , 32-H ) :   0.9388
B( 17-C , 33-H ) :   0.9265 B( 17-C , 34-H ) :   0.9572 B( 18-O , 19-C ) :   0.9388
B( 19-C , 35-H ) :   0.9248 B( 19-C , 36-H ) :   0.9594 B( 19-C , 37-H ) :   0.9532

Dispersion correction           -0.054277977
FINAL SINGLE POINT ENERGY     -1979.005806266632

DIPOLE MOMENT
-------------

Method             : SCF
Type of density    : Electron Density
Multiplicity       :   1
Irrep              :   0
Energy             : -1979.1367312489510368 Eh
Relativity type    :
Basis              : AO
                                X                 Y                 Z
Electronic contribution:    -11.312537330      -8.615437736      -9.593537284
Nuclear contribution   :     12.473173006       9.618912355       9.763461258
                        -----------------------------------------
Total Dipole Moment    :      1.160635676       1.003474619       0.169923974
                        -----------------------------------------
Magnitude (a.u.)       :      1.543667918
Magnitude (Debye)      :      3.923692026

Rotational constants in cm-1:             0.012990             0.008391             0.006409
Rotational constants in MHz :           389.421857           251.542648           192.133426

                             ****ORCA TERMINATED NORMALLY****
TOTAL RUN TIME: 0 days 0 hours 0 minutes 29 seconds 793 msec
