                         Program Version 6.0.0  -   RELEASE  -
|  1> ! r2scan-3c def2/J RI DEFGRID2 scfconv6 printgap
|  2> %output
|  3>     printlevel normal
|  4> end
|  5> * xyz 0 1
|  6> C 3.2818143233 -0.1316906274 -2.9532484953
|  7> C 1.8367962201 0.1136582585 -2.5767389509
|  8> O 1.4258422509 -0.667243197 -1.4346302484
|  9> P 2.0876960832 -0.4771411574 -0.0057710586
| 10> S 2.6568255618 1.3273718368 0.5178365537
| 11> O 3.2724542061 -1.5355980985 -0.0958099934
| 12> C 4.3765692652 -1.5431171925 0.8240786232
| 13> C 3.9525089239 -1.9125326136 2.2310682536
| 14> S 0.6561926427 -1.4513131805 1.2063270862
| 15> C 0.0310377426 -0.0347425861 2.1753707289
| 16> S -1.7746412517 0.0946345881 2.1518372178
| 17> P -2.0492206305 0.4243419514 0.0930696773
| 18> S -0.7617935271 1.6209005445 -0.7911092463
| 19> O -3.557879898 0.9071037099 0.0056790387
| 20> C -3.9461863826 2.2527317242 0.3487069994
| 21> C -5.3311600286 2.4947922001 -0.2163184153
| 22> O -2.1502863906 -1.0578781105 -0.4427004503
| 23> C -1.9593698331 -1.4196400907 -1.825489759
| 24> C -2.9923736659 -0.7754828172 -2.724735922
| 25> H 3.5029788853 0.3926764042 -3.8776432428
| 26> H 3.9391825303 0.2425805934 -2.1693069912
| 27> H 3.4590667701 -1.1959529405 -3.0854634399
| 28> H 1.1547730788 -0.2023282162 -3.3678781281
| 29> H 1.661422184 1.1703488014 -2.3479529278
| 30> H 5.0619797138 -2.2797584718 0.4029456144
| 31> H 4.8402492898 -0.551414691 0.8134831657
| 32> H 3.3276625586 -1.1237709038 2.6482594001
| 33> H 3.3889026184 -2.8420555621 2.2251808613
| 34> H 4.834701256 -2.0276547424 2.8525812279
| 35> H 0.4791053848 0.8822156048 1.782007822
| 36> H 0.2986013723 -0.1846762578 3.218182465
| 37> H -3.9375103663 2.3431291719 1.4382147639
| 38> H -3.2109211722 2.9463566803 -0.0733869403
| 39> H -5.3161401564 2.4071065677 -1.298933278
| 40> H -6.0262049101 1.7643939812 0.1871907265
| 41> H -5.6573274676 3.4926533498 0.0576843542
| 42> H -0.9457274108 -1.1305549342 -2.1192391558
| 43> H -2.04306295 -2.5073361928 -1.8184845594
| 44> H -2.8670546509 -1.1397670674 -3.7396381294
| 45> H -3.9931235753 -1.0127610442 -2.3733850041
| 46> H -2.8634167222 0.3066772492 -2.7166687528
| 47> *
| 48>
| 49>                          ****END OF INPUT****

CARTESIAN COORDINATES (ANGSTROEM)
---------------------------------
  C      3.281814   -0.131691   -2.953248
  C      1.836796    0.113658   -2.576739
  O      1.425842   -0.667243   -1.434630
  P      2.087696   -0.477141   -0.005771
  S      2.656826    1.327372    0.517837
  O      3.272454   -1.535598   -0.095810
  C      4.376569   -1.543117    0.824079
  C      3.952509   -1.912533    2.231068
  S      0.656193   -1.451313    1.206327
  C      0.031038   -0.034743    2.175371
  S     -1.774641    0.094635    2.151837
  P     -2.049221    0.424342    0.093070
  S     -0.761794    1.620901   -0.791109
  O     -3.557880    0.907104    0.005679
  C     -3.946186    2.252732    0.348707
  C     -5.331160    2.494792   -0.216318
  O     -2.150286   -1.057878   -0.442700
  C     -1.959370   -1.419640   -1.825490
  C     -2.992374   -0.775483   -2.724736
  H      3.502979    0.392676   -3.877643
  H      3.939183    0.242581   -2.169307
  H      3.459067   -1.195953   -3.085463
  H      1.154773   -0.202328   -3.367878
  H      1.661422    1.170349   -2.347953
  H      5.061980   -2.279758    0.402946
  H      4.840249   -0.551415    0.813483
  H      3.327663   -1.123771    2.648259
  H      3.388903   -2.842056    2.225181
  H      4.834701   -2.027655    2.852581
  H      0.479105    0.882216    1.782008
  H      0.298601   -0.184676    3.218182
  H     -3.937510    2.343129    1.438215
  H     -3.210921    2.946357   -0.073387
  H     -5.316140    2.407107   -1.298933
  H     -6.026205    1.764394    0.187191
  H     -5.657327    3.492653    0.057684
  H     -0.945727   -1.130555   -2.119239
  H     -2.043063   -2.507336   -1.818485
  H     -2.867055   -1.139767   -3.739638
  H     -3.993124   -1.012761   -2.373385
  H     -2.863417    0.306677   -2.716669

 Total Charge           Charge          ....    0
 Multiplicity           Mult            ....    1
 Number of Electrons    NEL             ....  202
 Basis Dimension        Dim             ....  539

ORBITAL ENERGIES
----------------

  NO   OCC          E(Eh)            E(eV)
   0   2.0000     -88.574697     -2410.2400
   1   2.0000     -88.571479     -2410.1525
   2   2.0000     -88.518085     -2408.6996
   3   2.0000     -88.513690     -2408.5799
   4   2.0000     -76.910481     -2092.8406
   5   2.0000     -76.910361     -2092.8373
   6   2.0000     -18.989889      -516.7411
   7   2.0000     -18.986858      -516.6587
   8   2.0000     -18.985288      -516.6160
   9   2.0000     -18.984104      -516.5837
  10   2.0000     -10.104182      -274.9488
  11   2.0000     -10.096947      -274.7519
  12   2.0000     -10.095437      -274.7108
  13   2.0000     -10.093308      -274.6529
  14   2.0000     -10.092871      -274.6410
  15   2.0000     -10.032324      -272.9934
  16   2.0000     -10.026275      -272.8288
  17   2.0000     -10.025756      -272.8147
  18   2.0000     -10.024982      -272.7936
  19   2.0000      -7.869209      -214.1321
  20   2.0000      -7.865864      -214.0410
  21   2.0000      -7.812814      -212.5975
  22   2.0000      -7.808480      -212.4796
  23   2.0000      -6.588917      -179.2936
  24   2.0000      -6.588828      -179.2911
  25   2.0000      -5.816169      -158.2660
  26   2.0000      -5.812900      -158.1771
  27   2.0000      -5.812707      -158.1718
  28   2.0000      -5.809878      -158.0948
  29   2.0000      -5.806364      -157.9992
  30   2.0000      -5.802824      -157.9029
  31   2.0000      -5.760478      -156.7506
  32   2.0000      -5.756154      -156.6329
  33   2.0000      -5.753305      -156.5554
  34   2.0000      -5.752596      -156.5361
  35   2.0000      -5.748774      -156.4321
  36   2.0000      -5.748452      -156.4233
  37   2.0000      -4.734192      -128.8239
  38   2.0000      -4.734182      -128.8236
  39   2.0000      -4.733851      -128.8146
  40   2.0000      -4.733690      -128.8102
  41   2.0000      -4.733024      -128.7921
  42   2.0000      -4.732595      -128.7805
  43   2.0000      -1.047087       -28.4927
  44   2.0000      -1.045172       -28.4406
  45   2.0000      -1.008014       -27.4295
  46   2.0000      -1.005190       -27.3526
  47   2.0000      -0.797658       -21.7054
  48   2.0000      -0.756459       -20.5843
  49   2.0000      -0.746286       -20.3075
  50   2.0000      -0.730761       -19.8850
  51   2.0000      -0.728093       -19.8124
  52   2.0000      -0.709034       -19.2938
  53   2.0000      -0.683564       -18.6007
  54   2.0000      -0.662927       -18.0392
  55   2.0000      -0.632572       -17.2132
  56   2.0000      -0.623396       -16.9635
  57   2.0000      -0.602035       -16.3822
  58   2.0000      -0.598358       -16.2822
  59   2.0000      -0.590205       -16.0603
  60   2.0000      -0.525695       -14.3049
  61   2.0000      -0.513273       -13.9669
  62   2.0000      -0.492019       -13.3885
  63   2.0000      -0.486782       -13.2460
  64   2.0000      -0.465623       -12.6703
  65   2.0000      -0.464407       -12.6372
  66   2.0000      -0.454964       -12.3802
  67   2.0000      -0.451369       -12.2824
  68   2.0000      -0.444911       -12.1067
  69   2.0000      -0.433072       -11.7845
  70   2.0000      -0.423274       -11.5179
  71   2.0000      -0.414406       -11.2766
  72   2.0000      -0.406462       -11.0604
  73   2.0000      -0.402795       -10.9606
  74   2.0000      -0.395471       -10.7613
  75   2.0000      -0.390224       -10.6185
  76   2.0000      -0.386269       -10.5109
  77   2.0000      -0.370956       -10.0942
  78   2.0000      -0.366846        -9.9824
  79   2.0000      -0.361299        -9.8315
  80   2.0000      -0.358708        -9.7609
  81   2.0000      -0.356697        -9.7062
  82   2.0000      -0.353284        -9.6133
  83   2.0000      -0.348699        -9.4886
  84   2.0000      -0.346495        -9.4286
  85   2.0000      -0.326615        -8.8877
  86   2.0000      -0.322644        -8.7796
  87   2.0000      -0.314080        -8.5466
  88   2.0000      -0.306162        -8.3311
  89   2.0000      -0.297820        -8.1041
  90   2.0000      -0.295826        -8.0498
  91   2.0000      -0.286103        -7.7853
  92   2.0000      -0.283373        -7.7110
  93   2.0000      -0.277160        -7.5419
  94   2.0000      -0.272342        -7.4108
  95   2.0000      -0.243970        -6.6388
  96   2.0000      -0.231497        -6.2993
  97   2.0000      -0.226880        -6.1737
  98   2.0000      -0.214884        -5.8473
  99   2.0000      -0.208053        -5.6614
 100   2.0000      -0.200587        -5.4582
 101   0.0000      -0.041744        -1.1359
 102   0.0000      -0.033127        -0.9014
 103   0.0000      -0.004517        -0.1229
 104   0.0000       0.016932         0.4607
 105   0.0000       0.022402         0.6096

MULLIKEN ATOMIC CHARGES
-----------------------
   0 C :   -0.451190
   1 C :   -0.154567
   2 O :   -0.297525
   3 P :    0.675383
   4 S :   -0.468878
   5 O :   -0.291679
   6 C :   -0.154788
   7 C :   -0.441446
   8 S :   -0.121246
   9 C :   -0.229748
  10 S :   -0.132895
  11 P :    0.725177
  12 S :   -0.452872
  13 O :   -0.287278
  14 C :   -0.164908
  15 C :   -0.439351
  16 O :   -0.289372
  17 C :   -0.142973
  18 C :   -0.461523
  19 H :    0.146758
  20 H :    0.171050
  21 H :    0.156207
  22 H :    0.146760
  23 H :    0.181614
  24 H :    0.147204
  25 H :    0.171371
  26 H :    0.168428
  27 H :    0.157473
  28 H :    0.146791
  29 H :    0.219432
  30 H :    0.186634
  31 H :    0.150334
  32 H :    0.173132
  33 H :    0.154556
  34 H :    0.154152
  35 H :    0.146939
  36 H :    0.176103
  37 H :    0.150288
  38 H :    0.145650
  39 H :    0.156970
  40 H :    0.173829
Sum of atomic charges:    0.0000000

LOEWDIN ATOMIC CHARGES
----------------------
   0 C :   -0.401081
   1 C :    0.008567
   2 O :   -0.690024
   3 P :    0.379115
   4 S :   -0.125858
   5 O :   -0.670229
   6 C :    0.018045
   7 C :   -0.407303
   8 S :    0.179522
   9 C :   -0.413545
  10 S :    0.160467
  11 P :    0.371387
  12 S :   -0.091761
  13 O :   -0.666331
  14 C :    0.019148
  15 C :   -0.385871
  16 O :   -0.662893
  17 C :    0.025218
  18 C :   -0.403148
  19 H :    0.159150
  20 H :    0.165854
  21 H :    0.161380
  22 H :    0.178827
  23 H :    0.183660
  24 H :    0.178942
  25 H :    0.179001
  26 H :    0.162609
  27 H :    0.161414
  28 H :    0.157969
  29 H :    0.200348
  30 H :    0.178214
  31 H :    0.171552
  32 H :    0.180955
  33 H :    0.159983
  34 H :    0.160048
  35 H :    0.159910
  36 H :    0.189109
  37 H :    0.181589
  38 H :    0.158473
  39 H :    0.161169
  40 H :    0.166420

  Mayer bond orders larger than 0.100000
B(  0-C ,  1-C ) :   0.9140 B(  0-C , 19-H ) :   0.9594 B(  0-C , 20-H ) :   0.9615
B(  0-C , 21-H ) :   0.9710 B(  1-C ,  2-O ) :   0.8100 B(  1-C , 22-H ) :   0.9595
B(  1-C , 23-H ) :   0.9630 B(  2-O ,  3-P ) :   1.1668 B(  3-P ,  4-S ) :   1.7312
B(  3-P ,  5-O ) :   1.0515 B(  3-P ,  8-S ) :   1.1193 B(  5-O ,  6-C ) :   0.8221
B(  6-C ,  7-C ) :   0.9207 B(  6-C , 24-H ) :   0.9585 B(  6-C , 25-H ) :   0.9679
B(  7-C , 26-H ) :   0.9670 B(  7-C , 27-H ) :   0.9667 B(  7-C , 28-H ) :   0.9600
B(  8-S ,  9-C ) :   0.8932 B(  9-C , 10-S ) :   0.9303 B(  9-C , 29-H ) :   0.9029
B(  9-C , 30-H ) :   0.9136 B( 10-S , 11-P ) :   1.0735 B( 11-P , 12-S ) :   1.7272
B( 11-P , 13-O ) :   1.0831 B( 11-P , 16-O ) :   1.1868 B( 13-O , 14-C ) :   0.7845
B( 14-C , 15-C ) :   0.9554 B( 14-C , 31-H ) :   0.9466 B( 14-C , 32-H ) :   0.9501
B( 15-C , 33-H ) :   0.9714 B( 15-C , 34-H ) :   0.9717 B( 15-C , 35-H ) :   0.9644
B( 16-O , 17-C ) :   0.8069 B( 17-C , 18-C ) :   0.9128 B( 17-C , 36-H ) :   0.9629
B( 17-C , 37-H ) :   0.9613 B( 18-C , 38-H ) :   0.9607 B( 18-C , 39-H ) :   0.9702
B( 18-C , 40-H ) :   0.9609

Dispersion correction           -0.022028863
FINAL SINGLE POINT ENERGY     -2932.460333018696

DIPOLE MOMENT
-------------

Method             : SCF
Type of density    : Electron Density
Multiplicity       :   1
Irrep              :   0
Energy             : -2932.4848920788840587 Eh
Relativity type    :
Basis              : AO
                                X                 Y                 Z
Electronic contribution:      0.697182187      -0.289054120      12.327635706
Nuclear contribution   :     -0.927299163      -0.268195575     -12.732525628
                        -----------------------------------------
Total Dipole Moment    :     -0.230116976      -0.557249695      -0.404889922
                        -----------------------------------------
Magnitude (a.u.)       :      0.726234738
Magnitude (Debye)      :      1.845942004

Rotational constants in cm-1:             0.013358             0.005133             0.004607
Rotational constants in MHz :           400.474422           153.883379           138.102778

                             ****ORCA TERMINATED NORMALLY****
TOTAL RUN TIME: 0 days 0 hours 1 minutes 24 seconds 552 msec
