                         Program Version 6.0.0  -   RELEASE  -
|  1> ! r2scan-3c def2/J RI DEFGRID2 scfconv6 printgap
|  2> %output
|  3>     printlevel normal
|  4> end
|  5> %cpcm
|  6>     smd true
|  7>     smdsolvent "water"
|  8> end
|  9> * xyz 0 1
| 10> C 3.2818143233 -0.1316906274 -2.9532484953
| 11> C 1.8367962201 0.1136582585 -2.5767389509
| 12> O 1.4258422509 -0.667243197 -1.4346302484
| 13> P 2.0876960832 -0.4771411574 -0.0057710586
| 14> S 2.6568255618 1.3273718368 0.5178365537
| 15> O 3.2724542061 -1.5355980985 -0.0958099934
| 16> C 4.3765692652 -1.5431171925 0.8240786232
| 17> C 3.9525089239 -1.9125326136 2.2310682536
| 18> S 0.6561926427 -1.4513131805 1.2063270862
| 19> C 0.0310377426 -0.0347425861 2.1753707289
| 20> S -1.7746412517 0.0946345881 2.1518372178
| 21> P -2.0492206305 0.4243419514 0.0930696773
| 22> S -0.7617935271 1.6209005445 -0.7911092463
| 23> O -3.557879898 0.9071037099 0.0056790387
| 24> C -3.9461863826 2.2527317242 0.3487069994
| 25> C -5.3311600286 2.4947922001 -0.2163184153
| 26> O -2.1502863906 -1.0578781105 -0.4427004503
| 27> C -1.9593698331 -1.4196400907 -1.825489759
| 28> C -2.9923736659 -0.7754828172 -2.724735922
| 29> H 3.5029788853 0.3926764042 -3.8776432428
| 30> H 3.9391825303 0.2425805934 -2.1693069912
| 31> H 3.4590667701 -1.1959529405 -3.0854634399
| 32> H 1.1547730788 -0.2023282162 -3.3678781281
| 33> H 1.661422184 1.1703488014 -2.3479529278
| 34> H 5.0619797138 -2.2797584718 0.4029456144
| 35> H 4.8402492898 -0.551414691 0.8134831657
| 36> H 3.3276625586 -1.1237709038 2.6482594001
| 37> H 3.3889026184 -2.8420555621 2.2251808613
| 38> H 4.834701256 -2.0276547424 2.8525812279
| 39> H 0.4791053848 0.8822156048 1.782007822
| 40> H 0.2986013723 -0.1846762578 3.218182465
| 41> H -3.9375103663 2.3431291719 1.4382147639
| 42> H -3.2109211722 2.9463566803 -0.0733869403
| 43> H -5.3161401564 2.4071065677 -1.298933278
| 44> H -6.0262049101 1.7643939812 0.1871907265
| 45> H -5.6573274676 3.4926533498 0.0576843542
| 46> H -0.9457274108 -1.1305549342 -2.1192391558
| 47> H -2.04306295 -2.5073361928 -1.8184845594
| 48> H -2.8670546509 -1.1397670674 -3.7396381294
| 49> H -3.9931235753 -1.0127610442 -2.3733850041
| 50> H -2.8634167222 0.3066772492 -2.7166687528
| 51> *
| 52>
| 53>                          ****END OF INPUT****

CARTESIAN COORDINATES (ANGSTROEM)
---------------------------------
  C      3.281814   -0.131691   -2.953248
  C      1.836796    0.113658   -2.576739
  O      1.425842   -0.667243   -1.434630
  P      2.087696   -0.477141   -0.005771
  S      2.656826    1.327372    0.517837
  O      3.272454   -1.535598   -0.095810
  C      4.376569   -1.543117    0.824079
  C      3.952509   -1.912533    2.231068
  S      0.656193   -1.451313    1.206327
  C      0.031038   -0.034743    2.175371
  S     -1.774641    0.094635    2.151837
  P     -2.049221    0.424342    0.093070
  S     -0.761794    1.620901   -0.791109
  O     -3.557880    0.907104    0.005679
  C     -3.946186    2.252732    0.348707
  C     -5.331160    2.494792   -0.216318
  O     -2.150286   -1.057878   -0.442700
  C     -1.959370   -1.419640   -1.825490
  C     -2.992374   -0.775483   -2.724736
  H      3.502979    0.392676   -3.877643
  H      3.939183    0.242581   -2.169307
  H      3.459067   -1.195953   -3.085463
  H      1.154773   -0.202328   -3.367878
  H      1.661422    1.170349   -2.347953
  H      5.061980   -2.279758    0.402946
  H      4.840249   -0.551415    0.813483
  H      3.327663   -1.123771    2.648259
  H      3.388903   -2.842056    2.225181
  H      4.834701   -2.027655    2.852581
  H      0.479105    0.882216    1.782008
  H      0.298601   -0.184676    3.218182
  H     -3.937510    2.343129    1.438215
  H     -3.210921    2.946357   -0.073387
  H     -5.316140    2.407107   -1.298933
  H     -6.026205    1.764394    0.187191
  H     -5.657327    3.492653    0.057684
  H     -0.945727   -1.130555   -2.119239
  H     -2.043063   -2.507336   -1.818485
  H     -2.867055   -1.139767   -3.739638
  H     -3.993124   -1.012761   -2.373385
  H     -2.863417    0.306677   -2.716669

 Total Charge           Charge          ....    0
 Multiplicity           Mult            ....    1
 Number of Electrons    NEL             ....  202
 Basis Dimension        Dim             ....  539

ORBITAL ENERGIES
----------------

  NO   OCC          E(Eh)            E(eV)
   0   2.0000     -88.580783     -2410.4056
   1   2.0000     -88.576813     -2410.2976
   2   2.0000     -88.526650     -2408.9326
   3   2.0000     -88.522113     -2408.8092
   4   2.0000     -76.917115     -2093.0211
   5   2.0000     -76.917079     -2093.0201
   6   2.0000     -18.993941      -516.8514
   7   2.0000     -18.991807      -516.7933
   8   2.0000     -18.991139      -516.7752
   9   2.0000     -18.988574      -516.7054
  10   2.0000     -10.104899      -274.9683
  11   2.0000     -10.089628      -274.5527
  12   2.0000     -10.088486      -274.5217
  13   2.0000     -10.087806      -274.5032
  14   2.0000     -10.087536      -274.4958
  15   2.0000     -10.019484      -272.6440
  16   2.0000     -10.018164      -272.6081
  17   2.0000     -10.017718      -272.5960
  18   2.0000     -10.017247      -272.5832
  19   2.0000      -7.875272      -214.2970
  20   2.0000      -7.871234      -214.1872
  21   2.0000      -7.821687      -212.8389
  22   2.0000      -7.817136      -212.7151
  23   2.0000      -6.595676      -179.4775
  24   2.0000      -6.595562      -179.4744
  25   2.0000      -5.822183      -158.4297
  26   2.0000      -5.818930      -158.3411
  27   2.0000      -5.818073      -158.3178
  28   2.0000      -5.815266      -158.2414
  29   2.0000      -5.812525      -158.1668
  30   2.0000      -5.808191      -158.0489
  31   2.0000      -5.769294      -156.9905
  32   2.0000      -5.764768      -156.8673
  33   2.0000      -5.762162      -156.7964
  34   2.0000      -5.761486      -156.7780
  35   2.0000      -5.757436      -156.6678
  36   2.0000      -5.757098      -156.6586
  37   2.0000      -4.741000      -129.0092
  38   2.0000      -4.740790      -129.0035
  39   2.0000      -4.740705      -129.0011
  40   2.0000      -4.740325      -128.9908
  41   2.0000      -4.739743      -128.9750
  42   2.0000      -4.739490      -128.9681
  43   2.0000      -1.052135       -28.6301
  44   2.0000      -1.049238       -28.5512
  45   2.0000      -1.012511       -27.5518
  46   2.0000      -1.008549       -27.4440
  47   2.0000      -0.801263       -21.8035
  48   2.0000      -0.755578       -20.5603
  49   2.0000      -0.742490       -20.2042
  50   2.0000      -0.724260       -19.7081
  51   2.0000      -0.722030       -19.6474
  52   2.0000      -0.709803       -19.3147
  53   2.0000      -0.688274       -18.7289
  54   2.0000      -0.670134       -18.2353
  55   2.0000      -0.633166       -17.2293
  56   2.0000      -0.621822       -16.9206
  57   2.0000      -0.597568       -16.2607
  58   2.0000      -0.593297       -16.1444
  59   2.0000      -0.590081       -16.0569
  60   2.0000      -0.524552       -14.2738
  61   2.0000      -0.511819       -13.9273
  62   2.0000      -0.492033       -13.3889
  63   2.0000      -0.485849       -13.2206
  64   2.0000      -0.466198       -12.6859
  65   2.0000      -0.465243       -12.6599
  66   2.0000      -0.452574       -12.3152
  67   2.0000      -0.448187       -12.1958
  68   2.0000      -0.443919       -12.0797
  69   2.0000      -0.432072       -11.7573
  70   2.0000      -0.422038       -11.4843
  71   2.0000      -0.412571       -11.2266
  72   2.0000      -0.404895       -11.0178
  73   2.0000      -0.401372       -10.9219
  74   2.0000      -0.396413       -10.7869
  75   2.0000      -0.390030       -10.6133
  76   2.0000      -0.383818       -10.4442
  77   2.0000      -0.363345        -9.8871
  78   2.0000      -0.361450        -9.8355
  79   2.0000      -0.354223        -9.6389
  80   2.0000      -0.352581        -9.5942
  81   2.0000      -0.351301        -9.5594
  82   2.0000      -0.348470        -9.4824
  83   2.0000      -0.347557        -9.4575
  84   2.0000      -0.344109        -9.3637
  85   2.0000      -0.324583        -8.8324
  86   2.0000      -0.322725        -8.7818
  87   2.0000      -0.312571        -8.5055
  88   2.0000      -0.303515        -8.2591
  89   2.0000      -0.298897        -8.1334
  90   2.0000      -0.297416        -8.0931
  91   2.0000      -0.288338        -7.8461
  92   2.0000      -0.284572        -7.7436
  93   2.0000      -0.279136        -7.5957
  94   2.0000      -0.274510        -7.4698
  95   2.0000      -0.250365        -6.8128
  96   2.0000      -0.239367        -6.5135
  97   2.0000      -0.235301        -6.4029
  98   2.0000      -0.222812        -6.0630
  99   2.0000      -0.216392        -5.8883
 100   2.0000      -0.209764        -5.7080
 101   0.0000      -0.047301        -1.2871
 102   0.0000      -0.040402        -1.0994
 103   0.0000      -0.009434        -0.2567
 104   0.0000       0.011550         0.3143
 105   0.0000       0.017480         0.4757

MULLIKEN ATOMIC CHARGES
-----------------------
   0 C :   -0.492688
   1 C :   -0.153568
   2 O :   -0.321099
   3 P :    0.722011
   4 S :   -0.520836
   5 O :   -0.320343
   6 C :   -0.157132
   7 C :   -0.475227
   8 S :   -0.136479
   9 C :   -0.227851
  10 S :   -0.146145
  11 P :    0.743593
  12 S :   -0.496728
  13 O :   -0.313477
  14 C :   -0.155962
  15 C :   -0.481390
  16 O :   -0.318848
  17 C :   -0.138917
  18 C :   -0.498680
  19 H :    0.171710
  20 H :    0.170760
  21 H :    0.169107
  22 H :    0.178688
  23 H :    0.178951
  24 H :    0.173619
  25 H :    0.177117
  26 H :    0.170475
  27 H :    0.166373
  28 H :    0.171375
  29 H :    0.215497
  30 H :    0.230032
  31 H :    0.170097
  32 H :    0.173718
  33 H :    0.166035
  34 H :    0.165828
  35 H :    0.169299
  36 H :    0.182262
  37 H :    0.175595
  38 H :    0.172859
  39 H :    0.169352
  40 H :    0.171017
Sum of atomic charges:    0.0000000

LOEWDIN ATOMIC CHARGES
----------------------
   0 C :   -0.404014
   1 C :    0.012156
   2 O :   -0.700452
   3 P :    0.385107
   4 S :   -0.156640
   5 O :   -0.682778
   6 C :    0.023092
   7 C :   -0.409925
   8 S :    0.173188
   9 C :   -0.406461
  10 S :    0.155440
  11 P :    0.372410
  12 S :   -0.116286
  13 O :   -0.680562
  14 C :    0.023312
  15 C :   -0.389268
  16 O :   -0.681692
  17 C :    0.028391
  18 C :   -0.404334
  19 H :    0.168435
  20 H :    0.163226
  21 H :    0.164545
  22 H :    0.190790
  23 H :    0.182243
  24 H :    0.189995
  25 H :    0.180939
  26 H :    0.160896
  27 H :    0.163349
  28 H :    0.166967
  29 H :    0.198579
  30 H :    0.195122
  31 H :    0.179307
  32 H :    0.181434
  33 H :    0.162631
  34 H :    0.163223
  35 H :    0.168750
  36 H :    0.190847
  37 H :    0.191588
  38 H :    0.169030
  39 H :    0.163953
  40 H :    0.163464

  Mayer bond orders larger than 0.100000
B(  0-C ,  1-C ) :   0.9054 B(  0-C , 19-H ) :   0.9534 B(  0-C , 20-H ) :   0.9617
B(  0-C , 21-H ) :   0.9694 B(  1-C ,  2-O ) :   0.7945 B(  1-C , 22-H ) :   0.9487
B(  1-C , 23-H ) :   0.9610 B(  2-O ,  3-P ) :   1.1718 B(  3-P ,  4-S ) :   1.6816
B(  3-P ,  5-O ) :   1.0605 B(  3-P ,  8-S ) :   1.1317 B(  5-O ,  6-C ) :   0.8095
B(  6-C ,  7-C ) :   0.9088 B(  6-C , 24-H ) :   0.9487 B(  6-C , 25-H ) :   0.9660
B(  7-C , 26-H ) :   0.9661 B(  7-C , 27-H ) :   0.9648 B(  7-C , 28-H ) :   0.9549
B(  8-S ,  9-C ) :   0.8870 B(  9-C , 10-S ) :   0.9215 B(  9-C , 29-H ) :   0.9069
B(  9-C , 30-H ) :   0.8984 B( 10-S , 11-P ) :   1.0925 B( 11-P , 12-S ) :   1.6994
B( 11-P , 13-O ) :   1.0859 B( 11-P , 16-O ) :   1.1851 B( 13-O , 14-C ) :   0.7776
B( 14-C , 15-C ) :   0.9521 B( 14-C , 31-H ) :   0.9377 B( 14-C , 32-H ) :   0.9466
B( 15-C , 33-H ) :   0.9688 B( 15-C , 34-H ) :   0.9692 B( 15-C , 35-H ) :   0.9583
B( 16-O , 17-C ) :   0.7952 B( 17-C , 18-C ) :   0.9071 B( 17-C , 36-H ) :   0.9559
B( 17-C , 37-H ) :   0.9500 B( 18-C , 38-H ) :   0.9539 B( 18-C , 39-H ) :   0.9697
B( 18-C , 40-H ) :   0.9603

Dispersion correction           -0.022028863
FINAL SINGLE POINT ENERGY     -2932.468254344763

DIPOLE MOMENT
-------------

Method             : SCF
Type of density    : Electron Density
Multiplicity       :   1
Irrep              :   0
Energy             : -2932.4928134049519031 Eh
Relativity type    :
Basis              : AO
                                X                 Y                 Z
Electronic contribution:      0.743880936      -0.475295639      12.269483437
Nuclear contribution   :     -0.927299163      -0.268195575     -12.732525628
                        -----------------------------------------
Total Dipole Moment    :     -0.183418227      -0.743491214      -0.463042191
                        -----------------------------------------
Magnitude (a.u.)       :      0.894890777
Magnitude (Debye)      :      2.274631586

Rotational constants in cm-1:             0.013358             0.005133             0.004607
Rotational constants in MHz :           400.474422           153.883379           138.102778

                             ****ORCA TERMINATED NORMALLY****
TOTAL RUN TIME: 0 days 0 hours 1 minutes 55 seconds 826 msec
