                         Program Version 6.0.0  -   RELEASE  -
|  1> ! r2scan-3c def2/J RI DEFGRID2 scfconv6 printgap
|  2> %output
|  3>     printlevel normal
|  4> end
|  5> * xyz 0 1
|  6> C 2.0691277585 -2.119572171 2.7088156665
|  7> C 1.2032014265 -1.7032769302 1.5362320083
|  8> O 1.4173792216 -0.3112707745 1.2487836089
|  9> P 2.1661528932 0.2549934387 -0.0398791001
| 10> S 3.1590953589 -1.0976431896 -1.0574920256
| 11> O 2.9320459971 1.5122710283 0.5436634535
| 12> C 3.8893528806 1.4271335798 1.6225452626
| 13> C 5.2549560137 0.9909820651 1.1294054782
| 14> S 0.767052535 1.4152178517 -1.1213602642
| 15> C 0.2172325188 0.1070926442 -2.2510289276
| 16> S -0.5230325451 -1.2959972912 -1.3712123517
| 17> P -2.1083969618 -0.2279296404 -0.4678304728
| 18> S -2.9123732436 1.2196951034 -1.520509943
| 19> O -1.6133041145 0.2133113539 0.9826718356
| 20> C -1.4849063474 1.5722593822 1.4334155794
| 21> C -2.5990702768 1.8957313702 2.4090836484
| 22> O -2.9569729489 -1.5274852122 -0.1519535095
| 23> C -4.1248388427 -1.5176227264 0.6990827795
| 24> C -5.3691383731 -1.1089488279 -0.0645795639
| 25> H 1.8692191187 -1.4872513856 3.569587195
| 26> H 1.8485802591 -3.1512126666 2.9627648179
| 27> H 3.1206479368 -2.0391682478 2.4407382855
| 28> H 0.1390649352 -1.801176262 1.7619469399
| 29> H 1.4411527273 -2.2955806721 0.6466726301
| 30> H 3.9187584557 2.4420457828 2.0232723843
| 31> H 3.5064095162 0.7418607725 2.3833604093
| 32> H 5.9555847052 1.0006529969 1.9584673928
| 33> H 5.2078900738 -0.0137945146 0.7140291092
| 34> H 5.6058164184 1.6668599712 0.3542089232
| 35> H 1.0680525086 -0.2868845963 -2.8059351585
| 36> H -0.518159183 0.5584707472 -2.9162377879
| 37> H -0.501212761 1.6351961576 1.9034351382
| 38> H -1.518067298 2.2439378401 0.5696249544
| 39> H -3.560516711 1.8520709538 1.9009860753
| 40> H -2.5965415425 1.1886613925 3.2342328371
| 41> H -2.4511966741 2.8988082182 2.7956254834
| 42> H -4.1984944581 -2.5476010807 1.0530016956
| 43> H -3.9430902344 -0.8503200457 1.5458154116
| 44> H -5.5153672631 -1.7653226242 -0.9180835756
| 45> H -6.2309649071 -1.1759025712 0.5919480626
| 46> H -5.2760301763 -0.0873688649 -0.4275548257
| 47> *
| 48>
| 49>                          ****END OF INPUT****

CARTESIAN COORDINATES (ANGSTROEM)
---------------------------------
  C      2.069128   -2.119572    2.708816
  C      1.203201   -1.703277    1.536232
  O      1.417379   -0.311271    1.248784
  P      2.166153    0.254993   -0.039879
  S      3.159095   -1.097643   -1.057492
  O      2.932046    1.512271    0.543663
  C      3.889353    1.427134    1.622545
  C      5.254956    0.990982    1.129405
  S      0.767053    1.415218   -1.121360
  C      0.217233    0.107093   -2.251029
  S     -0.523033   -1.295997   -1.371212
  P     -2.108397   -0.227930   -0.467830
  S     -2.912373    1.219695   -1.520510
  O     -1.613304    0.213311    0.982672
  C     -1.484906    1.572259    1.433416
  C     -2.599070    1.895731    2.409084
  O     -2.956973   -1.527485   -0.151954
  C     -4.124839   -1.517623    0.699083
  C     -5.369138   -1.108949   -0.064580
  H      1.869219   -1.487251    3.569587
  H      1.848580   -3.151213    2.962765
  H      3.120648   -2.039168    2.440738
  H      0.139065   -1.801176    1.761947
  H      1.441153   -2.295581    0.646673
  H      3.918758    2.442046    2.023272
  H      3.506410    0.741861    2.383360
  H      5.955585    1.000653    1.958467
  H      5.207890   -0.013795    0.714029
  H      5.605816    1.666860    0.354209
  H      1.068053   -0.286885   -2.805935
  H     -0.518159    0.558471   -2.916238
  H     -0.501213    1.635196    1.903435
  H     -1.518067    2.243938    0.569625
  H     -3.560517    1.852071    1.900986
  H     -2.596542    1.188661    3.234233
  H     -2.451197    2.898808    2.795625
  H     -4.198494   -2.547601    1.053002
  H     -3.943090   -0.850320    1.545815
  H     -5.515367   -1.765323   -0.918084
  H     -6.230965   -1.175903    0.591948
  H     -5.276030   -0.087369   -0.427555

 Total Charge           Charge          ....    0
 Multiplicity           Mult            ....    1
 Number of Electrons    NEL             ....  202
 Basis Dimension        Dim             ....  539

ORBITAL ENERGIES
----------------

  NO   OCC          E(Eh)            E(eV)
   0   2.0000     -88.573662     -2410.2119
   1   2.0000     -88.573541     -2410.2086
   2   2.0000     -88.521918     -2408.8039
   3   2.0000     -88.521653     -2408.7967
   4   2.0000     -76.915432     -2092.9753
   5   2.0000     -76.915402     -2092.9745
   6   2.0000     -18.993744      -516.8460
   7   2.0000     -18.993685      -516.8444
   8   2.0000     -18.991676      -516.7898
   9   2.0000     -18.991410      -516.7825
  10   2.0000     -10.105143      -274.9749
  11   2.0000     -10.105117      -274.9742
  12   2.0000     -10.103321      -274.9254
  13   2.0000     -10.093581      -274.6603
  14   2.0000     -10.093498      -274.6580
  15   2.0000     -10.032298      -272.9927
  16   2.0000     -10.032041      -272.9857
  17   2.0000     -10.029089      -272.9054
  18   2.0000     -10.028807      -272.8977
  19   2.0000      -7.867919      -214.0970
  20   2.0000      -7.867802      -214.0938
  21   2.0000      -7.816726      -212.7039
  22   2.0000      -7.816459      -212.6967
  23   2.0000      -6.593566      -179.4200
  24   2.0000      -6.593560      -179.4199
  25   2.0000      -5.814878      -158.2309
  26   2.0000      -5.814765      -158.2278
  27   2.0000      -5.811807      -158.1473
  28   2.0000      -5.811674      -158.1437
  29   2.0000      -5.804935      -157.9603
  30   2.0000      -5.804826      -157.9574
  31   2.0000      -5.764368      -156.8564
  32   2.0000      -5.764110      -156.8494
  33   2.0000      -5.757217      -156.6618
  34   2.0000      -5.756921      -156.6538
  35   2.0000      -5.756521      -156.6429
  36   2.0000      -5.756275      -156.6362
  37   2.0000      -4.739290      -128.9626
  38   2.0000      -4.739248      -128.9615
  39   2.0000      -4.738279      -128.9351
  40   2.0000      -4.738277      -128.9351
  41   2.0000      -4.737364      -128.9102
  42   2.0000      -4.737343      -128.9097
  43   2.0000      -1.051266       -28.6064
  44   2.0000      -1.050146       -28.5759
  45   2.0000      -1.010757       -27.5041
  46   2.0000      -1.009363       -27.4662
  47   2.0000      -0.802314       -21.8321
  48   2.0000      -0.762747       -20.7554
  49   2.0000      -0.750209       -20.4142
  50   2.0000      -0.733597       -19.9622
  51   2.0000      -0.733222       -19.9520
  52   2.0000      -0.707710       -19.2578
  53   2.0000      -0.687422       -18.7057
  54   2.0000      -0.669844       -18.2274
  55   2.0000      -0.630531       -17.1576
  56   2.0000      -0.621520       -16.9124
  57   2.0000      -0.610456       -16.6114
  58   2.0000      -0.610401       -16.6099
  59   2.0000      -0.590355       -16.0644
  60   2.0000      -0.531154       -14.4534
  61   2.0000      -0.521672       -14.1954
  62   2.0000      -0.498474       -13.5642
  63   2.0000      -0.496262       -13.5040
  64   2.0000      -0.478312       -13.0155
  65   2.0000      -0.466877       -12.7044
  66   2.0000      -0.456783       -12.4297
  67   2.0000      -0.449178       -12.2227
  68   2.0000      -0.447442       -12.1755
  69   2.0000      -0.431735       -11.7481
  70   2.0000      -0.426650       -11.6097
  71   2.0000      -0.410296       -11.1647
  72   2.0000      -0.406508       -11.0617
  73   2.0000      -0.399081       -10.8596
  74   2.0000      -0.394600       -10.7376
  75   2.0000      -0.390323       -10.6212
  76   2.0000      -0.389017       -10.5857
  77   2.0000      -0.372887       -10.1468
  78   2.0000      -0.369866       -10.0646
  79   2.0000      -0.368545       -10.0286
  80   2.0000      -0.367684       -10.0052
  81   2.0000      -0.365429        -9.9438
  82   2.0000      -0.356594        -9.7034
  83   2.0000      -0.354543        -9.6476
  84   2.0000      -0.348958        -9.4956
  85   2.0000      -0.337900        -9.1947
  86   2.0000      -0.322608        -8.7786
  87   2.0000      -0.311014        -8.4631
  88   2.0000      -0.310161        -8.4399
  89   2.0000      -0.307014        -8.3543
  90   2.0000      -0.304211        -8.2780
  91   2.0000      -0.296166        -8.0591
  92   2.0000      -0.294034        -8.0011
  93   2.0000      -0.283439        -7.7128
  94   2.0000      -0.274068        -7.4578
  95   2.0000      -0.246016        -6.6944
  96   2.0000      -0.229294        -6.2394
  97   2.0000      -0.228076        -6.2063
  98   2.0000      -0.220013        -5.9868
  99   2.0000      -0.212736        -5.7888
 100   2.0000      -0.209615        -5.7039
 101   0.0000      -0.048525        -1.3204
 102   0.0000      -0.028987        -0.7888
 103   0.0000       0.003337         0.0908
 104   0.0000       0.004217         0.1148
 105   0.0000       0.010731         0.2920

MULLIKEN ATOMIC CHARGES
-----------------------
   0 C :   -0.506513
   1 C :   -0.107513
   2 O :   -0.272961
   3 P :    0.708374
   4 S :   -0.473608
   5 O :   -0.309523
   6 C :   -0.170041
   7 C :   -0.426093
   8 S :   -0.130713
   9 C :   -0.231385
  10 S :   -0.129480
  11 P :    0.708648
  12 S :   -0.475190
  13 O :   -0.271010
  14 C :   -0.107151
  15 C :   -0.507388
  16 O :   -0.310861
  17 C :   -0.167747
  18 C :   -0.427165
  19 H :    0.154716
  20 H :    0.149229
  21 H :    0.162844
  22 H :    0.164852
  23 H :    0.181535
  24 H :    0.150358
  25 H :    0.158134
  26 H :    0.144913
  27 H :    0.172026
  28 H :    0.156927
  29 H :    0.208126
  30 H :    0.208172
  31 H :    0.164255
  32 H :    0.181246
  33 H :    0.164448
  34 H :    0.154777
  35 H :    0.149125
  36 H :    0.150437
  37 H :    0.156466
  38 H :    0.156292
  39 H :    0.144792
  40 H :    0.173648
Sum of atomic charges:   -0.0000000

LOEWDIN ATOMIC CHARGES
----------------------
   0 C :   -0.397175
   1 C :    0.002155
   2 O :   -0.676161
   3 P :    0.386857
   4 S :   -0.125634
   5 O :   -0.669318
   6 C :    0.030081
   7 C :   -0.401134
   8 S :    0.183725
   9 C :   -0.417050
  10 S :    0.184405
  11 P :    0.386414
  12 S :   -0.125182
  13 O :   -0.676527
  14 C :    0.001913
  15 C :   -0.398481
  16 O :   -0.670006
  17 C :    0.029936
  18 C :   -0.400753
  19 H :    0.156755
  20 H :    0.161008
  21 H :    0.159754
  22 H :    0.180533
  23 H :    0.185434
  24 H :    0.180722
  25 H :    0.174680
  26 H :    0.157529
  27 H :    0.167491
  28 H :    0.162540
  29 H :    0.189662
  30 H :    0.189563
  31 H :    0.180504
  32 H :    0.185342
  33 H :    0.160156
  34 H :    0.156590
  35 H :    0.161000
  36 H :    0.180523
  37 H :    0.174525
  38 H :    0.162188
  39 H :    0.157518
  40 H :    0.167917

  Mayer bond orders larger than 0.100000
B(  0-C ,  1-C ) :   0.9253 B(  0-C , 19-H ) :   0.9804 B(  0-C , 20-H ) :   0.9636
B(  0-C , 21-H ) :   0.9744 B(  1-C ,  2-O ) :   0.7308 B(  1-C , 22-H ) :   0.9572
B(  1-C , 23-H ) :   0.9470 B(  2-O ,  3-P ) :   1.0451 B(  3-P ,  4-S ) :   1.7631
B(  3-P ,  5-O ) :   1.1573 B(  3-P ,  8-S ) :   1.0672 B(  5-O ,  6-C ) :   0.7915
B(  6-C ,  7-C ) :   0.9496 B(  6-C , 24-H ) :   0.9608 B(  6-C , 25-H ) :   0.9676
B(  7-C , 26-H ) :   0.9659 B(  7-C , 27-H ) :   0.9533 B(  7-C , 28-H ) :   0.9699
B(  8-S ,  9-C ) :   0.8885 B(  9-C , 10-S ) :   0.8885 B(  9-C , 29-H ) :   0.9100
B(  9-C , 30-H ) :   0.9100 B( 10-S , 11-P ) :   1.0682 B( 11-P , 12-S ) :   1.7583
B( 11-P , 13-O ) :   1.0451 B( 11-P , 16-O ) :   1.1595 B( 13-O , 14-C ) :   0.7324
B( 14-C , 15-C ) :   0.9233 B( 14-C , 31-H ) :   0.9581 B( 14-C , 32-H ) :   0.9479
B( 15-C , 33-H ) :   0.9741 B( 15-C , 34-H ) :   0.9804 B( 15-C , 35-H ) :   0.9632
B( 16-O , 17-C ) :   0.7897 B( 17-C , 18-C ) :   0.9514 B( 17-C , 36-H ) :   0.9611
B( 17-C , 37-H ) :   0.9669 B( 18-C , 38-H ) :   0.9704 B( 18-C , 39-H ) :   0.9658
B( 18-C , 40-H ) :   0.9535

Dispersion correction           -0.022089781
FINAL SINGLE POINT ENERGY     -2932.464096345784

DIPOLE MOMENT
-------------

Method             : SCF
Type of density    : Electron Density
Multiplicity       :   1
Irrep              :   0
Energy             : -2932.4886265223831288 Eh
Relativity type    :
Basis              : AO
                                X                 Y                 Z
Electronic contribution:      2.325734332       1.133841494     -22.326306215
Nuclear contribution   :     -2.535033038      -1.227152184      24.414331847
                        -----------------------------------------
Total Dipole Moment    :     -0.209298706      -0.093310690       2.088025631
                        -----------------------------------------
Magnitude (a.u.)       :      2.100562751
Magnitude (Debye)      :      5.339206199

Rotational constants in cm-1:             0.013538             0.004940             0.004837
Rotational constants in MHz :           405.873708           148.105257           145.020967

                             ****ORCA TERMINATED NORMALLY****
TOTAL RUN TIME: 0 days 0 hours 1 minutes 26 seconds 610 msec
