                         Program Version 6.0.0  -   RELEASE  -
|  1> ! r2scan-3c def2/J RI DEFGRID2 scfconv6 printgap
|  2> %output
|  3>     printlevel normal
|  4> end
|  5> %cpcm
|  6>     smd true
|  7>     smdsolvent "water"
|  8> end
|  9> * xyz 0 1
| 10> C 2.0691277585 -2.119572171 2.7088156665
| 11> C 1.2032014265 -1.7032769302 1.5362320083
| 12> O 1.4173792216 -0.3112707745 1.2487836089
| 13> P 2.1661528932 0.2549934387 -0.0398791001
| 14> S 3.1590953589 -1.0976431896 -1.0574920256
| 15> O 2.9320459971 1.5122710283 0.5436634535
| 16> C 3.8893528806 1.4271335798 1.6225452626
| 17> C 5.2549560137 0.9909820651 1.1294054782
| 18> S 0.767052535 1.4152178517 -1.1213602642
| 19> C 0.2172325188 0.1070926442 -2.2510289276
| 20> S -0.5230325451 -1.2959972912 -1.3712123517
| 21> P -2.1083969618 -0.2279296404 -0.4678304728
| 22> S -2.9123732436 1.2196951034 -1.520509943
| 23> O -1.6133041145 0.2133113539 0.9826718356
| 24> C -1.4849063474 1.5722593822 1.4334155794
| 25> C -2.5990702768 1.8957313702 2.4090836484
| 26> O -2.9569729489 -1.5274852122 -0.1519535095
| 27> C -4.1248388427 -1.5176227264 0.6990827795
| 28> C -5.3691383731 -1.1089488279 -0.0645795639
| 29> H 1.8692191187 -1.4872513856 3.569587195
| 30> H 1.8485802591 -3.1512126666 2.9627648179
| 31> H 3.1206479368 -2.0391682478 2.4407382855
| 32> H 0.1390649352 -1.801176262 1.7619469399
| 33> H 1.4411527273 -2.2955806721 0.6466726301
| 34> H 3.9187584557 2.4420457828 2.0232723843
| 35> H 3.5064095162 0.7418607725 2.3833604093
| 36> H 5.9555847052 1.0006529969 1.9584673928
| 37> H 5.2078900738 -0.0137945146 0.7140291092
| 38> H 5.6058164184 1.6668599712 0.3542089232
| 39> H 1.0680525086 -0.2868845963 -2.8059351585
| 40> H -0.518159183 0.5584707472 -2.9162377879
| 41> H -0.501212761 1.6351961576 1.9034351382
| 42> H -1.518067298 2.2439378401 0.5696249544
| 43> H -3.560516711 1.8520709538 1.9009860753
| 44> H -2.5965415425 1.1886613925 3.2342328371
| 45> H -2.4511966741 2.8988082182 2.7956254834
| 46> H -4.1984944581 -2.5476010807 1.0530016956
| 47> H -3.9430902344 -0.8503200457 1.5458154116
| 48> H -5.5153672631 -1.7653226242 -0.9180835756
| 49> H -6.2309649071 -1.1759025712 0.5919480626
| 50> H -5.2760301763 -0.0873688649 -0.4275548257
| 51> *
| 52>
| 53>                          ****END OF INPUT****

CARTESIAN COORDINATES (ANGSTROEM)
---------------------------------
  C      2.069128   -2.119572    2.708816
  C      1.203201   -1.703277    1.536232
  O      1.417379   -0.311271    1.248784
  P      2.166153    0.254993   -0.039879
  S      3.159095   -1.097643   -1.057492
  O      2.932046    1.512271    0.543663
  C      3.889353    1.427134    1.622545
  C      5.254956    0.990982    1.129405
  S      0.767053    1.415218   -1.121360
  C      0.217233    0.107093   -2.251029
  S     -0.523033   -1.295997   -1.371212
  P     -2.108397   -0.227930   -0.467830
  S     -2.912373    1.219695   -1.520510
  O     -1.613304    0.213311    0.982672
  C     -1.484906    1.572259    1.433416
  C     -2.599070    1.895731    2.409084
  O     -2.956973   -1.527485   -0.151954
  C     -4.124839   -1.517623    0.699083
  C     -5.369138   -1.108949   -0.064580
  H      1.869219   -1.487251    3.569587
  H      1.848580   -3.151213    2.962765
  H      3.120648   -2.039168    2.440738
  H      0.139065   -1.801176    1.761947
  H      1.441153   -2.295581    0.646673
  H      3.918758    2.442046    2.023272
  H      3.506410    0.741861    2.383360
  H      5.955585    1.000653    1.958467
  H      5.207890   -0.013795    0.714029
  H      5.605816    1.666860    0.354209
  H      1.068053   -0.286885   -2.805935
  H     -0.518159    0.558471   -2.916238
  H     -0.501213    1.635196    1.903435
  H     -1.518067    2.243938    0.569625
  H     -3.560517    1.852071    1.900986
  H     -2.596542    1.188661    3.234233
  H     -2.451197    2.898808    2.795625
  H     -4.198494   -2.547601    1.053002
  H     -3.943090   -0.850320    1.545815
  H     -5.515367   -1.765323   -0.918084
  H     -6.230965   -1.175903    0.591948
  H     -5.276030   -0.087369   -0.427555

 Total Charge           Charge          ....    0
 Multiplicity           Mult            ....    1
 Number of Electrons    NEL             ....  202
 Basis Dimension        Dim             ....  539

ORBITAL ENERGIES
----------------

  NO   OCC          E(Eh)            E(eV)
   0   2.0000     -88.579227     -2410.3633
   1   2.0000     -88.579125     -2410.3605
   2   2.0000     -88.529015     -2408.9970
   3   2.0000     -88.528877     -2408.9932
   4   2.0000     -76.920204     -2093.1052
   5   2.0000     -76.920133     -2093.1032
   6   2.0000     -18.994927      -516.8783
   7   2.0000     -18.994887      -516.8771
   8   2.0000     -18.993020      -516.8263
   9   2.0000     -18.992775      -516.8197
  10   2.0000     -10.104440      -274.9558
  11   2.0000     -10.091437      -274.6020
  12   2.0000     -10.091338      -274.5993
  13   2.0000     -10.086145      -274.4580
  14   2.0000     -10.086083      -274.4563
  15   2.0000     -10.017426      -272.5880
  16   2.0000     -10.017290      -272.5843
  17   2.0000     -10.017244      -272.5831
  18   2.0000     -10.017159      -272.5808
  19   2.0000      -7.873556      -214.2504
  20   2.0000      -7.873457      -214.2477
  21   2.0000      -7.824112      -212.9049
  22   2.0000      -7.823976      -212.9012
  23   2.0000      -6.598345      -179.5501
  24   2.0000      -6.598297      -179.5488
  25   2.0000      -5.820448      -158.3825
  26   2.0000      -5.820355      -158.3799
  27   2.0000      -5.817408      -158.2997
  28   2.0000      -5.817294      -158.2966
  29   2.0000      -5.810675      -158.1165
  30   2.0000      -5.810585      -158.1141
  31   2.0000      -5.771690      -157.0557
  32   2.0000      -5.771562      -157.0522
  33   2.0000      -5.764511      -156.8603
  34   2.0000      -5.764347      -156.8559
  35   2.0000      -5.764008      -156.8466
  36   2.0000      -5.763895      -156.8435
  37   2.0000      -4.744007      -129.0910
  38   2.0000      -4.743923      -129.0887
  39   2.0000      -4.743057      -129.0651
  40   2.0000      -4.743017      -129.0640
  41   2.0000      -4.742221      -129.0424
  42   2.0000      -4.742197      -129.0417
  43   2.0000      -1.052037       -28.6274
  44   2.0000      -1.050880       -28.5959
  45   2.0000      -1.011069       -27.5126
  46   2.0000      -1.009648       -27.4739
  47   2.0000      -0.805777       -21.9263
  48   2.0000      -0.758936       -20.6517
  49   2.0000      -0.743042       -20.2192
  50   2.0000      -0.723136       -19.6775
  51   2.0000      -0.722756       -19.6672
  52   2.0000      -0.706151       -19.2154
  53   2.0000      -0.690088       -18.7783
  54   2.0000      -0.676367       -18.4049
  55   2.0000      -0.628880       -17.1127
  56   2.0000      -0.616317       -16.7708
  57   2.0000      -0.602596       -16.3975
  58   2.0000      -0.601902       -16.3786
  59   2.0000      -0.587990       -16.0000
  60   2.0000      -0.526342       -14.3225
  61   2.0000      -0.516811       -14.0631
  62   2.0000      -0.493031       -13.4161
  63   2.0000      -0.490581       -13.3494
  64   2.0000      -0.476637       -12.9700
  65   2.0000      -0.461410       -12.5556
  66   2.0000      -0.450447       -12.2573
  67   2.0000      -0.446649       -12.1539
  68   2.0000      -0.440566       -11.9884
  69   2.0000      -0.430964       -11.7271
  70   2.0000      -0.423019       -11.5109
  71   2.0000      -0.403056       -10.9677
  72   2.0000      -0.399119       -10.8606
  73   2.0000      -0.396421       -10.7872
  74   2.0000      -0.390060       -10.6141
  75   2.0000      -0.388537       -10.5726
  76   2.0000      -0.388155       -10.5622
  77   2.0000      -0.368865       -10.0373
  78   2.0000      -0.360995        -9.8232
  79   2.0000      -0.359357        -9.7786
  80   2.0000      -0.357123        -9.7178
  81   2.0000      -0.355502        -9.6737
  82   2.0000      -0.347375        -9.4526
  83   2.0000      -0.345639        -9.4053
  84   2.0000      -0.344320        -9.3694
  85   2.0000      -0.333732        -9.0813
  86   2.0000      -0.319608        -8.6970
  87   2.0000      -0.305201        -8.3050
  88   2.0000      -0.304598        -8.2885
  89   2.0000      -0.303132        -8.2486
  90   2.0000      -0.299043        -8.1374
  91   2.0000      -0.293253        -7.9798
  92   2.0000      -0.291634        -7.9358
  93   2.0000      -0.284222        -7.7341
  94   2.0000      -0.275368        -7.4932
  95   2.0000      -0.250395        -6.8136
  96   2.0000      -0.235738        -6.4148
  97   2.0000      -0.235300        -6.4028
  98   2.0000      -0.227821        -6.1993
  99   2.0000      -0.221266        -6.0210
 100   2.0000      -0.216332        -5.8867
 101   0.0000      -0.054704        -1.4886
 102   0.0000      -0.035774        -0.9735
 103   0.0000      -0.001754        -0.0477
 104   0.0000       0.000361         0.0098
 105   0.0000       0.009967         0.2712

MULLIKEN ATOMIC CHARGES
-----------------------
   0 C :   -0.531529
   1 C :   -0.095210
   2 O :   -0.293502
   3 P :    0.733592
   4 S :   -0.516987
   5 O :   -0.342754
   6 C :   -0.150494
   7 C :   -0.477460
   8 S :   -0.152080
   9 C :   -0.244197
  10 S :   -0.151040
  11 P :    0.733713
  12 S :   -0.517562
  13 O :   -0.292069
  14 C :   -0.095849
  15 C :   -0.530925
  16 O :   -0.344046
  17 C :   -0.150011
  18 C :   -0.477342
  19 H :    0.169127
  20 H :    0.169379
  21 H :    0.168292
  22 H :    0.177975
  23 H :    0.175874
  24 H :    0.174992
  25 H :    0.177008
  26 H :    0.170552
  27 H :    0.166723
  28 H :    0.167651
  29 H :    0.230079
  30 H :    0.230422
  31 H :    0.178609
  32 H :    0.175527
  33 H :    0.168339
  34 H :    0.169018
  35 H :    0.169495
  36 H :    0.175319
  37 H :    0.176209
  38 H :    0.167332
  39 H :    0.170481
  40 H :    0.167350
Sum of atomic charges:    0.0000000

LOEWDIN ATOMIC CHARGES
----------------------
   0 C :   -0.397904
   1 C :    0.006976
   2 O :   -0.681586
   3 P :    0.389304
   4 S :   -0.155189
   5 O :   -0.684359
   6 C :    0.037827
   7 C :   -0.405780
   8 S :    0.171226
   9 C :   -0.412006
  10 S :    0.171843
  11 P :    0.388774
  12 S :   -0.154013
  13 O :   -0.682305
  14 C :    0.006690
  15 C :   -0.399029
  16 O :   -0.685047
  17 C :    0.037385
  18 C :   -0.405480
  19 H :    0.163001
  20 H :    0.167925
  21 H :    0.161734
  22 H :    0.185443
  23 H :    0.183645
  24 H :    0.191247
  25 H :    0.183786
  26 H :    0.167851
  27 H :    0.162583
  28 H :    0.162863
  29 H :    0.196214
  30 H :    0.196225
  31 H :    0.185896
  32 H :    0.183541
  33 H :    0.161626
  34 H :    0.162902
  35 H :    0.167938
  36 H :    0.191178
  37 H :    0.183788
  38 H :    0.162831
  39 H :    0.167845
  40 H :    0.162612

  Mayer bond orders larger than 0.100000
B(  0-C ,  1-C ) :   0.9341 B(  0-C , 19-H ) :   0.9744 B(  0-C , 20-H ) :   0.9593
B(  0-C , 21-H ) :   0.9703 B(  1-C ,  2-O ) :   0.7201 B(  1-C , 22-H ) :   0.9484
B(  1-C , 23-H ) :   0.9454 B(  2-O ,  3-P ) :   1.0527 B(  3-P ,  4-S ) :   1.7346
B(  3-P ,  5-O ) :   1.1660 B(  3-P ,  8-S ) :   1.0747 B(  5-O ,  6-C ) :   0.7842
B(  6-C ,  7-C ) :   0.9311 B(  6-C , 24-H ) :   0.9525 B(  6-C , 25-H ) :   0.9580
B(  7-C , 26-H ) :   0.9593 B(  7-C , 27-H ) :   0.9588 B(  7-C , 28-H ) :   0.9712
B(  8-S ,  9-C ) :   0.8808 B(  9-C , 10-S ) :   0.8808 B(  9-C , 29-H ) :   0.9040
B(  9-C , 30-H ) :   0.9039 B( 10-S , 11-P ) :   1.0755 B( 11-P , 12-S ) :   1.7314
B( 11-P , 13-O ) :   1.0524 B( 11-P , 16-O ) :   1.1674 B( 13-O , 14-C ) :   0.7214
B( 14-C , 15-C ) :   0.9328 B( 14-C , 31-H ) :   0.9490 B( 14-C , 32-H ) :   0.9461
B( 15-C , 33-H ) :   0.9704 B( 15-C , 34-H ) :   0.9742 B( 15-C , 35-H ) :   0.9591
B( 16-O , 17-C ) :   0.7822 B( 17-C , 18-C ) :   0.9332 B( 17-C , 36-H ) :   0.9525
B( 17-C , 37-H ) :   0.9572 B( 18-C , 38-H ) :   0.9714 B( 18-C , 39-H ) :   0.9593
B( 18-C , 40-H ) :   0.9592

Dispersion correction           -0.022089781
FINAL SINGLE POINT ENERGY     -2932.472731419121

DIPOLE MOMENT
-------------

Method             : SCF
Type of density    : Electron Density
Multiplicity       :   1
Irrep              :   0
Energy             : -2932.4972615957203743 Eh
Relativity type    :
Basis              : AO
                                X                 Y                 Z
Electronic contribution:      2.236775134       1.097868458     -21.455955085
Nuclear contribution   :     -2.535033038      -1.227152184      24.414331847
                        -----------------------------------------
Total Dipole Moment    :     -0.298257904      -0.129283726       2.958376762
                        -----------------------------------------
Magnitude (a.u.)       :      2.976182979
Magnitude (Debye)      :      7.564855943

Rotational constants in cm-1:             0.013538             0.004940             0.004837
Rotational constants in MHz :           405.873708           148.105257           145.020967

                             ****ORCA TERMINATED NORMALLY****
TOTAL RUN TIME: 0 days 0 hours 1 minutes 52 seconds 274 msec
