                         Program Version 6.0.1  -  RELEASE   -
|  1> ! r2scan-3c def2/J RI DEFGRID2 scfconv6 printgap
|  2> %output
|  3>     printlevel normal
|  4> end
|  5> * xyz 0 1
|  6> C 3.6177025836 -3.9693263849 -0.672279688
|  7> C 4.2675082157 -2.6664984884 -1.1101733113
|  8> O 3.3322866822 -1.8528733954 -1.847326614
|  9> C 2.5282247505 -1.0589854229 -1.1773068641
| 10> O 2.531519523 -0.9264598842 0.0297202694
| 11> C 1.5965614084 -0.292634439 -2.092875886
| 12> C 0.4889931212 0.3441854868 -1.2643212023
| 13> H -0.0989138598 1.0384380287 -1.873341449
| 14> C 1.1020532565 1.1354981784 -0.1184485317
| 15> O 2.0088061479 1.9166205231 -0.2942237078
| 16> O 0.5021295455 0.9159079012 1.0332006047
| 17> C 0.99045653 1.6141218799 2.1968952658
| 18> C 0.3268930544 2.9720929621 2.3448057524
| 19> S -0.6490339613 -0.9484671261 -0.6482226644
| 20> P -2.0704017622 0.3318099143 0.2226674682
| 21> S -2.1853903326 2.2054045838 -0.3246277091
| 22> O -3.3412852295 -0.5537759083 -0.2243060449
| 23> C -4.6713558284 -0.0762278651 0.0149995798
| 24> O -2.0321176561 0.1992474987 1.814793644
| 25> C -1.8617610783 -1.081497983 2.4450312456
| 26> H 2.7977691465 -3.7651486481 0.0126302827
| 27> H 3.2316747847 -4.5029608066 -1.536103485
| 28> H 4.3544014188 -4.5862011742 -0.1684796387
| 29> H 5.0845323208 -2.8424438354 -1.80972615
| 30> H 4.6201797903 -2.096869821 -0.2457673128
| 31> H 1.1935283435 -0.9597367102 -2.8534510383
| 32> H 2.1787613143 0.4927944594 -2.5803602932
| 33> H 0.74371061 0.9577443208 3.0316067834
| 34> H 2.074534738 1.7128769148 2.0939371146
| 35> H 0.5784836692 3.6079062141 1.4986820974
| 36> H -0.7539478067 2.8580153002 2.38257828
| 37> H 0.67259039 3.4418706123 3.2593246195
| 38> H -5.328032673 -0.7810414056 -0.4882516898
| 39> H -4.7899533663 0.9240866749 -0.4047682798
| 40> H -4.8813772852 -0.0483219419 1.0846347916
| 41> H -2.4914139982 -1.8317406096 1.9658875136
| 42> H -2.1542155071 -0.9355652554 3.4818425353
| 43> H -0.8168178902 -1.3835011054 2.3773870858
| 44> *
| 45>
| 46>                          ****END OF INPUT****

CARTESIAN COORDINATES (ANGSTROEM)
---------------------------------
  C      3.617703   -3.969326   -0.672280
  C      4.267508   -2.666498   -1.110173
  O      3.332287   -1.852873   -1.847327
  C      2.528225   -1.058985   -1.177307
  O      2.531520   -0.926460    0.029720
  C      1.596561   -0.292634   -2.092876
  C      0.488993    0.344185   -1.264321
  H     -0.098914    1.038438   -1.873341
  C      1.102053    1.135498   -0.118449
  O      2.008806    1.916621   -0.294224
  O      0.502130    0.915908    1.033201
  C      0.990457    1.614122    2.196895
  C      0.326893    2.972093    2.344806
  S     -0.649034   -0.948467   -0.648223
  P     -2.070402    0.331810    0.222667
  S     -2.185390    2.205405   -0.324628
  O     -3.341285   -0.553776   -0.224306
  C     -4.671356   -0.076228    0.015000
  O     -2.032118    0.199247    1.814794
  C     -1.861761   -1.081498    2.445031
  H      2.797769   -3.765149    0.012630
  H      3.231675   -4.502961   -1.536103
  H      4.354401   -4.586201   -0.168480
  H      5.084532   -2.842444   -1.809726
  H      4.620180   -2.096870   -0.245767
  H      1.193528   -0.959737   -2.853451
  H      2.178761    0.492794   -2.580360
  H      0.743711    0.957744    3.031607
  H      2.074535    1.712877    2.093937
  H      0.578484    3.607906    1.498682
  H     -0.753948    2.858015    2.382578
  H      0.672590    3.441871    3.259325
  H     -5.328033   -0.781041   -0.488252
  H     -4.789953    0.924087   -0.404768
  H     -4.881377   -0.048322    1.084635
  H     -2.491414   -1.831741    1.965888
  H     -2.154216   -0.935565    3.481843
  H     -0.816818   -1.383501    2.377387

 Total Charge           Charge          ....    0
 Multiplicity           Mult            ....    1
 Number of Electrons    NEL             ....  174
 Basis Dimension        Dim             ....  510

ORBITAL ENERGIES
----------------

  NO   OCC          E(Eh)            E(eV)
   0   2.0000     -88.572062     -2410.1683
   1   2.0000     -88.516015     -2408.6432
   2   2.0000     -76.911160     -2092.8591
   3   2.0000     -19.010260      -517.2955
   4   2.0000     -18.991683      -516.7900
   5   2.0000     -18.991289      -516.7792
   6   2.0000     -18.984675      -516.5993
   7   2.0000     -18.942731      -515.4579
   8   2.0000     -18.924449      -514.9604
   9   2.0000     -10.167337      -276.6673
  10   2.0000     -10.154903      -276.3289
  11   2.0000     -10.100761      -274.8557
  12   2.0000     -10.096941      -274.7517
  13   2.0000     -10.092711      -274.6366
  14   2.0000     -10.088621      -274.5253
  15   2.0000     -10.083800      -274.3941
  16   2.0000     -10.065801      -273.9044
  17   2.0000     -10.036220      -273.0994
  18   2.0000     -10.013047      -272.4689
  19   2.0000      -7.866581      -214.0606
  20   2.0000      -7.810833      -212.5436
  21   2.0000      -6.589413      -179.3071
  22   2.0000      -5.813526      -158.1941
  23   2.0000      -5.810718      -158.1177
  24   2.0000      -5.803279      -157.9152
  25   2.0000      -5.758802      -156.7050
  26   2.0000      -5.751231      -156.4990
  27   2.0000      -5.750386      -156.4760
  28   2.0000      -4.735176      -128.8507
  29   2.0000      -4.734341      -128.8280
  30   2.0000      -4.732964      -128.7905
  31   2.0000      -1.087836       -29.6015
  32   2.0000      -1.070894       -29.1405
  33   2.0000      -1.043517       -28.3955
  34   2.0000      -1.003591       -27.3091
  35   2.0000      -0.992353       -27.0033
  36   2.0000      -0.975439       -26.5430
  37   2.0000      -0.810120       -22.0445
  38   2.0000      -0.760287       -20.6885
  39   2.0000      -0.734987       -20.0000
  40   2.0000      -0.732012       -19.9191
  41   2.0000      -0.696185       -18.9441
  42   2.0000      -0.676683       -18.4135
  43   2.0000      -0.654648       -17.8139
  44   2.0000      -0.646327       -17.5874
  45   2.0000      -0.630564       -17.1585
  46   2.0000      -0.593360       -16.1461
  47   2.0000      -0.539102       -14.6697
  48   2.0000      -0.533942       -14.5293
  49   2.0000      -0.520627       -14.1670
  50   2.0000      -0.501081       -13.6351
  51   2.0000      -0.492229       -13.3942
  52   2.0000      -0.481933       -13.1141
  53   2.0000      -0.464107       -12.6290
  54   2.0000      -0.456126       -12.4118
  55   2.0000      -0.454275       -12.3614
  56   2.0000      -0.447164       -12.1679
  57   2.0000      -0.438323       -11.9274
  58   2.0000      -0.435188       -11.8421
  59   2.0000      -0.427287       -11.6271
  60   2.0000      -0.419576       -11.4172
  61   2.0000      -0.415605       -11.3092
  62   2.0000      -0.413427       -11.2499
  63   2.0000      -0.397792       -10.8245
  64   2.0000      -0.389667       -10.6034
  65   2.0000      -0.381008       -10.3677
  66   2.0000      -0.378844       -10.3089
  67   2.0000      -0.362608        -9.8671
  68   2.0000      -0.357789        -9.7359
  69   2.0000      -0.350616        -9.5407
  70   2.0000      -0.347003        -9.4424
  71   2.0000      -0.341590        -9.2951
  72   2.0000      -0.336161        -9.1474
  73   2.0000      -0.332381        -9.0446
  74   2.0000      -0.326117        -8.8741
  75   2.0000      -0.316863        -8.6223
  76   2.0000      -0.303651        -8.2628
  77   2.0000      -0.296560        -8.0698
  78   2.0000      -0.288597        -7.8531
  79   2.0000      -0.285886        -7.7794
  80   2.0000      -0.278793        -7.5863
  81   2.0000      -0.265359        -7.2208
  82   2.0000      -0.253140        -6.8883
  83   2.0000      -0.248184        -6.7534
  84   2.0000      -0.219268        -5.9666
  85   2.0000      -0.217002        -5.9049
  86   2.0000      -0.209501        -5.7008
  87   0.0000      -0.045082        -1.2267
  88   0.0000      -0.023537        -0.6405
  89   0.0000      -0.008940        -0.2433
  90   0.0000       0.008589         0.2337
  91   0.0000       0.023187         0.6309

MULLIKEN ATOMIC CHARGES
-----------------------
   0 C :   -0.467415
   1 C :   -0.136801
   2 O :   -0.162115
   3 C :    0.392157
   4 O :   -0.389435
   5 C :   -0.459379
   6 C :    0.021791
   7 H :    0.242669
   8 C :    0.230675
   9 O :   -0.382435
  10 O :   -0.126689
  11 C :   -0.124373
  12 C :   -0.483453
  13 S :   -0.177776
  14 P :    0.752866
  15 S :   -0.441885
  16 O :   -0.366177
  17 C :   -0.295979
  18 O :   -0.300315
  19 C :   -0.297869
  20 H :    0.172156
  21 H :    0.154406
  22 H :    0.149866
  23 H :    0.152151
  24 H :    0.169819
  25 H :    0.192922
  26 H :    0.203459
  27 H :    0.141460
  28 H :    0.171000
  29 H :    0.174108
  30 H :    0.172626
  31 H :    0.142271
  32 H :    0.151799
  33 H :    0.177199
  34 H :    0.149733
  35 H :    0.160996
  36 H :    0.156396
  37 H :    0.179569
Sum of atomic charges:   -0.0000000

LOEWDIN ATOMIC CHARGES
----------------------
   0 C :   -0.387725
   1 C :    0.032047
   2 O :   -0.573141
   3 C :    0.368083
   4 O :   -0.426713
   5 C :   -0.205420
   6 C :   -0.190656
   7 H :    0.207560
   8 C :    0.348825
   9 O :   -0.417774
  10 O :   -0.625845
  11 C :    0.037114
  12 C :   -0.394048
  13 S :    0.247709
  14 P :    0.401051
  15 S :   -0.082238
  16 O :   -0.706294
  17 C :   -0.058129
  18 O :   -0.669726
  19 C :   -0.060088
  20 H :    0.165586
  21 H :    0.158333
  22 H :    0.160550
  23 H :    0.179897
  24 H :    0.189205
  25 H :    0.190459
  26 H :    0.206392
  27 H :    0.177873
  28 H :    0.192970
  29 H :    0.167794
  30 H :    0.166288
  31 H :    0.155190
  32 H :    0.176593
  33 H :    0.177766
  34 H :    0.163986
  35 H :    0.171140
  36 H :    0.178835
  37 H :    0.176556

  Mayer bond orders larger than 0.100000
B(  0-C ,  1-C ) :   0.9399 B(  0-C , 20-H ) :   0.9704 B(  0-C , 21-H ) :   0.9726
B(  0-C , 22-H ) :   0.9642 B(  1-C ,  2-O ) :   0.8025 B(  1-C , 23-H ) :   0.9613
B(  1-C , 24-H ) :   0.9675 B(  2-O ,  3-C ) :   1.1361 B(  3-C ,  4-O ) :   1.7843
B(  3-C ,  5-C ) :   0.9715 B(  4-O ,  8-C ) :   0.1282 B(  5-C ,  6-C ) :   0.9183
B(  5-C ,  9-O ) :   0.1057 B(  5-C , 25-H ) :   0.9743 B(  5-C , 26-H ) :   0.9150
B(  6-C ,  7-H ) :   0.9133 B(  6-C ,  8-C ) :   0.8134 B(  6-C , 13-S ) :   0.8646
B(  8-C ,  9-O ) :   1.8960 B(  8-C , 10-O ) :   1.1413 B( 10-O , 11-C ) :   0.7783
B( 11-C , 12-C ) :   0.9215 B( 11-C , 27-H ) :   0.9637 B( 11-C , 28-H ) :   0.9661
B( 12-C , 29-H ) :   0.9700 B( 12-C , 30-H ) :   0.9642 B( 12-C , 31-H ) :   0.9689
B( 13-S , 14-P ) :   1.0618 B( 14-P , 15-S ) :   1.7908 B( 14-P , 16-O ) :   1.0691
B( 14-P , 18-O ) :   1.0613 B( 16-O , 17-C ) :   0.8365 B( 17-C , 32-H ) :   0.9669
B( 17-C , 33-H ) :   0.9551 B( 17-C , 34-H ) :   0.9630 B( 18-O , 19-C ) :   0.7989
B( 19-C , 35-H ) :   0.9615 B( 19-C , 36-H ) :   0.9648 B( 19-C , 37-H ) :   0.9555

Dispersion correction           -0.017778396
FINAL SINGLE POINT ENERGY     -1981.451811836406

DIPOLE MOMENT
-------------

Method             : SCF
Type of density    : Electron Density
Multiplicity       :   1
Irrep              :   0
Energy             : -1981.4716521322052358 Eh
Relativity type    :
Basis              : AO
                                X                 Y                 Z
Electronic contribution:     -7.758414222       6.679478789      -7.967104795
Nuclear contribution   :      7.807618711      -8.499225698       8.494479248
                        -----------------------------------------
Total Dipole Moment    :      0.049204489      -1.819746909       0.527374453
                        -----------------------------------------
Magnitude (a.u.)       :      1.895263493
Magnitude (Debye)      :      4.817376956

Rotational constants in cm-1:             0.015313             0.006457             0.005707
Rotational constants in MHz :           459.081795           193.574510           171.084620

                             ****ORCA TERMINATED NORMALLY****
TOTAL RUN TIME: 0 days 0 hours 1 minutes 20 seconds 474 msec
