                         Program Version 6.0.1  -  RELEASE   -
|  1> ! r2scan-3c def2/J RI DEFGRID2 scfconv6 printgap
|  2> %output
|  3>     printlevel normal
|  4> end
|  5> %cpcm
|  6>     smd true
|  7>     smdsolvent "water"
|  8> end
|  9> * xyz 0 1
| 10> C 3.6177025836 -3.9693263849 -0.672279688
| 11> C 4.2675082157 -2.6664984884 -1.1101733113
| 12> O 3.3322866822 -1.8528733954 -1.847326614
| 13> C 2.5282247505 -1.0589854229 -1.1773068641
| 14> O 2.531519523 -0.9264598842 0.0297202694
| 15> C 1.5965614084 -0.292634439 -2.092875886
| 16> C 0.4889931212 0.3441854868 -1.2643212023
| 17> H -0.0989138598 1.0384380287 -1.873341449
| 18> C 1.1020532565 1.1354981784 -0.1184485317
| 19> O 2.0088061479 1.9166205231 -0.2942237078
| 20> O 0.5021295455 0.9159079012 1.0332006047
| 21> C 0.99045653 1.6141218799 2.1968952658
| 22> C 0.3268930544 2.9720929621 2.3448057524
| 23> S -0.6490339613 -0.9484671261 -0.6482226644
| 24> P -2.0704017622 0.3318099143 0.2226674682
| 25> S -2.1853903326 2.2054045838 -0.3246277091
| 26> O -3.3412852295 -0.5537759083 -0.2243060449
| 27> C -4.6713558284 -0.0762278651 0.0149995798
| 28> O -2.0321176561 0.1992474987 1.814793644
| 29> C -1.8617610783 -1.081497983 2.4450312456
| 30> H 2.7977691465 -3.7651486481 0.0126302827
| 31> H 3.2316747847 -4.5029608066 -1.536103485
| 32> H 4.3544014188 -4.5862011742 -0.1684796387
| 33> H 5.0845323208 -2.8424438354 -1.80972615
| 34> H 4.6201797903 -2.096869821 -0.2457673128
| 35> H 1.1935283435 -0.9597367102 -2.8534510383
| 36> H 2.1787613143 0.4927944594 -2.5803602932
| 37> H 0.74371061 0.9577443208 3.0316067834
| 38> H 2.074534738 1.7128769148 2.0939371146
| 39> H 0.5784836692 3.6079062141 1.4986820974
| 40> H -0.7539478067 2.8580153002 2.38257828
| 41> H 0.67259039 3.4418706123 3.2593246195
| 42> H -5.328032673 -0.7810414056 -0.4882516898
| 43> H -4.7899533663 0.9240866749 -0.4047682798
| 44> H -4.8813772852 -0.0483219419 1.0846347916
| 45> H -2.4914139982 -1.8317406096 1.9658875136
| 46> H -2.1542155071 -0.9355652554 3.4818425353
| 47> H -0.8168178902 -1.3835011054 2.3773870858
| 48> *
| 49>
| 50>                          ****END OF INPUT****

CARTESIAN COORDINATES (ANGSTROEM)
---------------------------------
  C      3.617703   -3.969326   -0.672280
  C      4.267508   -2.666498   -1.110173
  O      3.332287   -1.852873   -1.847327
  C      2.528225   -1.058985   -1.177307
  O      2.531520   -0.926460    0.029720
  C      1.596561   -0.292634   -2.092876
  C      0.488993    0.344185   -1.264321
  H     -0.098914    1.038438   -1.873341
  C      1.102053    1.135498   -0.118449
  O      2.008806    1.916621   -0.294224
  O      0.502130    0.915908    1.033201
  C      0.990457    1.614122    2.196895
  C      0.326893    2.972093    2.344806
  S     -0.649034   -0.948467   -0.648223
  P     -2.070402    0.331810    0.222667
  S     -2.185390    2.205405   -0.324628
  O     -3.341285   -0.553776   -0.224306
  C     -4.671356   -0.076228    0.015000
  O     -2.032118    0.199247    1.814794
  C     -1.861761   -1.081498    2.445031
  H      2.797769   -3.765149    0.012630
  H      3.231675   -4.502961   -1.536103
  H      4.354401   -4.586201   -0.168480
  H      5.084532   -2.842444   -1.809726
  H      4.620180   -2.096870   -0.245767
  H      1.193528   -0.959737   -2.853451
  H      2.178761    0.492794   -2.580360
  H      0.743711    0.957744    3.031607
  H      2.074535    1.712877    2.093937
  H      0.578484    3.607906    1.498682
  H     -0.753948    2.858015    2.382578
  H      0.672590    3.441871    3.259325
  H     -5.328033   -0.781041   -0.488252
  H     -4.789953    0.924087   -0.404768
  H     -4.881377   -0.048322    1.084635
  H     -2.491414   -1.831741    1.965888
  H     -2.154216   -0.935565    3.481843
  H     -0.816818   -1.383501    2.377387

 Total Charge           Charge          ....    0
 Multiplicity           Mult            ....    1
 Number of Electrons    NEL             ....  174
 Basis Dimension        Dim             ....  510

ORBITAL ENERGIES
----------------

  NO   OCC          E(Eh)            E(eV)
   0   2.0000     -88.579584     -2410.3730
   1   2.0000     -88.527921     -2408.9672
   2   2.0000     -76.918929     -2093.0705
   3   2.0000     -19.010341      -517.2977
   4   2.0000     -19.006211      -517.1853
   5   2.0000     -18.993811      -516.8479
   6   2.0000     -18.988908      -516.7145
   7   2.0000     -18.952499      -515.7237
   8   2.0000     -18.947792      -515.5956
   9   2.0000     -10.173968      -276.8477
  10   2.0000     -10.173363      -276.8313
  11   2.0000     -10.097475      -274.7663
  12   2.0000     -10.087082      -274.4835
  13   2.0000     -10.086294      -274.4620
  14   2.0000     -10.082925      -274.3703
  15   2.0000     -10.079195      -274.2688
  16   2.0000     -10.061329      -273.7827
  17   2.0000     -10.019785      -272.6522
  18   2.0000     -10.017083      -272.5787
  19   2.0000      -7.874079      -214.2646
  20   2.0000      -7.823078      -212.8768
  21   2.0000      -6.597234      -179.5199
  22   2.0000      -5.821011      -158.3978
  23   2.0000      -5.818186      -158.3209
  24   2.0000      -5.810829      -158.1207
  25   2.0000      -5.770931      -157.0350
  26   2.0000      -5.763449      -156.8314
  27   2.0000      -5.762707      -156.8112
  28   2.0000      -4.742928      -129.0616
  29   2.0000      -4.742158      -129.0407
  30   2.0000      -4.740894      -129.0063
  31   2.0000      -1.091072       -29.6896
  32   2.0000      -1.085975       -29.5509
  33   2.0000      -1.046221       -28.4691
  34   2.0000      -1.006151       -27.3788
  35   2.0000      -1.000930       -27.2367
  36   2.0000      -0.995976       -27.1019
  37   2.0000      -0.814433       -22.1619
  38   2.0000      -0.754963       -20.5436
  39   2.0000      -0.738552       -20.0970
  40   2.0000      -0.731313       -19.9000
  41   2.0000      -0.694565       -18.9001
  42   2.0000      -0.672256       -18.2930
  43   2.0000      -0.656297       -17.8587
  44   2.0000      -0.648635       -17.6502
  45   2.0000      -0.628950       -17.1146
  46   2.0000      -0.593813       -16.1585
  47   2.0000      -0.539926       -14.6921
  48   2.0000      -0.529246       -14.4015
  49   2.0000      -0.524964       -14.2850
  50   2.0000      -0.505893       -13.7661
  51   2.0000      -0.490339       -13.3428
  52   2.0000      -0.483448       -13.1553
  53   2.0000      -0.466562       -12.6958
  54   2.0000      -0.461369       -12.5545
  55   2.0000      -0.457187       -12.4407
  56   2.0000      -0.452688       -12.3183
  57   2.0000      -0.444210       -12.0876
  58   2.0000      -0.437006       -11.8915
  59   2.0000      -0.423992       -11.5374
  60   2.0000      -0.419106       -11.4044
  61   2.0000      -0.414212       -11.2713
  62   2.0000      -0.411191       -11.1891
  63   2.0000      -0.399700       -10.8764
  64   2.0000      -0.388954       -10.5840
  65   2.0000      -0.383400       -10.4328
  66   2.0000      -0.373227       -10.1560
  67   2.0000      -0.365434        -9.9440
  68   2.0000      -0.356551        -9.7022
  69   2.0000      -0.351913        -9.5760
  70   2.0000      -0.345036        -9.3889
  71   2.0000      -0.339185        -9.2297
  72   2.0000      -0.338878        -9.2213
  73   2.0000      -0.337376        -9.1805
  74   2.0000      -0.329262        -8.9597
  75   2.0000      -0.309457        -8.4207
  76   2.0000      -0.308324        -8.3899
  77   2.0000      -0.301789        -8.2121
  78   2.0000      -0.289562        -7.8794
  79   2.0000      -0.288952        -7.8628
  80   2.0000      -0.283284        -7.7085
  81   2.0000      -0.277697        -7.5565
  82   2.0000      -0.267139        -7.2692
  83   2.0000      -0.260847        -7.0980
  84   2.0000      -0.232569        -6.3285
  85   2.0000      -0.229526        -6.2457
  86   2.0000      -0.222664        -6.0590
  87   0.0000      -0.052517        -1.4291
  88   0.0000      -0.028797        -0.7836
  89   0.0000      -0.025066        -0.6821
  90   0.0000       0.004843         0.1318
  91   0.0000       0.017777         0.4837

MULLIKEN ATOMIC CHARGES
-----------------------
   0 C :   -0.496034
   1 C :   -0.138459
   2 O :   -0.172370
   3 C :    0.426638
   4 O :   -0.455231
   5 C :   -0.497879
   6 C :    0.032797
   7 H :    0.270399
   8 C :    0.227014
   9 O :   -0.450379
  10 O :   -0.139279
  11 C :   -0.133107
  12 C :   -0.507653
  13 S :   -0.186646
  14 P :    0.774193
  15 S :   -0.491772
  16 O :   -0.390451
  17 C :   -0.315559
  18 O :   -0.331551
  19 C :   -0.301039
  20 H :    0.170361
  21 H :    0.167703
  22 H :    0.172700
  23 H :    0.177500
  24 H :    0.174702
  25 H :    0.226902
  26 H :    0.237843
  27 H :    0.180508
  28 H :    0.176479
  29 H :    0.170893
  30 H :    0.168934
  31 H :    0.171631
  32 H :    0.177428
  33 H :    0.176826
  34 H :    0.177350
  35 H :    0.181847
  36 H :    0.183111
  37 H :    0.183647
Sum of atomic charges:   -0.0000000

LOEWDIN ATOMIC CHARGES
----------------------
   0 C :   -0.390300
   1 C :    0.037646
   2 O :   -0.572518
   3 C :    0.375565
   4 O :   -0.472445
   5 C :   -0.197159
   6 C :   -0.187134
   7 H :    0.216438
   8 C :    0.349591
   9 O :   -0.469630
  10 O :   -0.629527
  11 C :    0.040626
  12 C :   -0.396308
  13 S :    0.248619
  14 P :    0.402771
  15 S :   -0.119592
  16 O :   -0.718846
  17 C :   -0.054229
  18 O :   -0.683340
  19 C :   -0.050110
  20 H :    0.163356
  21 H :    0.162786
  22 H :    0.169031
  23 H :    0.190949
  24 H :    0.190957
  25 H :    0.204900
  26 H :    0.216719
  27 H :    0.192527
  28 H :    0.194710
  29 H :    0.163318
  30 H :    0.163741
  31 H :    0.166467
  32 H :    0.187599
  33 H :    0.177176
  34 H :    0.175081
  35 H :    0.179878
  36 H :    0.191221
  37 H :    0.179469

  Mayer bond orders larger than 0.100000
B(  0-C ,  1-C ) :   0.9370 B(  0-C , 20-H ) :   0.9685 B(  0-C , 21-H ) :   0.9693
B(  0-C , 22-H ) :   0.9589 B(  1-C ,  2-O ) :   0.7852 B(  1-C , 23-H ) :   0.9516
B(  1-C , 24-H ) :   0.9625 B(  2-O ,  3-C ) :   1.1522 B(  3-C ,  4-O ) :   1.7331
B(  3-C ,  5-C ) :   0.9472 B(  4-O ,  8-C ) :   0.1273 B(  5-C ,  6-C ) :   0.8892
B(  5-C , 25-H ) :   0.9627 B(  5-C , 26-H ) :   0.9232 B(  6-C ,  7-H ) :   0.9016
B(  6-C ,  8-C ) :   0.8187 B(  6-C , 13-S ) :   0.8616 B(  8-C ,  9-O ) :   1.8353
B(  8-C , 10-O ) :   1.1527 B( 10-O , 11-C ) :   0.7610 B( 11-C , 12-C ) :   0.9120
B( 11-C , 27-H ) :   0.9534 B( 11-C , 28-H ) :   0.9568 B( 12-C , 29-H ) :   0.9714
B( 12-C , 30-H ) :   0.9655 B( 12-C , 31-H ) :   0.9623 B( 13-S , 14-P ) :   1.0699
B( 14-P , 15-S ) :   1.7658 B( 14-P , 16-O ) :   1.0769 B( 14-P , 18-O ) :   1.0697
B( 16-O , 17-C ) :   0.8245 B( 17-C , 32-H ) :   0.9568 B( 17-C , 33-H ) :   0.9523
B( 17-C , 34-H ) :   0.9553 B( 18-O , 19-C ) :   0.7885 B( 19-C , 35-H ) :   0.9525
B( 19-C , 36-H ) :   0.9541 B( 19-C , 37-H ) :   0.9493

Dispersion correction           -0.017778396
FINAL SINGLE POINT ENERGY     -1981.467456429813

DIPOLE MOMENT
-------------

Method             : SCF
Type of density    : Electron Density
Multiplicity       :   1
Irrep              :   0
Energy             : -1981.4872967256117136 Eh
Relativity type    :
Basis              : AO
                                X                 Y                 Z
Electronic contribution:     -7.893617391       5.981892815      -7.884993866
Nuclear contribution   :      7.807618711      -8.499225698       8.494479248
                        -----------------------------------------
Total Dipole Moment    :     -0.085998680      -2.517332883       0.609485382
                        -----------------------------------------
Magnitude (a.u.)       :      2.591492436
Magnitude (Debye)      :      6.587050292

Rotational constants in cm-1:             0.015313             0.006457             0.005707
Rotational constants in MHz :           459.081795           193.574510           171.084620

                             ****ORCA TERMINATED NORMALLY****
TOTAL RUN TIME: 0 days 0 hours 1 minutes 45 seconds 468 msec
