                         Program Version 6.0.0  -   RELEASE  -
|  1> ! wb97x-v def2-tzvp def2/J RIJCOSX DEFGRID2 scfconv7 GCP(DFT/TZ) printgap
|  2> %output
|  3>     printlevel normal
|  4> end
|  5> * xyz 0 1
|  6> C 4.3697869145398505 -1.1393123470861635 -2.709838329157263
|  7> C 4.493216551160295 -1.6156002564267944 -1.2842273096879975
|  8> O 3.1818342313938515 -1.7648121455906047 -0.6366362132818003
|  9> P 2.3350392727306946 -0.5202349359361382 -0.06378004423780706
| 10> S 3.3485846167399225 1.0317615711763102 0.5376279853777481
| 11> O 1.413210915151947 -1.2546717130434315 1.0253476810880342
| 12> C 2.0073555991796725 -1.7281390587703547 2.2913853090813565
| 13> C 1.3324770833982857 -1.028928625134342 3.4425031095668186
| 14> S 0.9385064046613555 -0.19151583351667886 -1.6220076468579485
| 15> C 0.294362008353413 1.4678218687945903 -1.178376833948637
| 16> S -0.8164549627159089 1.5686208312029986 0.27801417458630795
| 17> P -2.5227861161837235 0.5198108978716934 -0.4432148899613026
| 18> S -2.9366225153712375 0.7877653825280787 -2.32248673004998
| 19> O -3.6099672559000555 0.9583253138031161 0.6587861391299542
| 20> C -4.243293354035232 2.2848189381059414 0.6144010586236087
| 21> C -5.235372093711833 2.34008664971479 1.7460080505577644
| 22> O -2.3389512482803148 -1.0345396765044663 -0.10067491949901375
| 23> C -2.0837769547539002 -1.4956079756184821 1.2765568174598243
| 24> C -1.5972428805237517 -2.9180762565955596 1.188722868645042
| 25> H 5.362579091588804 -1.1643346859509893 -3.171090845250528
| 26> H 3.7065111776608504 -1.7912690126250368 -3.285696113442045
| 27> H 3.9964832417767617 -0.1126820159379979 -2.7618034702177328
| 28> H 5.100214650698766 -0.9385232552213975 -0.6761648487117532
| 29> H 4.917367479845584 -2.6202563851941045 -1.2313052184037694
| 30> H 1.8345777506221908 -2.807394441917982 2.305621816195641
| 31> H 3.0861709961256705 -1.5429804451760014 2.2832471946276898
| 32> H 0.2551730366530465 -1.2184914289784137 3.4386207502105535
| 33> H 1.745322773946522 -1.411185042091594 4.381779642823305
| 34> H 1.5060095472865236 0.05025853732539694 3.400527577441616
| 35> H -0.23716718665387462 1.8228963171499715 -2.0659756171789114
| 36> H 1.1317067679972317 2.137788511984894 -0.9609000192553314
| 37> H -3.4630245775113466 3.0453923802979515 0.7209768049202773
| 38> H -4.727758925252419 2.3968916554779782 -0.36023226818876497
| 39> H -6.005395458706775 1.5725317925022126 1.6284916878129314
| 40> H -4.737792330904318 2.2049372831774696 2.7103546552718076
| 41> H -5.720853367710737 3.320656988006132 1.7420259610816626
| 42> H -1.3352456277629103 -0.8382843533191349 1.7299742820142359
| 43> H -3.0218380029720326 -1.4162110179310607 1.832814327260865
| 44> H -0.6793794390294154 -2.9831852631223126 0.5981776687606662
| 45> H -1.3873131448413873 -3.283633093645679 2.1988900780875515
| 46> H -2.3576943604484812 -3.563930360024674 0.7404866736021783
| 47> *
| 48>
| 49>                          ****END OF INPUT****

CARTESIAN COORDINATES (ANGSTROEM)
---------------------------------
  C      4.369787   -1.139312   -2.709838
  C      4.493217   -1.615600   -1.284227
  O      3.181834   -1.764812   -0.636636
  P      2.335039   -0.520235   -0.063780
  S      3.348585    1.031762    0.537628
  O      1.413211   -1.254672    1.025348
  C      2.007356   -1.728139    2.291385
  C      1.332477   -1.028929    3.442503
  S      0.938506   -0.191516   -1.622008
  C      0.294362    1.467822   -1.178377
  S     -0.816455    1.568621    0.278014
  P     -2.522786    0.519811   -0.443215
  S     -2.936623    0.787765   -2.322487
  O     -3.609967    0.958325    0.658786
  C     -4.243293    2.284819    0.614401
  C     -5.235372    2.340087    1.746008
  O     -2.338951   -1.034540   -0.100675
  C     -2.083777   -1.495608    1.276557
  C     -1.597243   -2.918076    1.188723
  H      5.362579   -1.164335   -3.171091
  H      3.706511   -1.791269   -3.285696
  H      3.996483   -0.112682   -2.761803
  H      5.100215   -0.938523   -0.676165
  H      4.917367   -2.620256   -1.231305
  H      1.834578   -2.807394    2.305622
  H      3.086171   -1.542980    2.283247
  H      0.255173   -1.218491    3.438621
  H      1.745323   -1.411185    4.381780
  H      1.506010    0.050259    3.400528
  H     -0.237167    1.822896   -2.065976
  H      1.131707    2.137789   -0.960900
  H     -3.463025    3.045392    0.720977
  H     -4.727759    2.396892   -0.360232
  H     -6.005395    1.572532    1.628492
  H     -4.737792    2.204937    2.710355
  H     -5.720853    3.320657    1.742026
  H     -1.335246   -0.838284    1.729974
  H     -3.021838   -1.416211    1.832814
  H     -0.679379   -2.983185    0.598178
  H     -1.387313   -3.283633    2.198890
  H     -2.357694   -3.563930    0.740487

 Total Charge           Charge          ....    0
 Multiplicity           Mult            ....    1
 Number of Electrons    NEL             ....  202
 Basis Dimension        Dim             ....  757

ORBITAL ENERGIES
----------------

  NO   OCC          E(Eh)            E(eV)
   0   2.0000     -94.143924     -2561.7864
   1   2.0000     -94.142131     -2561.7376
   2   2.0000     -94.087191     -2560.2426
   3   2.0000     -94.077686     -2559.9840
   4   2.0000     -82.122526     -2234.6675
   5   2.0000     -82.116344     -2234.4993
   6   2.0000     -21.714477      -590.8809
   7   2.0000     -21.712590      -590.8296
   8   2.0000     -21.711585      -590.8023
   9   2.0000     -21.705198      -590.6285
  10   2.0000     -12.122960      -329.8825
  11   2.0000     -12.121738      -329.8493
  12   2.0000     -12.118383      -329.7580
  13   2.0000     -12.117370      -329.7304
  14   2.0000     -12.111715      -329.5765
  15   2.0000     -12.052264      -327.9588
  16   2.0000     -12.051675      -327.9428
  17   2.0000     -12.048286      -327.8505
  18   2.0000     -12.044181      -327.7388
  19   2.0000      -9.655143      -262.7298
  20   2.0000      -9.653624      -262.6885
  21   2.0000      -9.600088      -261.2317
  22   2.0000      -9.590448      -260.9694
  23   2.0000      -8.235831      -224.1084
  24   2.0000      -8.229575      -223.9381
  25   2.0000      -7.632758      -207.6979
  26   2.0000      -7.631987      -207.6769
  27   2.0000      -7.631228      -207.6563
  28   2.0000      -7.630822      -207.6452
  29   2.0000      -7.629808      -207.6176
  30   2.0000      -7.628829      -207.5910
  31   2.0000      -7.577686      -206.1993
  32   2.0000      -7.575960      -206.1523
  33   2.0000      -7.575859      -206.1496
  34   2.0000      -7.568021      -205.9363
  35   2.0000      -7.566380      -205.8917
  36   2.0000      -7.566202      -205.8868
  37   2.0000      -6.400077      -174.1550
  38   2.0000      -6.399820      -174.1480
  39   2.0000      -6.399422      -174.1371
  40   2.0000      -6.393920      -173.9874
  41   2.0000      -6.393585      -173.9783
  42   2.0000      -6.393045      -173.9636
  43   2.0000      -1.723867       -46.9088
  44   2.0000      -1.720705       -46.8228
  45   2.0000      -1.700070       -46.2612
  46   2.0000      -1.695081       -46.1255
  47   2.0000      -1.329911       -36.1887
  48   2.0000      -1.315898       -35.8074
  49   2.0000      -1.304923       -35.5088
  50   2.0000      -1.292250       -35.1639
  51   2.0000      -1.290895       -35.1270
  52   2.0000      -1.253232       -34.1022
  53   2.0000      -1.228953       -33.4415
  54   2.0000      -1.206897       -32.8413
  55   2.0000      -1.175884       -31.9974
  56   2.0000      -1.163286       -31.6546
  57   2.0000      -1.158719       -31.5304
  58   2.0000      -1.145882       -31.1810
  59   2.0000      -1.117328       -30.4040
  60   2.0000      -1.081660       -29.4335
  61   2.0000      -1.075400       -29.2631
  62   2.0000      -1.053542       -28.6683
  63   2.0000      -1.046811       -28.4852
  64   2.0000      -0.998413       -27.1682
  65   2.0000      -0.995010       -27.0756
  66   2.0000      -0.991938       -26.9920
  67   2.0000      -0.981338       -26.7036
  68   2.0000      -0.973788       -26.4981
  69   2.0000      -0.972064       -26.4512
  70   2.0000      -0.963344       -26.2139
  71   2.0000      -0.958208       -26.0742
  72   2.0000      -0.921101       -25.0644
  73   2.0000      -0.894946       -24.3527
  74   2.0000      -0.882772       -24.0214
  75   2.0000      -0.880397       -23.9568
  76   2.0000      -0.874708       -23.8020
  77   2.0000      -0.867064       -23.5940
  78   2.0000      -0.863963       -23.5096
  79   2.0000      -0.847187       -23.0531
  80   2.0000      -0.845630       -23.0108
  81   2.0000      -0.844368       -22.9764
  82   2.0000      -0.841191       -22.8900
  83   2.0000      -0.835326       -22.7304
  84   2.0000      -0.827763       -22.5246
  85   2.0000      -0.826996       -22.5037
  86   2.0000      -0.824897       -22.4466
  87   2.0000      -0.822321       -22.3765
  88   2.0000      -0.819230       -22.2924
  89   2.0000      -0.794202       -21.6113
  90   2.0000      -0.791347       -21.5337
  91   2.0000      -0.790328       -21.5059
  92   2.0000      -0.783990       -21.3334
  93   2.0000      -0.775672       -21.1071
  94   2.0000      -0.751683       -20.4543
  95   2.0000      -0.689068       -18.7505
  96   2.0000      -0.675600       -18.3840
  97   2.0000      -0.650860       -17.7108
  98   2.0000      -0.643937       -17.5224
  99   2.0000      -0.640593       -17.4314
 100   2.0000      -0.633186       -17.2299
 101   0.0000      -0.317231        -8.6323
 102   0.0000      -0.312755        -8.5105
 103   0.0000      -0.270838        -7.3699
 104   0.0000      -0.241797        -6.5796
 105   0.0000      -0.234478        -6.3805

MULLIKEN ATOMIC CHARGES
-----------------------
   0 C :   -0.336651
   1 C :   -0.042526
   2 O :   -0.319208
   3 P :    0.596914
   4 S :   -0.421361
   5 O :   -0.295970
   6 C :   -0.034012
   7 C :   -0.333419
   8 S :   -0.094060
   9 C :   -0.195631
  10 S :   -0.150821
  11 P :    0.618538
  12 S :   -0.405513
  13 O :   -0.307621
  14 C :   -0.062376
  15 C :   -0.315378
  16 O :   -0.278811
  17 C :   -0.047634
  18 C :   -0.326253
  19 H :    0.117966
  20 H :    0.122083
  21 H :    0.132372
  22 H :    0.128117
  23 H :    0.114012
  24 H :    0.117319
  25 H :    0.120258
  26 H :    0.106517
  27 H :    0.119458
  28 H :    0.136911
  29 H :    0.178163
  30 H :    0.174030
  31 H :    0.115223
  32 H :    0.128816
  33 H :    0.121911
  34 H :    0.115615
  35 H :    0.114557
  36 H :    0.106331
  37 H :    0.118529
  38 H :    0.134500
  39 H :    0.102205
  40 H :    0.126900
Sum of atomic charges:   -0.0000000

LOEWDIN ATOMIC CHARGES
----------------------
   0 C :   -0.313783
   1 C :   -0.319971
   2 O :    0.026910
   3 P :   -0.034606
   4 S :   -0.122386
   5 O :    0.025438
   6 C :   -0.312208
   7 C :   -0.305196
   8 S :    0.371487
   9 C :   -0.706168
  10 S :    0.338455
  11 P :   -0.034668
  12 S :   -0.109791
  13 O :    0.026478
  14 C :   -0.319751
  15 C :   -0.303985
  16 O :    0.038521
  17 C :   -0.320038
  18 C :   -0.306814
  19 H :    0.127156
  20 H :    0.122756
  21 H :    0.121264
  22 H :    0.120164
  23 H :    0.125922
  24 H :    0.124840
  25 H :    0.123015
  26 H :    0.116950
  27 H :    0.126033
  28 H :    0.126634
  29 H :    0.115809
  30 H :    0.114269
  31 H :    0.118694
  32 H :    0.123873
  33 H :    0.123113
  34 H :    0.121086
  35 H :    0.126408
  36 H :    0.112781
  37 H :    0.121155
  38 H :    0.124743
  39 H :    0.122439
  40 H :    0.122970

  Mayer bond orders larger than 0.100000
B(  0-C ,  1-C ) :   1.0017 B(  0-C , 19-H ) :   0.9649 B(  0-C , 20-H ) :   0.9706
B(  0-C , 21-H ) :   0.9677 B(  1-C ,  2-O ) :   0.8818 B(  1-C , 22-H ) :   0.9732
B(  1-C , 23-H ) :   0.9657 B(  2-O ,  3-P ) :   1.1817 B(  3-P ,  4-S ) :   1.7971
B(  3-P ,  5-O ) :   1.2030 B(  3-P ,  8-S ) :   1.0971 B(  5-O ,  6-C ) :   0.8543
B(  6-C ,  7-C ) :   1.0081 B(  6-C , 24-H ) :   0.9712 B(  6-C , 25-H ) :   0.9578
B(  7-C , 26-H ) :   0.9765 B(  7-C , 27-H ) :   0.9713 B(  7-C , 28-H ) :   0.9692
B(  8-S ,  9-C ) :   1.0220 B(  9-C , 10-S ) :   1.0070 B(  9-C , 29-H ) :   0.9323
B(  9-C , 30-H ) :   0.9318 B( 10-S , 11-P ) :   1.0489 B( 11-P , 12-S ) :   1.8666
B( 11-P , 13-O ) :   1.1569 B( 11-P , 16-O ) :   1.2425 B( 13-O , 14-C ) :   0.8907
B( 14-C , 15-C ) :   1.0059 B( 14-C , 31-H ) :   0.9650 B( 14-C , 32-H ) :   0.9641
B( 15-C , 33-H ) :   0.9749 B( 15-C , 34-H ) :   0.9752 B( 15-C , 35-H ) :   0.9698
B( 16-O , 17-C ) :   0.8922 B( 17-C , 18-C ) :   1.0026 B( 17-C , 36-H ) :   0.9614
B( 17-C , 37-H ) :   0.9667 B( 18-C , 38-H ) :   0.9734 B( 18-C , 39-H ) :   0.9706
B( 18-C , 40-H ) :   0.9714

FINAL SINGLE POINT ENERGY     -2932.537466618302

DIPOLE MOMENT
-------------

Method             : SCF
Type of density    : Electron Density
Multiplicity       :   1
Irrep              :   0
Energy             : -2932.5673166138017223 Eh
Relativity type    :
Basis              : AO
                                X                 Y                 Z
Electronic contribution:      0.362867769       8.075229186     -14.403855462
Nuclear contribution   :      0.110813194      -8.600947742      15.835680031
                        -----------------------------------------
Total Dipole Moment    :      0.473680963      -0.525718556       1.431824569
                        -----------------------------------------
Magnitude (a.u.)       :      1.597145971
Magnitude (Debye)      :      4.059622434

Rotational constants in cm-1:             0.012294             0.004567             0.004167
Rotational constants in MHz :           368.550993           136.903539           124.931036

                             ****ORCA TERMINATED NORMALLY****
TOTAL RUN TIME: 0 days 0 hours 14 minutes 41 seconds 150 msec
