                         Program Version 6.0.0  -   RELEASE  -
|  1> ! wb97x-v def2-tzvp def2/J RIJCOSX DEFGRID2 scfconv7 GCP(DFT/TZ) printgap
|  2> %output
|  3>     printlevel normal
|  4> end
|  5> %cpcm
|  6>     smd true
|  7>     smdsolvent "water"
|  8> end
|  9> * xyz 0 1
| 10> C 4.3697869145398505 -1.1393123470861635 -2.709838329157263
| 11> C 4.493216551160295 -1.6156002564267944 -1.2842273096879975
| 12> O 3.1818342313938515 -1.7648121455906047 -0.6366362132818003
| 13> P 2.3350392727306946 -0.5202349359361382 -0.06378004423780706
| 14> S 3.3485846167399225 1.0317615711763102 0.5376279853777481
| 15> O 1.413210915151947 -1.2546717130434315 1.0253476810880342
| 16> C 2.0073555991796725 -1.7281390587703547 2.2913853090813565
| 17> C 1.3324770833982857 -1.028928625134342 3.4425031095668186
| 18> S 0.9385064046613555 -0.19151583351667886 -1.6220076468579485
| 19> C 0.294362008353413 1.4678218687945903 -1.178376833948637
| 20> S -0.8164549627159089 1.5686208312029986 0.27801417458630795
| 21> P -2.5227861161837235 0.5198108978716934 -0.4432148899613026
| 22> S -2.9366225153712375 0.7877653825280787 -2.32248673004998
| 23> O -3.6099672559000555 0.9583253138031161 0.6587861391299542
| 24> C -4.243293354035232 2.2848189381059414 0.6144010586236087
| 25> C -5.235372093711833 2.34008664971479 1.7460080505577644
| 26> O -2.3389512482803148 -1.0345396765044663 -0.10067491949901375
| 27> C -2.0837769547539002 -1.4956079756184821 1.2765568174598243
| 28> C -1.5972428805237517 -2.9180762565955596 1.188722868645042
| 29> H 5.362579091588804 -1.1643346859509893 -3.171090845250528
| 30> H 3.7065111776608504 -1.7912690126250368 -3.285696113442045
| 31> H 3.9964832417767617 -0.1126820159379979 -2.7618034702177328
| 32> H 5.100214650698766 -0.9385232552213975 -0.6761648487117532
| 33> H 4.917367479845584 -2.6202563851941045 -1.2313052184037694
| 34> H 1.8345777506221908 -2.807394441917982 2.305621816195641
| 35> H 3.0861709961256705 -1.5429804451760014 2.2832471946276898
| 36> H 0.2551730366530465 -1.2184914289784137 3.4386207502105535
| 37> H 1.745322773946522 -1.411185042091594 4.381779642823305
| 38> H 1.5060095472865236 0.05025853732539694 3.400527577441616
| 39> H -0.23716718665387462 1.8228963171499715 -2.0659756171789114
| 40> H 1.1317067679972317 2.137788511984894 -0.9609000192553314
| 41> H -3.4630245775113466 3.0453923802979515 0.7209768049202773
| 42> H -4.727758925252419 2.3968916554779782 -0.36023226818876497
| 43> H -6.005395458706775 1.5725317925022126 1.6284916878129314
| 44> H -4.737792330904318 2.2049372831774696 2.7103546552718076
| 45> H -5.720853367710737 3.320656988006132 1.7420259610816626
| 46> H -1.3352456277629103 -0.8382843533191349 1.7299742820142359
| 47> H -3.0218380029720326 -1.4162110179310607 1.832814327260865
| 48> H -0.6793794390294154 -2.9831852631223126 0.5981776687606662
| 49> H -1.3873131448413873 -3.283633093645679 2.1988900780875515
| 50> H -2.3576943604484812 -3.563930360024674 0.7404866736021783
| 51> *
| 52>
| 53>                          ****END OF INPUT****

CARTESIAN COORDINATES (ANGSTROEM)
---------------------------------
  C      4.369787   -1.139312   -2.709838
  C      4.493217   -1.615600   -1.284227
  O      3.181834   -1.764812   -0.636636
  P      2.335039   -0.520235   -0.063780
  S      3.348585    1.031762    0.537628
  O      1.413211   -1.254672    1.025348
  C      2.007356   -1.728139    2.291385
  C      1.332477   -1.028929    3.442503
  S      0.938506   -0.191516   -1.622008
  C      0.294362    1.467822   -1.178377
  S     -0.816455    1.568621    0.278014
  P     -2.522786    0.519811   -0.443215
  S     -2.936623    0.787765   -2.322487
  O     -3.609967    0.958325    0.658786
  C     -4.243293    2.284819    0.614401
  C     -5.235372    2.340087    1.746008
  O     -2.338951   -1.034540   -0.100675
  C     -2.083777   -1.495608    1.276557
  C     -1.597243   -2.918076    1.188723
  H      5.362579   -1.164335   -3.171091
  H      3.706511   -1.791269   -3.285696
  H      3.996483   -0.112682   -2.761803
  H      5.100215   -0.938523   -0.676165
  H      4.917367   -2.620256   -1.231305
  H      1.834578   -2.807394    2.305622
  H      3.086171   -1.542980    2.283247
  H      0.255173   -1.218491    3.438621
  H      1.745323   -1.411185    4.381780
  H      1.506010    0.050259    3.400528
  H     -0.237167    1.822896   -2.065976
  H      1.131707    2.137789   -0.960900
  H     -3.463025    3.045392    0.720977
  H     -4.727759    2.396892   -0.360232
  H     -6.005395    1.572532    1.628492
  H     -4.737792    2.204937    2.710355
  H     -5.720853    3.320657    1.742026
  H     -1.335246   -0.838284    1.729974
  H     -3.021838   -1.416211    1.832814
  H     -0.679379   -2.983185    0.598178
  H     -1.387313   -3.283633    2.198890
  H     -2.357694   -3.563930    0.740487

 Total Charge           Charge          ....    0
 Multiplicity           Mult            ....    1
 Number of Electrons    NEL             ....  202
 Basis Dimension        Dim             ....  757

ORBITAL ENERGIES
----------------

  NO   OCC          E(Eh)            E(eV)
   0   2.0000     -94.148843     -2561.9203
   1   2.0000     -94.148247     -2561.9040
   2   2.0000     -94.092320     -2560.3822
   3   2.0000     -94.092315     -2560.3821
   4   2.0000     -82.126478     -2234.7751
   5   2.0000     -82.126138     -2234.7658
   6   2.0000     -21.715412      -590.9064
   7   2.0000     -21.713697      -590.8597
   8   2.0000     -21.713667      -590.8589
   9   2.0000     -21.710372      -590.7693
  10   2.0000     -12.123982      -329.9103
  11   2.0000     -12.107671      -329.4665
  12   2.0000     -12.106527      -329.4353
  13   2.0000     -12.105865      -329.4173
  14   2.0000     -12.105403      -329.4048
  15   2.0000     -12.035819      -327.5113
  16   2.0000     -12.035002      -327.4890
  17   2.0000     -12.034508      -327.4756
  18   2.0000     -12.034392      -327.4725
  19   2.0000      -9.660228      -262.8682
  20   2.0000      -9.659634      -262.8520
  21   2.0000      -9.605459      -261.3778
  22   2.0000      -9.605433      -261.3771
  23   2.0000      -8.239739      -224.2147
  24   2.0000      -8.239378      -224.2049
  25   2.0000      -7.637905      -207.8380
  26   2.0000      -7.637450      -207.8256
  27   2.0000      -7.636967      -207.8124
  28   2.0000      -7.636323      -207.7949
  29   2.0000      -7.635535      -207.7735
  30   2.0000      -7.634633      -207.7489
  31   2.0000      -7.583049      -206.3453
  32   2.0000      -7.583036      -206.3449
  33   2.0000      -7.581508      -206.3033
  34   2.0000      -7.581385      -206.3000
  35   2.0000      -7.581345      -206.2989
  36   2.0000      -7.581188      -206.2946
  37   2.0000      -6.404057      -174.2633
  38   2.0000      -6.403765      -174.2553
  39   2.0000      -6.403604      -174.2509
  40   2.0000      -6.403377      -174.2447
  41   2.0000      -6.403271      -174.2419
  42   2.0000      -6.403011      -174.2348
  43   2.0000      -1.726195       -46.9721
  44   2.0000      -1.723030       -46.8860
  45   2.0000      -1.701483       -46.2997
  46   2.0000      -1.698895       -46.2293
  47   2.0000      -1.332101       -36.2483
  48   2.0000      -1.312628       -35.7184
  49   2.0000      -1.300348       -35.3843
  50   2.0000      -1.284330       -34.9484
  51   2.0000      -1.280193       -34.8358
  52   2.0000      -1.253681       -34.1144
  53   2.0000      -1.232435       -33.5363
  54   2.0000      -1.214079       -33.0368
  55   2.0000      -1.172014       -31.8921
  56   2.0000      -1.161839       -31.6152
  57   2.0000      -1.149197       -31.2712
  58   2.0000      -1.144017       -31.1303
  59   2.0000      -1.118144       -30.4262
  60   2.0000      -1.079323       -29.3699
  61   2.0000      -1.069770       -29.1099
  62   2.0000      -1.054936       -28.7063
  63   2.0000      -1.041512       -28.3410
  64   2.0000      -0.998186       -27.1620
  65   2.0000      -0.993429       -27.0326
  66   2.0000      -0.988783       -26.9061
  67   2.0000      -0.982341       -26.7309
  68   2.0000      -0.974056       -26.5054
  69   2.0000      -0.969825       -26.3903
  70   2.0000      -0.961254       -26.1571
  71   2.0000      -0.959165       -26.1002
  72   2.0000      -0.922908       -25.1136
  73   2.0000      -0.892679       -24.2910
  74   2.0000      -0.875666       -23.8281
  75   2.0000      -0.869264       -23.6539
  76   2.0000      -0.866087       -23.5674
  77   2.0000      -0.862930       -23.4815
  78   2.0000      -0.861658       -23.4469
  79   2.0000      -0.842648       -22.9296
  80   2.0000      -0.838739       -22.8232
  81   2.0000      -0.835477       -22.7345
  82   2.0000      -0.832586       -22.6558
  83   2.0000      -0.830889       -22.6097
  84   2.0000      -0.827535       -22.5184
  85   2.0000      -0.810987       -22.0681
  86   2.0000      -0.810307       -22.0496
  87   2.0000      -0.810276       -22.0487
  88   2.0000      -0.809590       -22.0301
  89   2.0000      -0.786282       -21.3958
  90   2.0000      -0.778266       -21.1777
  91   2.0000      -0.777590       -21.1593
  92   2.0000      -0.775915       -21.1137
  93   2.0000      -0.775648       -21.1065
  94   2.0000      -0.757825       -20.6215
  95   2.0000      -0.695017       -18.9124
  96   2.0000      -0.681756       -18.5515
  97   2.0000      -0.657373       -17.8880
  98   2.0000      -0.656341       -17.8599
  99   2.0000      -0.650063       -17.6891
 100   2.0000      -0.648916       -17.6579
 101   0.0000      -0.323081        -8.7915
 102   0.0000      -0.318524        -8.6675
 103   0.0000      -0.274682        -7.4745
 104   0.0000      -0.245962        -6.6930
 105   0.0000      -0.236976        -6.4484

MULLIKEN ATOMIC CHARGES
-----------------------
   0 C :   -0.371181
   1 C :   -0.042128
   2 O :   -0.347656
   3 P :    0.637289
   4 S :   -0.466049
   5 O :   -0.325402
   6 C :   -0.035281
   7 C :   -0.385429
   8 S :   -0.128072
   9 C :   -0.198217
  10 S :   -0.152343
  11 P :    0.633832
  12 S :   -0.458615
  13 O :   -0.324336
  14 C :   -0.050762
  15 C :   -0.364648
  16 O :   -0.327973
  17 C :   -0.054596
  18 C :   -0.366390
  19 H :    0.144814
  20 H :    0.132959
  21 H :    0.129743
  22 H :    0.134668
  23 H :    0.142800
  24 H :    0.143546
  25 H :    0.139053
  26 H :    0.139800
  27 H :    0.144849
  28 H :    0.128243
  29 H :    0.198868
  30 H :    0.197666
  31 H :    0.134568
  32 H :    0.133690
  33 H :    0.133521
  34 H :    0.133497
  35 H :    0.137859
  36 H :    0.128891
  37 H :    0.142887
  38 H :    0.127048
  39 H :    0.138696
  40 H :    0.140288
Sum of atomic charges:   -0.0000000

LOEWDIN ATOMIC CHARGES
----------------------
   0 C :   -0.316720
   1 C :   -0.312958
   2 O :    0.017214
   3 P :   -0.027598
   4 S :   -0.147312
   5 O :    0.014700
   6 C :   -0.305596
   7 C :   -0.308692
   8 S :    0.353619
   9 C :   -0.699644
  10 S :    0.342236
  11 P :   -0.033373
  12 S :   -0.149669
  13 O :    0.021044
  14 C :   -0.314363
  15 C :   -0.305206
  16 O :    0.015568
  17 C :   -0.313862
  18 C :   -0.309332
  19 H :    0.134643
  20 H :    0.124461
  21 H :    0.118593
  22 H :    0.122408
  23 H :    0.135251
  24 H :    0.133543
  25 H :    0.127841
  26 H :    0.124202
  27 H :    0.133272
  28 H :    0.122046
  29 H :    0.121722
  30 H :    0.121354
  31 H :    0.124728
  32 H :    0.125567
  33 H :    0.124989
  34 H :    0.124860
  35 H :    0.133581
  36 H :    0.117684
  37 H :    0.129288
  38 H :    0.120956
  39 H :    0.134156
  40 H :    0.124801

  Mayer bond orders larger than 0.100000
B(  0-C ,  1-C ) :   1.0000 B(  0-C , 19-H ) :   0.9619 B(  0-C , 20-H ) :   0.9673
B(  0-C , 21-H ) :   0.9667 B(  1-C ,  2-O ) :   0.8556 B(  1-C , 22-H ) :   0.9749
B(  1-C , 23-H ) :   0.9606 B(  2-O ,  3-P ) :   1.1879 B(  3-P ,  4-S ) :   1.7645
B(  3-P ,  5-O ) :   1.2153 B(  3-P ,  8-S ) :   1.0912 B(  5-O ,  6-C ) :   0.8224
B(  6-C ,  7-C ) :   1.0062 B(  6-C , 24-H ) :   0.9647 B(  6-C , 25-H ) :   0.9563
B(  7-C , 26-H ) :   0.9714 B(  7-C , 27-H ) :   0.9675 B(  7-C , 28-H ) :   0.9698
B(  8-S ,  9-C ) :   1.0063 B(  9-C , 10-S ) :   0.9970 B(  9-C , 29-H ) :   0.9281
B(  9-C , 30-H ) :   0.9282 B( 10-S , 11-P ) :   1.0651 B( 11-P , 12-S ) :   1.8368
B( 11-P , 13-O ) :   1.1760 B( 11-P , 16-O ) :   1.2380 B( 13-O , 14-C ) :   0.8631
B( 14-C , 15-C ) :   1.0134 B( 14-C , 31-H ) :   0.9601 B( 14-C , 32-H ) :   0.9613
B( 15-C , 33-H ) :   0.9719 B( 15-C , 34-H ) :   0.9722 B( 15-C , 35-H ) :   0.9650
B( 16-O , 17-C ) :   0.8534 B( 17-C , 18-C ) :   1.0060 B( 17-C , 36-H ) :   0.9618
B( 17-C , 37-H ) :   0.9629 B( 18-C , 38-H ) :   0.9727 B( 18-C , 39-H ) :   0.9663
B( 18-C , 40-H ) :   0.9669

FINAL SINGLE POINT ENERGY     -2932.550583902277

DIPOLE MOMENT
-------------

Method             : SCF
Type of density    : Electron Density
Multiplicity       :   1
Irrep              :   0
Energy             : -2932.5804338977768566 Eh
Relativity type    :
Basis              : AO
                                X                 Y                 Z
Electronic contribution:      0.608205593       8.049380815     -13.780308403
Nuclear contribution   :      0.110813194      -8.600947742      15.835680031
                        -----------------------------------------
Total Dipole Moment    :      0.719018788      -0.551566927       2.055371628
                        -----------------------------------------
Magnitude (a.u.)       :      2.246278393
Magnitude (Debye)      :      5.709585928

Rotational constants in cm-1:             0.012294             0.004567             0.004167
Rotational constants in MHz :           368.550993           136.903539           124.931036

                             ****ORCA TERMINATED NORMALLY****
TOTAL RUN TIME: 0 days 0 hours 15 minutes 18 seconds 238 msec
