                         Program Version 6.0.0  -   RELEASE  -
|  1> ! pbe def2-sv(p) def2/J RI DEFGRID1 loosescf d4 GCP(DFT/SV(P)) printgap
|  2> %output
|  3>     printlevel normal
|  4> end
|  5> * xyz 0 1
|  6> C 4.6056758613 1.1193326708 -1.326469193
|  7> C 4.6143802608 1.1506538789 0.1883786353
|  8> O 3.7833696684 0.1275143077 0.7623382223
|  9> P 2.2014672348 0.1239148037 0.6203722558
| 10> S 1.3626269331 1.884826671 0.7646057996
| 11> O 1.7438900319 -0.8180155108 1.7965580692
| 12> C 1.8502868824 -2.2609566665 1.8535301811
| 13> C 3.2608234621 -2.7556388197 1.6202774802
| 14> S 1.8301432136 -0.9392251226 -1.1997031716
| 15> C 0.1317049714 -0.3934543476 -1.3986460075
| 16> S -0.9435441345 -1.1815671232 -0.1455088626
| 17> P -2.6261114069 0.0047716584 -0.5543682696
| 18> S -3.2077075255 0.1332811352 -2.4127193629
| 19> O -2.1686193025 1.3768987919 0.1313017137
| 20> C -2.5545622422 2.6736279355 -0.3694722425
| 21> C -1.5131483974 3.2227348968 -1.3231121972
| 22> O -3.7769145605 -0.5821559166 0.362894059
| 23> C -3.6365109098 -0.7617986237 1.7954002482
| 24> C -3.3660926874 -2.2166057276 2.1219322543
| 25> H 4.8335068151 0.1194912783 -1.6867454043
| 26> H 3.6266379376 1.4132642412 -1.7012540897
| 27> H 5.3479354128 1.8160884343 -1.7025639841
| 28> H 4.2700727771 2.1230942182 0.5547780843
| 29> H 5.6055238694 0.9341101611 0.589354467
| 30> H 1.5006363921 -2.4941586911 2.8601606744
| 31> H 1.1568295314 -2.6789572453 1.1175512633
| 32> H 3.5746554412 -2.5358894073 0.6017693611
| 33> H 3.947623122 -2.2746197712 2.311747738
| 34> H 3.2880914027 -3.8299227396 1.7743372267
| 35> H -0.2008701564 -0.6855390361 -2.3928969874
| 36> H 0.0856147771 0.6887752662 -1.2595976611
| 37> H -3.5281555491 2.5912211819 -0.8615209479
| 38> H -2.6379975177 3.2934892419 0.5243165947
| 39> H -0.5371492876 3.2330643471 -0.8423595001
| 40> H -1.4685745384 2.611134991 -2.2225567614
| 41> H -1.7839494124 4.236166256 -1.6002500187
| 42> H -2.8358134449 -0.1129087482 2.1601086048
| 43> H -4.5926344904 -0.4341036345 2.2069839359
| 44> H -3.3408463777 -2.3392221089 3.2000705847
| 45> H -4.1513046933 -2.8415680749 1.7057926459
| 46> H -2.4109729104 -2.5293529334 1.7045203145
| 47> *
| 48>
| 49>                          ****END OF INPUT****

CARTESIAN COORDINATES (ANGSTROEM)
---------------------------------
  C      4.605676    1.119333   -1.326469
  C      4.614380    1.150654    0.188379
  O      3.783370    0.127514    0.762338
  P      2.201467    0.123915    0.620372
  S      1.362627    1.884827    0.764606
  O      1.743890   -0.818016    1.796558
  C      1.850287   -2.260957    1.853530
  C      3.260823   -2.755639    1.620277
  S      1.830143   -0.939225   -1.199703
  C      0.131705   -0.393454   -1.398646
  S     -0.943544   -1.181567   -0.145509
  P     -2.626111    0.004772   -0.554368
  S     -3.207708    0.133281   -2.412719
  O     -2.168619    1.376899    0.131302
  C     -2.554562    2.673628   -0.369472
  C     -1.513148    3.222735   -1.323112
  O     -3.776915   -0.582156    0.362894
  C     -3.636511   -0.761799    1.795400
  C     -3.366093   -2.216606    2.121932
  H      4.833507    0.119491   -1.686745
  H      3.626638    1.413264   -1.701254
  H      5.347935    1.816088   -1.702564
  H      4.270073    2.123094    0.554778
  H      5.605524    0.934110    0.589354
  H      1.500636   -2.494159    2.860161
  H      1.156830   -2.678957    1.117551
  H      3.574655   -2.535889    0.601769
  H      3.947623   -2.274620    2.311748
  H      3.288091   -3.829923    1.774337
  H     -0.200870   -0.685539   -2.392897
  H      0.085615    0.688775   -1.259598
  H     -3.528156    2.591221   -0.861521
  H     -2.637998    3.293489    0.524317
  H     -0.537149    3.233064   -0.842360
  H     -1.468575    2.611135   -2.222557
  H     -1.783949    4.236166   -1.600250
  H     -2.835813   -0.112909    2.160109
  H     -4.592634   -0.434104    2.206984
  H     -3.340846   -2.339222    3.200071
  H     -4.151305   -2.841568    1.705793
  H     -2.410973   -2.529353    1.704520

 Total Charge           Charge          ....    0
 Multiplicity           Mult            ....    1
 Number of Electrons    NEL             ....  202
 Basis Dimension        Dim             ....  334

ORBITAL ENERGIES
----------------

  NO   OCC          E(Eh)            E(eV)
   0   2.0000     -88.053937     -2396.0694
   1   2.0000     -88.040944     -2395.7159
   2   2.0000     -87.987321     -2394.2567
   3   2.0000     -87.981000     -2394.0847
   4   2.0000     -76.430940     -2079.7916
   5   2.0000     -76.422247     -2079.5551
   6   2.0000     -18.797709      -511.5117
   7   2.0000     -18.793300      -511.3917
   8   2.0000     -18.791139      -511.3329
   9   2.0000     -18.783646      -511.1290
  10   2.0000      -9.959728      -271.0180
  11   2.0000      -9.957007      -270.9439
  12   2.0000      -9.956983      -270.9433
  13   2.0000      -9.956876      -270.9404
  14   2.0000      -9.945100      -270.6199
  15   2.0000      -9.891548      -269.1627
  16   2.0000      -9.890234      -269.1269
  17   2.0000      -9.888254      -269.0731
  18   2.0000      -9.871946      -268.6293
  19   2.0000      -7.698462      -209.4858
  20   2.0000      -7.686154      -209.1509
  21   2.0000      -7.632364      -207.6872
  22   2.0000      -7.626456      -207.5264
  23   2.0000      -6.428176      -174.9196
  24   2.0000      -6.420079      -174.6992
  25   2.0000      -5.726196      -155.8177
  26   2.0000      -5.722998      -155.7307
  27   2.0000      -5.715650      -155.5307
  28   2.0000      -5.714032      -155.4867
  29   2.0000      -5.710956      -155.4030
  30   2.0000      -5.702823      -155.1817
  31   2.0000      -5.661275      -154.0511
  32   2.0000      -5.655520      -153.8945
  33   2.0000      -5.652962      -153.8249
  34   2.0000      -5.652507      -153.8125
  35   2.0000      -5.647066      -153.6645
  36   2.0000      -5.646412      -153.6467
  37   2.0000      -4.650930      -126.5582
  38   2.0000      -4.650035      -126.5339
  39   2.0000      -4.648416      -126.4898
  40   2.0000      -4.643012      -126.3428
  41   2.0000      -4.641536      -126.3026
  42   2.0000      -4.640508      -126.2747
  43   2.0000      -0.991061       -26.9681
  44   2.0000      -0.980651       -26.6849
  45   2.0000      -0.949797       -25.8453
  46   2.0000      -0.939029       -25.5523
  47   2.0000      -0.767976       -20.8977
  48   2.0000      -0.723644       -19.6914
  49   2.0000      -0.713084       -19.4040
  50   2.0000      -0.694658       -18.9026
  51   2.0000      -0.689863       -18.7721
  52   2.0000      -0.675583       -18.3836
  53   2.0000      -0.652366       -17.7518
  54   2.0000      -0.636566       -17.3218
  55   2.0000      -0.602095       -16.3838
  56   2.0000      -0.585028       -15.9194
  57   2.0000      -0.579776       -15.7765
  58   2.0000      -0.574456       -15.6317
  59   2.0000      -0.561287       -15.2734
  60   2.0000      -0.503854       -13.7106
  61   2.0000      -0.496139       -13.5006
  62   2.0000      -0.476298       -12.9607
  63   2.0000      -0.470007       -12.7895
  64   2.0000      -0.454703       -12.3731
  65   2.0000      -0.449694       -12.2368
  66   2.0000      -0.446640       -12.1537
  67   2.0000      -0.438969       -11.9449
  68   2.0000      -0.431649       -11.7458
  69   2.0000      -0.426074       -11.5941
  70   2.0000      -0.415004       -11.2928
  71   2.0000      -0.401981       -10.9385
  72   2.0000      -0.389114       -10.5883
  73   2.0000      -0.384539       -10.4638
  74   2.0000      -0.380442       -10.3523
  75   2.0000      -0.370756       -10.0888
  76   2.0000      -0.365577        -9.9478
  77   2.0000      -0.362968        -9.8769
  78   2.0000      -0.357703        -9.7336
  79   2.0000      -0.356284        -9.6950
  80   2.0000      -0.352768        -9.5993
  81   2.0000      -0.350261        -9.5311
  82   2.0000      -0.341749        -9.2995
  83   2.0000      -0.340279        -9.2595
  84   2.0000      -0.330112        -8.9828
  85   2.0000      -0.318902        -8.6778
  86   2.0000      -0.305031        -8.3003
  87   2.0000      -0.303381        -8.2554
  88   2.0000      -0.296941        -8.0802
  89   2.0000      -0.295314        -8.0359
  90   2.0000      -0.280819        -7.6415
  91   2.0000      -0.278150        -7.5688
  92   2.0000      -0.272124        -7.4049
  93   2.0000      -0.265848        -7.2341
  94   2.0000      -0.261188        -7.1073
  95   2.0000      -0.235280        -6.4023
  96   2.0000      -0.223489        -6.0814
  97   2.0000      -0.206739        -5.6256
  98   2.0000      -0.203548        -5.5388
  99   2.0000      -0.201073        -5.4715
 100   2.0000      -0.195553        -5.3213
 101   0.0000      -0.048174        -1.3109
 102   0.0000      -0.033403        -0.9089
 103   0.0000      -0.009036        -0.2459
 104   0.0000       0.007463         0.2031
 105   0.0000       0.009756         0.2655

MULLIKEN ATOMIC CHARGES
-----------------------
   0 C :   -0.319081
   1 C :   -0.002038
   2 O :   -0.373408
   3 P :    0.603073
   4 S :   -0.310271
   5 O :   -0.352131
   6 C :   -0.007780
   7 C :   -0.306994
   8 S :   -0.103548
   9 C :   -0.361453
  10 S :   -0.120046
  11 P :    0.616596
  12 S :   -0.319169
  13 O :   -0.382715
  14 C :   -0.004848
  15 C :   -0.313439
  16 O :   -0.363557
  17 C :   -0.030212
  18 C :   -0.297681
  19 H :    0.116721
  20 H :    0.129123
  21 H :    0.115961
  22 H :    0.114527
  23 H :    0.106153
  24 H :    0.110046
  25 H :    0.117598
  26 H :    0.118949
  27 H :    0.123702
  28 H :    0.115262
  29 H :    0.189349
  30 H :    0.222332
  31 H :    0.104300
  32 H :    0.102338
  33 H :    0.138881
  34 H :    0.119251
  35 H :    0.106230
  36 H :    0.120578
  37 H :    0.111684
  38 H :    0.112615
  39 H :    0.124077
  40 H :    0.129029
Sum of atomic charges:    0.0000000

LOEWDIN ATOMIC CHARGES
----------------------
   0 C :   -0.370743
   1 C :   -0.117455
   2 O :   -0.241624
   3 P :    0.574146
   4 S :   -0.298371
   5 O :   -0.231883
   6 C :   -0.115643
   7 C :   -0.365924
   8 S :    0.087211
   9 C :   -0.477333
  10 S :    0.073353
  11 P :    0.569100
  12 S :   -0.316366
  13 O :   -0.253170
  14 C :   -0.115534
  15 C :   -0.370844
  16 O :   -0.243869
  17 C :   -0.118065
  18 C :   -0.359426
  19 H :    0.123223
  20 H :    0.121780
  21 H :    0.132635
  22 H :    0.113334
  23 H :    0.119369
  24 H :    0.123082
  25 H :    0.103002
  26 H :    0.117361
  27 H :    0.129491
  28 H :    0.132376
  29 H :    0.135769
  30 H :    0.126428
  31 H :    0.107649
  32 H :    0.117907
  33 H :    0.121855
  34 H :    0.121112
  35 H :    0.128541
  36 H :    0.114996
  37 H :    0.121920
  38 H :    0.131294
  39 H :    0.130846
  40 H :    0.118468

  Mayer bond orders larger than 0.100000
B(  0-C ,  1-C ) :   1.1652 B(  0-C , 19-H ) :   0.9448 B(  0-C , 20-H ) :   0.9349
B(  0-C , 21-H ) :   0.9375 B(  1-C ,  2-O ) :   0.9044 B(  1-C , 22-H ) :   0.9162
B(  1-C , 23-H ) :   0.9337 B(  2-O ,  3-P ) :   1.0965 B(  3-P ,  4-S ) :   1.6314
B(  3-P ,  5-O ) :   1.1504 B(  3-P ,  8-S ) :   0.9221 B(  4-S ,  8-S ) :   0.1100
B(  5-O ,  6-C ) :   0.8998 B(  6-C ,  7-C ) :   1.1698 B(  6-C , 24-H ) :   0.9338
B(  6-C , 25-H ) :   0.9124 B(  7-C , 26-H ) :   0.9383 B(  7-C , 27-H ) :   0.9429
B(  7-C , 28-H ) :   0.9358 B(  8-S ,  9-C ) :   1.0177 B(  9-C , 10-S ) :   0.9757
B(  9-C , 29-H ) :   0.8955 B(  9-C , 30-H ) :   0.8477 B( 10-S , 11-P ) :   0.9701
B( 10-S , 12-S ) :   0.1021 B( 11-P , 12-S ) :   1.6308 B( 11-P , 13-O ) :   1.0796
B( 11-P , 16-O ) :   1.1331 B( 13-O , 14-C ) :   0.8999 B( 14-C , 15-C ) :   1.1779
B( 14-C , 31-H ) :   0.9151 B( 14-C , 32-H ) :   0.9318 B( 15-C , 33-H ) :   0.9277
B( 15-C , 34-H ) :   0.9314 B( 15-C , 35-H ) :   0.9368 B( 16-O , 17-C ) :   0.8974
B( 17-C , 18-C ) :   1.1650 B( 17-C , 36-H ) :   0.9159 B( 17-C , 37-H ) :   0.9337
B( 18-C , 38-H ) :   0.9390 B( 18-C , 39-H ) :   0.9457 B( 18-C , 40-H ) :   0.9380

Dispersion correction           -0.064929371
FINAL SINGLE POINT ENERGY     -2929.514727230144

DIPOLE MOMENT
-------------

Method             : SCF
Type of density    : Electron Density
Multiplicity       :   1
Irrep              :   0
Energy             : -2929.6351680643242616 Eh
Relativity type    :
Basis              : AO
                                X                 Y                 Z
Electronic contribution:     -8.430855800      -0.611679076      -5.640464213
Nuclear contribution   :      9.547077147       0.174416830       6.679258168
                        -----------------------------------------
Total Dipole Moment    :      1.116221347      -0.437262247       1.038793956
                        -----------------------------------------
Magnitude (a.u.)       :      1.586266450
Magnitude (Debye)      :      4.031968889

Rotational constants in cm-1:             0.011788             0.005143             0.004420
Rotational constants in MHz :           353.406507           154.180505           132.504973

                             ****ORCA TERMINATED NORMALLY****
TOTAL RUN TIME: 0 days 0 hours 0 minutes 21 seconds 79 msec
