                         Program Version 6.0.1  -  RELEASE   -
|  1> ! pbe def2-sv(p) def2/J RI DEFGRID1 loosescf d4 GCP(DFT/SV(P)) printgap
|  2> %output
|  3>     printlevel normal
|  4> end
|  5> * xyz 0 1
|  6> C 4.2115992916 -2.1634823957 1.0326212418
|  7> C 2.7260970607 -1.9457157051 0.8191093876
|  8> O 2.5567587672 -0.9702512087 -0.2282044379
|  9> C 1.4850421142 -1.0204066341 -0.9855164061
| 10> O 0.5832765861 -1.8274056222 -0.8563317823
| 11> C 1.4885313646 0.0624444383 -2.0440750467
| 12> C 0.2999747118 1.0065268812 -1.836170853
| 13> H 0.2696972933 1.7390160542 -2.6472245891
| 14> C 0.3719108321 1.7387172704 -0.5108300537
| 15> O -0.5838382366 1.7987144598 0.2448477477
| 16> O 1.5378137434 2.257554118 -0.2772092235
| 17> C 1.7634537122 2.9098103806 0.9944814401
| 18> C 3.2612457309 2.9879321613 1.2095692623
| 19> S -1.3164119974 0.1564989232 -1.905054521
| 20> P -1.6823787348 -0.3973565519 0.1078941935
| 21> S -0.5377902882 -0.6639088177 1.6955597717
| 22> O -3.0280905162 0.3887567115 0.4964201992
| 23> C -3.1290722311 1.4687917546 1.4211250485
| 24> O -2.3524718767 -1.7692273033 -0.3787632308
| 25> C -2.9086078001 -2.7097770934 0.5404145097
| 26> H 4.6692278189 -2.5497694233 0.1264426633
| 27> H 4.6900549899 -1.2260292464 1.2985931552
| 28> H 4.3524642234 -2.8772744123 1.8371883475
| 29> H 2.2370151953 -1.5560918622 1.717562198
| 30> H 2.2114263481 -2.8645633305 0.5215418511
| 31> H 1.383014875 -0.4127763451 -3.0194700705
| 32> H 2.4206974239 0.6229152299 -1.9843823242
| 33> H 1.3065669257 3.9019038731 0.9480702691
| 34> H 1.2639804176 2.3263594042 1.7741043587
| 35> H 3.686040878 1.9886987166 1.235169067
| 36> H 3.7241496293 3.548739248 0.4037145969
| 37> H 3.4597821069 3.4837398709 2.1536528125
| 38> H -2.3966189243 1.3455106654 2.2209284977
| 39> H -4.1409069277 1.4258690009 1.8175513995
| 40> H -2.9516226068 2.4107931586 0.905922169
| 41> H -3.0399149205 -3.6294943873 -0.0240350812
| 42> H -3.865511404 -2.3446339665 0.9142555698
| 43> H -2.2222919653 -2.8712790085 1.3749508022
| 44> *
| 45>
| 46>                          ****END OF INPUT****

CARTESIAN COORDINATES (ANGSTROEM)
---------------------------------
  C      4.211599   -2.163482    1.032621
  C      2.726097   -1.945716    0.819109
  O      2.556759   -0.970251   -0.228204
  C      1.485042   -1.020407   -0.985516
  O      0.583277   -1.827406   -0.856332
  C      1.488531    0.062444   -2.044075
  C      0.299975    1.006527   -1.836171
  H      0.269697    1.739016   -2.647225
  C      0.371911    1.738717   -0.510830
  O     -0.583838    1.798714    0.244848
  O      1.537814    2.257554   -0.277209
  C      1.763454    2.909810    0.994481
  C      3.261246    2.987932    1.209569
  S     -1.316412    0.156499   -1.905055
  P     -1.682379   -0.397357    0.107894
  S     -0.537790   -0.663909    1.695560
  O     -3.028091    0.388757    0.496420
  C     -3.129072    1.468792    1.421125
  O     -2.352472   -1.769227   -0.378763
  C     -2.908608   -2.709777    0.540415
  H      4.669228   -2.549769    0.126443
  H      4.690055   -1.226029    1.298593
  H      4.352464   -2.877274    1.837188
  H      2.237015   -1.556092    1.717562
  H      2.211426   -2.864563    0.521542
  H      1.383015   -0.412776   -3.019470
  H      2.420697    0.622915   -1.984382
  H      1.306567    3.901904    0.948070
  H      1.263980    2.326359    1.774104
  H      3.686041    1.988699    1.235169
  H      3.724150    3.548739    0.403715
  H      3.459782    3.483740    2.153653
  H     -2.396619    1.345511    2.220928
  H     -4.140907    1.425869    1.817551
  H     -2.951623    2.410793    0.905922
  H     -3.039915   -3.629494   -0.024035
  H     -3.865511   -2.344634    0.914256
  H     -2.222292   -2.871279    1.374951

 Total Charge           Charge          ....    0
 Multiplicity           Mult            ....    1
 Number of Electrons    NEL             ....  174
 Basis Dimension        Dim             ....  316

ORBITAL ENERGIES
----------------

  NO   OCC          E(Eh)            E(eV)
   0   2.0000     -88.024285     -2395.2626
   1   2.0000     -87.963534     -2393.6094
   2   2.0000     -76.411132     -2079.2526
   3   2.0000     -18.826974      -512.3080
   4   2.0000     -18.801336      -511.6103
   5   2.0000     -18.764965      -510.6207
   6   2.0000     -18.764648      -510.6120
   7   2.0000     -18.760050      -510.4869
   8   2.0000     -18.729789      -509.6635
   9   2.0000     -10.031906      -272.9820
  10   2.0000     -10.005761      -272.2706
  11   2.0000      -9.961349      -271.0621
  12   2.0000      -9.954917      -270.8871
  13   2.0000      -9.939148      -270.4580
  14   2.0000      -9.921355      -269.9738
  15   2.0000      -9.920683      -269.9555
  16   2.0000      -9.912826      -269.7417
  17   2.0000      -9.898613      -269.3549
  18   2.0000      -9.886723      -269.0314
  19   2.0000      -7.669670      -208.7023
  20   2.0000      -7.608521      -207.0384
  21   2.0000      -6.405921      -174.3140
  22   2.0000      -5.698189      -155.0556
  23   2.0000      -5.694635      -154.9589
  24   2.0000      -5.685406      -154.7078
  25   2.0000      -5.637768      -153.4115
  26   2.0000      -5.629258      -153.1799
  27   2.0000      -5.628161      -153.1501
  28   2.0000      -4.628607      -125.9508
  29   2.0000      -4.628125      -125.9377
  30   2.0000      -4.626494      -125.8933
  31   2.0000      -1.038217       -28.2513
  32   2.0000      -1.006716       -27.3941
  33   2.0000      -0.957485       -26.0545
  34   2.0000      -0.941222       -25.6120
  35   2.0000      -0.912983       -24.8435
  36   2.0000      -0.908411       -24.7191
  37   2.0000      -0.766542       -20.8587
  38   2.0000      -0.720374       -19.6024
  39   2.0000      -0.708657       -19.2835
  40   2.0000      -0.682633       -18.5754
  41   2.0000      -0.647093       -17.6083
  42   2.0000      -0.621971       -16.9247
  43   2.0000      -0.610409       -16.6101
  44   2.0000      -0.607914       -16.5422
  45   2.0000      -0.587888       -15.9972
  46   2.0000      -0.561767       -15.2865
  47   2.0000      -0.523862       -14.2550
  48   2.0000      -0.505470       -13.7545
  49   2.0000      -0.495218       -13.4756
  50   2.0000      -0.486108       -13.2277
  51   2.0000      -0.464280       -12.6337
  52   2.0000      -0.457652       -12.4533
  53   2.0000      -0.449141       -12.2217
  54   2.0000      -0.443331       -12.0636
  55   2.0000      -0.426684       -11.6107
  56   2.0000      -0.421750       -11.4764
  57   2.0000      -0.406155       -11.0520
  58   2.0000      -0.405263       -11.0278
  59   2.0000      -0.399644       -10.8749
  60   2.0000      -0.389598       -10.6015
  61   2.0000      -0.387019       -10.5313
  62   2.0000      -0.381418       -10.3789
  63   2.0000      -0.376995       -10.2586
  64   2.0000      -0.374986       -10.2039
  65   2.0000      -0.368332       -10.0228
  66   2.0000      -0.363230        -9.8840
  67   2.0000      -0.357453        -9.7268
  68   2.0000      -0.354698        -9.6518
  69   2.0000      -0.339111        -9.2277
  70   2.0000      -0.336362        -9.1529
  71   2.0000      -0.333078        -9.0635
  72   2.0000      -0.318498        -8.6668
  73   2.0000      -0.314217        -8.5503
  74   2.0000      -0.296813        -8.0767
  75   2.0000      -0.292876        -7.9696
  76   2.0000      -0.283430        -7.7125
  77   2.0000      -0.281563        -7.6617
  78   2.0000      -0.266842        -7.2612
  79   2.0000      -0.256759        -6.9868
  80   2.0000      -0.252142        -6.8611
  81   2.0000      -0.247070        -6.7231
  82   2.0000      -0.238212        -6.4821
  83   2.0000      -0.221691        -6.0325
  84   2.0000      -0.192534        -5.2391
  85   2.0000      -0.180258        -4.9051
  86   2.0000      -0.172323        -4.6891
  87   0.0000      -0.050533        -1.3751
  88   0.0000      -0.042590        -1.1589
  89   0.0000      -0.024821        -0.6754
  90   0.0000       0.011598         0.3156
  91   0.0000       0.022634         0.6159

MULLIKEN ATOMIC CHARGES
-----------------------
   0 C :   -0.279273
   1 C :   -0.033739
   2 O :   -0.228654
   3 C :    0.079380
   4 O :   -0.185917
   5 C :   -0.011077
   6 C :   -0.338933
   7 H :    0.155405
   8 C :    0.221599
   9 O :   -0.196703
  10 O :   -0.213425
  11 C :   -0.034678
  12 C :   -0.283765
  13 S :   -0.050065
  14 P :    0.658844
  15 S :   -0.365956
  16 O :   -0.392301
  17 C :   -0.082966
  18 O :   -0.384639
  19 C :   -0.091056
  20 H :    0.110574
  21 H :    0.110887
  22 H :    0.112481
  23 H :    0.120421
  24 H :    0.113754
  25 H :    0.122870
  26 H :    0.110920
  27 H :    0.109621
  28 H :    0.131294
  29 H :    0.125916
  30 H :    0.116285
  31 H :    0.116845
  32 H :    0.107916
  33 H :    0.109462
  34 H :    0.106157
  35 H :    0.116961
  36 H :    0.103089
  37 H :    0.112470
Sum of atomic charges:   -0.0000000

LOEWDIN ATOMIC CHARGES
----------------------
   0 C :   -0.351626
   1 C :   -0.112678
   2 O :   -0.053334
   3 C :    0.014672
   4 O :   -0.162044
   5 C :   -0.248572
   6 C :   -0.263355
   7 H :    0.152007
   8 C :    0.019248
   9 O :   -0.149984
  10 O :   -0.032241
  11 C :   -0.103349
  12 C :   -0.350650
  13 S :    0.130649
  14 P :    0.603006
  15 S :   -0.333630
  16 O :   -0.261418
  17 C :   -0.214953
  18 O :   -0.258143
  19 C :   -0.214412
  20 H :    0.124365
  21 H :    0.122558
  22 H :    0.130953
  23 H :    0.115732
  24 H :    0.120758
  25 H :    0.146770
  26 H :    0.135836
  27 H :    0.119496
  28 H :    0.127223
  29 H :    0.129830
  30 H :    0.127247
  31 H :    0.133855
  32 H :    0.103490
  33 H :    0.112781
  34 H :    0.107847
  35 H :    0.118254
  36 H :    0.107123
  37 H :    0.106690

  Mayer bond orders larger than 0.100000
B(  0-C ,  1-C ) :   1.1514 B(  0-C , 20-H ) :   0.9509 B(  0-C , 21-H ) :   0.9491
B(  0-C , 22-H ) :   0.9448 B(  1-C ,  2-O ) :   0.8951 B(  1-C , 23-H ) :   0.9250
B(  1-C , 24-H ) :   0.9182 B(  2-O ,  3-C ) :   1.2409 B(  3-C ,  4-O ) :   2.0099
B(  3-C ,  5-C ) :   0.9970 B(  5-C ,  6-C ) :   1.0126 B(  5-C , 25-H ) :   0.8887
B(  5-C , 26-H ) :   0.8858 B(  6-C ,  7-H ) :   0.8739 B(  6-C ,  8-C ) :   0.9050
B(  6-C , 13-S ) :   1.0680 B(  8-C ,  9-O ) :   1.9136 B(  8-C , 10-O ) :   1.2880
B(  9-O , 14-P ) :   0.1278 B( 10-O , 11-C ) :   0.8826 B( 11-C , 12-C ) :   1.1598
B( 11-C , 27-H ) :   0.9341 B( 11-C , 28-H ) :   0.9184 B( 12-C , 29-H ) :   0.9476
B( 12-C , 30-H ) :   0.9483 B( 12-C , 31-H ) :   0.9419 B( 13-S , 14-P ) :   0.9146
B( 13-S , 15-S ) :   0.1160 B( 14-P , 15-S ) :   1.4979 B( 14-P , 16-O ) :   1.0829
B( 14-P , 18-O ) :   1.0874 B( 16-O , 17-C ) :   0.9422 B( 17-C , 32-H ) :   0.9304
B( 17-C , 33-H ) :   0.9564 B( 17-C , 34-H ) :   0.9519 B( 18-O , 19-C ) :   0.9437
B( 19-C , 35-H ) :   0.9603 B( 19-C , 36-H ) :   0.9513 B( 19-C , 37-H ) :   0.9316

Dispersion correction           -0.054857238
FINAL SINGLE POINT ENERGY     -1978.995763971669

DIPOLE MOMENT
-------------

Method             : SCF
Type of density    : Electron Density
Multiplicity       :   1
Irrep              :   0
Energy             : -1979.1244118054919454 Eh
Relativity type    :
Basis              : AO
                                X                 Y                 Z
Electronic contribution:    -16.171922150      -1.577830504     -10.619277976
Nuclear contribution   :     17.540463354       2.677358580      10.753758982
                        -----------------------------------------
Total Dipole Moment    :      1.368541204       1.099528076       0.134481007
                        -----------------------------------------
Magnitude (a.u.)       :      1.760668100
Magnitude (Debye)      :      4.475262655

Rotational constants in cm-1:             0.012752             0.008637             0.007182
Rotational constants in MHz :           382.288526           258.932483           215.315717

                             ****ORCA TERMINATED NORMALLY****
TOTAL RUN TIME: 0 days 0 hours 0 minutes 45 seconds 102 msec
