                         Program Version 6.0.0  -   RELEASE  -
|  1> ! r2scan-3c def2/J RI DEFGRID2 scfconv6 printgap
|  2> %output
|  3>     printlevel normal
|  4> end
|  5> * xyz 0 1
|  6> C -2.5892854422 0.5615122182 0.0105882272
|  7> C -1.2158302297 -0.0487651827 -0.0004836248
|  8> C -1.1352398254 -1.4363364446 -0.0020805402
|  9> C 0.0875959728 -2.0777944634 -0.0055699423
| 10> C 1.2462038547 -1.3296319964 -0.0021419656
| 11> C 1.1834756894 0.0599288905 0.0012540178
| 12> C -0.0501901139 0.722546852 -0.0039655163
| 13> C -0.1420332319 2.2262163278 -0.0134467638
| 14> O 2.3902745806 0.7003032228 0.0105269913
| 15> H -2.5695305088 1.6440824246 -0.0109328642
| 16> H -3.1542794419 0.2078745495 -0.8503180706
| 17> H -3.1210829246 0.2445311586 0.9064316596
| 18> H -2.0473649007 -2.014681766 -0.0004701289
| 19> H 0.1414379168 -3.1557467533 -0.0084364076
| 20> H 2.2202381112 -1.7935435609 -0.0007850107
| 21> H -0.6336241809 2.5795761678 0.8919376715
| 22> H 0.830517122 2.7078774964 -0.0708890377
| 23> H -0.7200993933 2.5598900834 -0.8735801079
| 24> H 2.276775724 1.6614734285 0.0387726852
| 25> *
| 26>
| 27>                          ****END OF INPUT****

CARTESIAN COORDINATES (ANGSTROEM)
---------------------------------
  C     -2.589285    0.561512    0.010588
  C     -1.215830   -0.048765   -0.000484
  C     -1.135240   -1.436336   -0.002081
  C      0.087596   -2.077794   -0.005570
  C      1.246204   -1.329632   -0.002142
  C      1.183476    0.059929    0.001254
  C     -0.050190    0.722547   -0.003966
  C     -0.142033    2.226216   -0.013447
  O      2.390275    0.700303    0.010527
  H     -2.569531    1.644082   -0.010933
  H     -3.154279    0.207875   -0.850318
  H     -3.121083    0.244531    0.906432
  H     -2.047365   -2.014682   -0.000470
  H      0.141438   -3.155747   -0.008436
  H      2.220238   -1.793544   -0.000785
  H     -0.633624    2.579576    0.891938
  H      0.830517    2.707877   -0.070889
  H     -0.720099    2.559890   -0.873580
  H      2.276776    1.661473    0.038773

 Total Charge           Charge          ....    0
 Multiplicity           Mult            ....    1
 Number of Electrons    NEL             ....   66
 Basis Dimension        Dim             ....  226

ORBITAL ENERGIES
----------------

  NO   OCC          E(Eh)            E(eV)
   0   2.0000     -18.979533      -516.4593
   1   2.0000     -10.089779      -274.5568
   2   2.0000     -10.042451      -273.2690
   3   2.0000     -10.040704      -273.2215
   4   2.0000     -10.039966      -273.2014
   5   2.0000     -10.027499      -272.8621
   6   2.0000     -10.026683      -272.8399
   7   2.0000     -10.019905      -272.6555
   8   2.0000     -10.017589      -272.5925
   9   2.0000      -1.022365       -27.8200
  10   2.0000      -0.823894       -22.4193
  11   2.0000      -0.749456       -20.3937
  12   2.0000      -0.725741       -19.7484
  13   2.0000      -0.671997       -18.2860
  14   2.0000      -0.644915       -17.5490
  15   2.0000      -0.573426       -15.6037
  16   2.0000      -0.547830       -14.9072
  17   2.0000      -0.507318       -13.8048
  18   2.0000      -0.460950       -12.5431
  19   2.0000      -0.434962       -11.8359
  20   2.0000      -0.413674       -11.2567
  21   2.0000      -0.390088       -10.6148
  22   2.0000      -0.382951       -10.4206
  23   2.0000      -0.376203       -10.2370
  24   2.0000      -0.372947       -10.1484
  25   2.0000      -0.370622       -10.0851
  26   2.0000      -0.363264        -9.8849
  27   2.0000      -0.338843        -9.2204
  28   2.0000      -0.317226        -8.6322
  29   2.0000      -0.299040        -8.1373
  30   2.0000      -0.297621        -8.0987
  31   2.0000      -0.218761        -5.9528
  32   2.0000      -0.196341        -5.3427
  33   0.0000      -0.023821        -0.6482
  34   0.0000      -0.010623        -0.2891
  35   0.0000       0.043802         1.1919
  36   0.0000       0.091479         2.4893
  37   0.0000       0.098536         2.6813

MULLIKEN ATOMIC CHARGES
-----------------------
   0 C :   -0.555180
   1 C :    0.264021
   2 C :   -0.261647
   3 C :   -0.120114
   4 C :   -0.319871
   5 C :    0.428282
   6 C :   -0.124260
   7 C :   -0.590575
   8 O :   -0.406833
   9 H :    0.152212
  10 H :    0.166166
  11 H :    0.168350
  12 H :    0.144745
  13 H :    0.145232
  14 H :    0.156082
  15 H :    0.180703
  16 H :    0.107688
  17 H :    0.175702
  18 H :    0.289297
Sum of atomic charges:   -0.0000000

LOEWDIN ATOMIC CHARGES
----------------------
   0 C :   -0.389772
   1 C :   -0.085739
   2 C :   -0.187339
   3 C :   -0.155459
   4 C :   -0.146504
   5 C :    0.192488
   6 C :   -0.101224
   7 C :   -0.381250
   8 O :   -0.511875
   9 H :    0.158122
  10 H :    0.167326
  11 H :    0.167814
  12 H :    0.167354
  13 H :    0.167245
  14 H :    0.179595
  15 H :    0.168083
  16 H :    0.146972
  17 H :    0.168064
  18 H :    0.276096

  Mayer bond orders larger than 0.100000
B(  0-C ,  1-C ) :   0.7636 B(  0-C ,  9-H ) :   0.9793 B(  0-C , 10-H ) :   0.9830
B(  0-C , 11-H ) :   0.9809 B(  1-C ,  2-C ) :   1.3718 B(  1-C ,  6-C ) :   1.4242
B(  2-C ,  3-C ) :   1.4237 B(  2-C , 12-H ) :   0.9341 B(  3-C ,  4-C ) :   1.3826
B(  3-C , 13-H ) :   0.9482 B(  4-C ,  5-C ) :   1.3966 B(  4-C , 14-H ) :   0.9457
B(  5-C ,  6-C ) :   1.3760 B(  5-C ,  8-O ) :   0.9363 B(  6-C ,  7-C ) :   0.7963
B(  7-C , 15-H ) :   0.9833 B(  7-C , 16-H ) :   0.9769 B(  7-C , 17-H ) :   0.9845
B(  8-O , 18-H ) :   0.8719

Dispersion correction           -0.006340392
FINAL SINGLE POINT ENERGY      -386.000114474876

DIPOLE MOMENT
-------------

Method             : SCF
Type of density    : Electron Density
Multiplicity       :   1
Irrep              :   0
Energy             :  -386.0015064482402067 Eh
Relativity type    :
Basis              : AO
                                X                 Y                 Z
Electronic contribution:      5.858084806      -3.690478071      -0.003063705
Nuclear contribution   :     -6.322557130       4.364732215       0.020542782
                        -----------------------------------------
Total Dipole Moment    :     -0.464472324       0.674254144       0.017479077
                        -----------------------------------------
Magnitude (a.u.)       :      0.818937548
Magnitude (Debye)      :      2.081573822

Rotational constants in cm-1:             0.075870             0.058794             0.033539
Rotational constants in MHz :          2274.525602          1762.589481          1005.460359

                             ****ORCA TERMINATED NORMALLY****
TOTAL RUN TIME: 0 days 0 hours 0 minutes 26 seconds 820 msec
