                         Program Version 6.0.0  -   RELEASE  -
|  1> ! r2scan-3c def2/J RI DEFGRID2 scfconv6 printgap
|  2> %output
|  3>     printlevel normal
|  4> end
|  5> %cpcm
|  6>     smd true
|  7>     smdsolvent "water"
|  8> end
|  9> * xyz 0 1
| 10> C -2.5892854422 0.5615122182 0.0105882272
| 11> C -1.2158302297 -0.0487651827 -0.0004836248
| 12> C -1.1352398254 -1.4363364446 -0.0020805402
| 13> C 0.0875959728 -2.0777944634 -0.0055699423
| 14> C 1.2462038547 -1.3296319964 -0.0021419656
| 15> C 1.1834756894 0.0599288905 0.0012540178
| 16> C -0.0501901139 0.722546852 -0.0039655163
| 17> C -0.1420332319 2.2262163278 -0.0134467638
| 18> O 2.3902745806 0.7003032228 0.0105269913
| 19> H -2.5695305088 1.6440824246 -0.0109328642
| 20> H -3.1542794419 0.2078745495 -0.8503180706
| 21> H -3.1210829246 0.2445311586 0.9064316596
| 22> H -2.0473649007 -2.014681766 -0.0004701289
| 23> H 0.1414379168 -3.1557467533 -0.0084364076
| 24> H 2.2202381112 -1.7935435609 -0.0007850107
| 25> H -0.6336241809 2.5795761678 0.8919376715
| 26> H 0.830517122 2.7078774964 -0.0708890377
| 27> H -0.7200993933 2.5598900834 -0.8735801079
| 28> H 2.276775724 1.6614734285 0.0387726852
| 29> *
| 30>
| 31>                          ****END OF INPUT****

CARTESIAN COORDINATES (ANGSTROEM)
---------------------------------
  C     -2.589285    0.561512    0.010588
  C     -1.215830   -0.048765   -0.000484
  C     -1.135240   -1.436336   -0.002081
  C      0.087596   -2.077794   -0.005570
  C      1.246204   -1.329632   -0.002142
  C      1.183476    0.059929    0.001254
  C     -0.050190    0.722547   -0.003966
  C     -0.142033    2.226216   -0.013447
  O      2.390275    0.700303    0.010527
  H     -2.569531    1.644082   -0.010933
  H     -3.154279    0.207875   -0.850318
  H     -3.121083    0.244531    0.906432
  H     -2.047365   -2.014682   -0.000470
  H      0.141438   -3.155747   -0.008436
  H      2.220238   -1.793544   -0.000785
  H     -0.633624    2.579576    0.891938
  H      0.830517    2.707877   -0.070889
  H     -0.720099    2.559890   -0.873580
  H      2.276776    1.661473    0.038773

 Total Charge           Charge          ....    0
 Multiplicity           Mult            ....    1
 Number of Electrons    NEL             ....   66
 Basis Dimension        Dim             ....  226

ORBITAL ENERGIES
----------------

  NO   OCC          E(Eh)            E(eV)
   0   2.0000     -18.979737      -516.4649
   1   2.0000     -10.091855      -274.6133
   2   2.0000     -10.040684      -273.2209
   3   2.0000     -10.040265      -273.2095
   4   2.0000     -10.028023      -272.8764
   5   2.0000     -10.024467      -272.7796
   6   2.0000     -10.021993      -272.7123
   7   2.0000     -10.018234      -272.6100
   8   2.0000     -10.016615      -272.5660
   9   2.0000      -1.022826       -27.8325
  10   2.0000      -0.825104       -22.4522
  11   2.0000      -0.746637       -20.3170
  12   2.0000      -0.722116       -19.6498
  13   2.0000      -0.666637       -18.1401
  14   2.0000      -0.639275       -17.3955
  15   2.0000      -0.571362       -15.5475
  16   2.0000      -0.546343       -14.8667
  17   2.0000      -0.503532       -13.7018
  18   2.0000      -0.458753       -12.4833
  19   2.0000      -0.433055       -11.7840
  20   2.0000      -0.406337       -11.0570
  21   2.0000      -0.385925       -10.5015
  22   2.0000      -0.372886       -10.1468
  23   2.0000      -0.371785       -10.1168
  24   2.0000      -0.368155       -10.0180
  25   2.0000      -0.361536        -9.8379
  26   2.0000      -0.358904        -9.7663
  27   2.0000      -0.334081        -9.0908
  28   2.0000      -0.314096        -8.5470
  29   2.0000      -0.302202        -8.2233
  30   2.0000      -0.296261        -8.0617
  31   2.0000      -0.220889        -6.0107
  32   2.0000      -0.201021        -5.4701
  33   0.0000      -0.026314        -0.7160
  34   0.0000      -0.014385        -0.3914
  35   0.0000       0.064834         1.7642
  36   0.0000       0.097718         2.6590
  37   0.0000       0.111754         3.0410

MULLIKEN ATOMIC CHARGES
-----------------------
   0 C :   -0.566196
   1 C :    0.231838
   2 C :   -0.295749
   3 C :   -0.174505
   4 C :   -0.359431
   5 C :    0.403701
   6 C :   -0.126010
   7 C :   -0.597893
   8 O :   -0.460433
   9 H :    0.173791
  10 H :    0.178963
  11 H :    0.181227
  12 H :    0.173264
  13 H :    0.176305
  14 H :    0.180056
  15 H :    0.193563
  16 H :    0.146182
  17 H :    0.189947
  18 H :    0.351379
Sum of atomic charges:   -0.0000000

LOEWDIN ATOMIC CHARGES
----------------------
   0 C :   -0.392275
   1 C :   -0.090878
   2 C :   -0.200787
   3 C :   -0.173007
   4 C :   -0.169363
   5 C :    0.177959
   6 C :   -0.098360
   7 C :   -0.382164
   8 O :   -0.530731
   9 H :    0.166018
  10 H :    0.172631
  11 H :    0.173152
  12 H :    0.177249
  13 H :    0.177189
  14 H :    0.185853
  15 H :    0.174783
  16 H :    0.161949
  17 H :    0.174518
  18 H :    0.296264

  Mayer bond orders larger than 0.100000
B(  0-C ,  1-C ) :   0.7856 B(  0-C ,  9-H ) :   0.9769 B(  0-C , 10-H ) :   0.9743
B(  0-C , 11-H ) :   0.9727 B(  1-C ,  2-C ) :   1.3384 B(  1-C ,  6-C ) :   1.3772
B(  2-C ,  3-C ) :   1.3883 B(  2-C , 12-H ) :   0.9547 B(  3-C ,  4-C ) :   1.3544
B(  3-C , 13-H ) :   0.9622 B(  4-C ,  5-C ) :   1.3376 B(  4-C , 14-H ) :   0.9636
B(  5-C ,  6-C ) :   1.3492 B(  5-C ,  8-O ) :   0.9323 B(  6-C ,  7-C ) :   0.8408
B(  7-C , 15-H ) :   0.9719 B(  7-C , 16-H ) :   0.9726 B(  7-C , 17-H ) :   0.9743
B(  8-O , 18-H ) :   0.8477

Dispersion correction           -0.006340392
FINAL SINGLE POINT ENERGY      -386.008757326879

DIPOLE MOMENT
-------------

Method             : SCF
Type of density    : Electron Density
Multiplicity       :   1
Irrep              :   0
Energy             :  -386.0101493002428015 Eh
Relativity type    :
Basis              : AO
                                X                 Y                 Z
Electronic contribution:      5.649387767      -3.318223798       0.004414299
Nuclear contribution   :     -6.322557130       4.364732215       0.020542782
                        -----------------------------------------
Total Dipole Moment    :     -0.673169363       1.046508417       0.024957081
                        -----------------------------------------
Magnitude (a.u.)       :      1.244572101
Magnitude (Debye)      :      3.163450877

Rotational constants in cm-1:             0.075870             0.058794             0.033539
Rotational constants in MHz :          2274.525602          1762.589481          1005.460359

                             ****ORCA TERMINATED NORMALLY****
TOTAL RUN TIME: 0 days 0 hours 0 minutes 28 seconds 951 msec
