                         Program Version 6.0.1  -  RELEASE   -
|  1> ! pbe def2-sv(p) def2/J RI DEFGRID1 loosescf d4 GCP(DFT/SV(P)) printgap
|  2> %output
|  3>     printlevel normal
|  4> end
|  5> * xyz 0 1
|  6> C 2.1451044445 -3.6903239003 0.4827419722
|  7> C 3.1172186559 -2.6149048189 0.0284042297
|  8> O 2.5295481764 -1.832908672 -1.0298103946
|  9> C 2.1518449786 -0.5983262477 -0.8002060434
| 10> O 2.2560426189 -0.0122781549 0.2598864982
| 11> C 1.5943747076 0.0639248256 -2.0450852471
| 12> C 0.3771655073 0.9223503983 -1.6990010311
| 13> H 0.185213438 1.636227346 -2.5037356362
| 14> C 0.5781568224 1.6902040384 -0.4058640495
| 15> O -0.1476570668 1.537026757 0.5621087302
| 16> O 1.5353705827 2.5673673599 -0.5002672248
| 17> C 1.8677736788 3.3452096679 0.6702930983
| 18> C 0.903887397 4.504989249 0.8563732337
| 19> S -1.1470256302 -0.0683962144 -1.5621747963
| 20> P -1.5887582671 -0.3594720016 0.5071655916
| 21> S -0.3360344686 -1.1136150454 1.8149843302
| 22> O -2.5348000067 0.8024404839 1.0312332494
| 23> C -3.773872626 1.1423488867 0.3817792048
| 24> O -2.7508119673 -1.4537969333 0.2146545196
| 25> C -2.4559513028 -2.8093508905 -0.1159040027
| 26> H 1.8213467067 -4.2840833077 -0.3670132364
| 27> H 2.634905527 -4.3322253742 1.2070338644
| 28> H 1.2770606039 -3.2325497506 0.9535393215
| 29> H 4.0166907777 -3.0529383543 -0.4079253285
| 30> H 3.3776141489 -1.9482945579 0.8549968858
| 31> H 1.3338854712 -0.6910727203 -2.7853037703
| 32> H 2.3803607049 0.7096256254 -2.4437671168
| 33> H 1.8573960542 2.6769587769 1.5360102257
| 34> H 2.8815996319 3.6926482174 0.4728646689
| 35> H -0.0975057759 4.132422311 1.0610971414
| 36> H 1.2312986642 5.1058780594 1.6982668198
| 37> H 0.8815497715 5.121481754 -0.0379900497
| 38> H -4.4998347223 0.3452040318 0.5311629286
| 39> H -3.6110973009 1.3005545288 -0.6846447014
| 40> H -4.0998463296 2.0606994752 0.863753061
| 41> H -2.1356733146 -2.8781019954 -1.155504947
| 42> H -3.3814358293 -3.3588165215 0.0371794986
| 43> H -1.6739376272 -3.1922672919 0.5432043408
| 44> *
| 45>
| 46>                          ****END OF INPUT****

CARTESIAN COORDINATES (ANGSTROEM)
---------------------------------
  C      2.145104   -3.690324    0.482742
  C      3.117219   -2.614905    0.028404
  O      2.529548   -1.832909   -1.029810
  C      2.151845   -0.598326   -0.800206
  O      2.256043   -0.012278    0.259886
  C      1.594375    0.063925   -2.045085
  C      0.377166    0.922350   -1.699001
  H      0.185213    1.636227   -2.503736
  C      0.578157    1.690204   -0.405864
  O     -0.147657    1.537027    0.562109
  O      1.535371    2.567367   -0.500267
  C      1.867774    3.345210    0.670293
  C      0.903887    4.504989    0.856373
  S     -1.147026   -0.068396   -1.562175
  P     -1.588758   -0.359472    0.507166
  S     -0.336034   -1.113615    1.814984
  O     -2.534800    0.802440    1.031233
  C     -3.773873    1.142349    0.381779
  O     -2.750812   -1.453797    0.214655
  C     -2.455951   -2.809351   -0.115904
  H      1.821347   -4.284083   -0.367013
  H      2.634906   -4.332225    1.207034
  H      1.277061   -3.232550    0.953539
  H      4.016691   -3.052938   -0.407925
  H      3.377614   -1.948295    0.854997
  H      1.333885   -0.691073   -2.785304
  H      2.380361    0.709626   -2.443767
  H      1.857396    2.676959    1.536010
  H      2.881600    3.692648    0.472865
  H     -0.097506    4.132422    1.061097
  H      1.231299    5.105878    1.698267
  H      0.881550    5.121482   -0.037990
  H     -4.499835    0.345204    0.531163
  H     -3.611097    1.300555   -0.684645
  H     -4.099846    2.060699    0.863753
  H     -2.135673   -2.878102   -1.155505
  H     -3.381436   -3.358817    0.037179
  H     -1.673938   -3.192267    0.543204

 Total Charge           Charge          ....    0
 Multiplicity           Mult            ....    1
 Number of Electrons    NEL             ....  174
 Basis Dimension        Dim             ....  316

ORBITAL ENERGIES
----------------

  NO   OCC          E(Eh)            E(eV)
   0   2.0000     -88.032630     -2395.4897
   1   2.0000     -87.958365     -2393.4688
   2   2.0000     -76.414205     -2079.3362
   3   2.0000     -18.813409      -511.9389
   4   2.0000     -18.806593      -511.7534
   5   2.0000     -18.771631      -510.8021
   6   2.0000     -18.769304      -510.7387
   7   2.0000     -18.753787      -510.3165
   8   2.0000     -18.741527      -509.9829
   9   2.0000     -10.025825      -272.8166
  10   2.0000     -10.014351      -272.5043
  11   2.0000      -9.953115      -270.8380
  12   2.0000      -9.950831      -270.7759
  13   2.0000      -9.943747      -270.5831
  14   2.0000      -9.934904      -270.3425
  15   2.0000      -9.927051      -270.1288
  16   2.0000      -9.918119      -269.8857
  17   2.0000      -9.887719      -269.0585
  18   2.0000      -9.876337      -268.7488
  19   2.0000      -7.677455      -208.9142
  20   2.0000      -7.603601      -206.9045
  21   2.0000      -6.408922      -174.3956
  22   2.0000      -5.705557      -155.2561
  23   2.0000      -5.701472      -155.1449
  24   2.0000      -5.694721      -154.9612
  25   2.0000      -5.632972      -153.2810
  26   2.0000      -5.624380      -153.0472
  27   2.0000      -5.623043      -153.0108
  28   2.0000      -4.632203      -126.0487
  29   2.0000      -4.631042      -126.0171
  30   2.0000      -4.629020      -125.9620
  31   2.0000      -1.025522       -27.9059
  32   2.0000      -1.012695       -27.5568
  33   2.0000      -0.966102       -26.2890
  34   2.0000      -0.931759       -25.3545
  35   2.0000      -0.919780       -25.0285
  36   2.0000      -0.918258       -24.9871
  37   2.0000      -0.765991       -20.8437
  38   2.0000      -0.710646       -19.3377
  39   2.0000      -0.705388       -19.1946
  40   2.0000      -0.682222       -18.5642
  41   2.0000      -0.653927       -17.7942
  42   2.0000      -0.623802       -16.9745
  43   2.0000      -0.619010       -16.8441
  44   2.0000      -0.602088       -16.3836
  45   2.0000      -0.592331       -16.1182
  46   2.0000      -0.564176       -15.3520
  47   2.0000      -0.511056       -13.9065
  48   2.0000      -0.501307       -13.6412
  49   2.0000      -0.496880       -13.5208
  50   2.0000      -0.486396       -13.2355
  51   2.0000      -0.461953       -12.5704
  52   2.0000      -0.457101       -12.4384
  53   2.0000      -0.447712       -12.1829
  54   2.0000      -0.432452       -11.7676
  55   2.0000      -0.427842       -11.6422
  56   2.0000      -0.424642       -11.5551
  57   2.0000      -0.418767       -11.3952
  58   2.0000      -0.412342       -11.2204
  59   2.0000      -0.399868       -10.8810
  60   2.0000      -0.399125       -10.8607
  61   2.0000      -0.394404       -10.7323
  62   2.0000      -0.384049       -10.4505
  63   2.0000      -0.382393       -10.4054
  64   2.0000      -0.381778       -10.3887
  65   2.0000      -0.360821        -9.8184
  66   2.0000      -0.358012        -9.7420
  67   2.0000      -0.350201        -9.5295
  68   2.0000      -0.345289        -9.3958
  69   2.0000      -0.337979        -9.1969
  70   2.0000      -0.333886        -9.0855
  71   2.0000      -0.327881        -8.9221
  72   2.0000      -0.315914        -8.5965
  73   2.0000      -0.307260        -8.3610
  74   2.0000      -0.300886        -8.1875
  75   2.0000      -0.291887        -7.9427
  76   2.0000      -0.282115        -7.6767
  77   2.0000      -0.278871        -7.5885
  78   2.0000      -0.273762        -7.4494
  79   2.0000      -0.258283        -7.0282
  80   2.0000      -0.253174        -6.8892
  81   2.0000      -0.241762        -6.5787
  82   2.0000      -0.237121        -6.4524
  83   2.0000      -0.228899        -6.2287
  84   2.0000      -0.222697        -6.0599
  85   2.0000      -0.179257        -4.8778
  86   2.0000      -0.168324        -4.5803
  87   0.0000      -0.038648        -1.0517
  88   0.0000      -0.028171        -0.7666
  89   0.0000      -0.024166        -0.6576
  90   0.0000       0.004421         0.1203
  91   0.0000       0.033833         0.9206

MULLIKEN ATOMIC CHARGES
-----------------------
   0 C :   -0.313709
   1 C :   -0.020388
   2 O :   -0.220742
   3 C :    0.109861
   4 O :   -0.187757
   5 C :   -0.055942
   6 C :   -0.275565
   7 H :    0.144053
   8 C :    0.230958
   9 O :   -0.196705
  10 O :   -0.226392
  11 C :   -0.005046
  12 C :   -0.313460
  13 S :   -0.119856
  14 P :    0.638981
  15 S :   -0.316343
  16 O :   -0.369415
  17 C :   -0.096068
  18 O :   -0.411909
  19 C :   -0.101327
  20 H :    0.106594
  21 H :    0.107221
  22 H :    0.148503
  23 H :    0.100909
  24 H :    0.118071
  25 H :    0.118032
  26 H :    0.127220
  27 H :    0.130263
  28 H :    0.103205
  29 H :    0.136803
  30 H :    0.116613
  31 H :    0.110000
  32 H :    0.121340
  33 H :    0.105728
  34 H :    0.121703
  35 H :    0.104644
  36 H :    0.114508
  37 H :    0.115415
Sum of atomic charges:   -0.0000000

LOEWDIN ATOMIC CHARGES
----------------------
   0 C :   -0.361417
   1 C :   -0.108870
   2 O :   -0.046618
   3 C :    0.033936
   4 O :   -0.146481
   5 C :   -0.248830
   6 C :   -0.260982
   7 H :    0.147053
   8 C :    0.027308
   9 O :   -0.142484
  10 O :   -0.039976
  11 C :   -0.102345
  12 C :   -0.358768
  13 S :    0.081812
  14 P :    0.586558
  15 S :   -0.312703
  16 O :   -0.244119
  17 C :   -0.209755
  18 O :   -0.276850
  19 C :   -0.223321
  20 H :    0.121985
  21 H :    0.129114
  22 H :    0.125295
  23 H :    0.115860
  24 H :    0.123715
  25 H :    0.136662
  26 H :    0.149983
  27 H :    0.131670
  28 H :    0.119182
  29 H :    0.133624
  30 H :    0.132981
  31 H :    0.123054
  32 H :    0.114712
  33 H :    0.103932
  34 H :    0.120671
  35 H :    0.102674
  36 H :    0.117071
  37 H :    0.104668

  Mayer bond orders larger than 0.100000
B(  0-C ,  1-C ) :   1.1797 B(  0-C , 20-H ) :   0.9490 B(  0-C , 21-H ) :   0.9411
B(  0-C , 22-H ) :   0.9204 B(  1-C ,  2-O ) :   0.8990 B(  1-C , 23-H ) :   0.9363
B(  1-C , 24-H ) :   0.9060 B(  2-O ,  3-C ) :   1.2642 B(  2-O ,  4-O ) :   0.1017
B(  3-C ,  4-O ) :   1.9732 B(  3-C ,  5-C ) :   0.9941 B(  4-O ,  8-C ) :   0.1220
B(  5-C ,  6-C ) :   1.0272 B(  5-C , 25-H ) :   0.9064 B(  5-C , 26-H ) :   0.8741
B(  6-C ,  7-H ) :   0.8777 B(  6-C ,  8-C ) :   0.9093 B(  6-C , 13-S ) :   1.0253
B(  8-C ,  9-O ) :   1.8795 B(  8-C , 10-O ) :   1.2638 B(  9-O , 14-P ) :   0.1756
B( 10-O , 11-C ) :   0.8992 B( 11-C , 12-C ) :   1.1736 B( 11-C , 27-H ) :   0.9170
B( 11-C , 28-H ) :   0.9385 B( 12-C , 29-H ) :   0.9425 B( 12-C , 30-H ) :   0.9435
B( 12-C , 31-H ) :   0.9472 B( 13-S , 14-P ) :   0.9309 B( 13-S , 15-S ) :   0.1096
B( 14-P , 15-S ) :   1.6113 B( 14-P , 16-O ) :   1.0986 B( 14-P , 18-O ) :   0.9924
B( 16-O , 17-C ) :   0.9321 B( 17-C , 32-H ) :   0.9476 B( 17-C , 33-H ) :   0.9394
B( 17-C , 34-H ) :   0.9587 B( 18-O , 19-C ) :   0.9491 B( 19-C , 35-H ) :   0.9484
B( 19-C , 36-H ) :   0.9587 B( 19-C , 37-H ) :   0.9262

Dispersion correction           -0.053526500
FINAL SINGLE POINT ENERGY     -1979.005427604544

DIPOLE MOMENT
-------------

Method             : SCF
Type of density    : Electron Density
Multiplicity       :   1
Irrep              :   0
Energy             : -1979.1352664527580600 Eh
Relativity type    :
Basis              : AO
                                X                 Y                 Z
Electronic contribution:     -5.069689355       0.365786257      -0.363339551
Nuclear contribution   :      5.584451534       0.202235044      -1.040532702
                        -----------------------------------------
Total Dipole Moment    :      0.514762179       0.568021301      -1.403872252
                        -----------------------------------------
Magnitude (a.u.)       :      1.599526680
Magnitude (Debye)      :      4.065673716

Rotational constants in cm-1:             0.010382             0.010256             0.006639
Rotational constants in MHz :           311.238888           307.474106           199.022823

                             ****ORCA TERMINATED NORMALLY****
TOTAL RUN TIME: 0 days 0 hours 0 minutes 35 seconds 619 msec
