                         Program Version 6.0.0  -   RELEASE  -
|  1> ! pbe def2-sv(p) def2/J RI DEFGRID1 loosescf d4 GCP(DFT/SV(P)) printgap
|  2> %output
|  3>     printlevel normal
|  4> end
|  5> * xyz 0 1
|  6> C 2.4582888493 -3.1686593468 -1.1588243528
|  7> C 3.3589061443 -2.0799758565 -1.7038022703
|  8> O 3.5771863012 -1.0104317091 -0.7552282258
|  9> P 2.4657863407 -0.0717135892 -0.1203843595
| 10> S 3.3041161933 1.5407009526 0.5948958507
| 11> O 1.6631209885 -0.9566666701 0.9419648647
| 12> C 1.9414097531 -0.9459086091 2.3565946678
| 13> C 0.9641410205 -0.0552441622 3.0974304461
| 14> S 1.0287381221 0.1288421649 -1.6575027863
| 15> C 0.4038341418 1.7580523715 -1.179466603
| 16> S -0.4499541381 1.758956646 0.4188168569
| 17> P -1.9484924766 0.3576493421 -0.0922200599
| 18> S -2.6435212869 0.4613071833 -1.9266904021
| 19> O -3.0277184198 0.561993252 1.0539181754
| 20> C -3.9600301004 1.6613067743 1.0298709903
| 21> C -5.1056344289 1.3211036653 1.9618154913
| 22> O -1.2852293065 -1.0065290396 0.3503222085
| 23> C -1.6543009464 -2.2660225161 -0.2472205547
| 24> C -3.0580190674 -2.6752334945 0.1449148409
| 25> H 2.8644965485 -3.567220916 -0.2326711251
| 26> H 1.4644769528 -2.7680846549 -0.9681635127
| 27> H 2.3835755287 -3.9664528716 -1.8910950258
| 28> H 2.9380035431 -1.6476700023 -2.6154210425
| 29> H 4.3667436205 -2.4491582466 -1.9006121278
| 30> H 1.8392044546 -1.9881101964 2.664509129
| 31> H 2.9704929591 -0.6116012899 2.5192300205
| 32> H -0.0569370389 -0.3252468858 2.8382652739
| 33> H 1.1104152279 -0.1756857878 4.1659980411
| 34> H 1.1278201025 0.9868970885 2.8310262727
| 35> H -0.2875826933 2.0595268325 -1.9657955652
| 36> H 1.2344249642 2.4569561887 -1.0846498501
| 37> H -3.4337316891 2.5625802395 1.3558782503
| 38> H -4.3070484629 1.8020203607 0.0004837264
| 39> H -5.8044241271 2.1508259874 1.9840527817
| 40> H -5.6196071048 0.4291448296 1.6149707326
| 41> H -4.7261405076 1.1425185832 2.9636241969
| 42> H -1.5646178637 -2.1748844524 -1.334769108
| 43> H -0.9065443162 -2.9645488727 0.131245348
| 44> H -3.1560595933 -2.6951039092 1.2270055959
| 45> H -3.7739276403 -1.9610493957 -0.260676627
| 46> H -3.2738065201 -3.6595636641 -0.2585100058
| 47> *
| 48>
| 49>                          ****END OF INPUT****

CARTESIAN COORDINATES (ANGSTROEM)
---------------------------------
  C      2.458289   -3.168659   -1.158824
  C      3.358906   -2.079976   -1.703802
  O      3.577186   -1.010432   -0.755228
  P      2.465786   -0.071714   -0.120384
  S      3.304116    1.540701    0.594896
  O      1.663121   -0.956667    0.941965
  C      1.941410   -0.945909    2.356595
  C      0.964141   -0.055244    3.097430
  S      1.028738    0.128842   -1.657503
  C      0.403834    1.758052   -1.179467
  S     -0.449954    1.758957    0.418817
  P     -1.948492    0.357649   -0.092220
  S     -2.643521    0.461307   -1.926690
  O     -3.027718    0.561993    1.053918
  C     -3.960030    1.661307    1.029871
  C     -5.105634    1.321104    1.961815
  O     -1.285229   -1.006529    0.350322
  C     -1.654301   -2.266023   -0.247221
  C     -3.058019   -2.675233    0.144915
  H      2.864497   -3.567221   -0.232671
  H      1.464477   -2.768085   -0.968164
  H      2.383576   -3.966453   -1.891095
  H      2.938004   -1.647670   -2.615421
  H      4.366744   -2.449158   -1.900612
  H      1.839204   -1.988110    2.664509
  H      2.970493   -0.611601    2.519230
  H     -0.056937   -0.325247    2.838265
  H      1.110415   -0.175686    4.165998
  H      1.127820    0.986897    2.831026
  H     -0.287583    2.059527   -1.965796
  H      1.234425    2.456956   -1.084650
  H     -3.433732    2.562580    1.355878
  H     -4.307048    1.802020    0.000484
  H     -5.804424    2.150826    1.984053
  H     -5.619607    0.429145    1.614971
  H     -4.726141    1.142519    2.963624
  H     -1.564618   -2.174884   -1.334769
  H     -0.906544   -2.964549    0.131245
  H     -3.156060   -2.695104    1.227006
  H     -3.773928   -1.961049   -0.260677
  H     -3.273807   -3.659564   -0.258510

 Total Charge           Charge          ....    0
 Multiplicity           Mult            ....    1
 Number of Electrons    NEL             ....  202
 Basis Dimension        Dim             ....  334

ORBITAL ENERGIES
----------------

  NO   OCC          E(Eh)            E(eV)
   0   2.0000     -88.044712     -2395.8184
   1   2.0000     -88.042543     -2395.7594
   2   2.0000     -87.990564     -2394.3450
   3   2.0000     -87.982214     -2394.1178
   4   2.0000     -76.428206     -2079.7172
   5   2.0000     -76.423497     -2079.5891
   6   2.0000     -18.796822      -511.4875
   7   2.0000     -18.791842      -511.3520
   8   2.0000     -18.790878      -511.3258
   9   2.0000     -18.783698      -511.1304
  10   2.0000      -9.959695      -271.0171
  11   2.0000      -9.956309      -270.9249
  12   2.0000      -9.955408      -270.9004
  13   2.0000      -9.953524      -270.8492
  14   2.0000      -9.947171      -270.6763
  15   2.0000      -9.892650      -269.1927
  16   2.0000      -9.890932      -269.1460
  17   2.0000      -9.885752      -269.0050
  18   2.0000      -9.872363      -268.6407
  19   2.0000      -7.689610      -209.2449
  20   2.0000      -7.687514      -209.1879
  21   2.0000      -7.635460      -207.7714
  22   2.0000      -7.627549      -207.5562
  23   2.0000      -6.425761      -174.8538
  24   2.0000      -6.421228      -174.7305
  25   2.0000      -5.717453      -155.5798
  26   2.0000      -5.715413      -155.5243
  27   2.0000      -5.714207      -155.4915
  28   2.0000      -5.712066      -155.4332
  29   2.0000      -5.706516      -155.2822
  30   2.0000      -5.704387      -155.2243
  31   2.0000      -5.664269      -154.1326
  32   2.0000      -5.656628      -153.9247
  33   2.0000      -5.656063      -153.9093
  34   2.0000      -5.655782      -153.9017
  35   2.0000      -5.648482      -153.7030
  36   2.0000      -5.647165      -153.6672
  37   2.0000      -4.648134      -126.4821
  38   2.0000      -4.647564      -126.4667
  39   2.0000      -4.646332      -126.4331
  40   2.0000      -4.644017      -126.3701
  41   2.0000      -4.642787      -126.3367
  42   2.0000      -4.641710      -126.3074
  43   2.0000      -0.990178       -26.9441
  44   2.0000      -0.979316       -26.6485
  45   2.0000      -0.948880       -25.8203
  46   2.0000      -0.939875       -25.5753
  47   2.0000      -0.767024       -20.8718
  48   2.0000      -0.723242       -19.6804
  49   2.0000      -0.711475       -19.3602
  50   2.0000      -0.691398       -18.8139
  51   2.0000      -0.688970       -18.7478
  52   2.0000      -0.672198       -18.2914
  53   2.0000      -0.650065       -17.6892
  54   2.0000      -0.639917       -17.4130
  55   2.0000      -0.601464       -16.3667
  56   2.0000      -0.591129       -16.0854
  57   2.0000      -0.578464       -15.7408
  58   2.0000      -0.567533       -15.4433
  59   2.0000      -0.559393       -15.2219
  60   2.0000      -0.506930       -13.7943
  61   2.0000      -0.496555       -13.5119
  62   2.0000      -0.479610       -13.0509
  63   2.0000      -0.474595       -12.9144
  64   2.0000      -0.458564       -12.4782
  65   2.0000      -0.448174       -12.1954
  66   2.0000      -0.440308       -11.9814
  67   2.0000      -0.436743       -11.8844
  68   2.0000      -0.429188       -11.6788
  69   2.0000      -0.413454       -11.2507
  70   2.0000      -0.405075       -11.0226
  71   2.0000      -0.399196       -10.8627
  72   2.0000      -0.394900       -10.7458
  73   2.0000      -0.386286       -10.5114
  74   2.0000      -0.378620       -10.3028
  75   2.0000      -0.375437       -10.2162
  76   2.0000      -0.366482        -9.9725
  77   2.0000      -0.359948        -9.7947
  78   2.0000      -0.355117        -9.6632
  79   2.0000      -0.354362        -9.6427
  80   2.0000      -0.349682        -9.5153
  81   2.0000      -0.346054        -9.4166
  82   2.0000      -0.345559        -9.4031
  83   2.0000      -0.339638        -9.2420
  84   2.0000      -0.334484        -9.1018
  85   2.0000      -0.320603        -8.7241
  86   2.0000      -0.308793        -8.4027
  87   2.0000      -0.303452        -8.2574
  88   2.0000      -0.301044        -8.1918
  89   2.0000      -0.287667        -7.8278
  90   2.0000      -0.278888        -7.5889
  91   2.0000      -0.277851        -7.5607
  92   2.0000      -0.273194        -7.4340
  93   2.0000      -0.265490        -7.2243
  94   2.0000      -0.257495        -7.0068
  95   2.0000      -0.231457        -6.2983
  96   2.0000      -0.218185        -5.9371
  97   2.0000      -0.214704        -5.8424
  98   2.0000      -0.206918        -5.6305
  99   2.0000      -0.200178        -5.4471
 100   2.0000      -0.194665        -5.2971
 101   0.0000      -0.046833        -1.2744
 102   0.0000      -0.025466        -0.6930
 103   0.0000      -0.001081        -0.0294
 104   0.0000       0.004634         0.1261
 105   0.0000       0.008971         0.2441

MULLIKEN ATOMIC CHARGES
-----------------------
   0 C :   -0.333846
   1 C :   -0.016309
   2 O :   -0.370038
   3 P :    0.620839
   4 S :   -0.319214
   5 O :   -0.377183
   6 C :   -0.008092
   7 C :   -0.295160
   8 S :   -0.105874
   9 C :   -0.345311
  10 S :   -0.076222
  11 P :    0.619519
  12 S :   -0.337566
  13 O :   -0.377577
  14 C :   -0.013800
  15 C :   -0.281490
  16 O :   -0.354395
  17 C :   -0.025415
  18 C :   -0.293315
  19 H :    0.118523
  20 H :    0.147745
  21 H :    0.114594
  22 H :    0.119236
  23 H :    0.114785
  24 H :    0.095684
  25 H :    0.105392
  26 H :    0.116460
  27 H :    0.101177
  28 H :    0.130242
  29 H :    0.191669
  30 H :    0.193748
  31 H :    0.104936
  32 H :    0.106917
  33 H :    0.113584
  34 H :    0.119125
  35 H :    0.117906
  36 H :    0.114163
  37 H :    0.116012
  38 H :    0.114813
  39 H :    0.122789
  40 H :    0.110948
Sum of atomic charges:    0.0000000

LOEWDIN ATOMIC CHARGES
----------------------
   0 C :   -0.368900
   1 C :   -0.116138
   2 O :   -0.247506
   3 P :    0.570736
   4 S :   -0.314685
   5 O :   -0.250513
   6 C :   -0.114589
   7 C :   -0.365902
   8 S :    0.088387
   9 C :   -0.476791
  10 S :    0.100599
  11 P :    0.569683
  12 S :   -0.327586
  13 O :   -0.247028
  14 C :   -0.120792
  15 C :   -0.350349
  16 O :   -0.227802
  17 C :   -0.118910
  18 C :   -0.364952
  19 H :    0.127764
  20 H :    0.122947
  21 H :    0.131750
  22 H :    0.109887
  23 H :    0.124305
  24 H :    0.113071
  25 H :    0.108535
  26 H :    0.120662
  27 H :    0.124878
  28 H :    0.121442
  29 H :    0.131695
  30 H :    0.132819
  31 H :    0.111087
  32 H :    0.108670
  33 H :    0.131695
  34 H :    0.127896
  35 H :    0.127543
  36 H :    0.110492
  37 H :    0.117791
  38 H :    0.125848
  39 H :    0.121991
  40 H :    0.130271

  Mayer bond orders larger than 0.100000
B(  0-C ,  1-C ) :   1.1623 B(  0-C , 19-H ) :   0.9452 B(  0-C , 20-H ) :   0.9304
B(  0-C , 21-H ) :   0.9357 B(  1-C ,  2-O ) :   0.9138 B(  1-C , 22-H ) :   0.9186
B(  1-C , 23-H ) :   0.9347 B(  2-O ,  3-P ) :   1.1207 B(  3-P ,  4-S ) :   1.6241
B(  3-P ,  5-O ) :   1.0898 B(  3-P ,  8-S ) :   0.9489 B(  4-S ,  8-S ) :   0.1003
B(  5-O ,  6-C ) :   0.9027 B(  6-C ,  7-C ) :   1.1734 B(  6-C , 24-H ) :   0.9335
B(  6-C , 25-H ) :   0.9136 B(  7-C , 26-H ) :   0.9415 B(  7-C , 27-H ) :   0.9382
B(  7-C , 28-H ) :   0.9354 B(  8-S ,  9-C ) :   1.0133 B(  9-C , 10-S ) :   1.0050
B(  9-C , 29-H ) :   0.8858 B(  9-C , 30-H ) :   0.8829 B( 10-S , 11-P ) :   0.9639
B( 10-S , 12-S ) :   0.1080 B( 11-P , 12-S ) :   1.5900 B( 11-P , 13-O ) :   1.1062
B( 11-P , 16-O ) :   1.1248 B( 13-O , 14-C ) :   0.9034 B( 14-C , 15-C ) :   1.1611
B( 14-C , 31-H ) :   0.9287 B( 14-C , 32-H ) :   0.9100 B( 15-C , 33-H ) :   0.9417
B( 15-C , 34-H ) :   0.9514 B( 15-C , 35-H ) :   0.9503 B( 16-O , 17-C ) :   0.9029
B( 17-C , 18-C ) :   1.1614 B( 17-C , 36-H ) :   0.9160 B( 17-C , 37-H ) :   0.9250
B( 18-C , 38-H ) :   0.9455 B( 18-C , 39-H ) :   0.9325 B( 18-C , 40-H ) :   0.9390

Dispersion correction           -0.067045459
FINAL SINGLE POINT ENERGY     -2929.522637924109

DIPOLE MOMENT
-------------

Method             : SCF
Type of density    : Electron Density
Multiplicity       :   1
Irrep              :   0
Energy             : -2929.6409889626365839 Eh
Relativity type    :
Basis              : AO
                                X                 Y                 Z
Electronic contribution:     13.391970145      15.391475300     -10.898947364
Nuclear contribution   :    -14.191762769     -16.694132716      11.343280572
                        -----------------------------------------
Total Dipole Moment    :     -0.799792624      -1.302657415       0.444333208
                        -----------------------------------------
Magnitude (a.u.)       :      1.591859474
Magnitude (Debye)      :      4.046185226

Rotational constants in cm-1:             0.012153             0.005416             0.005059
Rotational constants in MHz :           364.334714           162.380957           151.665780

                             ****ORCA TERMINATED NORMALLY****
TOTAL RUN TIME: 0 days 0 hours 0 minutes 21 seconds 705 msec
