                         Program Version 6.0.0  -   RELEASE  -
|  1> ! pbe def2-sv(p) def2/J RI DEFGRID1 loosescf d4 GCP(DFT/SV(P)) printgap
|  2> %output
|  3>     printlevel normal
|  4> end
|  5> * xyz 0 1
|  6> C 2.6012651705 0.1581095982 -2.3779415606
|  7> C 2.0267702378 1.2947086659 -1.5601917233
|  8> O 1.186524177 0.8329252848 -0.4715463387
|  9> P 1.7090516022 0.0559062161 0.8046818913
| 10> S 0.7899663061 0.5779789609 2.4541438872
| 11> O 3.2605207047 0.3928989441 0.8127797513
| 12> C 4.0717494942 0.2099845432 1.9865605979
| 13> C 4.2669791715 -1.25528488 2.3159200949
| 14> S 1.6344707842 -2.0122506339 0.2889546876
| 15> C 0.0105267429 -2.0818778297 -0.5175818239
| 16> S -1.3396013355 -1.3505333104 0.4473832516
| 17> P -1.8598423441 0.284559824 -0.8254430762
| 18> S -1.1146348978 0.2513553815 -2.6304591382
| 19> O -1.5285827146 1.6488392716 -0.1102012026
| 20> C -2.1239940693 2.0721730125 1.1414796623
| 21> C -1.4981849491 3.3985187491 1.5149596107
| 22> O -3.4501554096 0.2918827856 -0.7077953847
| 23> C -4.3174145315 -0.8418160232 -0.8951490822
| 24> C -4.1110917092 -1.5333408769 -2.2265139116
| 25> H 3.2172726095 -0.486407699 -1.7547915913
| 26> H 1.801574051 -0.4258481541 -2.8276343012
| 27> H 3.2136647341 0.5765496927 -3.170463181
| 28> H 1.3461231607 1.9067287231 -2.1546482363
| 29> H 2.8173022368 1.9149334772 -1.13553978
| 30> H 5.0137685114 0.6966258419 1.7304244333
| 31> H 3.5957233763 0.7333630401 2.8221042089
| 32> H 4.9600463049 -1.3474146455 3.1458731952
| 33> H 3.3146550959 -1.7019354574 2.6002663954
| 34> H 4.6595173368 -1.7903830668 1.4552190572
| 35> H -0.2018134366 -3.1418053622 -0.6360938608
| 36> H 0.0473552503 -1.5748910101 -1.4867003468
| 37> H -3.2018243486 2.1599216195 0.9935343731
| 38> H -1.9176495679 1.3121745611 1.9008272463
| 39> H -1.9622931588 3.7654348032 2.4244839385
| 40> H -0.4330289183 3.2672909282 1.6883181933
| 41> H -1.6414856032 4.1182230739 0.7140879291
| 42> H -4.1529293655 -1.5368810495 -0.067030465
| 43> H -5.3172387567 -0.4100724904 -0.8219330187
| 44> H -4.2019539711 -0.8207640776 -3.0428944159
| 45> H -3.1196444165 -1.9813045818 -2.2708206531
| 46> H -4.8574503956 -2.3123081441 -2.3439638756
| 47> *
| 48>
| 49>                          ****END OF INPUT****

CARTESIAN COORDINATES (ANGSTROEM)
---------------------------------
  C      2.601265    0.158110   -2.377942
  C      2.026770    1.294709   -1.560192
  O      1.186524    0.832925   -0.471546
  P      1.709052    0.055906    0.804682
  S      0.789966    0.577979    2.454144
  O      3.260521    0.392899    0.812780
  C      4.071749    0.209985    1.986561
  C      4.266979   -1.255285    2.315920
  S      1.634471   -2.012251    0.288955
  C      0.010527   -2.081878   -0.517582
  S     -1.339601   -1.350533    0.447383
  P     -1.859842    0.284560   -0.825443
  S     -1.114635    0.251355   -2.630459
  O     -1.528583    1.648839   -0.110201
  C     -2.123994    2.072173    1.141480
  C     -1.498185    3.398519    1.514960
  O     -3.450155    0.291883   -0.707795
  C     -4.317415   -0.841816   -0.895149
  C     -4.111092   -1.533341   -2.226514
  H      3.217273   -0.486408   -1.754792
  H      1.801574   -0.425848   -2.827634
  H      3.213665    0.576550   -3.170463
  H      1.346123    1.906729   -2.154648
  H      2.817302    1.914933   -1.135540
  H      5.013769    0.696626    1.730424
  H      3.595723    0.733363    2.822104
  H      4.960046   -1.347415    3.145873
  H      3.314655   -1.701935    2.600266
  H      4.659517   -1.790383    1.455219
  H     -0.201813   -3.141805   -0.636094
  H      0.047355   -1.574891   -1.486700
  H     -3.201824    2.159922    0.993534
  H     -1.917650    1.312175    1.900827
  H     -1.962293    3.765435    2.424484
  H     -0.433029    3.267291    1.688318
  H     -1.641486    4.118223    0.714088
  H     -4.152929   -1.536881   -0.067030
  H     -5.317239   -0.410072   -0.821933
  H     -4.201954   -0.820764   -3.042894
  H     -3.119644   -1.981305   -2.270821
  H     -4.857450   -2.312308   -2.343964

 Total Charge           Charge          ....    0
 Multiplicity           Mult            ....    1
 Number of Electrons    NEL             ....  202
 Basis Dimension        Dim             ....  334

ORBITAL ENERGIES
----------------

  NO   OCC          E(Eh)            E(eV)
   0   2.0000     -88.043674     -2395.7902
   1   2.0000     -88.039126     -2395.6664
   2   2.0000     -87.984298     -2394.1745
   3   2.0000     -87.981683     -2394.1033
   4   2.0000     -76.425978     -2079.6566
   5   2.0000     -76.424167     -2079.6073
   6   2.0000     -18.796459      -511.4776
   7   2.0000     -18.790433      -511.3137
   8   2.0000     -18.785884      -511.1899
   9   2.0000     -18.781343      -511.0663
  10   2.0000      -9.955094      -270.8919
  11   2.0000      -9.954965      -270.8884
  12   2.0000      -9.954869      -270.8858
  13   2.0000      -9.946013      -270.6448
  14   2.0000      -9.941733      -270.5283
  15   2.0000      -9.887834      -269.0616
  16   2.0000      -9.882457      -268.9153
  17   2.0000      -9.877126      -268.7703
  18   2.0000      -9.873482      -268.6711
  19   2.0000      -7.688042      -209.2023
  20   2.0000      -7.684274      -209.0997
  21   2.0000      -7.629451      -207.6079
  22   2.0000      -7.626686      -207.5327
  23   2.0000      -6.423182      -174.7837
  24   2.0000      -6.421108      -174.7272
  25   2.0000      -5.715772      -155.5341
  26   2.0000      -5.712521      -155.4456
  27   2.0000      -5.712253      -155.4383
  28   2.0000      -5.708838      -155.3454
  29   2.0000      -5.705274      -155.2484
  30   2.0000      -5.701099      -155.1348
  31   2.0000      -5.658435      -153.9739
  32   2.0000      -5.655619      -153.8972
  33   2.0000      -5.650101      -153.7471
  34   2.0000      -5.649392      -153.7278
  35   2.0000      -5.647428      -153.6743
  36   2.0000      -5.646672      -153.6538
  37   2.0000      -4.646575      -126.4397
  38   2.0000      -4.644818      -126.3919
  39   2.0000      -4.643824      -126.3649
  40   2.0000      -4.643069      -126.3443
  41   2.0000      -4.642996      -126.3423
  42   2.0000      -4.641456      -126.3004
  43   2.0000      -0.988174       -26.8896
  44   2.0000      -0.982438       -26.7335
  45   2.0000      -0.942876       -25.6570
  46   2.0000      -0.936020       -25.4704
  47   2.0000      -0.760365       -20.6906
  48   2.0000      -0.717610       -19.5272
  49   2.0000      -0.706968       -19.2376
  50   2.0000      -0.689547       -18.7635
  51   2.0000      -0.685131       -18.6434
  52   2.0000      -0.673060       -18.3149
  53   2.0000      -0.649123       -17.6635
  54   2.0000      -0.636191       -17.3116
  55   2.0000      -0.595245       -16.1974
  56   2.0000      -0.586557       -15.9610
  57   2.0000      -0.574792       -15.6409
  58   2.0000      -0.565266       -15.3817
  59   2.0000      -0.559275       -15.2186
  60   2.0000      -0.502076       -13.6622
  61   2.0000      -0.494458       -13.4549
  62   2.0000      -0.469653       -12.7799
  63   2.0000      -0.468507       -12.7487
  64   2.0000      -0.453167       -12.3313
  65   2.0000      -0.450900       -12.2696
  66   2.0000      -0.440299       -11.9811
  67   2.0000      -0.427462       -11.6318
  68   2.0000      -0.421559       -11.4712
  69   2.0000      -0.419101       -11.4043
  70   2.0000      -0.413009       -11.2385
  71   2.0000      -0.404295       -11.0014
  72   2.0000      -0.391367       -10.6496
  73   2.0000      -0.381136       -10.3712
  74   2.0000      -0.379222       -10.3192
  75   2.0000      -0.367571       -10.0021
  76   2.0000      -0.361003        -9.8234
  77   2.0000      -0.352182        -9.5833
  78   2.0000      -0.347346        -9.4518
  79   2.0000      -0.346327        -9.4240
  80   2.0000      -0.344266        -9.3679
  81   2.0000      -0.341305        -9.2874
  82   2.0000      -0.337127        -9.1737
  83   2.0000      -0.332390        -9.0448
  84   2.0000      -0.325563        -8.8590
  85   2.0000      -0.320493        -8.7211
  86   2.0000      -0.313861        -8.5406
  87   2.0000      -0.298048        -8.1103
  88   2.0000      -0.294867        -8.0238
  89   2.0000      -0.291582        -7.9344
  90   2.0000      -0.283267        -7.7081
  91   2.0000      -0.271418        -7.3856
  92   2.0000      -0.265725        -7.2307
  93   2.0000      -0.257927        -7.0185
  94   2.0000      -0.254376        -6.9219
  95   2.0000      -0.239892        -6.5278
  96   2.0000      -0.224149        -6.0994
  97   2.0000      -0.205967        -5.6046
  98   2.0000      -0.200669        -5.4605
  99   2.0000      -0.192257        -5.2316
 100   2.0000      -0.187594        -5.1047
 101   0.0000      -0.048134        -1.3098
 102   0.0000      -0.032909        -0.8955
 103   0.0000      -0.015037        -0.4092
 104   0.0000       0.005547         0.1510
 105   0.0000       0.018076         0.4919

MULLIKEN ATOMIC CHARGES
-----------------------
   0 C :   -0.333189
   1 C :    0.019715
   2 O :   -0.366059
   3 P :    0.616605
   4 S :   -0.307763
   5 O :   -0.380844
   6 C :   -0.001878
   7 C :   -0.328526
   8 S :   -0.111431
   9 C :   -0.347314
  10 S :   -0.111289
  11 P :    0.635621
  12 S :   -0.319384
  13 O :   -0.353580
  14 C :   -0.016642
  15 C :   -0.281143
  16 O :   -0.386551
  17 C :   -0.003936
  18 C :   -0.306366
  19 H :    0.121020
  20 H :    0.133808
  21 H :    0.107795
  22 H :    0.116109
  23 H :    0.103586
  24 H :    0.105401
  25 H :    0.114015
  26 H :    0.117858
  27 H :    0.133979
  28 H :    0.121241
  29 H :    0.179292
  30 H :    0.204194
  31 H :    0.101900
  32 H :    0.114497
  33 H :    0.103438
  34 H :    0.124924
  35 H :    0.111846
  36 H :    0.109570
  37 H :    0.106035
  38 H :    0.126781
  39 H :    0.116963
  40 H :    0.109703
Sum of atomic charges:   -0.0000000

LOEWDIN ATOMIC CHARGES
----------------------
   0 C :   -0.371268
   1 C :   -0.112166
   2 O :   -0.235869
   3 P :    0.572744
   4 S :   -0.304379
   5 O :   -0.242347
   6 C :   -0.120130
   7 C :   -0.371910
   8 S :    0.064804
   9 C :   -0.482811
  10 S :    0.079577
  11 P :    0.579190
  12 S :   -0.291900
  13 O :   -0.226333
  14 C :   -0.119081
  15 C :   -0.353042
  16 O :   -0.247509
  17 C :   -0.117166
  18 C :   -0.368837
  19 H :    0.116865
  20 H :    0.123577
  21 H :    0.130282
  22 H :    0.121000
  23 H :    0.112012
  24 H :    0.118859
  25 H :    0.111484
  26 H :    0.133979
  27 H :    0.122813
  28 H :    0.125367
  29 H :    0.137151
  30 H :    0.118981
  31 H :    0.108557
  32 H :    0.105955
  33 H :    0.127847
  34 H :    0.125402
  35 H :    0.125185
  36 H :    0.106300
  37 H :    0.119702
  38 H :    0.129993
  39 H :    0.118047
  40 H :    0.129075

  Mayer bond orders larger than 0.100000
B(  0-C ,  1-C ) :   1.1769 B(  0-C , 19-H ) :   0.9363 B(  0-C , 20-H ) :   0.9335
B(  0-C , 21-H ) :   0.9363 B(  1-C ,  2-O ) :   0.8835 B(  1-C , 22-H ) :   0.9176
B(  1-C , 23-H ) :   0.9268 B(  2-O ,  3-P ) :   1.1264 B(  3-P ,  4-S ) :   1.6396
B(  3-P ,  5-O ) :   1.0700 B(  3-P ,  8-S ) :   0.9474 B(  4-S ,  8-S ) :   0.1080
B(  5-O ,  6-C ) :   0.9056 B(  6-C ,  7-C ) :   1.1649 B(  6-C , 24-H ) :   0.9325
B(  6-C , 25-H ) :   0.9119 B(  7-C , 26-H ) :   0.9377 B(  7-C , 27-H ) :   0.9304
B(  7-C , 28-H ) :   0.9444 B(  8-S ,  9-C ) :   0.9915 B(  9-C , 10-S ) :   1.0126
B(  9-C , 29-H ) :   0.9117 B(  9-C , 30-H ) :   0.8415 B( 10-S , 11-P ) :   0.9450
B( 10-S , 12-S ) :   0.1170 B( 11-P , 12-S ) :   1.6037 B( 11-P , 13-O ) :   1.1511
B( 11-P , 16-O ) :   1.0765 B( 12-S , 30-H ) :   0.1156 B( 13-O , 14-C ) :   0.8858
B( 14-C , 15-C ) :   1.1703 B( 14-C , 31-H ) :   0.9258 B( 14-C , 32-H ) :   0.9099
B( 15-C , 33-H ) :   0.9411 B( 15-C , 34-H ) :   0.9394 B( 15-C , 35-H ) :   0.9496
B( 16-O , 17-C ) :   0.9167 B( 17-C , 18-C ) :   1.1666 B( 17-C , 36-H ) :   0.9232
B( 17-C , 37-H ) :   0.9330 B( 18-C , 38-H ) :   0.9432 B( 18-C , 39-H ) :   0.9355
B( 18-C , 40-H ) :   0.9353

Dispersion correction           -0.069793554
FINAL SINGLE POINT ENERGY     -2929.513005341676

DIPOLE MOMENT
-------------

Method             : SCF
Type of density    : Electron Density
Multiplicity       :   1
Irrep              :   0
Energy             : -2929.6311254010024641 Eh
Relativity type    :
Basis              : AO
                                X                 Y                 Z
Electronic contribution:     -2.749492925      -2.916700490       2.181052370
Nuclear contribution   :      2.923182269       2.556640944      -2.103763618
                        -----------------------------------------
Total Dipole Moment    :      0.173689343      -0.360059546       0.077288752
                        -----------------------------------------
Magnitude (a.u.)       :      0.407166324
Magnitude (Debye)      :      1.034934549

Rotational constants in cm-1:             0.012447             0.005798             0.005357
Rotational constants in MHz :           373.150740           173.830048           160.602238

                             ****ORCA TERMINATED NORMALLY****
TOTAL RUN TIME: 0 days 0 hours 0 minutes 21 seconds 660 msec
