                         Program Version 6.0.0  -   RELEASE  -
|  1> ! r2scan-3c def2/J RI DEFGRID2 scfconv6 printgap
|  2> %output
|  3>     printlevel normal
|  4> end
|  5> * xyz 0 1
|  6> C 1.4437114464 -0.3832596665 -2.8861734114
|  7> C 2.4993915815 0.2638929886 -2.0117935063
|  8> O 2.8880821351 -0.6177184874 -0.9438895299
|  9> P 2.3629528764 -0.5021834582 0.5509216436
| 10> S 2.4657990746 1.2840778919 1.3629367672
| 11> O 3.2315200377 -1.6109840667 1.2721757346
| 12> C 4.5104663956 -1.3214675112 1.8729807014
| 13> C 5.5636029318 -1.0005475137 0.8336601742
| 14> S 0.5083080812 -1.5049426868 0.576420403
| 15> C -0.3358234966 -0.5127719758 1.8610122321
| 16> S -2.1007682649 -0.3792514436 1.5326929405
| 17> P -1.98334544 0.5506440588 -0.3882609199
| 18> S -0.5516632941 1.8619326863 -0.6271623799
| 19> O -3.4593683635 1.1060471512 -0.5695275355
| 20> C -3.9359333598 2.228847226 0.2011579227
| 21> C -5.2407754784 2.6913911187 -0.4145206331
| 22> O -1.9104914392 -0.6058826275 -1.4504833641
| 23> C -2.8776714782 -1.6852117499 -1.5265564616
| 24> C -3.9194983164 -1.3905274759 -2.5854623821
| 25> H 1.2636827499 0.2494897373 -3.7493642307
| 26> H 1.7826008194 -1.361644483 -3.2147503799
| 27> H 0.509905284 -0.4972928036 -2.3386428356
| 28> H 2.1396525961 1.2091214978 -1.5912515602
| 29> H 3.4183300164 0.4437884272 -2.5732634115
| 30> H 4.3835853286 -0.483250949 2.5655569878
| 31> H 4.7486026407 -2.2310021939 2.4257694267
| 32> H 6.5288958733 -0.8956415109 1.3189846126
| 33> H 5.6130643342 -1.7933564723 0.0919795239
| 34> H 5.315116295 -0.0654009975 0.3333102595
| 35> H 0.1151769359 0.4838782801 1.8765956275
| 36> H -0.2395510192 -1.0062903605 2.8248783457
| 37> H -4.0745997141 1.8998787882 1.2345779267
| 38> H -3.1760162456 3.0166944622 0.1748195698
| 39> H -5.6211497503 3.5351507235 0.1516320879
| 40> H -5.0807426047 2.9948771041 -1.4452737447
| 41> H -5.9687825528 1.8858459744 -0.3910975842
| 42> H -2.282931531 -2.5647435577 -1.7791732492
| 43> H -3.3356861781 -1.8199139964 -0.543005052
| 44> H -4.5933275433 -2.2378095593 -2.6647478214
| 45> H -4.4866970309 -0.5032663097 -2.3177360151
| 46> H -3.4385832343 -1.2227094269 -3.5450497587
| 47> *
| 48>
| 49>                          ****END OF INPUT****

CARTESIAN COORDINATES (ANGSTROEM)
---------------------------------
  C      1.443711   -0.383260   -2.886173
  C      2.499392    0.263893   -2.011794
  O      2.888082   -0.617718   -0.943890
  P      2.362953   -0.502183    0.550922
  S      2.465799    1.284078    1.362937
  O      3.231520   -1.610984    1.272176
  C      4.510466   -1.321468    1.872981
  C      5.563603   -1.000548    0.833660
  S      0.508308   -1.504943    0.576420
  C     -0.335823   -0.512772    1.861012
  S     -2.100768   -0.379251    1.532693
  P     -1.983345    0.550644   -0.388261
  S     -0.551663    1.861933   -0.627162
  O     -3.459368    1.106047   -0.569528
  C     -3.935933    2.228847    0.201158
  C     -5.240775    2.691391   -0.414521
  O     -1.910491   -0.605883   -1.450483
  C     -2.877671   -1.685212   -1.526556
  C     -3.919498   -1.390527   -2.585462
  H      1.263683    0.249490   -3.749364
  H      1.782601   -1.361644   -3.214750
  H      0.509905   -0.497293   -2.338643
  H      2.139653    1.209121   -1.591252
  H      3.418330    0.443788   -2.573263
  H      4.383585   -0.483251    2.565557
  H      4.748603   -2.231002    2.425769
  H      6.528896   -0.895642    1.318985
  H      5.613064   -1.793356    0.091980
  H      5.315116   -0.065401    0.333310
  H      0.115177    0.483878    1.876596
  H     -0.239551   -1.006290    2.824878
  H     -4.074600    1.899879    1.234578
  H     -3.176016    3.016694    0.174820
  H     -5.621150    3.535151    0.151632
  H     -5.080743    2.994877   -1.445274
  H     -5.968783    1.885846   -0.391098
  H     -2.282932   -2.564744   -1.779173
  H     -3.335686   -1.819914   -0.543005
  H     -4.593328   -2.237810   -2.664748
  H     -4.486697   -0.503266   -2.317736
  H     -3.438583   -1.222709   -3.545050

 Total Charge           Charge          ....    0
 Multiplicity           Mult            ....    1
 Number of Electrons    NEL             ....  202
 Basis Dimension        Dim             ....  539

ORBITAL ENERGIES
----------------

  NO   OCC          E(Eh)            E(eV)
   0   2.0000     -88.578340     -2410.3392
   1   2.0000     -88.569560     -2410.1003
   2   2.0000     -88.515756     -2408.6362
   3   2.0000     -88.514164     -2408.5929
   4   2.0000     -76.914107     -2092.9392
   5   2.0000     -76.907133     -2092.7495
   6   2.0000     -18.996277      -516.9150
   7   2.0000     -18.994546      -516.8679
   8   2.0000     -18.984827      -516.6034
   9   2.0000     -18.980859      -516.4954
  10   2.0000     -10.104805      -274.9657
  11   2.0000     -10.102397      -274.9002
  12   2.0000     -10.102203      -274.8949
  13   2.0000     -10.090920      -274.5879
  14   2.0000     -10.086891      -274.4783
  15   2.0000     -10.036834      -273.1161
  16   2.0000     -10.033747      -273.0321
  17   2.0000     -10.022964      -272.7387
  18   2.0000     -10.014189      -272.4999
  19   2.0000      -7.872619      -214.2248
  20   2.0000      -7.863949      -213.9889
  21   2.0000      -7.810457      -212.5333
  22   2.0000      -7.808860      -212.4899
  23   2.0000      -6.592597      -179.3937
  24   2.0000      -6.585586      -179.2029
  25   2.0000      -5.819498      -158.3566
  26   2.0000      -5.816264      -158.2686
  27   2.0000      -5.810769      -158.1191
  28   2.0000      -5.809959      -158.0970
  29   2.0000      -5.808012      -158.0441
  30   2.0000      -5.800885      -157.8501
  31   2.0000      -5.758278      -156.6907
  32   2.0000      -5.756453      -156.6411
  33   2.0000      -5.750536      -156.4800
  34   2.0000      -5.750499      -156.4790
  35   2.0000      -5.749260      -156.4453
  36   2.0000      -5.748805      -156.4329
  37   2.0000      -4.738378      -128.9378
  38   2.0000      -4.737723      -128.9200
  39   2.0000      -4.735863      -128.8694
  40   2.0000      -4.730877      -128.7337
  41   2.0000      -4.730506      -128.7236
  42   2.0000      -4.729513      -128.6966
  43   2.0000      -1.055006       -28.7082
  44   2.0000      -1.041978       -28.3537
  45   2.0000      -1.014483       -27.6055
  46   2.0000      -1.002585       -27.2817
  47   2.0000      -0.798373       -21.7248
  48   2.0000      -0.759824       -20.6759
  49   2.0000      -0.746437       -20.3116
  50   2.0000      -0.739974       -20.1357
  51   2.0000      -0.722711       -19.6660
  52   2.0000      -0.706042       -19.2124
  53   2.0000      -0.682614       -18.5749
  54   2.0000      -0.662064       -18.0157
  55   2.0000      -0.625810       -17.0292
  56   2.0000      -0.621147       -16.9023
  57   2.0000      -0.606602       -16.5065
  58   2.0000      -0.594272       -16.1710
  59   2.0000      -0.592807       -16.1311
  60   2.0000      -0.535008       -14.5583
  61   2.0000      -0.514359       -13.9964
  62   2.0000      -0.504020       -13.7151
  63   2.0000      -0.487557       -13.2671
  64   2.0000      -0.467495       -12.7212
  65   2.0000      -0.463883       -12.6229
  66   2.0000      -0.462224       -12.5777
  67   2.0000      -0.449482       -12.2310
  68   2.0000      -0.445994       -12.1361
  69   2.0000      -0.427808       -11.6412
  70   2.0000      -0.419014       -11.4019
  71   2.0000      -0.409657       -11.1473
  72   2.0000      -0.406662       -11.0658
  73   2.0000      -0.401518       -10.9259
  74   2.0000      -0.400364       -10.8945
  75   2.0000      -0.388100       -10.5607
  76   2.0000      -0.379382       -10.3235
  77   2.0000      -0.372944       -10.1483
  78   2.0000      -0.370773       -10.0892
  79   2.0000      -0.366279        -9.9670
  80   2.0000      -0.363034        -9.8787
  81   2.0000      -0.356231        -9.6935
  82   2.0000      -0.351393        -9.5619
  83   2.0000      -0.348716        -9.4890
  84   2.0000      -0.339816        -9.2469
  85   2.0000      -0.332696        -9.0531
  86   2.0000      -0.319830        -8.7030
  87   2.0000      -0.318569        -8.6687
  88   2.0000      -0.311865        -8.4863
  89   2.0000      -0.297318        -8.0904
  90   2.0000      -0.293730        -7.9928
  91   2.0000      -0.292844        -7.9687
  92   2.0000      -0.282406        -7.6847
  93   2.0000      -0.277816        -7.5598
  94   2.0000      -0.271047        -7.3756
  95   2.0000      -0.246209        -6.6997
  96   2.0000      -0.234493        -6.3809
  97   2.0000      -0.221948        -6.0395
  98   2.0000      -0.211626        -5.7586
  99   2.0000      -0.209141        -5.6910
 100   2.0000      -0.199738        -5.4351
 101   0.0000      -0.045402        -1.2355
 102   0.0000      -0.032016        -0.8712
 103   0.0000      -0.005001        -0.1361
 104   0.0000       0.012700         0.3456
 105   0.0000       0.018786         0.5112

MULLIKEN ATOMIC CHARGES
-----------------------
   0 C :   -0.439686
   1 C :   -0.154021
   2 O :   -0.276412
   3 P :    0.677681
   4 S :   -0.466766
   5 O :   -0.287391
   6 C :   -0.155746
   7 C :   -0.439634
   8 S :   -0.138361
   9 C :   -0.222544
  10 S :   -0.185092
  11 P :    0.667239
  12 S :   -0.416869
  13 O :   -0.284317
  14 C :   -0.156092
  15 C :   -0.441424
  16 O :   -0.274420
  17 C :   -0.106901
  18 C :   -0.458292
  19 H :    0.143622
  20 H :    0.144603
  21 H :    0.182378
  22 H :    0.173641
  23 H :    0.144881
  24 H :    0.170859
  25 H :    0.146524
  26 H :    0.145387
  27 H :    0.154850
  28 H :    0.168083
  29 H :    0.222666
  30 H :    0.188566
  31 H :    0.151584
  32 H :    0.172721
  33 H :    0.148651
  34 H :    0.159716
  35 H :    0.150629
  36 H :    0.159620
  37 H :    0.159759
  38 H :    0.147004
  39 H :    0.166527
  40 H :    0.156778
Sum of atomic charges:   -0.0000000

LOEWDIN ATOMIC CHARGES
----------------------
   0 C :   -0.405360
   1 C :    0.020590
   2 O :   -0.659696
   3 P :    0.379593
   4 S :   -0.125684
   5 O :   -0.670255
   6 C :    0.020092
   7 C :   -0.400592
   8 S :    0.169062
   9 C :   -0.411670
  10 S :    0.120442
  11 P :    0.374041
  12 S :   -0.081932
  13 O :   -0.677127
  14 C :    0.019820
  15 C :   -0.385993
  16 O :   -0.666650
  17 C :    0.022310
  18 C :   -0.392357
  19 H :    0.160770
  20 H :    0.155542
  21 H :    0.174942
  22 H :    0.183947
  23 H :    0.175126
  24 H :    0.179350
  25 H :    0.178646
  26 H :    0.158273
  27 H :    0.160840
  28 H :    0.165366
  29 H :    0.199695
  30 H :    0.177951
  31 H :    0.172449
  32 H :    0.181919
  33 H :    0.161092
  34 H :    0.162095
  35 H :    0.158203
  36 H :    0.181735
  37 H :    0.176554
  38 H :    0.158950
  39 H :    0.166448
  40 H :    0.161476

  Mayer bond orders larger than 0.100000
B(  0-C ,  1-C ) :   0.9496 B(  0-C , 19-H ) :   0.9639 B(  0-C , 20-H ) :   0.9755
B(  0-C , 21-H ) :   0.9498 B(  1-C ,  2-O ) :   0.7665 B(  1-C , 22-H ) :   0.9544
B(  1-C , 23-H ) :   0.9663 B(  2-O ,  3-P ) :   1.0939 B(  3-P ,  4-S ) :   1.7518
B(  3-P ,  5-O ) :   1.1790 B(  3-P ,  8-S ) :   1.0767 B(  5-O ,  6-C ) :   0.8132
B(  6-C ,  7-C ) :   0.9291 B(  6-C , 24-H ) :   0.9650 B(  6-C , 25-H ) :   0.9612
B(  7-C , 26-H ) :   0.9626 B(  7-C , 27-H ) :   0.9709 B(  7-C , 28-H ) :   0.9602
B(  8-S ,  9-C ) :   0.9017 B(  9-C , 10-S ) :   0.9304 B(  9-C , 29-H ) :   0.9033
B(  9-C , 30-H ) :   0.9153 B( 10-S , 11-P ) :   0.9800 B( 11-P , 12-S ) :   1.8430
B( 11-P , 13-O ) :   1.0599 B( 11-P , 16-O ) :   1.1308 B( 13-O , 14-C ) :   0.7888
B( 14-C , 15-C ) :   0.9548 B( 14-C , 31-H ) :   0.9417 B( 14-C , 32-H ) :   0.9493
B( 15-C , 33-H ) :   0.9630 B( 15-C , 34-H ) :   0.9712 B( 15-C , 35-H ) :   0.9721
B( 16-O , 17-C ) :   0.7401 B( 17-C , 18-C ) :   0.9406 B( 17-C , 36-H ) :   0.9605
B( 17-C , 37-H ) :   0.9647 B( 18-C , 38-H ) :   0.9658 B( 18-C , 39-H ) :   0.9666
B( 18-C , 40-H ) :   0.9710

Dispersion correction           -0.021369967
FINAL SINGLE POINT ENERGY     -2932.460182070153

DIPOLE MOMENT
-------------

Method             : SCF
Type of density    : Electron Density
Multiplicity       :   1
Irrep              :   0
Energy             : -2932.4852395749530842 Eh
Relativity type    :
Basis              : AO
                                X                 Y                 Z
Electronic contribution:      5.360725898       0.224333523      12.317853048
Nuclear contribution   :     -6.416230566      -1.009445999     -12.594630357
                        -----------------------------------------
Total Dipole Moment    :     -1.055504669      -0.785112476      -0.276777309
                        -----------------------------------------
Magnitude (a.u.)       :      1.344283223
Magnitude (Debye)      :      3.416896407

Rotational constants in cm-1:             0.014558             0.004470             0.004314
Rotational constants in MHz :           436.436585           133.996739           129.316721

                             ****ORCA TERMINATED NORMALLY****
TOTAL RUN TIME: 0 days 0 hours 1 minutes 17 seconds 589 msec
