                         Program Version 6.0.0  -   RELEASE  -
|  1> ! r2scan-3c def2/J RI DEFGRID2 scfconv6 printgap
|  2> %output
|  3>     printlevel normal
|  4> end
|  5> %cpcm
|  6>     smd true
|  7>     smdsolvent "water"
|  8> end
|  9> * xyz 0 1
| 10> C 1.4437114464 -0.3832596665 -2.8861734114
| 11> C 2.4993915815 0.2638929886 -2.0117935063
| 12> O 2.8880821351 -0.6177184874 -0.9438895299
| 13> P 2.3629528764 -0.5021834582 0.5509216436
| 14> S 2.4657990746 1.2840778919 1.3629367672
| 15> O 3.2315200377 -1.6109840667 1.2721757346
| 16> C 4.5104663956 -1.3214675112 1.8729807014
| 17> C 5.5636029318 -1.0005475137 0.8336601742
| 18> S 0.5083080812 -1.5049426868 0.576420403
| 19> C -0.3358234966 -0.5127719758 1.8610122321
| 20> S -2.1007682649 -0.3792514436 1.5326929405
| 21> P -1.98334544 0.5506440588 -0.3882609199
| 22> S -0.5516632941 1.8619326863 -0.6271623799
| 23> O -3.4593683635 1.1060471512 -0.5695275355
| 24> C -3.9359333598 2.228847226 0.2011579227
| 25> C -5.2407754784 2.6913911187 -0.4145206331
| 26> O -1.9104914392 -0.6058826275 -1.4504833641
| 27> C -2.8776714782 -1.6852117499 -1.5265564616
| 28> C -3.9194983164 -1.3905274759 -2.5854623821
| 29> H 1.2636827499 0.2494897373 -3.7493642307
| 30> H 1.7826008194 -1.361644483 -3.2147503799
| 31> H 0.509905284 -0.4972928036 -2.3386428356
| 32> H 2.1396525961 1.2091214978 -1.5912515602
| 33> H 3.4183300164 0.4437884272 -2.5732634115
| 34> H 4.3835853286 -0.483250949 2.5655569878
| 35> H 4.7486026407 -2.2310021939 2.4257694267
| 36> H 6.5288958733 -0.8956415109 1.3189846126
| 37> H 5.6130643342 -1.7933564723 0.0919795239
| 38> H 5.315116295 -0.0654009975 0.3333102595
| 39> H 0.1151769359 0.4838782801 1.8765956275
| 40> H -0.2395510192 -1.0062903605 2.8248783457
| 41> H -4.0745997141 1.8998787882 1.2345779267
| 42> H -3.1760162456 3.0166944622 0.1748195698
| 43> H -5.6211497503 3.5351507235 0.1516320879
| 44> H -5.0807426047 2.9948771041 -1.4452737447
| 45> H -5.9687825528 1.8858459744 -0.3910975842
| 46> H -2.282931531 -2.5647435577 -1.7791732492
| 47> H -3.3356861781 -1.8199139964 -0.543005052
| 48> H -4.5933275433 -2.2378095593 -2.6647478214
| 49> H -4.4866970309 -0.5032663097 -2.3177360151
| 50> H -3.4385832343 -1.2227094269 -3.5450497587
| 51> *
| 52>
| 53>                          ****END OF INPUT****

CARTESIAN COORDINATES (ANGSTROEM)
---------------------------------
  C      1.443711   -0.383260   -2.886173
  C      2.499392    0.263893   -2.011794
  O      2.888082   -0.617718   -0.943890
  P      2.362953   -0.502183    0.550922
  S      2.465799    1.284078    1.362937
  O      3.231520   -1.610984    1.272176
  C      4.510466   -1.321468    1.872981
  C      5.563603   -1.000548    0.833660
  S      0.508308   -1.504943    0.576420
  C     -0.335823   -0.512772    1.861012
  S     -2.100768   -0.379251    1.532693
  P     -1.983345    0.550644   -0.388261
  S     -0.551663    1.861933   -0.627162
  O     -3.459368    1.106047   -0.569528
  C     -3.935933    2.228847    0.201158
  C     -5.240775    2.691391   -0.414521
  O     -1.910491   -0.605883   -1.450483
  C     -2.877671   -1.685212   -1.526556
  C     -3.919498   -1.390527   -2.585462
  H      1.263683    0.249490   -3.749364
  H      1.782601   -1.361644   -3.214750
  H      0.509905   -0.497293   -2.338643
  H      2.139653    1.209121   -1.591252
  H      3.418330    0.443788   -2.573263
  H      4.383585   -0.483251    2.565557
  H      4.748603   -2.231002    2.425769
  H      6.528896   -0.895642    1.318985
  H      5.613064   -1.793356    0.091980
  H      5.315116   -0.065401    0.333310
  H      0.115177    0.483878    1.876596
  H     -0.239551   -1.006290    2.824878
  H     -4.074600    1.899879    1.234578
  H     -3.176016    3.016694    0.174820
  H     -5.621150    3.535151    0.151632
  H     -5.080743    2.994877   -1.445274
  H     -5.968783    1.885846   -0.391098
  H     -2.282932   -2.564744   -1.779173
  H     -3.335686   -1.819914   -0.543005
  H     -4.593328   -2.237810   -2.664748
  H     -4.486697   -0.503266   -2.317736
  H     -3.438583   -1.222709   -3.545050

 Total Charge           Charge          ....    0
 Multiplicity           Mult            ....    1
 Number of Electrons    NEL             ....  202
 Basis Dimension        Dim             ....  539

ORBITAL ENERGIES
----------------

  NO   OCC          E(Eh)            E(eV)
   0   2.0000     -88.581110     -2410.4145
   1   2.0000     -88.577317     -2410.3113
   2   2.0000     -88.526805     -2408.9368
   3   2.0000     -88.524845     -2408.8835
   4   2.0000     -76.918617     -2093.0620
   5   2.0000     -76.917860     -2093.0414
   6   2.0000     -18.995615      -516.8970
   7   2.0000     -18.995614      -516.8969
   8   2.0000     -18.994410      -516.8642
   9   2.0000     -18.990320      -516.7529
  10   2.0000     -10.103481      -274.9297
  11   2.0000     -10.092624      -274.6343
  12   2.0000     -10.091161      -274.5945
  13   2.0000     -10.087954      -274.5072
  14   2.0000     -10.087822      -274.5036
  15   2.0000     -10.020015      -272.6585
  16   2.0000     -10.018701      -272.6227
  17   2.0000     -10.017973      -272.6029
  18   2.0000     -10.014585      -272.5107
  19   2.0000      -7.875320      -214.2983
  20   2.0000      -7.871705      -214.2000
  21   2.0000      -7.821800      -212.8420
  22   2.0000      -7.819900      -212.7903
  23   2.0000      -6.597146      -179.5175
  24   2.0000      -6.596383      -179.4967
  25   2.0000      -5.822218      -158.4306
  26   2.0000      -5.818995      -158.3429
  27   2.0000      -5.818498      -158.3294
  28   2.0000      -5.815740      -158.2543
  29   2.0000      -5.812620      -158.1694
  30   2.0000      -5.808706      -158.0629
  31   2.0000      -5.769333      -156.9915
  32   2.0000      -5.767597      -156.9443
  33   2.0000      -5.762182      -156.7969
  34   2.0000      -5.761767      -156.7856
  35   2.0000      -5.760060      -156.7392
  36   2.0000      -5.759915      -156.7353
  37   2.0000      -4.742855      -129.0596
  38   2.0000      -4.742249      -129.0432
  39   2.0000      -4.741667      -129.0273
  40   2.0000      -4.741286      -129.0170
  41   2.0000      -4.740553      -128.9970
  42   2.0000      -4.740355      -128.9916
  43   2.0000      -1.055009       -28.7083
  44   2.0000      -1.051270       -28.6065
  45   2.0000      -1.013769       -27.5861
  46   2.0000      -1.011319       -27.5194
  47   2.0000      -0.801763       -21.8171
  48   2.0000      -0.756596       -20.5880
  49   2.0000      -0.745238       -20.2790
  50   2.0000      -0.727727       -19.8025
  51   2.0000      -0.722709       -19.6659
  52   2.0000      -0.708279       -19.2732
  53   2.0000      -0.687125       -18.6976
  54   2.0000      -0.670892       -18.2559
  55   2.0000      -0.629426       -17.1275
  56   2.0000      -0.615572       -16.7506
  57   2.0000      -0.598193       -16.2777
  58   2.0000      -0.595242       -16.1974
  59   2.0000      -0.592210       -16.1149
  60   2.0000      -0.530650       -14.4397
  61   2.0000      -0.517673       -14.0866
  62   2.0000      -0.498394       -13.5620
  63   2.0000      -0.491482       -13.3739
  64   2.0000      -0.469071       -12.7641
  65   2.0000      -0.461286       -12.5522
  66   2.0000      -0.458384       -12.4733
  67   2.0000      -0.448823       -12.2131
  68   2.0000      -0.443382       -12.0650
  69   2.0000      -0.427938       -11.6448
  70   2.0000      -0.417970       -11.3735
  71   2.0000      -0.412350       -11.2206
  72   2.0000      -0.404123       -10.9967
  73   2.0000      -0.402691       -10.9578
  74   2.0000      -0.392847       -10.6899
  75   2.0000      -0.390324       -10.6213
  76   2.0000      -0.376839       -10.2543
  77   2.0000      -0.368921       -10.0389
  78   2.0000      -0.362511        -9.8644
  79   2.0000      -0.359341        -9.7782
  80   2.0000      -0.353763        -9.6264
  81   2.0000      -0.351693        -9.5700
  82   2.0000      -0.349430        -9.5085
  83   2.0000      -0.347173        -9.4471
  84   2.0000      -0.342218        -9.3122
  85   2.0000      -0.326570        -8.8864
  86   2.0000      -0.323542        -8.8040
  87   2.0000      -0.314411        -8.5556
  88   2.0000      -0.306161        -8.3311
  89   2.0000      -0.299166        -8.1407
  90   2.0000      -0.298426        -8.1206
  91   2.0000      -0.290557        -7.9065
  92   2.0000      -0.287358        -7.8194
  93   2.0000      -0.279426        -7.6036
  94   2.0000      -0.275682        -7.5017
  95   2.0000      -0.250980        -6.8295
  96   2.0000      -0.243653        -6.6301
  97   2.0000      -0.233527        -6.3546
  98   2.0000      -0.221173        -6.0184
  99   2.0000      -0.220507        -6.0003
 100   2.0000      -0.210970        -5.7408
 101   0.0000      -0.050482        -1.3737
 102   0.0000      -0.040775        -1.1095
 103   0.0000      -0.010216        -0.2780
 104   0.0000       0.009974         0.2714
 105   0.0000       0.014946         0.4067

MULLIKEN ATOMIC CHARGES
-----------------------
   0 C :   -0.485990
   1 C :   -0.140469
   2 O :   -0.299928
   3 P :    0.711710
   4 S :   -0.515611
   5 O :   -0.322380
   6 C :   -0.148838
   7 C :   -0.480011
   8 S :   -0.153381
   9 C :   -0.224224
  10 S :   -0.180484
  11 P :    0.682583
  12 S :   -0.473256
  13 O :   -0.302613
  14 C :   -0.145582
  15 C :   -0.481084
  16 O :   -0.301111
  17 C :   -0.092530
  18 C :   -0.499680
  19 H :    0.168708
  20 H :    0.163267
  21 H :    0.171438
  22 H :    0.167472
  23 H :    0.173542
  24 H :    0.174835
  25 H :    0.173452
  26 H :    0.171764
  27 H :    0.168423
  28 H :    0.167430
  29 H :    0.217134
  30 H :    0.230095
  31 H :    0.168656
  32 H :    0.173239
  33 H :    0.169751
  34 H :    0.166905
  35 H :    0.166259
  36 H :    0.180439
  37 H :    0.171764
  38 H :    0.171297
  39 H :    0.169748
  40 H :    0.167260
Sum of atomic charges:    0.0000000

LOEWDIN ATOMIC CHARGES
----------------------
   0 C :   -0.410081
   1 C :    0.024000
   2 O :   -0.671469
   3 P :    0.383669
   4 S :   -0.157323
   5 O :   -0.687518
   6 C :    0.024935
   7 C :   -0.403747
   8 S :    0.163955
   9 C :   -0.406845
  10 S :    0.131328
  11 P :    0.376386
  12 S :   -0.123837
  13 O :   -0.683295
  14 C :    0.024052
  15 C :   -0.388941
  16 O :   -0.681888
  17 C :    0.029601
  18 C :   -0.395052
  19 H :    0.168460
  20 H :    0.161920
  21 H :    0.168747
  22 H :    0.182157
  23 H :    0.186782
  24 H :    0.181092
  25 H :    0.189898
  26 H :    0.168347
  27 H :    0.163872
  28 H :    0.162553
  29 H :    0.197179
  30 H :    0.193456
  31 H :    0.179515
  32 H :    0.181526
  33 H :    0.169184
  34 H :    0.163476
  35 H :    0.163228
  36 H :    0.190376
  37 H :    0.182237
  38 H :    0.168913
  39 H :    0.165642
  40 H :    0.163509

  Mayer bond orders larger than 0.100000
B(  0-C ,  1-C ) :   0.9358 B(  0-C , 19-H ) :   0.9614 B(  0-C , 20-H ) :   0.9713
B(  0-C , 21-H ) :   0.9556 B(  1-C ,  2-O ) :   0.7576 B(  1-C , 22-H ) :   0.9530
B(  1-C , 23-H ) :   0.9566 B(  2-O ,  3-P ) :   1.0959 B(  3-P ,  4-S ) :   1.7134
B(  3-P ,  5-O ) :   1.1783 B(  3-P ,  8-S ) :   1.0920 B(  5-O ,  6-C ) :   0.8023
B(  6-C ,  7-C ) :   0.9156 B(  6-C , 24-H ) :   0.9606 B(  6-C , 25-H ) :   0.9516
B(  7-C , 26-H ) :   0.9562 B(  7-C , 27-H ) :   0.9702 B(  7-C , 28-H ) :   0.9596
B(  8-S ,  9-C ) :   0.8920 B(  9-C , 10-S ) :   0.9251 B(  9-C , 29-H ) :   0.9069
B(  9-C , 30-H ) :   0.9014 B( 10-S , 11-P ) :   0.9949 B( 11-P , 12-S ) :   1.8102
B( 11-P , 13-O ) :   1.0703 B( 11-P , 16-O ) :   1.1397 B( 13-O , 14-C ) :   0.7808
B( 14-C , 15-C ) :   0.9543 B( 14-C , 31-H ) :   0.9331 B( 14-C , 32-H ) :   0.9467
B( 15-C , 33-H ) :   0.9576 B( 15-C , 34-H ) :   0.9690 B( 15-C , 35-H ) :   0.9685
B( 16-O , 17-C ) :   0.7301 B( 17-C , 18-C ) :   0.9318 B( 17-C , 36-H ) :   0.9510
B( 17-C , 37-H ) :   0.9558 B( 18-C , 38-H ) :   0.9592 B( 18-C , 39-H ) :   0.9665
B( 18-C , 40-H ) :   0.9698

Dispersion correction           -0.021369967
FINAL SINGLE POINT ENERGY     -2932.468586463106

DIPOLE MOMENT
-------------

Method             : SCF
Type of density    : Electron Density
Multiplicity       :   1
Irrep              :   0
Energy             : -2932.4936439679058822 Eh
Relativity type    :
Basis              : AO
                                X                 Y                 Z
Electronic contribution:      5.035809836      -0.205483160      12.455778915
Nuclear contribution   :     -6.416230566      -1.009445999     -12.594630357
                        -----------------------------------------
Total Dipole Moment    :     -1.380420730      -1.214929159      -0.138851442
                        -----------------------------------------
Magnitude (a.u.)       :      1.844151289
Magnitude (Debye)      :      4.687460058

Rotational constants in cm-1:             0.014558             0.004470             0.004314
Rotational constants in MHz :           436.436585           133.996739           129.316721

                             ****ORCA TERMINATED NORMALLY****
TOTAL RUN TIME: 0 days 0 hours 1 minutes 47 seconds 790 msec
