                         Program Version 6.0.1  -  RELEASE   -
|  1> ! pbe def2-sv(p) def2/J RI DEFGRID1 loosescf d4 GCP(DFT/SV(P)) printgap
|  2> %output
|  3>     printlevel normal
|  4> end
|  5> * xyz 0 1
|  6> C 4.0326458411 -2.5399035405 1.3887624307
|  7> C 2.6599793366 -1.8982244303 1.356592303
|  8> O 2.444166021 -1.3735976387 0.0309941147
|  9> C 1.5263139814 -0.4671749471 -0.1509395905
| 10> O 0.8385151976 0.0190339472 0.7361014361
| 11> C 1.4066047988 -0.0249685848 -1.5890593499
| 12> C 0.2971372346 1.010412224 -1.6983030623
| 13> H 0.3545373764 1.5356150887 -2.6554633867
| 14> C 0.3667957188 2.0400454409 -0.5768891709
| 15> O -0.5949892433 2.4641006661 0.0210656093
| 16> O 1.6025765236 2.4706941966 -0.4169464606
| 17> C 1.8400373635 3.4743145708 0.5907432956
| 18> C 3.1790063226 4.1246814897 0.3032926287
| 19> S -1.3788545714 0.2899235681 -1.7423943651
| 20> P -1.7630006403 -0.7778724485 0.0400140698
| 21> S -0.8318415144 -2.4666410725 0.4371141783
| 22> O -1.9915146039 0.2448693549 1.2240564783
| 23> C -1.405244046 0.1659305261 2.5218008428
| 24> O -3.3130737174 -1.0582159198 -0.2484345066
| 25> C -3.7361244371 -2.00818154 -1.2317914801
| 26> H 4.7995946148 -1.7996293825 1.1813898252
| 27> H 4.2024702864 -2.9675146627 2.3710555593
| 28> H 4.0881754819 -3.3252933895 0.6416568427
| 29> H 2.5696665691 -1.077127768 2.0744910852
| 30> H 1.8665879555 -2.6258224322 1.5551124767
| 31> H 1.2016143209 -0.8909789881 -2.2201425691
| 32> H 2.3607748257 0.4070373656 -1.8957044792
| 33> H 1.016541409 4.1945237315 0.5614813427
| 34> H 1.8303319595 2.9767387168 1.5659211471
| 35> H 3.968675141 3.3800796941 0.3273205836
| 36> H 3.1641403111 4.5918152607 -0.6767894902
| 37> H 3.3759255531 4.8799473413 1.0567461951
| 38> H -2.2128955675 0.306618966 3.2369017436
| 39> H -0.6641990387 0.9586667515 2.6109364691
| 40> H -0.9275655013 -0.8049584517 2.6686686412
| 41> H -3.6150283279 -1.5913937544 -2.2312098675
| 42> H -4.7851476986 -2.1994268725 -1.020167429
| 43> H -3.1552476443 -2.9278798481 -1.1367711185
| 44> *
| 45>
| 46>                          ****END OF INPUT****

CARTESIAN COORDINATES (ANGSTROEM)
---------------------------------
  C      4.032646   -2.539904    1.388762
  C      2.659979   -1.898224    1.356592
  O      2.444166   -1.373598    0.030994
  C      1.526314   -0.467175   -0.150940
  O      0.838515    0.019034    0.736101
  C      1.406605   -0.024969   -1.589059
  C      0.297137    1.010412   -1.698303
  H      0.354537    1.535615   -2.655463
  C      0.366796    2.040045   -0.576889
  O     -0.594989    2.464101    0.021066
  O      1.602577    2.470694   -0.416946
  C      1.840037    3.474315    0.590743
  C      3.179006    4.124681    0.303293
  S     -1.378855    0.289924   -1.742394
  P     -1.763001   -0.777872    0.040014
  S     -0.831842   -2.466641    0.437114
  O     -1.991515    0.244869    1.224056
  C     -1.405244    0.165931    2.521801
  O     -3.313074   -1.058216   -0.248435
  C     -3.736124   -2.008182   -1.231791
  H      4.799595   -1.799629    1.181390
  H      4.202470   -2.967515    2.371056
  H      4.088175   -3.325293    0.641657
  H      2.569667   -1.077128    2.074491
  H      1.866588   -2.625822    1.555112
  H      1.201614   -0.890979   -2.220143
  H      2.360775    0.407037   -1.895704
  H      1.016541    4.194524    0.561481
  H      1.830332    2.976739    1.565921
  H      3.968675    3.380080    0.327321
  H      3.164140    4.591815   -0.676789
  H      3.375926    4.879947    1.056746
  H     -2.212896    0.306619    3.236902
  H     -0.664199    0.958667    2.610936
  H     -0.927566   -0.804958    2.668669
  H     -3.615028   -1.591394   -2.231210
  H     -4.785148   -2.199427   -1.020167
  H     -3.155248   -2.927880   -1.136771

 Total Charge           Charge          ....    0
 Multiplicity           Mult            ....    1
 Number of Electrons    NEL             ....  174
 Basis Dimension        Dim             ....  316

ORBITAL ENERGIES
----------------

  NO   OCC          E(Eh)            E(eV)
   0   2.0000     -88.031086     -2395.4476
   1   2.0000     -87.970799     -2393.8071
   2   2.0000     -76.416752     -2079.4055
   3   2.0000     -18.813115      -511.9309
   4   2.0000     -18.804401      -511.6938
   5   2.0000     -18.776127      -510.9244
   6   2.0000     -18.775738      -510.9138
   7   2.0000     -18.751363      -510.2505
   8   2.0000     -18.728490      -509.6281
   9   2.0000     -10.022584      -272.7284
  10   2.0000     -10.010925      -272.4111
  11   2.0000      -9.950032      -270.7541
  12   2.0000      -9.949809      -270.7481
  13   2.0000      -9.949524      -270.7403
  14   2.0000      -9.932136      -270.2672
  15   2.0000      -9.926343      -270.1095
  16   2.0000      -9.916948      -269.8539
  17   2.0000      -9.893074      -269.2042
  18   2.0000      -9.891954      -269.1737
  19   2.0000      -7.676126      -208.8780
  20   2.0000      -7.616003      -207.2420
  21   2.0000      -6.413161      -174.5110
  22   2.0000      -5.704534      -155.2283
  23   2.0000      -5.700433      -155.1167
  24   2.0000      -5.692691      -154.9060
  25   2.0000      -5.644915      -153.6059
  26   2.0000      -5.636624      -153.3803
  27   2.0000      -5.636066      -153.3651
  28   2.0000      -4.635547      -126.1397
  29   2.0000      -4.635332      -126.1338
  30   2.0000      -4.633640      -126.0878
  31   2.0000      -1.023285       -27.8450
  32   2.0000      -1.010149       -27.4876
  33   2.0000      -0.970584       -26.4109
  34   2.0000      -0.929404       -25.2904
  35   2.0000      -0.925824       -25.1929
  36   2.0000      -0.910714       -24.7818
  37   2.0000      -0.763859       -20.7857
  38   2.0000      -0.718317       -19.5464
  39   2.0000      -0.708726       -19.2854
  40   2.0000      -0.688155       -18.7257
  41   2.0000      -0.655610       -17.8401
  42   2.0000      -0.623099       -16.9554
  43   2.0000      -0.615736       -16.7550
  44   2.0000      -0.611299       -16.6343
  45   2.0000      -0.590851       -16.0779
  46   2.0000      -0.560915       -15.2633
  47   2.0000      -0.515627       -14.0309
  48   2.0000      -0.514592       -14.0028
  49   2.0000      -0.495315       -13.4782
  50   2.0000      -0.484644       -13.1878
  51   2.0000      -0.463654       -12.6167
  52   2.0000      -0.457480       -12.4487
  53   2.0000      -0.445102       -12.1118
  54   2.0000      -0.442709       -12.0467
  55   2.0000      -0.428076       -11.6486
  56   2.0000      -0.423989       -11.5373
  57   2.0000      -0.411574       -11.1995
  58   2.0000      -0.408146       -11.1062
  59   2.0000      -0.405360       -11.0304
  60   2.0000      -0.401053       -10.9132
  61   2.0000      -0.394743       -10.7415
  62   2.0000      -0.385101       -10.4791
  63   2.0000      -0.383688       -10.4407
  64   2.0000      -0.367051        -9.9880
  65   2.0000      -0.365077        -9.9343
  66   2.0000      -0.362423        -9.8620
  67   2.0000      -0.356020        -9.6878
  68   2.0000      -0.352373        -9.5886
  69   2.0000      -0.347980        -9.4690
  70   2.0000      -0.336659        -9.1610
  71   2.0000      -0.324561        -8.8318
  72   2.0000      -0.319932        -8.7058
  73   2.0000      -0.305935        -8.3249
  74   2.0000      -0.304447        -8.2844
  75   2.0000      -0.299032        -8.1371
  76   2.0000      -0.289310        -7.8725
  77   2.0000      -0.276722        -7.5300
  78   2.0000      -0.270055        -7.3486
  79   2.0000      -0.259461        -7.0603
  80   2.0000      -0.250704        -6.8220
  81   2.0000      -0.247794        -6.7428
  82   2.0000      -0.236983        -6.4486
  83   2.0000      -0.224199        -6.1008
  84   2.0000      -0.213217        -5.8019
  85   2.0000      -0.188495        -5.1292
  86   2.0000      -0.184418        -5.0183
  87   0.0000      -0.041426        -1.1273
  88   0.0000      -0.023893        -0.6502
  89   0.0000      -0.018868        -0.5134
  90   0.0000      -0.004665        -0.1269
  91   0.0000       0.028365         0.7719

MULLIKEN ATOMIC CHARGES
-----------------------
   0 C :   -0.276935
   1 C :   -0.035345
   2 O :   -0.208121
   3 C :    0.134603
   4 O :   -0.229103
   5 C :   -0.061330
   6 C :   -0.301834
   7 H :    0.144280
   8 C :    0.196891
   9 O :   -0.173152
  10 O :   -0.251765
  11 C :   -0.027430
  12 C :   -0.275443
  13 S :   -0.085920
  14 P :    0.634907
  15 S :   -0.371843
  16 O :   -0.347859
  17 C :   -0.087198
  18 O :   -0.372926
  19 C :   -0.103774
  20 H :    0.111330
  21 H :    0.113883
  22 H :    0.119629
  23 H :    0.105687
  24 H :    0.127394
  25 H :    0.136280
  26 H :    0.125415
  27 H :    0.113647
  28 H :    0.107656
  29 H :    0.111744
  30 H :    0.114300
  31 H :    0.113073
  32 H :    0.114730
  33 H :    0.120946
  34 H :    0.111984
  35 H :    0.114998
  36 H :    0.122649
  37 H :    0.113952
Sum of atomic charges:   -0.0000000

LOEWDIN ATOMIC CHARGES
----------------------
   0 C :   -0.350816
   1 C :   -0.108427
   2 O :   -0.034744
   3 C :    0.034268
   4 O :   -0.163455
   5 C :   -0.254058
   6 C :   -0.263834
   7 H :    0.151323
   8 C :    0.004812
   9 O :   -0.151416
  10 O :   -0.070627
  11 C :   -0.105523
  12 C :   -0.350905
  13 S :    0.117604
  14 P :    0.578215
  15 S :   -0.339724
  16 O :   -0.219977
  17 C :   -0.207151
  18 O :   -0.254979
  19 C :   -0.219356
  20 H :    0.124468
  21 H :    0.132088
  22 H :    0.129028
  23 H :    0.116070
  24 H :    0.119833
  25 H :    0.148988
  26 H :    0.149391
  27 H :    0.119795
  28 H :    0.116933
  29 H :    0.124755
  30 H :    0.126324
  31 H :    0.131419
  32 H :    0.115374
  33 H :    0.113690
  34 H :    0.104974
  35 H :    0.107394
  36 H :    0.121225
  37 H :    0.107019

  Mayer bond orders larger than 0.100000
B(  0-C ,  1-C ) :   1.1553 B(  0-C , 20-H ) :   0.9517 B(  0-C , 21-H ) :   0.9438
B(  0-C , 22-H ) :   0.9480 B(  1-C ,  2-O ) :   0.8932 B(  1-C , 23-H ) :   0.9240
B(  1-C , 24-H ) :   0.9220 B(  2-O ,  3-C ) :   1.2918 B(  3-C ,  4-O ) :   1.8748
B(  3-C ,  5-C ) :   1.0129 B(  5-C ,  6-C ) :   1.0323 B(  5-C , 25-H ) :   0.8879
B(  5-C , 26-H ) :   0.8709 B(  6-C ,  7-H ) :   0.8654 B(  6-C ,  8-C ) :   0.8703
B(  6-C , 13-S ) :   1.0611 B(  8-C ,  9-O ) :   2.1062 B(  8-C , 10-O ) :   1.2073
B( 10-O , 11-C ) :   0.9073 B( 11-C , 12-C ) :   1.1536 B( 11-C , 27-H ) :   0.9234
B( 11-C , 28-H ) :   0.9327 B( 12-C , 29-H ) :   0.9491 B( 12-C , 30-H ) :   0.9515
B( 12-C , 31-H ) :   0.9439 B( 13-S , 14-P ) :   0.9737 B( 13-S , 15-S ) :   0.1137
B( 14-P , 15-S ) :   1.5618 B( 14-P , 16-O ) :   1.1569 B( 14-P , 18-O ) :   1.0817
B( 16-O , 17-C ) :   0.9259 B( 17-C , 32-H ) :   0.9539 B( 17-C , 33-H ) :   0.9513
B( 17-C , 34-H ) :   0.9307 B( 18-O , 19-C ) :   0.9404 B( 19-C , 35-H ) :   0.9482
B( 19-C , 36-H ) :   0.9594 B( 19-C , 37-H ) :   0.9296

Dispersion correction           -0.053759786
FINAL SINGLE POINT ENERGY     -1979.009203169994

DIPOLE MOMENT
-------------

Method             : SCF
Type of density    : Electron Density
Multiplicity       :   1
Irrep              :   0
Energy             : -1979.1392682055998193 Eh
Relativity type    :
Basis              : AO
                                X                 Y                 Z
Electronic contribution:    -18.176327911      -3.297337709      -7.606866426
Nuclear contribution   :     19.861294616       3.633257054       7.541830099
                        -----------------------------------------
Total Dipole Moment    :      1.684966705       0.335919345      -0.065036326
                        -----------------------------------------
Magnitude (a.u.)       :      1.719355788
Magnitude (Debye)      :      4.370255103

Rotational constants in cm-1:             0.012176             0.008388             0.006320
Rotational constants in MHz :           365.026168           251.478046           189.475962

                             ****ORCA TERMINATED NORMALLY****
TOTAL RUN TIME: 0 days 0 hours 0 minutes 40 seconds 114 msec
