                         Program Version 6.0.0  -   RELEASE  -
|  1> ! pbe def2-sv(p) def2/J RI DEFGRID1 loosescf d4 GCP(DFT/SV(P)) printgap
|  2> %output
|  3>     printlevel normal
|  4> end
|  5> * xyz 0 1
|  6> C 3.7119563966 -2.2669252182 1.6002770207
|  7> C 2.3298731162 -2.215917657 0.9820917725
|  8> O 1.8914012307 -0.8548266238 0.7998906753
|  9> P 2.4702322065 0.0704184548 -0.3707962248
| 10> S 3.1437375338 -0.8835542921 -1.9365117073
| 11> O 3.5847267061 0.9894254703 0.2776533914
| 12> C 3.4188900824 1.6918468875 1.53424007
| 13> C 3.0083936439 3.1319488771 1.3022376519
| 14> S 0.8025953605 1.3349772655 -0.6839849504
| 15> C -0.131528605 0.157099787 -1.6956619761
| 16> S -1.0044440128 -1.077100763 -0.7169132786
| 17> P -2.5186861189 0.2513495295 0.0089191286
| 18> S -3.0893218637 1.5893423599 -1.3057750397
| 19> O -1.9896435132 0.9982218523 1.2909272738
| 20> C -1.886034142 0.4602580805 2.6320689602
| 21> C -0.9516474567 -0.728051964 2.7186222682
| 22> O -3.6072138007 -0.724965826 0.6261468712
| 23> C -4.1708425554 -1.8703706989 -0.0397509546
| 24> C -4.8029054793 -1.523393938 -1.3710275345
| 25> H 3.7233055664 -1.7460452144 2.5540873554
| 26> H 3.9998061342 -3.3022066097 1.7526737994
| 27> H 4.4306121008 -1.795957615 0.9296313325
| 28> H 1.5725368802 -2.6569668105 1.631212044
| 29> H 2.322080446 -2.7168219408 0.0094478187
| 30> H 2.6829054685 1.1627642011 2.1438932335
| 31> H 4.4021159235 1.6339972686 2.0044522773
| 32> H 3.7218659434 3.6211553556 0.6448560914
| 33> H 2.0223950483 3.1821587278 0.8437832468
| 34> H 2.9837033108 3.6521932408 2.2547030953
| 35> H 0.5566834815 -0.3728459886 -2.3556336528
| 36> H -0.8593658808 0.7407668796 -2.2619539995
| 37> H -1.5117412647 1.308585207 3.2074398622
| 38> H -2.8896957742 0.1950368194 2.9693652595
| 39> H -0.826316206 -1.003427426 3.7612784828
| 40> H -1.362485273 -1.5759464921 2.1738754887
| 41> H 0.0177686758 -0.4776852869 2.2948607407
| 42> H -3.3792337818 -2.6132879363 -0.1709636847
| 43> H -4.9137382402 -2.2382502295 0.6703315031
| 44> H -5.2898989628 -2.4029364812 -1.7795533508
| 45> H -5.535761525 -0.7294551049 -1.2482802911
| 46> H -4.0425086866 -1.1812398866 -2.0715260665
| 47> *
| 48>
| 49>                          ****END OF INPUT****

CARTESIAN COORDINATES (ANGSTROEM)
---------------------------------
  C      3.711956   -2.266925    1.600277
  C      2.329873   -2.215918    0.982092
  O      1.891401   -0.854827    0.799891
  P      2.470232    0.070418   -0.370796
  S      3.143738   -0.883554   -1.936512
  O      3.584727    0.989425    0.277653
  C      3.418890    1.691847    1.534240
  C      3.008394    3.131949    1.302238
  S      0.802595    1.334977   -0.683985
  C     -0.131529    0.157100   -1.695662
  S     -1.004444   -1.077101   -0.716913
  P     -2.518686    0.251350    0.008919
  S     -3.089322    1.589342   -1.305775
  O     -1.989644    0.998222    1.290927
  C     -1.886034    0.460258    2.632069
  C     -0.951647   -0.728052    2.718622
  O     -3.607214   -0.724966    0.626147
  C     -4.170843   -1.870371   -0.039751
  C     -4.802905   -1.523394   -1.371028
  H      3.723306   -1.746045    2.554087
  H      3.999806   -3.302207    1.752674
  H      4.430612   -1.795958    0.929631
  H      1.572537   -2.656967    1.631212
  H      2.322080   -2.716822    0.009448
  H      2.682905    1.162764    2.143893
  H      4.402116    1.633997    2.004452
  H      3.721866    3.621155    0.644856
  H      2.022395    3.182159    0.843783
  H      2.983703    3.652193    2.254703
  H      0.556683   -0.372846   -2.355634
  H     -0.859366    0.740767   -2.261954
  H     -1.511741    1.308585    3.207440
  H     -2.889696    0.195037    2.969365
  H     -0.826316   -1.003427    3.761278
  H     -1.362485   -1.575946    2.173875
  H      0.017769   -0.477685    2.294861
  H     -3.379234   -2.613288   -0.170964
  H     -4.913738   -2.238250    0.670332
  H     -5.289899   -2.402936   -1.779553
  H     -5.535762   -0.729455   -1.248280
  H     -4.042509   -1.181240   -2.071526

 Total Charge           Charge          ....    0
 Multiplicity           Mult            ....    1
 Number of Electrons    NEL             ....  202
 Basis Dimension        Dim             ....  334

ORBITAL ENERGIES
----------------

  NO   OCC          E(Eh)            E(eV)
   0   2.0000     -88.041912     -2395.7422
   1   2.0000     -88.040799     -2395.7119
   2   2.0000     -87.987775     -2394.2691
   3   2.0000     -87.981253     -2394.0916
   4   2.0000     -76.427809     -2079.7064
   5   2.0000     -76.427499     -2079.6980
   6   2.0000     -18.800185      -511.5790
   7   2.0000     -18.799046      -511.5480
   8   2.0000     -18.795440      -511.4499
   9   2.0000     -18.789120      -511.2780
  10   2.0000      -9.963716      -271.1265
  11   2.0000      -9.963050      -271.1084
  12   2.0000      -9.957179      -270.9486
  13   2.0000      -9.954322      -270.8709
  14   2.0000      -9.949379      -270.7364
  15   2.0000      -9.892550      -269.1900
  16   2.0000      -9.889749      -269.1138
  17   2.0000      -9.887877      -269.0628
  18   2.0000      -9.884936      -268.9828
  19   2.0000      -7.686719      -209.1663
  20   2.0000      -7.685905      -209.1441
  21   2.0000      -7.633036      -207.7055
  22   2.0000      -7.626546      -207.5289
  23   2.0000      -6.425544      -174.8479
  24   2.0000      -6.424770      -174.8269
  25   2.0000      -5.714369      -155.4959
  26   2.0000      -5.713695      -155.4776
  27   2.0000      -5.711325      -155.4131
  28   2.0000      -5.710633      -155.3942
  29   2.0000      -5.703874      -155.2103
  30   2.0000      -5.702740      -155.1795
  31   2.0000      -5.662064      -154.0726
  32   2.0000      -5.655659      -153.8983
  33   2.0000      -5.653652      -153.8437
  34   2.0000      -5.653024      -153.8266
  35   2.0000      -5.647130      -153.6662
  36   2.0000      -5.646505      -153.6492
  37   2.0000      -4.648586      -126.4945
  38   2.0000      -4.647902      -126.4759
  39   2.0000      -4.646858      -126.4474
  40   2.0000      -4.646573      -126.4397
  41   2.0000      -4.645949      -126.4227
  42   2.0000      -4.644751      -126.3901
  43   2.0000      -0.991266       -26.9737
  44   2.0000      -0.989906       -26.9367
  45   2.0000      -0.949335       -25.8327
  46   2.0000      -0.946074       -25.7440
  47   2.0000      -0.764417       -20.8008
  48   2.0000      -0.724781       -19.7223
  49   2.0000      -0.713995       -19.4288
  50   2.0000      -0.696465       -18.9518
  51   2.0000      -0.694070       -18.8866
  52   2.0000      -0.678281       -18.4570
  53   2.0000      -0.651949       -17.7404
  54   2.0000      -0.637208       -17.3393
  55   2.0000      -0.596807       -16.2400
  56   2.0000      -0.591552       -16.0970
  57   2.0000      -0.584606       -15.9079
  58   2.0000      -0.583443       -15.8763
  59   2.0000      -0.559436       -15.2230
  60   2.0000      -0.505598       -13.7580
  61   2.0000      -0.499029       -13.5793
  62   2.0000      -0.484007       -13.1705
  63   2.0000      -0.473123       -12.8743
  64   2.0000      -0.462201       -12.5771
  65   2.0000      -0.451414       -12.2836
  66   2.0000      -0.444645       -12.0994
  67   2.0000      -0.435750       -11.8573
  68   2.0000      -0.435482       -11.8501
  69   2.0000      -0.418045       -11.3756
  70   2.0000      -0.412842       -11.2340
  71   2.0000      -0.408163       -11.1067
  72   2.0000      -0.403370       -10.9763
  73   2.0000      -0.388339       -10.5673
  74   2.0000      -0.376754       -10.2520
  75   2.0000      -0.376541       -10.2462
  76   2.0000      -0.362356        -9.8602
  77   2.0000      -0.360985        -9.8229
  78   2.0000      -0.356599        -9.7035
  79   2.0000      -0.355383        -9.6705
  80   2.0000      -0.352038        -9.5794
  81   2.0000      -0.349401        -9.5077
  82   2.0000      -0.346212        -9.4209
  83   2.0000      -0.343410        -9.3447
  84   2.0000      -0.337233        -9.1766
  85   2.0000      -0.328700        -8.9444
  86   2.0000      -0.318738        -8.6733
  87   2.0000      -0.306058        -8.3283
  88   2.0000      -0.300099        -8.1661
  89   2.0000      -0.293232        -7.9792
  90   2.0000      -0.284842        -7.7509
  91   2.0000      -0.280139        -7.6230
  92   2.0000      -0.274801        -7.4777
  93   2.0000      -0.273332        -7.4377
  94   2.0000      -0.256128        -6.9696
  95   2.0000      -0.232831        -6.3357
  96   2.0000      -0.219322        -5.9680
  97   2.0000      -0.210801        -5.7362
  98   2.0000      -0.201323        -5.4783
  99   2.0000      -0.199523        -5.4293
 100   2.0000      -0.194532        -5.2935
 101   0.0000      -0.044681        -1.2158
 102   0.0000      -0.024671        -0.6713
 103   0.0000      -0.007849        -0.2136
 104   0.0000       0.000049         0.0013
 105   0.0000       0.010697         0.2911

MULLIKEN ATOMIC CHARGES
-----------------------
   0 C :   -0.312517
   1 C :   -0.005152
   2 O :   -0.382305
   3 P :    0.618857
   4 S :   -0.310916
   5 O :   -0.365925
   6 C :   -0.034067
   7 C :   -0.301179
   8 S :   -0.082986
   9 C :   -0.363118
  10 S :   -0.110478
  11 P :    0.610839
  12 S :   -0.312382
  13 O :   -0.352990
  14 C :    0.014707
  15 C :   -0.361371
  16 O :   -0.385193
  17 C :   -0.012114
  18 C :   -0.307910
  19 H :    0.109915
  20 H :    0.114890
  21 H :    0.129835
  22 H :    0.105097
  23 H :    0.113448
  24 H :    0.113533
  25 H :    0.112607
  26 H :    0.126551
  27 H :    0.140631
  28 H :    0.112891
  29 H :    0.187657
  30 H :    0.199896
  31 H :    0.105918
  32 H :    0.108278
  33 H :    0.107995
  34 H :    0.116476
  35 H :    0.161138
  36 H :    0.113364
  37 H :    0.108613
  38 H :    0.111903
  39 H :    0.127414
  40 H :    0.128148
Sum of atomic charges:    0.0000000

LOEWDIN ATOMIC CHARGES
----------------------
   0 C :   -0.364463
   1 C :   -0.121533
   2 O :   -0.248700
   3 P :    0.572479
   4 S :   -0.306838
   5 O :   -0.240968
   6 C :   -0.117091
   7 C :   -0.360678
   8 S :    0.091343
   9 C :   -0.490339
  10 S :    0.067558
  11 P :    0.571167
  12 S :   -0.306788
  13 O :   -0.234305
  14 C :   -0.106156
  15 C :   -0.378173
  16 O :   -0.245080
  17 C :   -0.114428
  18 C :   -0.368565
  19 H :    0.121648
  20 H :    0.132088
  21 H :    0.126315
  22 H :    0.116035
  23 H :    0.110083
  24 H :    0.109481
  25 H :    0.122106
  26 H :    0.132226
  27 H :    0.122108
  28 H :    0.131941
  29 H :    0.127693
  30 H :    0.129056
  31 H :    0.121017
  32 H :    0.113941
  33 H :    0.128289
  34 H :    0.115652
  35 H :    0.128743
  36 H :    0.107826
  37 H :    0.120775
  38 H :    0.130559
  39 H :    0.131105
  40 H :    0.122872

  Mayer bond orders larger than 0.100000
B(  0-C ,  1-C ) :   1.1623 B(  0-C , 19-H ) :   0.9475 B(  0-C , 20-H ) :   0.9402
B(  0-C , 21-H ) :   0.9359 B(  1-C ,  2-O ) :   0.8993 B(  1-C , 22-H ) :   0.9312
B(  1-C , 23-H ) :   0.9110 B(  2-O ,  3-P ) :   1.0582 B(  3-P ,  4-S ) :   1.6298
B(  3-P ,  5-O ) :   1.1280 B(  3-P ,  8-S ) :   0.9729 B(  4-S ,  8-S ) :   0.1026
B(  5-O ,  6-C ) :   0.8983 B(  6-C ,  7-C ) :   1.1691 B(  6-C , 24-H ) :   0.9150
B(  6-C , 25-H ) :   0.9333 B(  7-C , 26-H ) :   0.9457 B(  7-C , 27-H ) :   0.9327
B(  7-C , 28-H ) :   0.9381 B(  8-S ,  9-C ) :   1.0034 B(  9-C , 10-S ) :   1.0109
B(  9-C , 29-H ) :   0.8647 B(  9-C , 30-H ) :   0.8618 B( 10-S , 11-P ) :   0.9313
B( 10-S , 12-S ) :   0.1135 B( 11-P , 12-S ) :   1.6424 B( 11-P , 13-O ) :   1.1405
B( 11-P , 16-O ) :   1.0800 B( 13-O , 14-C ) :   0.9009 B( 14-C , 15-C ) :   1.1688
B( 14-C , 31-H ) :   0.9347 B( 14-C , 32-H ) :   0.9295 B( 15-C , 33-H ) :   0.9347
B( 15-C , 34-H ) :   0.9403 B( 15-C , 35-H ) :   0.9181 B( 16-O , 17-C ) :   0.9088
B( 17-C , 18-C ) :   1.1686 B( 17-C , 36-H ) :   0.9252 B( 17-C , 37-H ) :   0.9333
B( 18-C , 38-H ) :   0.9348 B( 18-C , 39-H ) :   0.9433 B( 18-C , 40-H ) :   0.9317

Dispersion correction           -0.065615302
FINAL SINGLE POINT ENERGY     -2929.514617678949

DIPOLE MOMENT
-------------

Method             : SCF
Type of density    : Electron Density
Multiplicity       :   1
Irrep              :   0
Energy             : -2929.6354057032340279 Eh
Relativity type    :
Basis              : AO
                                X                 Y                 Z
Electronic contribution:     -1.827593021       7.981654802     -17.014675699
Nuclear contribution   :      1.757968412      -9.049754602      19.226111988
                        -----------------------------------------
Total Dipole Moment    :     -0.069624609      -1.068099800       2.211436289
                        -----------------------------------------
Magnitude (a.u.)       :      2.456854743
Magnitude (Debye)      :      6.244828473

Rotational constants in cm-1:             0.012390             0.004789             0.004723
Rotational constants in MHz :           371.436215           143.578409           141.601139

                             ****ORCA TERMINATED NORMALLY****
TOTAL RUN TIME: 0 days 0 hours 0 minutes 21 seconds 722 msec
