                         Program Version 6.0.0  -   RELEASE  -
|  1> ! pbe def2-sv(p) def2/J RI DEFGRID1 loosescf d4 GCP(DFT/SV(P)) printgap
|  2> %output
|  3>     printlevel normal
|  4> end
|  5> * xyz 0 1
|  6> C 4.0695449382 -2.6905873696 -0.3153137542
|  7> C 4.6182804526 -1.3600563437 0.1581934305
|  8> O 3.5949099046 -0.5214353514 0.7224139266
|  9> P 2.4215214576 0.0966208516 -0.1524330042
| 10> S 2.9417318125 0.7220438853 -1.9418827742
| 11> O 1.8323123592 1.195405944 0.8255722351
| 12> C 2.2593875772 2.5704368138 0.7867041267
| 13> C 3.6872370074 2.7269569209 1.2659494546
| 14> S 0.8720666275 -1.3313211939 -0.0487354319
| 15> C -0.1333045162 -0.6289517456 -1.376533983
| 16> S -0.9693069259 0.9293986966 -0.9281146449
| 17> P -2.6274648972 0.1384091845 0.0997623831
| 18> S -3.9693994682 1.4090693747 0.7500413675
| 19> O -2.0731990497 -0.8557759753 1.222090846
| 20> C -1.9389060602 -0.4582691859 2.5954303493
| 21> C -0.8723881511 0.6012242825 2.7808405374
| 22> O -3.1172666736 -0.8924221966 -1.0028112228
| 23> C -4.3194731722 -1.6703079696 -0.7913045557
| 24> C -4.7742174119 -2.1986360314 -2.1356604118
| 25> H 3.5057821831 -3.1715640784 0.4800310966
| 26> H 3.4110373652 -2.5390618182 -1.1696081276
| 27> H 4.8919066708 -3.3324029295 -0.6148165399
| 28> H 5.0878898176 -0.821816188 -0.6713493573
| 29> H 5.3329099021 -1.4848385436 0.9727796652
| 30> H 2.1485476908 2.9387936417 -0.2383641858
| 31> H 1.5519768873 3.0843091802 1.4388941986
| 32> H 3.8041636752 2.2796776089 2.2495187347
| 33> H 4.3664653566 2.2340808722 0.5712008543
| 34> H 3.9375873193 3.7820347055 1.3147517001
| 35> H -0.8771720079 -1.3693503185 -1.6524388908
| 36> H 0.5130869229 -0.3800625139 -2.2190711178
| 37> H -2.908179108 -0.0838616366 2.9403853696
| 38> H -1.6854472638 -1.3835888016 3.1139852322
| 39> H -0.7899884702 0.8503080527 3.8338315299
| 40> H 0.089972653 0.2481014736 2.4184622757
| 41> H -1.1489527433 1.4987671791 2.2259700868
| 42> H -4.0800810816 -2.4805976189 -0.0986287725
| 43> H -5.0760971784 -1.0211230623 -0.3376800984
| 44> H -4.9750225364 -1.3723827922 -2.811916777
| 45> H -4.0049264871 -2.8303205557 -2.5702009403
| 46> H -5.6810897391 -2.7789895556 -2.0002718455
| 47> *
| 48>
| 49>                          ****END OF INPUT****

CARTESIAN COORDINATES (ANGSTROEM)
---------------------------------
  C      4.069545   -2.690587   -0.315314
  C      4.618280   -1.360056    0.158193
  O      3.594910   -0.521435    0.722414
  P      2.421521    0.096621   -0.152433
  S      2.941732    0.722044   -1.941883
  O      1.832312    1.195406    0.825572
  C      2.259388    2.570437    0.786704
  C      3.687237    2.726957    1.265949
  S      0.872067   -1.331321   -0.048735
  C     -0.133305   -0.628952   -1.376534
  S     -0.969307    0.929399   -0.928115
  P     -2.627465    0.138409    0.099762
  S     -3.969399    1.409069    0.750041
  O     -2.073199   -0.855776    1.222091
  C     -1.938906   -0.458269    2.595430
  C     -0.872388    0.601224    2.780841
  O     -3.117267   -0.892422   -1.002811
  C     -4.319473   -1.670308   -0.791305
  C     -4.774217   -2.198636   -2.135660
  H      3.505782   -3.171564    0.480031
  H      3.411037   -2.539062   -1.169608
  H      4.891907   -3.332403   -0.614817
  H      5.087890   -0.821816   -0.671349
  H      5.332910   -1.484839    0.972780
  H      2.148548    2.938794   -0.238364
  H      1.551977    3.084309    1.438894
  H      3.804164    2.279678    2.249519
  H      4.366465    2.234081    0.571201
  H      3.937587    3.782035    1.314752
  H     -0.877172   -1.369350   -1.652439
  H      0.513087   -0.380063   -2.219071
  H     -2.908179   -0.083862    2.940385
  H     -1.685447   -1.383589    3.113985
  H     -0.789988    0.850308    3.833832
  H      0.089973    0.248101    2.418462
  H     -1.148953    1.498767    2.225970
  H     -4.080081   -2.480598   -0.098629
  H     -5.076097   -1.021123   -0.337680
  H     -4.975023   -1.372383   -2.811917
  H     -4.004926   -2.830321   -2.570201
  H     -5.681090   -2.778990   -2.000272

 Total Charge           Charge          ....    0
 Multiplicity           Mult            ....    1
 Number of Electrons    NEL             ....  202
 Basis Dimension        Dim             ....  334

ORBITAL ENERGIES
----------------

  NO   OCC          E(Eh)            E(eV)
   0   2.0000     -88.046314     -2395.8620
   1   2.0000     -88.041096     -2395.7200
   2   2.0000     -87.995524     -2394.4799
   3   2.0000     -87.984496     -2394.1798
   4   2.0000     -76.431821     -2079.8156
   5   2.0000     -76.423600     -2079.5919
   6   2.0000     -18.800387      -511.5845
   7   2.0000     -18.794174      -511.4155
   8   2.0000     -18.792578      -511.3721
   9   2.0000     -18.787964      -511.2465
  10   2.0000      -9.958351      -270.9805
  11   2.0000      -9.956571      -270.9321
  12   2.0000      -9.953206      -270.8405
  13   2.0000      -9.952381      -270.8181
  14   2.0000      -9.945501      -270.6308
  15   2.0000      -9.889144      -269.0973
  16   2.0000      -9.889076      -269.0954
  17   2.0000      -9.885717      -269.0040
  18   2.0000      -9.873037      -268.6590
  19   2.0000      -7.691602      -209.2991
  20   2.0000      -7.686464      -209.1593
  21   2.0000      -7.640333      -207.9040
  22   2.0000      -7.629678      -207.6141
  23   2.0000      -6.429497      -174.9555
  24   2.0000      -6.421546      -174.7392
  25   2.0000      -5.719365      -155.6318
  26   2.0000      -5.716230      -155.5465
  27   2.0000      -5.714697      -155.5048
  28   2.0000      -5.710845      -155.4000
  29   2.0000      -5.708469      -155.3353
  30   2.0000      -5.703161      -155.1909
  31   2.0000      -5.669091      -154.2638
  32   2.0000      -5.661023      -154.0443
  33   2.0000      -5.660639      -154.0338
  34   2.0000      -5.658675      -153.9804
  35   2.0000      -5.650403      -153.7553
  36   2.0000      -5.649664      -153.7352
  37   2.0000      -4.651909      -126.5849
  38   2.0000      -4.651171      -126.5648
  39   2.0000      -4.650153      -126.5371
  40   2.0000      -4.644033      -126.3706
  41   2.0000      -4.643444      -126.3545
  42   2.0000      -4.641932      -126.3134
  43   2.0000      -0.992599       -27.0100
  44   2.0000      -0.985218       -26.8091
  45   2.0000      -0.951669       -25.8962
  46   2.0000      -0.942276       -25.6406
  47   2.0000      -0.766114       -20.8470
  48   2.0000      -0.724842       -19.7239
  49   2.0000      -0.709549       -19.3078
  50   2.0000      -0.690864       -18.7994
  51   2.0000      -0.682463       -18.5708
  52   2.0000      -0.676365       -18.4048
  53   2.0000      -0.655768       -17.8443
  54   2.0000      -0.639751       -17.4085
  55   2.0000      -0.606291       -16.4980
  56   2.0000      -0.588849       -16.0234
  57   2.0000      -0.576482       -15.6869
  58   2.0000      -0.569997       -15.5104
  59   2.0000      -0.561280       -15.2732
  60   2.0000      -0.504457       -13.7270
  61   2.0000      -0.497004       -13.5242
  62   2.0000      -0.478107       -13.0100
  63   2.0000      -0.468350       -12.7444
  64   2.0000      -0.460019       -12.5177
  65   2.0000      -0.444732       -12.1018
  66   2.0000      -0.443638       -12.0720
  67   2.0000      -0.438686       -11.9372
  68   2.0000      -0.428682       -11.6650
  69   2.0000      -0.419940       -11.4272
  70   2.0000      -0.410460       -11.1692
  71   2.0000      -0.396750       -10.7961
  72   2.0000      -0.394582       -10.7371
  73   2.0000      -0.391268       -10.6469
  74   2.0000      -0.388346       -10.5674
  75   2.0000      -0.377298       -10.2668
  76   2.0000      -0.364086        -9.9073
  77   2.0000      -0.359998        -9.7960
  78   2.0000      -0.355324        -9.6689
  79   2.0000      -0.352823        -9.6008
  80   2.0000      -0.350340        -9.5332
  81   2.0000      -0.343965        -9.3598
  82   2.0000      -0.342440        -9.3183
  83   2.0000      -0.334697        -9.1076
  84   2.0000      -0.330149        -8.9838
  85   2.0000      -0.322436        -8.7739
  86   2.0000      -0.312795        -8.5116
  87   2.0000      -0.301154        -8.1948
  88   2.0000      -0.296644        -8.0721
  89   2.0000      -0.291523        -7.9328
  90   2.0000      -0.286200        -7.7879
  91   2.0000      -0.278826        -7.5872
  92   2.0000      -0.272873        -7.4253
  93   2.0000      -0.269718        -7.3394
  94   2.0000      -0.257948        -7.0191
  95   2.0000      -0.232918        -6.3380
  96   2.0000      -0.219112        -5.9624
  97   2.0000      -0.215381        -5.8608
  98   2.0000      -0.208686        -5.6786
  99   2.0000      -0.206348        -5.6150
 100   2.0000      -0.199964        -5.4413
 101   0.0000      -0.042587        -1.1588
 102   0.0000      -0.022005        -0.5988
 103   0.0000      -0.015642        -0.4256
 104   0.0000       0.003331         0.0906
 105   0.0000       0.009889         0.2691

MULLIKEN ATOMIC CHARGES
-----------------------
   0 C :   -0.316562
   1 C :   -0.005843
   2 O :   -0.371430
   3 P :    0.611039
   4 S :   -0.332222
   5 O :   -0.354396
   6 C :   -0.003329
   7 C :   -0.308346
   8 S :   -0.064870
   9 C :   -0.375667
  10 S :   -0.055459
  11 P :    0.610475
  12 S :   -0.322045
  13 O :   -0.385468
  14 C :    0.002396
  15 C :   -0.332903
  16 O :   -0.386051
  17 C :   -0.010144
  18 C :   -0.277992
  19 H :    0.119266
  20 H :    0.127119
  21 H :    0.115423
  22 H :    0.112795
  23 H :    0.107996
  24 H :    0.114456
  25 H :    0.111361
  26 H :    0.117067
  27 H :    0.121152
  28 H :    0.114218
  29 H :    0.193222
  30 H :    0.195475
  31 H :    0.106950
  32 H :    0.099614
  33 H :    0.104372
  34 H :    0.139065
  35 H :    0.119976
  36 H :    0.102363
  37 H :    0.106872
  38 H :    0.123681
  39 H :    0.114121
  40 H :    0.112254
Sum of atomic charges:    0.0000000

LOEWDIN ATOMIC CHARGES
----------------------
   0 C :   -0.369683
   1 C :   -0.118415
   2 O :   -0.242276
   3 P :    0.574039
   4 S :   -0.319985
   5 O :   -0.230762
   6 C :   -0.116514
   7 C :   -0.364481
   8 S :    0.105423
   9 C :   -0.483402
  10 S :    0.098651
  11 P :    0.567028
  12 S :   -0.322038
  13 O :   -0.251823
  14 C :   -0.120752
  15 C :   -0.374374
  16 O :   -0.251632
  17 C :   -0.117536
  18 C :   -0.350048
  19 H :    0.124775
  20 H :    0.121339
  21 H :    0.132287
  22 H :    0.111660
  23 H :    0.120045
  24 H :    0.111976
  25 H :    0.121170
  26 H :    0.126524
  27 H :    0.121753
  28 H :    0.131405
  29 H :    0.135293
  30 H :    0.130514
  31 H :    0.107479
  32 H :    0.116708
  33 H :    0.127385
  34 H :    0.120661
  35 H :    0.118731
  36 H :    0.111899
  37 H :    0.109800
  38 H :    0.130792
  39 H :    0.125070
  40 H :    0.131314

  Mayer bond orders larger than 0.100000
B(  0-C ,  1-C ) :   1.1664 B(  0-C , 19-H ) :   0.9444 B(  0-C , 20-H ) :   0.9352
B(  0-C , 21-H ) :   0.9375 B(  1-C ,  2-O ) :   0.9062 B(  1-C , 22-H ) :   0.9171
B(  1-C , 23-H ) :   0.9337 B(  2-O ,  3-P ) :   1.1116 B(  3-P ,  4-S ) :   1.5868
B(  3-P ,  5-O ) :   1.1267 B(  3-P ,  8-S ) :   0.9665 B(  4-S ,  8-S ) :   0.1097
B(  5-O ,  6-C ) :   0.9022 B(  6-C ,  7-C ) :   1.1628 B(  6-C , 24-H ) :   0.9175
B(  6-C , 25-H ) :   0.9330 B(  7-C , 26-H ) :   0.9463 B(  7-C , 27-H ) :   0.9370
B(  7-C , 28-H ) :   0.9393 B(  8-S ,  9-C ) :   1.0036 B(  9-C , 10-S ) :   0.9827
B(  9-C , 29-H ) :   0.8895 B(  9-C , 30-H ) :   0.8719 B( 10-S , 11-P ) :   0.9899
B( 11-P , 12-S ) :   1.6514 B( 11-P , 13-O ) :   1.0802 B( 11-P , 16-O ) :   1.0922
B( 13-O , 14-C ) :   0.9064 B( 14-C , 15-C ) :   1.1639 B( 14-C , 31-H ) :   0.9157
B( 14-C , 32-H ) :   0.9326 B( 15-C , 33-H ) :   0.9377 B( 15-C , 34-H ) :   0.9294
B( 15-C , 35-H ) :   0.9338 B( 16-O , 17-C ) :   0.8946 B( 17-C , 18-C ) :   1.1622
B( 17-C , 36-H ) :   0.9303 B( 17-C , 37-H ) :   0.9100 B( 18-C , 38-H ) :   0.9499
B( 18-C , 39-H ) :   0.9518 B( 18-C , 40-H ) :   0.9415

Dispersion correction           -0.064343747
FINAL SINGLE POINT ENERGY     -2929.524513095869

DIPOLE MOMENT
-------------

Method             : SCF
Type of density    : Electron Density
Multiplicity       :   1
Irrep              :   0
Energy             : -2929.6459231693861511 Eh
Relativity type    :
Basis              : AO
                                X                 Y                 Z
Electronic contribution:     -6.374291550       6.687445458      -6.267053995
Nuclear contribution   :      7.176033631      -7.906949376       6.867830803
                        -----------------------------------------
Total Dipole Moment    :      0.801742081      -1.219503918       0.600776808
                        -----------------------------------------
Magnitude (a.u.)       :      1.578262634
Magnitude (Debye)      :      4.011624808

Rotational constants in cm-1:             0.013035             0.004539             0.004136
Rotational constants in MHz :           390.784142           136.088766           124.002019

                             ****ORCA TERMINATED NORMALLY****
TOTAL RUN TIME: 0 days 0 hours 0 minutes 21 seconds 397 msec
