                         Program Version 6.0.0  -   RELEASE  -
|  1> ! pbe def2-sv(p) def2/J RI DEFGRID1 loosescf d4 GCP(DFT/SV(P)) printgap
|  2> %output
|  3>     printlevel normal
|  4> end
|  5> * xyz 0 1
|  6> C 3.5689930854 0.0516720916 2.3080769063
|  7> C 4.079162316 -0.6688701829 1.0777220394
|  8> O 3.5972783198 -0.0848071735 -0.155111473
|  9> P 2.0777696959 0.0728510464 -0.5891827041
| 10> S 1.9572776864 0.2750198615 -2.5303545152
| 11> O 1.4639072841 1.2762176883 0.268473073
| 12> C 1.4605034567 2.6250109251 -0.2200613086
| 13> C 2.8498574918 3.2273255084 -0.1998359747
| 14> S 1.1496091184 -1.6002292735 0.2788992057
| 15> C -0.1576945009 -1.9324280044 -0.9490750156
| 16> S -1.796131332 -1.981433618 -0.2077857931
| 17> P -1.9778803057 0.1090273056 0.1646901584
| 18> S -1.4596287579 1.2213603091 -1.3669267493
| 19> O -1.1048327045 0.5104479892 1.412926246
| 20> C -1.3966341914 0.2240695761 2.8045836663
| 21> C -1.3725258354 -1.2569508679 3.1211843039
| 22> O -3.4498776961 0.2546865187 0.7376122148
| 23> C -4.6262417523 -0.340825245 0.1587653416
| 24> C -4.8430472066 0.0715285696 -1.2817051442
| 25> H 3.9802525887 -0.4242580048 3.1927108216
| 26> H 3.8700883758 1.0958262694 2.2894097613
| 27> H 2.4824711479 -0.0014573185 2.3481157
| 28> H 3.7846229988 -1.7213346094 1.0944151619
| 29> H 5.163332986 -0.5898872575 0.9830525043
| 30> H 1.0485830616 2.6299194059 -1.2353047284
| 31> H 0.7722070356 3.1484795373 0.4457593147
| 32> H 3.2522033533 3.2187371518 0.8096118108
| 33> H 3.5064633439 2.6498724303 -0.8508947942
| 34> H 2.8027362992 4.2497149017 -0.5613000705
| 35> H 0.0187107124 -2.9188195732 -1.3704618007
| 36> H -0.116256618 -1.1599007663 -1.7229510407
| 37> H -0.6056044165 0.7583983942 3.3336309054
| 38> H -2.3665546901 0.6631083963 3.0442969403
| 39> H -0.4433008983 -1.7054619123 2.7763824261
| 40> H -1.4517821316 -1.3847739819 4.1963167224
| 41> H -2.2063390292 -1.76603478 2.6431670049
| 42> H -4.5339678453 -1.4272952939 0.2392457429
| 43> H -5.4342405298 0.0139576699 0.8010568605
| 44> H -5.7801416281 -0.3428930409 -1.6389672573
| 45> H -4.8716528388 1.1552974709 -1.3670925635
| 46> H -4.0307084491 -0.2985848401 -1.9056464373
| 47> *
| 48>
| 49>                          ****END OF INPUT****

CARTESIAN COORDINATES (ANGSTROEM)
---------------------------------
  C      3.568993    0.051672    2.308077
  C      4.079162   -0.668870    1.077722
  O      3.597278   -0.084807   -0.155111
  P      2.077770    0.072851   -0.589183
  S      1.957278    0.275020   -2.530355
  O      1.463907    1.276218    0.268473
  C      1.460503    2.625011   -0.220061
  C      2.849857    3.227326   -0.199836
  S      1.149609   -1.600229    0.278899
  C     -0.157695   -1.932428   -0.949075
  S     -1.796131   -1.981434   -0.207786
  P     -1.977880    0.109027    0.164690
  S     -1.459629    1.221360   -1.366927
  O     -1.104833    0.510448    1.412926
  C     -1.396634    0.224070    2.804584
  C     -1.372526   -1.256951    3.121184
  O     -3.449878    0.254687    0.737612
  C     -4.626242   -0.340825    0.158765
  C     -4.843047    0.071529   -1.281705
  H      3.980253   -0.424258    3.192711
  H      3.870088    1.095826    2.289410
  H      2.482471   -0.001457    2.348116
  H      3.784623   -1.721335    1.094415
  H      5.163333   -0.589887    0.983053
  H      1.048583    2.629919   -1.235305
  H      0.772207    3.148480    0.445759
  H      3.252203    3.218737    0.809612
  H      3.506463    2.649872   -0.850895
  H      2.802736    4.249715   -0.561300
  H      0.018711   -2.918820   -1.370462
  H     -0.116257   -1.159901   -1.722951
  H     -0.605604    0.758398    3.333631
  H     -2.366555    0.663108    3.044297
  H     -0.443301   -1.705462    2.776382
  H     -1.451782   -1.384774    4.196317
  H     -2.206339   -1.766035    2.643167
  H     -4.533968   -1.427295    0.239246
  H     -5.434241    0.013958    0.801057
  H     -5.780142   -0.342893   -1.638967
  H     -4.871653    1.155297   -1.367093
  H     -4.030708   -0.298585   -1.905646

 Total Charge           Charge          ....    0
 Multiplicity           Mult            ....    1
 Number of Electrons    NEL             ....  202
 Basis Dimension        Dim             ....  334

ORBITAL ENERGIES
----------------

  NO   OCC          E(Eh)            E(eV)
   0   2.0000     -88.045913     -2395.8511
   1   2.0000     -88.041634     -2395.7347
   2   2.0000     -87.977089     -2393.9783
   3   2.0000     -87.974098     -2393.8969
   4   2.0000     -76.425697     -2079.6489
   5   2.0000     -76.417559     -2079.4275
   6   2.0000     -18.798862      -511.5430
   7   2.0000     -18.787542      -511.2350
   8   2.0000     -18.787265      -511.2275
   9   2.0000     -18.775598      -510.9100
  10   2.0000      -9.963111      -271.1100
  11   2.0000      -9.956844      -270.9395
  12   2.0000      -9.956006      -270.9167
  13   2.0000      -9.955706      -270.9085
  14   2.0000      -9.933741      -270.3108
  15   2.0000      -9.890474      -269.1335
  16   2.0000      -9.887244      -269.0456
  17   2.0000      -9.884438      -268.9692
  18   2.0000      -9.874327      -268.6941
  19   2.0000      -7.690907      -209.2802
  20   2.0000      -7.686779      -209.1679
  21   2.0000      -7.621951      -207.4038
  22   2.0000      -7.619337      -207.3327
  23   2.0000      -6.422704      -174.7707
  24   2.0000      -6.415344      -174.5704
  25   2.0000      -5.718646      -155.6123
  26   2.0000      -5.715347      -155.5225
  27   2.0000      -5.714644      -155.5034
  28   2.0000      -5.711277      -155.4118
  29   2.0000      -5.708102      -155.3254
  30   2.0000      -5.703679      -155.2050
  31   2.0000      -5.651050      -153.7729
  32   2.0000      -5.648497      -153.7034
  33   2.0000      -5.642515      -153.5406
  34   2.0000      -5.641982      -153.5261
  35   2.0000      -5.640281      -153.4799
  36   2.0000      -5.638867      -153.4414
  37   2.0000      -4.645780      -126.4181
  38   2.0000      -4.644677      -126.3881
  39   2.0000      -4.642552      -126.3303
  40   2.0000      -4.638099      -126.2091
  41   2.0000      -4.636893      -126.1763
  42   2.0000      -4.635850      -126.1479
  43   2.0000      -0.990102       -26.9420
  44   2.0000      -0.974698       -26.5229
  45   2.0000      -0.944711       -25.7069
  46   2.0000      -0.934519       -25.4296
  47   2.0000      -0.764094       -20.7921
  48   2.0000      -0.720192       -19.5974
  49   2.0000      -0.709993       -19.3199
  50   2.0000      -0.693176       -18.8623
  51   2.0000      -0.688328       -18.7303
  52   2.0000      -0.671979       -18.2855
  53   2.0000      -0.648288       -17.6408
  54   2.0000      -0.631565       -17.1858
  55   2.0000      -0.593388       -16.1469
  56   2.0000      -0.587659       -15.9910
  57   2.0000      -0.582816       -15.8592
  58   2.0000      -0.571780       -15.5589
  59   2.0000      -0.559632       -15.2284
  60   2.0000      -0.501004       -13.6330
  61   2.0000      -0.489214       -13.3122
  62   2.0000      -0.472435       -12.8556
  63   2.0000      -0.466565       -12.6959
  64   2.0000      -0.454992       -12.3810
  65   2.0000      -0.450179       -12.2500
  66   2.0000      -0.439020       -11.9463
  67   2.0000      -0.434892       -11.8340
  68   2.0000      -0.426101       -11.5948
  69   2.0000      -0.413234       -11.2447
  70   2.0000      -0.411523       -11.1981
  71   2.0000      -0.407677       -11.0935
  72   2.0000      -0.399846       -10.8804
  73   2.0000      -0.387501       -10.5444
  74   2.0000      -0.379841       -10.3360
  75   2.0000      -0.362556        -9.8657
  76   2.0000      -0.356422        -9.6987
  77   2.0000      -0.355111        -9.6631
  78   2.0000      -0.353432        -9.6174
  79   2.0000      -0.350485        -9.5372
  80   2.0000      -0.346304        -9.4234
  81   2.0000      -0.344345        -9.3701
  82   2.0000      -0.342136        -9.3100
  83   2.0000      -0.337659        -9.1882
  84   2.0000      -0.330969        -9.0061
  85   2.0000      -0.324830        -8.8391
  86   2.0000      -0.306977        -8.3533
  87   2.0000      -0.300769        -8.1843
  88   2.0000      -0.299380        -8.1465
  89   2.0000      -0.290840        -7.9142
  90   2.0000      -0.278721        -7.5844
  91   2.0000      -0.272312        -7.4100
  92   2.0000      -0.264079        -7.1860
  93   2.0000      -0.260592        -7.0911
  94   2.0000      -0.251559        -6.8453
  95   2.0000      -0.234094        -6.3700
  96   2.0000      -0.219071        -5.9612
  97   2.0000      -0.206071        -5.6075
  98   2.0000      -0.195664        -5.3243
  99   2.0000      -0.188287        -5.1236
 100   2.0000      -0.179817        -4.8931
 101   0.0000      -0.043446        -1.1822
 102   0.0000      -0.029933        -0.8145
 103   0.0000      -0.012900        -0.3510
 104   0.0000       0.007974         0.2170
 105   0.0000       0.017856         0.4859

MULLIKEN ATOMIC CHARGES
-----------------------
   0 C :   -0.328426
   1 C :   -0.015876
   2 O :   -0.375790
   3 P :    0.619078
   4 S :   -0.305768
   5 O :   -0.368866
   6 C :   -0.008844
   7 C :   -0.310095
   8 S :   -0.125241
   9 C :   -0.338237
  10 S :   -0.124359
  11 P :    0.602465
  12 S :   -0.295854
  13 O :   -0.344305
  14 C :    0.004638
  15 C :   -0.323964
  16 O :   -0.382578
  17 C :   -0.017062
  18 C :   -0.307230
  19 H :    0.112108
  20 H :    0.126474
  21 H :    0.135568
  22 H :    0.117134
  23 H :    0.113379
  24 H :    0.125525
  25 H :    0.098498
  26 H :    0.109943
  27 H :    0.126280
  28 H :    0.108701
  29 H :    0.185055
  30 H :    0.215468
  31 H :    0.108988
  32 H :    0.108296
  33 H :    0.132917
  34 H :    0.110087
  35 H :    0.118094
  36 H :    0.115133
  37 H :    0.109689
  38 H :    0.111498
  39 H :    0.127012
  40 H :    0.130468
Sum of atomic charges:   -0.0000000

LOEWDIN ATOMIC CHARGES
----------------------
   0 C :   -0.368954
   1 C :   -0.118085
   2 O :   -0.246727
   3 P :    0.571209
   4 S :   -0.303491
   5 O :   -0.241490
   6 C :   -0.125891
   7 C :   -0.366428
   8 S :    0.077527
   9 C :   -0.474370
  10 S :    0.068658
  11 P :    0.564675
  12 S :   -0.287422
  13 O :   -0.227715
  14 C :   -0.108534
  15 C :   -0.372328
  16 O :   -0.245786
  17 C :   -0.114853
  18 C :   -0.368760
  19 H :    0.130739
  20 H :    0.127591
  21 H :    0.121444
  22 H :    0.108441
  23 H :    0.123724
  24 H :    0.108174
  25 H :    0.115719
  26 H :    0.118032
  27 H :    0.124127
  28 H :    0.129336
  29 H :    0.138513
  30 H :    0.127777
  31 H :    0.120682
  32 H :    0.113429
  33 H :    0.121563
  34 H :    0.129472
  35 H :    0.115940
  36 H :    0.107519
  37 H :    0.121290
  38 H :    0.130325
  39 H :    0.131319
  40 H :    0.123611

  Mayer bond orders larger than 0.100000
B(  0-C ,  1-C ) :   1.1622 B(  0-C , 19-H ) :   0.9353 B(  0-C , 20-H ) :   0.9408
B(  0-C , 21-H ) :   0.9342 B(  1-C ,  2-O ) :   0.9137 B(  1-C , 22-H ) :   0.9187
B(  1-C , 23-H ) :   0.9346 B(  2-O ,  3-P ) :   1.1014 B(  3-P ,  4-S ) :   1.6342
B(  3-P ,  5-O ) :   1.0943 B(  3-P ,  8-S ) :   0.9591 B(  4-S ,  8-S ) :   0.1048
B(  5-O ,  6-C ) :   0.9068 B(  6-C ,  7-C ) :   1.1537 B(  6-C , 24-H ) :   0.9072
B(  6-C , 25-H ) :   0.9345 B(  7-C , 26-H ) :   0.9418 B(  7-C , 27-H ) :   0.9355
B(  7-C , 28-H ) :   0.9398 B(  8-S ,  9-C ) :   0.9964 B(  9-C , 10-S ) :   1.0144
B(  9-C , 29-H ) :   0.9110 B(  9-C , 30-H ) :   0.8395 B( 10-S , 11-P ) :   0.9229
B( 10-S , 12-S ) :   0.1065 B( 11-P , 12-S ) :   1.6590 B( 11-P , 13-O ) :   1.1430
B( 11-P , 16-O ) :   1.0764 B( 13-O , 14-C ) :   0.9006 B( 14-C , 15-C ) :   1.1702
B( 14-C , 31-H ) :   0.9324 B( 14-C , 32-H ) :   0.9285 B( 15-C , 33-H ) :   0.9365
B( 15-C , 34-H ) :   0.9353 B( 15-C , 35-H ) :   0.9401 B( 16-O , 17-C ) :   0.9122
B( 17-C , 18-C ) :   1.1670 B( 17-C , 36-H ) :   0.9251 B( 17-C , 37-H ) :   0.9335
B( 18-C , 38-H ) :   0.9349 B( 18-C , 39-H ) :   0.9434 B( 18-C , 40-H ) :   0.9310

Dispersion correction           -0.069217435
FINAL SINGLE POINT ENERGY     -2929.508501619823

DIPOLE MOMENT
-------------

Method             : SCF
Type of density    : Electron Density
Multiplicity       :   1
Irrep              :   0
Energy             : -2929.6266090789176815 Eh
Relativity type    :
Basis              : AO
                                X                 Y                 Z
Electronic contribution:      0.517097726      -5.926601163     -14.859606000
Nuclear contribution   :     -1.164667206       5.408202846      16.983377041
                        -----------------------------------------
Total Dipole Moment    :     -0.647569480      -0.518398318       2.123771041
                        -----------------------------------------
Magnitude (a.u.)       :      2.280018965
Magnitude (Debye)      :      5.795347645

Rotational constants in cm-1:             0.012413             0.005725             0.005304
Rotational constants in MHz :           372.145167           171.645632           159.004128

                             ****ORCA TERMINATED NORMALLY****
TOTAL RUN TIME: 0 days 0 hours 0 minutes 22 seconds 343 msec
