                         Program Version 6.0.0  -   RELEASE  -
|  1> ! pbe def2-sv(p) def2/J RI DEFGRID1 loosescf d4 GCP(DFT/SV(P)) printgap
|  2> %output
|  3>     printlevel normal
|  4> end
|  5> * xyz 0 1
|  6> C 2.6251669865 0.9922487419 -2.3859566238
|  7> C 1.9948329076 -0.3537410388 -2.0881548797
|  8> O 2.5746138385 -0.9661254098 -0.9256193099
|  9> P 2.1530837384 -0.674182077 0.5813224008
| 10> S 2.3946015038 1.1418613906 1.2933412892
| 11> O 3.006132909 -1.7776085483 1.3303747053
| 12> C 4.3093723876 -1.4997482553 1.8792019362
| 13> C 5.333194024 -1.2579785975 0.7904585703
| 14> S 0.2438591754 -1.5483900012 0.7480487047
| 15> C -0.5864955956 -0.3097051346 1.811934526
| 16> S -2.308805811 -0.0878188529 1.3451718897
| 17> P -1.9874456425 0.6756534096 -0.6229177381
| 18> S -0.551684737 2.0003391559 -0.7668191984
| 19> O -3.4297878484 1.1507750766 -1.0870395071
| 20> C -3.9455561266 2.4655502052 -0.8096794836
| 21> C -4.1491951049 2.7075760576 0.6715287478
| 22> O -1.7155818678 -0.5483715669 -1.582854872
| 23> C -2.7019981951 -1.488719381 -2.0768397947
| 24> C -3.2696115125 -2.366258475 -0.9810326394
| 25> H 2.2244050591 1.3747294804 -3.3192372957
| 26> H 2.39220953 1.702817833 -1.59477953
| 27> H 3.7041914281 0.8932632767 -2.4673564409
| 28> H 2.1908594821 -1.0697251769 -2.8887310862
| 29> H 0.9136293075 -0.2524046846 -1.9481486898
| 30> H 4.2299724817 -0.6265947477 2.5348354337
| 31> H 4.5399130039 -2.3889859982 2.4669318769
| 32> H 5.0758831788 -0.3519229735 0.242586904
| 33> H 6.3150170667 -1.1350868873 1.2367368835
| 34> H 5.3492212223 -2.0942875319 0.0966330444
| 35> H -0.0461068246 0.6376065156 1.7213080239
| 36> H -0.5905275952 -0.6645686176 2.8393685841
| 37> H -3.2528947487 3.2023041682 -1.2279189446
| 38> H -4.8898186393 2.4914094872 -1.3555822698
| 39> H -4.736587693 1.9053940641 1.1107802625
| 40> H -3.1864223776 2.75517185 1.1779983814
| 41> H -4.6649195165 3.6522791528 0.8111604108
| 42> H -3.489744582 -0.9251527642 -2.5796121534
| 43> H -2.1377887433 -2.0742355928 -2.8044553446
| 44> H -3.8667682883 -3.1515288259 -1.4339499163
| 45> H -2.4633017197 -2.8164665777 -0.4056691177
| 46> H -3.8982991652 -1.7844588722 -0.3110954731
| 47> *
| 48>
| 49>                          ****END OF INPUT****

CARTESIAN COORDINATES (ANGSTROEM)
---------------------------------
  C      2.625167    0.992249   -2.385957
  C      1.994833   -0.353741   -2.088155
  O      2.574614   -0.966125   -0.925619
  P      2.153084   -0.674182    0.581322
  S      2.394602    1.141861    1.293341
  O      3.006133   -1.777609    1.330375
  C      4.309372   -1.499748    1.879202
  C      5.333194   -1.257979    0.790459
  S      0.243859   -1.548390    0.748049
  C     -0.586496   -0.309705    1.811935
  S     -2.308806   -0.087819    1.345172
  P     -1.987446    0.675653   -0.622918
  S     -0.551685    2.000339   -0.766819
  O     -3.429788    1.150775   -1.087040
  C     -3.945556    2.465550   -0.809679
  C     -4.149195    2.707576    0.671529
  O     -1.715582   -0.548372   -1.582855
  C     -2.701998   -1.488719   -2.076840
  C     -3.269612   -2.366258   -0.981033
  H      2.224405    1.374729   -3.319237
  H      2.392210    1.702818   -1.594780
  H      3.704191    0.893263   -2.467356
  H      2.190859   -1.069725   -2.888731
  H      0.913629   -0.252405   -1.948149
  H      4.229972   -0.626595    2.534835
  H      4.539913   -2.388986    2.466932
  H      5.075883   -0.351923    0.242587
  H      6.315017   -1.135087    1.236737
  H      5.349221   -2.094288    0.096633
  H     -0.046107    0.637607    1.721308
  H     -0.590528   -0.664569    2.839369
  H     -3.252895    3.202304   -1.227919
  H     -4.889819    2.491409   -1.355582
  H     -4.736588    1.905394    1.110780
  H     -3.186422    2.755172    1.177998
  H     -4.664920    3.652279    0.811160
  H     -3.489745   -0.925153   -2.579612
  H     -2.137789   -2.074236   -2.804455
  H     -3.866768   -3.151529   -1.433950
  H     -2.463302   -2.816467   -0.405669
  H     -3.898299   -1.784459   -0.311095

 Total Charge           Charge          ....    0
 Multiplicity           Mult            ....    1
 Number of Electrons    NEL             ....  202
 Basis Dimension        Dim             ....  334

ORBITAL ENERGIES
----------------

  NO   OCC          E(Eh)            E(eV)
   0   2.0000     -88.045413     -2395.8375
   1   2.0000     -88.036989     -2395.6083
   2   2.0000     -87.984023     -2394.1670
   3   2.0000     -87.982092     -2394.1144
   4   2.0000     -76.429331     -2079.7478
   5   2.0000     -76.419645     -2079.4843
   6   2.0000     -18.800656      -511.5918
   7   2.0000     -18.793214      -511.3894
   8   2.0000     -18.784219      -511.1446
   9   2.0000     -18.780078      -511.0319
  10   2.0000      -9.958740      -270.9911
  11   2.0000      -9.958461      -270.9835
  12   2.0000      -9.951476      -270.7934
  13   2.0000      -9.944411      -270.6012
  14   2.0000      -9.939182      -270.4589
  15   2.0000      -9.888291      -269.0741
  16   2.0000      -9.887595      -269.0551
  17   2.0000      -9.877320      -268.7755
  18   2.0000      -9.867379      -268.5050
  19   2.0000      -7.690200      -209.2610
  20   2.0000      -7.682092      -209.0404
  21   2.0000      -7.628904      -207.5930
  22   2.0000      -7.626929      -207.5393
  23   2.0000      -6.426327      -174.8692
  24   2.0000      -6.417253      -174.6223
  25   2.0000      -5.718136      -155.5984
  26   2.0000      -5.714635      -155.5031
  27   2.0000      -5.709986      -155.3766
  28   2.0000      -5.707236      -155.3018
  29   2.0000      -5.706702      -155.2873
  30   2.0000      -5.698895      -155.0748
  31   2.0000      -5.657852      -153.9580
  32   2.0000      -5.655721      -153.9000
  33   2.0000      -5.649539      -153.7318
  34   2.0000      -5.649004      -153.7172
  35   2.0000      -5.647763      -153.6834
  36   2.0000      -5.646994      -153.6625
  37   2.0000      -4.649446      -126.5179
  38   2.0000      -4.647896      -126.4757
  39   2.0000      -4.646527      -126.4384
  40   2.0000      -4.639564      -126.2489
  41   2.0000      -4.639016      -126.2340
  42   2.0000      -4.637979      -126.2058
  43   2.0000      -0.992423       -27.0052
  44   2.0000      -0.978009       -26.6130
  45   2.0000      -0.948286       -25.8042
  46   2.0000      -0.935893       -25.4669
  47   2.0000      -0.761184       -20.7129
  48   2.0000      -0.720297       -19.6003
  49   2.0000      -0.707080       -19.2406
  50   2.0000      -0.694243       -18.8913
  51   2.0000      -0.676315       -18.4035
  52   2.0000      -0.672546       -18.3009
  53   2.0000      -0.650483       -17.7005
  54   2.0000      -0.632086       -17.1999
  55   2.0000      -0.599580       -16.3154
  56   2.0000      -0.589222       -16.0336
  57   2.0000      -0.582879       -15.8609
  58   2.0000      -0.561007       -15.2658
  59   2.0000      -0.557138       -15.1605
  60   2.0000      -0.500284       -13.6134
  61   2.0000      -0.489340       -13.3156
  62   2.0000      -0.473960       -12.8971
  63   2.0000      -0.464133       -12.6297
  64   2.0000      -0.453268       -12.3340
  65   2.0000      -0.445517       -12.1231
  66   2.0000      -0.441661       -12.0182
  67   2.0000      -0.430625       -11.7179
  68   2.0000      -0.427965       -11.6455
  69   2.0000      -0.416458       -11.3324
  70   2.0000      -0.407143       -11.0789
  71   2.0000      -0.398428       -10.8418
  72   2.0000      -0.394654       -10.7391
  73   2.0000      -0.383905       -10.4466
  74   2.0000      -0.378403       -10.2969
  75   2.0000      -0.370312       -10.0767
  76   2.0000      -0.364890        -9.9292
  77   2.0000      -0.358751        -9.7621
  78   2.0000      -0.353931        -9.6310
  79   2.0000      -0.348237        -9.4760
  80   2.0000      -0.345734        -9.4079
  81   2.0000      -0.340610        -9.2685
  82   2.0000      -0.335686        -9.1345
  83   2.0000      -0.332061        -9.0359
  84   2.0000      -0.324019        -8.8170
  85   2.0000      -0.319960        -8.7066
  86   2.0000      -0.309009        -8.4086
  87   2.0000      -0.299654        -8.1540
  88   2.0000      -0.295981        -8.0540
  89   2.0000      -0.285423        -7.7667
  90   2.0000      -0.277141        -7.5414
  91   2.0000      -0.275485        -7.4963
  92   2.0000      -0.267075        -7.2675
  93   2.0000      -0.263214        -7.1624
  94   2.0000      -0.255178        -6.9437
  95   2.0000      -0.232896        -6.3374
  96   2.0000      -0.218935        -5.9575
  97   2.0000      -0.210282        -5.7221
  98   2.0000      -0.201603        -5.4859
  99   2.0000      -0.193800        -5.2736
 100   2.0000      -0.187996        -5.1156
 101   0.0000      -0.043468        -1.1828
 102   0.0000      -0.032914        -0.8956
 103   0.0000      -0.009521        -0.2591
 104   0.0000       0.011532         0.3138
 105   0.0000       0.018351         0.4993

MULLIKEN ATOMIC CHARGES
-----------------------
   0 C :   -0.300306
   1 C :   -0.028797
   2 O :   -0.374034
   3 P :    0.627550
   4 S :   -0.319346
   5 O :   -0.368820
   6 C :   -0.004159
   7 C :   -0.306956
   8 S :   -0.106711
   9 C :   -0.351171
  10 S :   -0.110244
  11 P :    0.612894
  12 S :   -0.302943
  13 O :   -0.385391
  14 C :    0.002233
  15 C :   -0.323926
  16 O :   -0.353652
  17 C :    0.004221
  18 C :   -0.318955
  19 H :    0.104227
  20 H :    0.140401
  21 H :    0.107030
  22 H :    0.096144
  23 H :    0.128901
  24 H :    0.109096
  25 H :    0.102230
  26 H :    0.125955
  27 H :    0.108584
  28 H :    0.115390
  29 H :    0.214385
  30 H :    0.182212
  31 H :    0.114511
  32 H :    0.105069
  33 H :    0.117835
  34 H :    0.135510
  35 H :    0.116556
  36 H :    0.109884
  37 H :    0.109101
  38 H :    0.112925
  39 H :    0.129470
  40 H :    0.123098
Sum of atomic charges:   -0.0000000

LOEWDIN ATOMIC CHARGES
----------------------
   0 C :   -0.364724
   1 C :   -0.121740
   2 O :   -0.241554
   3 P :    0.568401
   4 S :   -0.297525
   5 O :   -0.246838
   6 C :   -0.118259
   7 C :   -0.365209
   8 S :    0.076195
   9 C :   -0.479567
  10 S :    0.084912
  11 P :    0.569640
  12 S :   -0.294719
  13 O :   -0.248144
  14 C :   -0.115194
  15 C :   -0.371869
  16 O :   -0.235875
  17 C :   -0.107987
  18 C :   -0.369976
  19 H :    0.128222
  20 H :    0.123595
  21 H :    0.120732
  22 H :    0.114229
  23 H :    0.107041
  24 H :    0.108540
  25 H :    0.117396
  26 H :    0.123100
  27 H :    0.128624
  28 H :    0.125822
  29 H :    0.123494
  30 H :    0.135414
  31 H :    0.114552
  32 H :    0.118699
  33 H :    0.123075
  34 H :    0.124276
  35 H :    0.133096
  36 H :    0.114084
  37 H :    0.121977
  38 H :    0.130674
  39 H :    0.125940
  40 H :    0.117448

  Mayer bond orders larger than 0.100000
B(  0-C ,  1-C ) :   1.1702 B(  0-C , 19-H ) :   0.9394 B(  0-C , 20-H ) :   0.9303
B(  0-C , 21-H ) :   0.9460 B(  1-C ,  2-O ) :   0.9025 B(  1-C , 22-H ) :   0.9357
B(  1-C , 23-H ) :   0.9018 B(  2-O ,  3-P ) :   1.1155 B(  3-P ,  4-S ) :   1.6086
B(  3-P ,  5-O ) :   1.1271 B(  3-P ,  8-S ) :   0.9615 B(  4-S ,  8-S ) :   0.1194
B(  5-O ,  6-C ) :   0.9138 B(  6-C ,  7-C ) :   1.1631 B(  6-C , 24-H ) :   0.9146
B(  6-C , 25-H ) :   0.9348 B(  7-C , 26-H ) :   0.9350 B(  7-C , 27-H ) :   0.9386
B(  7-C , 28-H ) :   0.9465 B(  8-S ,  9-C ) :   0.9938 B(  9-C , 10-S ) :   1.0103
B(  9-C , 29-H ) :   0.8438 B(  9-C , 30-H ) :   0.9094 B( 10-S , 11-P ) :   0.9338
B( 10-S , 12-S ) :   0.1087 B( 11-P , 12-S ) :   1.6465 B( 11-P , 13-O ) :   1.0816
B( 11-P , 16-O ) :   1.1162 B( 13-O , 14-C ) :   0.9017 B( 14-C , 15-C ) :   1.1672
B( 14-C , 31-H ) :   0.9183 B( 14-C , 32-H ) :   0.9343 B( 15-C , 33-H ) :   0.9434
B( 15-C , 34-H ) :   0.9335 B( 15-C , 35-H ) :   0.9364 B( 16-O , 17-C ) :   0.8999
B( 17-C , 18-C ) :   1.1703 B( 17-C , 36-H ) :   0.9267 B( 17-C , 37-H ) :   0.9344
B( 18-C , 38-H ) :   0.9354 B( 18-C , 39-H ) :   0.9402 B( 18-C , 40-H ) :   0.9399

Dispersion correction           -0.066858840
FINAL SINGLE POINT ENERGY     -2929.518880933267

DIPOLE MOMENT
-------------

Method             : SCF
Type of density    : Electron Density
Multiplicity       :   1
Irrep              :   0
Energy             : -2929.6372515334055606 Eh
Relativity type    :
Basis              : AO
                                X                 Y                 Z
Electronic contribution:     -0.697612500       0.067445173       7.203213915
Nuclear contribution   :     -0.405202596      -0.752522150      -7.669715407
                        -----------------------------------------
Total Dipole Moment    :     -1.102815096      -0.685076977      -0.466501492
                        -----------------------------------------
Magnitude (a.u.)       :      1.379548927
Magnitude (Debye)      :      3.506534704

Rotational constants in cm-1:             0.013790             0.004825             0.004718
Rotational constants in MHz :           413.425927           144.661049           141.450277

                             ****ORCA TERMINATED NORMALLY****
TOTAL RUN TIME: 0 days 0 hours 0 minutes 21 seconds 269 msec
