                         Program Version 6.0.1  -  RELEASE   -
|  1> ! pbe def2-sv(p) def2/J RI DEFGRID1 loosescf d4 GCP(DFT/SV(P)) printgap
|  2> %output
|  3>     printlevel normal
|  4> end
|  5> * xyz 0 1
|  6> C 4.7821829148 -3.7350182666 -1.3651140289
|  7> C 4.2640714742 -2.4934268318 -0.6659687894
|  8> O 3.2551851332 -1.8947948678 -1.5055442275
|  9> C 2.4055415731 -1.0561537404 -0.9606989696
| 10> O 2.4066590109 -0.7415065544 0.2126189281
| 11> C 1.4184259652 -0.5094630802 -1.9702918198
| 12> C 0.3112297679 0.241326261 -1.2432708341
| 13> H -0.3070843808 0.8041395043 -1.9505756829
| 14> C 0.9209716681 1.2409592128 -0.2731923479
| 15> O 1.8220324692 1.9802067797 -0.5998426656
| 16> O 0.3052030681 1.2587597982 0.8901234798
| 17> C 0.7907622251 2.1410256719 1.9206715511
| 18> C 1.6471121811 1.3632226854 2.9052558734
| 19> S -0.7821717283 -0.9388025756 -0.3839238591
| 20> P -2.2550200808 0.4317485683 0.2990721646
| 21> S -2.391209774 2.1313321249 -0.6641295728
| 22> O -3.582248486 -0.4651536465 0.2199896051
| 23> C -4.1420352262 -0.8525016273 -1.0395495932
| 24> O -2.1473528519 0.6043318581 1.8652640961
| 25> C -2.0449857698 -0.5246434805 2.7547380336
| 26> H 3.9765101053 -4.4492026582 -1.5060555499
| 27> H 5.190271821 -3.4700579237 -2.3356232618
| 28> H 5.5604643962 -4.1878172388 -0.7600313714
| 29> H 5.057457175 -1.7551776227 -0.5153756863
| 30> H 3.8140414055 -2.7246795456 0.304265224
| 31> H 1.0193648152 -1.3228802624 -2.5750030557
| 32> H 1.9577167201 0.1833741151 -2.6201326722
| 33> H 1.3612135684 2.940506526 1.4397297793
| 34> H -0.1068481805 2.5473688955 2.390643806
| 35> H 2.0538717289 2.0456762464 3.6437806236
| 36> H 1.0533580835 0.6021787319 3.4032504336
| 37> H 2.46230905 0.8765750015 2.3738043799
| 38> H -5.1201383579 -1.267206007 -0.8096229863
| 39> H -3.506376677 -1.6011149255 -1.5120156321
| 40> H -4.2404855791 0.0187055926 -1.6891463409
| 41> H -1.1442981532 -1.0945676244 2.5256100718
| 42> H -2.9240025251 -1.158545483 2.6558908304
| 43> H -1.9878474388 -0.0960290713 3.7519741089
| 44> *
| 45>
| 46>                          ****END OF INPUT****

CARTESIAN COORDINATES (ANGSTROEM)
---------------------------------
  C      4.782183   -3.735018   -1.365114
  C      4.264071   -2.493427   -0.665969
  O      3.255185   -1.894795   -1.505544
  C      2.405542   -1.056154   -0.960699
  O      2.406659   -0.741507    0.212619
  C      1.418426   -0.509463   -1.970292
  C      0.311230    0.241326   -1.243271
  H     -0.307084    0.804140   -1.950576
  C      0.920972    1.240959   -0.273192
  O      1.822032    1.980207   -0.599843
  O      0.305203    1.258760    0.890123
  C      0.790762    2.141026    1.920672
  C      1.647112    1.363223    2.905256
  S     -0.782172   -0.938803   -0.383924
  P     -2.255020    0.431749    0.299072
  S     -2.391210    2.131332   -0.664130
  O     -3.582248   -0.465154    0.219990
  C     -4.142035   -0.852502   -1.039550
  O     -2.147353    0.604332    1.865264
  C     -2.044986   -0.524643    2.754738
  H      3.976510   -4.449203   -1.506056
  H      5.190272   -3.470058   -2.335623
  H      5.560464   -4.187817   -0.760031
  H      5.057457   -1.755178   -0.515376
  H      3.814041   -2.724680    0.304265
  H      1.019365   -1.322880   -2.575003
  H      1.957717    0.183374   -2.620133
  H      1.361214    2.940507    1.439730
  H     -0.106848    2.547369    2.390644
  H      2.053872    2.045676    3.643781
  H      1.053358    0.602179    3.403250
  H      2.462309    0.876575    2.373804
  H     -5.120138   -1.267206   -0.809623
  H     -3.506377   -1.601115   -1.512016
  H     -4.240486    0.018706   -1.689146
  H     -1.144298   -1.094568    2.525610
  H     -2.924003   -1.158545    2.655891
  H     -1.987847   -0.096029    3.751974

 Total Charge           Charge          ....    0
 Multiplicity           Mult            ....    1
 Number of Electrons    NEL             ....  174
 Basis Dimension        Dim             ....  316

ORBITAL ENERGIES
----------------

  NO   OCC          E(Eh)            E(eV)
   0   2.0000     -88.036916     -2395.6063
   1   2.0000     -87.978558     -2394.0183
   2   2.0000     -76.422835     -2079.5711
   3   2.0000     -18.812255      -511.9075
   4   2.0000     -18.796225      -511.4713
   5   2.0000     -18.791658      -511.3470
   6   2.0000     -18.788127      -511.2509
   7   2.0000     -18.751484      -510.2538
   8   2.0000     -18.725044      -509.5344
   9   2.0000     -10.019883      -272.6549
  10   2.0000     -10.007082      -272.3065
  11   2.0000      -9.956527      -270.9309
  12   2.0000      -9.948868      -270.7225
  13   2.0000      -9.942437      -270.5475
  14   2.0000      -9.942046      -270.5368
  15   2.0000      -9.935470      -270.3579
  16   2.0000      -9.918745      -269.9028
  17   2.0000      -9.896257      -269.2908
  18   2.0000      -9.876643      -268.7571
  19   2.0000      -7.681521      -209.0248
  20   2.0000      -7.623787      -207.4538
  21   2.0000      -6.419597      -174.6861
  22   2.0000      -5.709216      -155.3557
  23   2.0000      -5.706216      -155.2740
  24   2.0000      -5.698575      -155.0661
  25   2.0000      -5.652950      -153.8246
  26   2.0000      -5.644252      -153.5879
  27   2.0000      -5.643828      -153.5764
  28   2.0000      -4.642338      -126.3244
  29   2.0000      -4.641529      -126.3024
  30   2.0000      -4.639902      -126.2581
  31   2.0000      -1.022059       -27.8116
  32   2.0000      -1.003291       -27.3009
  33   2.0000      -0.984167       -26.7806
  34   2.0000      -0.939719       -25.5711
  35   2.0000      -0.927563       -25.2403
  36   2.0000      -0.907089       -24.6831
  37   2.0000      -0.764026       -20.7902
  38   2.0000      -0.722099       -19.6493
  39   2.0000      -0.697071       -18.9683
  40   2.0000      -0.692219       -18.8362
  41   2.0000      -0.660675       -17.9779
  42   2.0000      -0.634521       -17.2662
  43   2.0000      -0.619424       -16.8554
  44   2.0000      -0.610881       -16.6229
  45   2.0000      -0.593897       -16.1608
  46   2.0000      -0.558729       -15.2038
  47   2.0000      -0.518075       -14.0975
  48   2.0000      -0.512689       -13.9510
  49   2.0000      -0.491653       -13.3786
  50   2.0000      -0.480579       -13.0772
  51   2.0000      -0.472765       -12.8646
  52   2.0000      -0.465543       -12.6681
  53   2.0000      -0.453975       -12.3533
  54   2.0000      -0.433885       -11.8066
  55   2.0000      -0.427348       -11.6287
  56   2.0000      -0.425306       -11.5732
  57   2.0000      -0.420934       -11.4542
  58   2.0000      -0.416532       -11.3344
  59   2.0000      -0.411188       -11.1890
  60   2.0000      -0.399801       -10.8791
  61   2.0000      -0.395615       -10.7652
  62   2.0000      -0.389783       -10.6065
  63   2.0000      -0.379126       -10.3165
  64   2.0000      -0.372747       -10.1430
  65   2.0000      -0.367966       -10.0129
  66   2.0000      -0.363286        -9.8855
  67   2.0000      -0.354008        -9.6330
  68   2.0000      -0.344740        -9.3808
  69   2.0000      -0.340115        -9.2550
  70   2.0000      -0.331381        -9.0173
  71   2.0000      -0.323802        -8.8111
  72   2.0000      -0.319075        -8.6825
  73   2.0000      -0.317246        -8.6327
  74   2.0000      -0.308279        -8.3887
  75   2.0000      -0.300868        -8.1870
  76   2.0000      -0.295610        -8.0440
  77   2.0000      -0.285553        -7.7703
  78   2.0000      -0.271634        -7.3915
  79   2.0000      -0.267480        -7.2785
  80   2.0000      -0.257437        -7.0052
  81   2.0000      -0.249804        -6.7975
  82   2.0000      -0.238667        -6.4945
  83   2.0000      -0.231879        -6.3097
  84   2.0000      -0.204951        -5.5770
  85   2.0000      -0.198081        -5.3900
  86   2.0000      -0.194572        -5.2946
  87   0.0000      -0.039315        -1.0698
  88   0.0000      -0.027020        -0.7352
  89   0.0000      -0.011631        -0.3165
  90   0.0000       0.008729         0.2375
  91   0.0000       0.021810         0.5935

MULLIKEN ATOMIC CHARGES
-----------------------
   0 C :   -0.277493
   1 C :   -0.031436
   2 O :   -0.226131
   3 C :    0.117105
   4 O :   -0.196188
   5 C :   -0.099204
   6 C :   -0.303477
   7 H :    0.151792
   8 C :    0.236340
   9 O :   -0.207170
  10 O :   -0.235192
  11 C :   -0.011960
  12 C :   -0.300664
  13 S :   -0.105664
  14 P :    0.624272
  15 S :   -0.321093
  16 O :   -0.390718
  17 C :   -0.097933
  18 O :   -0.363142
  19 C :   -0.115387
  20 H :    0.116800
  21 H :    0.118408
  22 H :    0.114695
  23 H :    0.112220
  24 H :    0.114576
  25 H :    0.128121
  26 H :    0.146196
  27 H :    0.112254
  28 H :    0.107123
  29 H :    0.106526
  30 H :    0.105466
  31 H :    0.132516
  32 H :    0.123596
  33 H :    0.111039
  34 H :    0.117075
  35 H :    0.131333
  36 H :    0.124917
  37 H :    0.130486
Sum of atomic charges:   -0.0000000

LOEWDIN ATOMIC CHARGES
----------------------
   0 C :   -0.350377
   1 C :   -0.105804
   2 O :   -0.055918
   3 C :    0.039008
   4 O :   -0.150214
   5 C :   -0.249004
   6 C :   -0.267458
   7 H :    0.142994
   8 C :    0.018988
   9 O :   -0.170113
  10 O :   -0.054726
  11 C :   -0.108086
  12 C :   -0.354132
  13 S :    0.085915
  14 P :    0.579472
  15 S :   -0.316094
  16 O :   -0.263532
  17 C :   -0.217393
  18 O :   -0.235110
  19 C :   -0.212521
  20 H :    0.127505
  21 H :    0.128298
  22 H :    0.132227
  23 H :    0.120080
  24 H :    0.119878
  25 H :    0.142647
  26 H :    0.160909
  27 H :    0.121239
  28 H :    0.118078
  29 H :    0.126994
  30 H :    0.119636
  31 H :    0.133512
  32 H :    0.121527
  33 H :    0.106371
  34 H :    0.111372
  35 H :    0.113256
  36 H :    0.115664
  37 H :    0.124912

  Mayer bond orders larger than 0.100000
B(  0-C ,  1-C ) :   1.1574 B(  0-C , 20-H ) :   0.9516 B(  0-C , 21-H ) :   0.9482
B(  0-C , 22-H ) :   0.9435 B(  1-C ,  2-O ) :   0.8994 B(  1-C , 23-H ) :   0.9352
B(  1-C , 24-H ) :   0.9232 B(  2-O ,  3-C ) :   1.2515 B(  3-C ,  4-O ) :   1.9923
B(  3-C ,  5-C ) :   1.0000 B(  5-C ,  6-C ) :   1.0652 B(  5-C , 25-H ) :   0.9008
B(  5-C , 26-H ) :   0.8731 B(  6-C ,  7-H ) :   0.8488 B(  6-C ,  8-C ) :   0.8653
B(  6-C , 13-S ) :   1.0191 B(  8-C ,  9-O ) :   2.0579 B(  8-C , 10-O ) :   1.2325
B( 10-O , 11-C ) :   0.9011 B( 11-C , 12-C ) :   1.1783 B( 11-C , 27-H ) :   0.9104
B( 11-C , 28-H ) :   0.9306 B( 12-C , 29-H ) :   0.9445 B( 12-C , 30-H ) :   0.9498
B( 12-C , 31-H ) :   0.9390 B( 13-S , 14-P ) :   0.9581 B( 13-S , 15-S ) :   0.1137
B( 14-P , 15-S ) :   1.6383 B( 14-P , 16-O ) :   1.0654 B( 14-P , 18-O ) :   1.1172
B( 16-O , 17-C ) :   0.9346 B( 17-C , 32-H ) :   0.9587 B( 17-C , 33-H ) :   0.9455
B( 17-C , 34-H ) :   0.9354 B( 18-O , 19-C ) :   0.9188 B( 19-C , 35-H ) :   0.9352
B( 19-C , 36-H ) :   0.9454 B( 19-C , 37-H ) :   0.9584

Dispersion correction           -0.052438841
FINAL SINGLE POINT ENERGY     -1979.021193924387

DIPOLE MOMENT
-------------

Method             : SCF
Type of density    : Electron Density
Multiplicity       :   1
Irrep              :   0
Energy             : -1979.1516793054393020 Eh
Relativity type    :
Basis              : AO
                                X                 Y                 Z
Electronic contribution:    -14.920959067      10.700374575      -5.311954457
Nuclear contribution   :     15.430657676     -12.707562592       5.610229654
                        -----------------------------------------
Total Dipole Moment    :      0.509698610      -2.007188017       0.298275197
                        -----------------------------------------
Magnitude (a.u.)       :      2.092263009
Magnitude (Debye)      :      5.318109933

Rotational constants in cm-1:             0.015034             0.006175             0.005558
Rotational constants in MHz :           450.719966           185.129773           166.623199

                             ****ORCA TERMINATED NORMALLY****
TOTAL RUN TIME: 0 days 0 hours 0 minutes 45 seconds 441 msec
