                         Program Version 6.0.0  -   RELEASE  -
|  1> ! pbe def2-sv(p) def2/J RI DEFGRID1 loosescf d4 GCP(DFT/SV(P)) printgap
|  2> %output
|  3>     printlevel normal
|  4> end
|  5> * xyz 0 1
|  6> C 3.9244488531 -1.3804745374 -2.534880418
|  7> C 4.0453337235 -1.5210859154 -1.0296007872
|  8> O 3.5789062177 -0.3567789141 -0.3277411958
|  9> P 2.048637122 0.0385331754 -0.1124610949
| 10> S 1.0972746013 0.6669096873 -1.7114614241
| 11> O 2.2192483313 1.0699996864 1.0696474371
| 12> C 2.2373872068 2.4941412061 0.8647681524
| 13> C 3.5068537243 2.9354243658 0.1683422325
| 14> S 1.2511709347 -1.6567307292 0.8694501461
| 15> C -0.099327769 -2.1058326562 -0.2781101939
| 16> S -1.7490700012 -2.0573127515 0.4723592181
| 17> P -2.1560755646 -0.0007589131 0.3593709844
| 18> S -0.9870441255 1.3030848906 1.2606597672
| 19> O -3.6725363152 0.1155819814 0.8243850672
| 20> C -4.0453257689 0.3408370577 2.1942872281
| 21> C -3.7097244605 -0.8480559699 3.0710216469
| 22> O -2.28322471 0.1404159247 -1.2098502188
| 23> C -2.4810110766 1.4217442585 -1.8480567327
| 24> C -2.1921092159 1.2533406172 -3.3243730856
| 25> H 2.880824024 -1.2985594545 -2.8303788923
| 26> H 4.4485180071 -0.4903238849 -2.8727232336
| 27> H 4.3597244713 -2.2538083086 -3.0097214656
| 28> H 5.0901966622 -1.6032480875 -0.724072815
| 29> H 3.4903782453 -2.3932416891 -0.6696980576
| 30> H 1.350521727 2.7769626549 0.2878433357
| 31> H 2.1528972117 2.9040707408 1.8720003482
| 32> H 3.5178480291 4.017889289 0.0897437801
| 33> H 4.3755789978 2.5998304363 0.7282650965
| 34> H 3.5449940891 2.5040177251 -0.8316498709
| 35> H 0.0525414348 -3.1405658407 -0.5724568876
| 36> H -0.0706397789 -1.4328351618 -1.1396320469
| 37> H -3.5306836681 1.2399239171 2.5490792854
| 38> H -5.120115108 0.5203529643 2.1476515862
| 39> H -4.1019538035 -0.6833410614 4.069411607
| 40> H -4.1393872016 -1.7563923475 2.6562576339
| 41> H -2.6283047054 -0.9694393893 3.13197725
| 42> H -3.5136156844 1.7305439813 -1.6687716218
| 43> H -1.8020845183 2.1480803285 -1.3883316112
| 44> H -2.3911809575 2.1898662423 -3.8345212727
| 45> H -1.1484623788 0.983163821 -3.4671831695
| 46> H -2.8224743149 0.4716706701 -3.7374676032
| 47> *
| 48>
| 49>                          ****END OF INPUT****

CARTESIAN COORDINATES (ANGSTROEM)
---------------------------------
  C      3.924449   -1.380475   -2.534880
  C      4.045334   -1.521086   -1.029601
  O      3.578906   -0.356779   -0.327741
  P      2.048637    0.038533   -0.112461
  S      1.097275    0.666910   -1.711461
  O      2.219248    1.070000    1.069647
  C      2.237387    2.494141    0.864768
  C      3.506854    2.935424    0.168342
  S      1.251171   -1.656731    0.869450
  C     -0.099328   -2.105833   -0.278110
  S     -1.749070   -2.057313    0.472359
  P     -2.156076   -0.000759    0.359371
  S     -0.987044    1.303085    1.260660
  O     -3.672536    0.115582    0.824385
  C     -4.045326    0.340837    2.194287
  C     -3.709724   -0.848056    3.071022
  O     -2.283225    0.140416   -1.209850
  C     -2.481011    1.421744   -1.848057
  C     -2.192109    1.253341   -3.324373
  H      2.880824   -1.298559   -2.830379
  H      4.448518   -0.490324   -2.872723
  H      4.359724   -2.253808   -3.009721
  H      5.090197   -1.603248   -0.724073
  H      3.490378   -2.393242   -0.669698
  H      1.350522    2.776963    0.287843
  H      2.152897    2.904071    1.872000
  H      3.517848    4.017889    0.089744
  H      4.375579    2.599830    0.728265
  H      3.544994    2.504018   -0.831650
  H      0.052541   -3.140566   -0.572457
  H     -0.070640   -1.432835   -1.139632
  H     -3.530684    1.239924    2.549079
  H     -5.120115    0.520353    2.147652
  H     -4.101954   -0.683341    4.069412
  H     -4.139387   -1.756392    2.656258
  H     -2.628305   -0.969439    3.131977
  H     -3.513616    1.730544   -1.668772
  H     -1.802085    2.148080   -1.388332
  H     -2.391181    2.189866   -3.834521
  H     -1.148462    0.983164   -3.467183
  H     -2.822474    0.471671   -3.737468

 Total Charge           Charge          ....    0
 Multiplicity           Mult            ....    1
 Number of Electrons    NEL             ....  202
 Basis Dimension        Dim             ....  334

ORBITAL ENERGIES
----------------

  NO   OCC          E(Eh)            E(eV)
   0   2.0000     -88.042065     -2395.7464
   1   2.0000     -88.041587     -2395.7334
   2   2.0000     -87.988039     -2394.2763
   3   2.0000     -87.979006     -2394.0305
   4   2.0000     -76.424989     -2079.6297
   5   2.0000     -76.421086     -2079.5235
   6   2.0000     -18.788777      -511.2686
   7   2.0000     -18.785748      -511.1862
   8   2.0000     -18.784494      -511.1521
   9   2.0000     -18.783995      -511.1385
  10   2.0000      -9.956963      -270.9427
  11   2.0000      -9.951583      -270.7963
  12   2.0000      -9.948983      -270.7256
  13   2.0000      -9.944253      -270.5969
  14   2.0000      -9.944122      -270.5933
  15   2.0000      -9.882287      -268.9107
  16   2.0000      -9.880188      -268.8536
  17   2.0000      -9.878697      -268.8130
  18   2.0000      -9.877752      -268.7873
  19   2.0000      -7.687803      -209.1958
  20   2.0000      -7.686759      -209.1673
  21   2.0000      -7.632711      -207.6966
  22   2.0000      -7.623687      -207.4511
  23   2.0000      -6.422217      -174.7574
  24   2.0000      -6.418905      -174.6673
  25   2.0000      -5.715746      -155.5334
  26   2.0000      -5.714580      -155.5016
  27   2.0000      -5.712247      -155.4382
  28   2.0000      -5.711335      -155.4133
  29   2.0000      -5.704633      -155.2310
  30   2.0000      -5.703695      -155.2054
  31   2.0000      -5.661421      -154.0551
  32   2.0000      -5.653915      -153.8509
  33   2.0000      -5.652462      -153.8113
  34   2.0000      -5.652456      -153.8111
  35   2.0000      -5.644308      -153.5894
  36   2.0000      -5.644026      -153.5818
  37   2.0000      -4.644453      -126.3820
  38   2.0000      -4.644026      -126.3704
  39   2.0000      -4.643007      -126.3426
  40   2.0000      -4.641517      -126.3021
  41   2.0000      -4.640681      -126.2794
  42   2.0000      -4.639256      -126.2406
  43   2.0000      -0.982434       -26.7334
  44   2.0000      -0.981764       -26.7152
  45   2.0000      -0.940784       -25.6000
  46   2.0000      -0.938921       -25.5493
  47   2.0000      -0.761038       -20.7089
  48   2.0000      -0.719243       -19.5716
  49   2.0000      -0.705482       -19.1971
  50   2.0000      -0.684026       -18.6133
  51   2.0000      -0.682096       -18.5608
  52   2.0000      -0.672000       -18.2860
  53   2.0000      -0.650726       -17.7071
  54   2.0000      -0.633891       -17.2490
  55   2.0000      -0.598606       -16.2889
  56   2.0000      -0.588682       -16.0189
  57   2.0000      -0.569274       -15.4907
  58   2.0000      -0.565326       -15.3833
  59   2.0000      -0.557051       -15.1581
  60   2.0000      -0.499535       -13.5930
  61   2.0000      -0.493189       -13.4204
  62   2.0000      -0.470062       -12.7910
  63   2.0000      -0.467618       -12.7245
  64   2.0000      -0.450981       -12.2718
  65   2.0000      -0.443291       -12.0626
  66   2.0000      -0.434763       -11.8305
  67   2.0000      -0.432993       -11.7823
  68   2.0000      -0.424159       -11.5420
  69   2.0000      -0.417542       -11.3619
  70   2.0000      -0.404013       -10.9938
  71   2.0000      -0.400952       -10.9105
  72   2.0000      -0.389828       -10.6078
  73   2.0000      -0.385619       -10.4932
  74   2.0000      -0.378972       -10.3124
  75   2.0000      -0.370031       -10.0691
  76   2.0000      -0.365766        -9.9530
  77   2.0000      -0.350998        -9.5511
  78   2.0000      -0.350260        -9.5311
  79   2.0000      -0.347674        -9.4607
  80   2.0000      -0.344151        -9.3648
  81   2.0000      -0.337215        -9.1761
  82   2.0000      -0.336073        -9.1450
  83   2.0000      -0.332490        -9.0475
  84   2.0000      -0.329368        -8.9625
  85   2.0000      -0.312808        -8.5119
  86   2.0000      -0.308376        -8.3913
  87   2.0000      -0.293722        -7.9926
  88   2.0000      -0.292448        -7.9579
  89   2.0000      -0.285168        -7.7598
  90   2.0000      -0.281289        -7.6543
  91   2.0000      -0.271898        -7.3987
  92   2.0000      -0.267499        -7.2790
  93   2.0000      -0.259629        -7.0649
  94   2.0000      -0.256924        -6.9913
  95   2.0000      -0.236708        -6.4411
  96   2.0000      -0.222186        -6.0460
  97   2.0000      -0.210226        -5.7205
  98   2.0000      -0.205360        -5.5881
  99   2.0000      -0.192924        -5.2497
 100   2.0000      -0.184424        -5.0184
 101   0.0000      -0.039124        -1.0646
 102   0.0000      -0.031389        -0.8542
 103   0.0000      -0.012456        -0.3389
 104   0.0000       0.002481         0.0675
 105   0.0000       0.022551         0.6136

MULLIKEN ATOMIC CHARGES
-----------------------
   0 C :   -0.300459
   1 C :   -0.008840
   2 O :   -0.369254
   3 P :    0.637180
   4 S :   -0.335220
   5 O :   -0.360631
   6 C :   -0.009106
   7 C :   -0.299281
   8 S :   -0.076431
   9 C :   -0.362356
  10 S :   -0.079900
  11 P :    0.616673
  12 S :   -0.331020
  13 O :   -0.377630
  14 C :   -0.001694
  15 C :   -0.325070
  16 O :   -0.370546
  17 C :   -0.001580
  18 C :   -0.288869
  19 H :    0.122033
  20 H :    0.116387
  21 H :    0.105756
  22 H :    0.105931
  23 H :    0.096841
  24 H :    0.121320
  25 H :    0.105948
  26 H :    0.108871
  27 H :    0.114681
  28 H :    0.122550
  29 H :    0.181397
  30 H :    0.202992
  31 H :    0.110748
  32 H :    0.103435
  33 H :    0.114212
  34 H :    0.118606
  35 H :    0.132835
  36 H :    0.099175
  37 H :    0.108867
  38 H :    0.106741
  39 H :    0.131964
  40 H :    0.112744
Sum of atomic charges:    0.0000000

LOEWDIN ATOMIC CHARGES
----------------------
   0 C :   -0.367725
   1 C :   -0.119528
   2 O :   -0.246258
   3 P :    0.577373
   4 S :   -0.298351
   5 O :   -0.230470
   6 C :   -0.118190
   7 C :   -0.364290
   8 S :    0.090830
   9 C :   -0.480697
  10 S :    0.093351
  11 P :    0.567597
  12 S :   -0.315162
  13 O :   -0.246503
  14 C :   -0.121075
  15 C :   -0.371151
  16 O :   -0.242183
  17 C :   -0.116708
  18 C :   -0.353043
  19 H :    0.119075
  20 H :    0.127166
  21 H :    0.127354
  22 H :    0.119156
  23 H :    0.099698
  24 H :    0.108501
  25 H :    0.119928
  26 H :    0.129165
  27 H :    0.125624
  28 H :    0.121816
  29 H :    0.136439
  30 H :    0.123630
  31 H :    0.109801
  32 H :    0.117867
  33 H :    0.131813
  34 H :    0.124051
  35 H :    0.123617
  36 H :    0.110442
  37 H :    0.108544
  38 H :    0.128965
  39 H :    0.124024
  40 H :    0.125507

  Mayer bond orders larger than 0.100000
B(  0-C ,  1-C ) :   1.1591 B(  0-C , 19-H ) :   0.9334 B(  0-C , 20-H ) :   0.9475
B(  0-C , 21-H ) :   0.9380 B(  1-C ,  2-O ) :   0.9252 B(  1-C , 22-H ) :   0.9360
B(  1-C , 23-H ) :   0.9140 B(  2-O ,  3-P ) :   1.0970 B(  3-P ,  4-S ) :   1.5748
B(  3-P ,  5-O ) :   1.1512 B(  3-P ,  8-S ) :   0.9560 B(  4-S ,  8-S ) :   0.1174
B(  4-S , 30-H ) :   0.1037 B(  5-O ,  6-C ) :   0.8981 B(  6-C ,  7-C ) :   1.1618
B(  6-C , 24-H ) :   0.9122 B(  6-C , 25-H ) :   0.9350 B(  7-C , 26-H ) :   0.9394
B(  7-C , 27-H ) :   0.9457 B(  7-C , 28-H ) :   0.9362 B(  8-S ,  9-C ) :   0.9998
B(  9-C , 10-S ) :   1.0003 B(  9-C , 29-H ) :   0.9116 B(  9-C , 30-H ) :   0.8486
B( 10-S , 11-P ) :   0.9689 B( 10-S , 12-S ) :   0.1158 B( 11-P , 12-S ) :   1.6262
B( 11-P , 13-O ) :   1.1009 B( 11-P , 16-O ) :   1.1262 B( 13-O , 14-C ) :   0.9099
B( 14-C , 15-C ) :   1.1640 B( 14-C , 31-H ) :   0.9126 B( 14-C , 32-H ) :   0.9330
B( 15-C , 33-H ) :   0.9383 B( 15-C , 34-H ) :   0.9445 B( 15-C , 35-H ) :   0.9333
B( 16-O , 17-C ) :   0.8925 B( 17-C , 18-C ) :   1.1645 B( 17-C , 36-H ) :   0.9311
B( 17-C , 37-H ) :   0.9098 B( 18-C , 38-H ) :   0.9411 B( 18-C , 39-H ) :   0.9442
B( 18-C , 40-H ) :   0.9490

Dispersion correction           -0.066807493
FINAL SINGLE POINT ENERGY     -2929.520204874393

DIPOLE MOMENT
-------------

Method             : SCF
Type of density    : Electron Density
Multiplicity       :   1
Irrep              :   0
Energy             : -2929.6376984295102375 Eh
Relativity type    :
Basis              : AO
                                X                 Y                 Z
Electronic contribution:     -3.857698796      -7.753939615       8.640443546
Nuclear contribution   :      3.852994162       7.597084995      -8.885798568
                        -----------------------------------------
Total Dipole Moment    :     -0.004704634      -0.156854620      -0.245355022
                        -----------------------------------------
Magnitude (a.u.)       :      0.291246617
Magnitude (Debye)      :      0.740290069

Rotational constants in cm-1:             0.011653             0.005290             0.005157
Rotational constants in MHz :           349.345072           158.577222           154.595600

                             ****ORCA TERMINATED NORMALLY****
TOTAL RUN TIME: 0 days 0 hours 0 minutes 21 seconds 179 msec
