                         Program Version 6.0.0  -   RELEASE  -
|  1> ! pbe def2-sv(p) def2/J RI DEFGRID1 loosescf d4 GCP(DFT/SV(P)) printgap
|  2> %output
|  3>     printlevel normal
|  4> end
|  5> * xyz 0 1
|  6> C 4.5771556378 -1.5452884241 -1.1293419085
|  7> C 4.670848636 -0.153507136 -0.5383073071
|  8> O 3.5473586011 0.1541821737 0.3053450953
|  9> P 2.0728140265 0.3501001231 -0.267225836
| 10> S 2.0315968109 1.2776516602 -2.0000152915
| 11> O 1.3876455077 1.0647382635 0.9689931792
| 12> C 1.6131214072 2.4671373765 1.2293283338
| 13> C 0.7808554079 2.8513233349 2.4335808257
| 14> S 1.2115822099 -1.5543348295 -0.1527745094
| 15> C -0.0079877157 -1.4381353381 -1.5101900856
| 16> S -1.7051702063 -1.6777336182 -0.9552487665
| 17> P -1.8975645561 0.0786288596 0.2317820958
| 18> S -1.3200527931 1.7058493279 -0.6979405239
| 19> O -1.134294215 -0.139121075 1.5901311689
| 20> C -1.580522637 -0.9520498807 2.7058077819
| 21> C -1.6660122128 -2.424426622 2.3635972768
| 22> O -3.4137006004 0.075321116 0.702524432
| 23> C -4.5022323294 0.4126691504 -0.1786130537
| 24> C -5.1252442217 -0.8318987766 -0.7794524344
| 25> H 4.4086329388 -2.2789877137 -0.3452062108
| 26> H 3.75226628 -1.5910857848 -1.8390762935
| 27> H 5.5013502739 -1.7759060834 -1.6492653849
| 28> H 4.7202368106 0.5985183311 -1.3323968194
| 29> H 5.5303768454 -0.0524766177 0.1256701309
| 30> H 2.6811505792 2.6182838168 1.4085218605
| 31> H 1.3132428983 3.0319362003 0.3394227677
| 32> H -0.2703688756 2.6706970383 2.2222328481
| 33> H 1.0759130525 2.2579412787 3.2939060277
| 34> H 0.9281660878 3.9049044828 2.6470954522
| 35> H 0.1925306956 -2.2425831209 -2.2130513903
| 36> H 0.0973990761 -0.4604386038 -1.9889516656
| 37> H -0.8184301359 -0.7617036204 3.4632964216
| 38> H -2.5456626726 -0.5677561645 3.040069356
| 39> H -2.4664918228 -2.6060336994 1.6500531803
| 40> H -0.7268265925 -2.7694666616 1.9362666058
| 41> H -1.8696081791 -2.9824371571 3.2723514766
| 42> H -5.2139755539 0.9433102263 0.4567925049
| 43> H -4.1324899252 1.0925551405 -0.9529245221
| 44> H -4.4065922443 -1.3570330231 -1.4045062058
| 45> H -5.4577759025 -1.4997107922 0.0100197088
| 46> H -5.9777991069 -0.5416501168 -1.3850067146
| 47> *
| 48>
| 49>                          ****END OF INPUT****

CARTESIAN COORDINATES (ANGSTROEM)
---------------------------------
  C      4.577156   -1.545288   -1.129342
  C      4.670849   -0.153507   -0.538307
  O      3.547359    0.154182    0.305345
  P      2.072814    0.350100   -0.267226
  S      2.031597    1.277652   -2.000015
  O      1.387646    1.064738    0.968993
  C      1.613121    2.467137    1.229328
  C      0.780855    2.851323    2.433581
  S      1.211582   -1.554335   -0.152775
  C     -0.007988   -1.438135   -1.510190
  S     -1.705170   -1.677734   -0.955249
  P     -1.897565    0.078629    0.231782
  S     -1.320053    1.705849   -0.697941
  O     -1.134294   -0.139121    1.590131
  C     -1.580523   -0.952050    2.705808
  C     -1.666012   -2.424427    2.363597
  O     -3.413701    0.075321    0.702524
  C     -4.502232    0.412669   -0.178613
  C     -5.125244   -0.831899   -0.779452
  H      4.408633   -2.278988   -0.345206
  H      3.752266   -1.591086   -1.839076
  H      5.501350   -1.775906   -1.649265
  H      4.720237    0.598518   -1.332397
  H      5.530377   -0.052477    0.125670
  H      2.681151    2.618284    1.408522
  H      1.313243    3.031936    0.339423
  H     -0.270369    2.670697    2.222233
  H      1.075913    2.257941    3.293906
  H      0.928166    3.904904    2.647095
  H      0.192531   -2.242583   -2.213051
  H      0.097399   -0.460439   -1.988952
  H     -0.818430   -0.761704    3.463296
  H     -2.545663   -0.567756    3.040069
  H     -2.466492   -2.606034    1.650053
  H     -0.726827   -2.769467    1.936267
  H     -1.869608   -2.982437    3.272351
  H     -5.213976    0.943310    0.456793
  H     -4.132490    1.092555   -0.952925
  H     -4.406592   -1.357033   -1.404506
  H     -5.457776   -1.499711    0.010020
  H     -5.977799   -0.541650   -1.385007

 Total Charge           Charge          ....    0
 Multiplicity           Mult            ....    1
 Number of Electrons    NEL             ....  202
 Basis Dimension        Dim             ....  334

ORBITAL ENERGIES
----------------

  NO   OCC          E(Eh)            E(eV)
   0   2.0000     -88.042839     -2395.7674
   1   2.0000     -88.041519     -2395.7315
   2   2.0000     -87.978729     -2394.0229
   3   2.0000     -87.978380     -2394.0134
   4   2.0000     -76.424987     -2079.6296
   5   2.0000     -76.418066     -2079.4413
   6   2.0000     -18.797934      -511.5178
   7   2.0000     -18.788795      -511.2691
   8   2.0000     -18.785846      -511.1889
   9   2.0000     -18.776345      -510.9303
  10   2.0000      -9.955934      -270.9147
  11   2.0000      -9.955578      -270.9051
  12   2.0000      -9.953787      -270.8563
  13   2.0000      -9.946114      -270.6475
  14   2.0000      -9.938016      -270.4272
  15   2.0000      -9.889182      -269.0983
  16   2.0000      -9.885530      -268.9990
  17   2.0000      -9.879909      -268.8460
  18   2.0000      -9.872702      -268.6499
  19   2.0000      -7.687814      -209.1960
  20   2.0000      -7.686722      -209.1663
  21   2.0000      -7.623687      -207.4511
  22   2.0000      -7.623317      -207.4410
  23   2.0000      -6.422233      -174.7579
  24   2.0000      -6.415816      -174.5832
  25   2.0000      -5.715643      -155.5306
  26   2.0000      -5.714573      -155.5015
  27   2.0000      -5.712232      -155.4377
  28   2.0000      -5.711283      -155.4119
  29   2.0000      -5.704917      -155.2387
  30   2.0000      -5.703554      -155.2016
  31   2.0000      -5.652536      -153.8133
  32   2.0000      -5.652282      -153.8064
  33   2.0000      -5.644480      -153.5941
  34   2.0000      -5.644041      -153.5822
  35   2.0000      -5.643752      -153.5743
  36   2.0000      -5.643309      -153.5623
  37   2.0000      -4.645348      -126.4064
  38   2.0000      -4.643945      -126.3682
  39   2.0000      -4.642251      -126.3221
  40   2.0000      -4.638168      -126.2110
  41   2.0000      -4.637380      -126.1895
  42   2.0000      -4.636625      -126.1690
  43   2.0000      -0.989661       -26.9301
  44   2.0000      -0.977572       -26.6011
  45   2.0000      -0.944882       -25.7116
  46   2.0000      -0.933752       -25.4087
  47   2.0000      -0.762232       -20.7414
  48   2.0000      -0.719403       -19.5760
  49   2.0000      -0.706803       -19.2331
  50   2.0000      -0.692660       -18.8482
  51   2.0000      -0.680930       -18.5290
  52   2.0000      -0.672645       -18.3036
  53   2.0000      -0.646603       -17.5950
  54   2.0000      -0.628351       -17.0983
  55   2.0000      -0.597697       -16.2642
  56   2.0000      -0.587782       -15.9944
  57   2.0000      -0.578391       -15.7388
  58   2.0000      -0.563549       -15.3350
  59   2.0000      -0.552824       -15.0431
  60   2.0000      -0.500463       -13.6183
  61   2.0000      -0.494543       -13.4572
  62   2.0000      -0.474789       -12.9197
  63   2.0000      -0.464842       -12.6490
  64   2.0000      -0.452422       -12.3110
  65   2.0000      -0.442679       -12.0459
  66   2.0000      -0.439535       -11.9603
  67   2.0000      -0.431301       -11.7363
  68   2.0000      -0.428646       -11.6640
  69   2.0000      -0.417807       -11.3691
  70   2.0000      -0.409561       -11.1447
  71   2.0000      -0.396526       -10.7900
  72   2.0000      -0.387804       -10.5527
  73   2.0000      -0.384349       -10.4587
  74   2.0000      -0.382354       -10.4044
  75   2.0000      -0.367299        -9.9947
  76   2.0000      -0.363196        -9.8831
  77   2.0000      -0.357344        -9.7238
  78   2.0000      -0.351971        -9.5776
  79   2.0000      -0.348143        -9.4735
  80   2.0000      -0.343738        -9.3536
  81   2.0000      -0.341703        -9.2982
  82   2.0000      -0.335656        -9.1337
  83   2.0000      -0.333340        -9.0706
  84   2.0000      -0.325295        -8.8517
  85   2.0000      -0.321012        -8.7352
  86   2.0000      -0.307174        -8.3586
  87   2.0000      -0.299105        -8.1391
  88   2.0000      -0.293878        -7.9968
  89   2.0000      -0.289896        -7.8885
  90   2.0000      -0.276963        -7.5365
  91   2.0000      -0.273152        -7.4328
  92   2.0000      -0.263564        -7.1719
  93   2.0000      -0.259934        -7.0732
  94   2.0000      -0.255717        -6.9584
  95   2.0000      -0.233483        -6.3534
  96   2.0000      -0.218306        -5.9404
  97   2.0000      -0.211434        -5.7534
  98   2.0000      -0.200272        -5.4497
  99   2.0000      -0.188901        -5.1403
 100   2.0000      -0.181897        -4.9497
 101   0.0000      -0.041856        -1.1390
 102   0.0000      -0.030780        -0.8376
 103   0.0000      -0.008193        -0.2230
 104   0.0000       0.010582         0.2879
 105   0.0000       0.022257         0.6056

MULLIKEN ATOMIC CHARGES
-----------------------
   0 C :   -0.310375
   1 C :   -0.001225
   2 O :   -0.381055
   3 P :    0.612550
   4 S :   -0.321437
   5 O :   -0.354759
   6 C :   -0.002391
   7 C :   -0.276894
   8 S :   -0.090594
   9 C :   -0.354598
  10 S :   -0.116393
  11 P :    0.609231
  12 S :   -0.295049
  13 O :   -0.345775
  14 C :    0.006848
  15 C :   -0.320952
  16 O :   -0.384086
  17 C :   -0.006380
  18 C :   -0.308734
  19 H :    0.115188
  20 H :    0.119609
  21 H :    0.110457
  22 H :    0.109309
  23 H :    0.101260
  24 H :    0.094463
  25 H :    0.111879
  26 H :    0.123329
  27 H :    0.104400
  28 H :    0.103274
  29 H :    0.181714
  30 H :    0.211905
  31 H :    0.109849
  32 H :    0.108494
  33 H :    0.121445
  34 H :    0.129106
  35 H :    0.110937
  36 H :    0.107965
  37 H :    0.107235
  38 H :    0.130901
  39 H :    0.114650
  40 H :    0.114699
Sum of atomic charges:   -0.0000000

LOEWDIN ATOMIC CHARGES
----------------------
   0 C :   -0.369180
   1 C :   -0.120840
   2 O :   -0.250204
   3 P :    0.568954
   4 S :   -0.312502
   5 O :   -0.234641
   6 C :   -0.117130
   7 C :   -0.352270
   8 S :    0.090218
   9 C :   -0.479758
  10 S :    0.076124
  11 P :    0.564053
  12 S :   -0.294751
  13 O :   -0.225294
  14 C :   -0.106305
  15 C :   -0.371223
  16 O :   -0.247997
  17 C :   -0.117869
  18 C :   -0.365103
  19 H :    0.122965
  20 H :    0.119150
  21 H :    0.129478
  22 H :    0.109163
  23 H :    0.116662
  24 H :    0.106337
  25 H :    0.110710
  26 H :    0.125977
  27 H :    0.121117
  28 H :    0.127064
  29 H :    0.137064
  30 H :    0.126972
  31 H :    0.122365
  32 H :    0.113664
  33 H :    0.116497
  34 H :    0.123806
  35 H :    0.129948
  36 H :    0.120075
  37 H :    0.109945
  38 H :    0.119207
  39 H :    0.124921
  40 H :    0.132629

  Mayer bond orders larger than 0.100000
B(  0-C ,  1-C ) :   1.1655 B(  0-C , 19-H ) :   0.9449 B(  0-C , 20-H ) :   0.9366
B(  0-C , 21-H ) :   0.9384 B(  1-C ,  2-O ) :   0.9147 B(  1-C , 22-H ) :   0.9131
B(  1-C , 23-H ) :   0.9340 B(  2-O ,  3-P ) :   1.0928 B(  3-P ,  4-S ) :   1.6030
B(  3-P ,  5-O ) :   1.1462 B(  3-P ,  8-S ) :   0.9705 B(  4-S ,  8-S ) :   0.1166
B(  5-O ,  6-C ) :   0.8969 B(  6-C ,  7-C ) :   1.1652 B(  6-C , 24-H ) :   0.9271
B(  6-C , 25-H ) :   0.9148 B(  7-C , 26-H ) :   0.9422 B(  7-C , 27-H ) :   0.9500
B(  7-C , 28-H ) :   0.9414 B(  8-S ,  9-C ) :   0.9938 B(  9-C , 10-S ) :   1.0057
B(  9-C , 29-H ) :   0.9112 B(  9-C , 30-H ) :   0.8451 B( 10-S , 11-P ) :   0.9341
B( 10-S , 12-S ) :   0.1048 B( 11-P , 12-S ) :   1.6560 B( 11-P , 13-O ) :   1.1407
B( 11-P , 16-O ) :   1.0769 B( 13-O , 14-C ) :   0.8966 B( 14-C , 15-C ) :   1.1714
B( 14-C , 31-H ) :   0.9330 B( 14-C , 32-H ) :   0.9280 B( 15-C , 33-H ) :   0.9390
B( 15-C , 34-H ) :   0.9381 B( 15-C , 35-H ) :   0.9351 B( 16-O , 17-C ) :   0.9040
B( 17-C , 18-C ) :   1.1668 B( 17-C , 36-H ) :   0.9347 B( 17-C , 37-H ) :   0.9046
B( 18-C , 38-H ) :   0.9323 B( 18-C , 39-H ) :   0.9476 B( 18-C , 40-H ) :   0.9396

Dispersion correction           -0.068307613
FINAL SINGLE POINT ENERGY     -2929.517094018481

DIPOLE MOMENT
-------------

Method             : SCF
Type of density    : Electron Density
Multiplicity       :   1
Irrep              :   0
Energy             : -2929.6346148570214609 Eh
Relativity type    :
Basis              : AO
                                X                 Y                 Z
Electronic contribution:      3.151598113       3.508798502      -9.274457326
Nuclear contribution   :     -3.614097554      -4.457756352      10.285001114
                        -----------------------------------------
Total Dipole Moment    :     -0.462499441      -0.948957850       1.010543788
                        -----------------------------------------
Magnitude (a.u.)       :      1.461377939
Magnitude (Debye)      :      3.714527523

Rotational constants in cm-1:             0.012707             0.005474             0.005169
Rotational constants in MHz :           380.938179           164.099134           154.955214

                             ****ORCA TERMINATED NORMALLY****
TOTAL RUN TIME: 0 days 0 hours 0 minutes 21 seconds 891 msec
