                         Program Version 6.0.0  -   RELEASE  -
|  1> ! pbe def2-sv(p) def2/J RI DEFGRID1 loosescf d4 GCP(DFT/SV(P)) printgap
|  2> %output
|  3>     printlevel normal
|  4> end
|  5> * xyz 0 1
|  6> C 1.8653963091 -0.0241842994 -0.2302544502
|  7> C 0.7019200713 0.3077286342 0.2962017656
|  8> C -0.5411189429 -0.5262868034 0.1890028651
|  9> O -1.6849307898 0.2311753107 -0.1639922205
| 10> H 2.7368290689 0.5971416978 -0.1203131013
| 11> H 1.9946673252 -0.9412461963 -0.7811390226
| 12> H 0.5767002375 1.2305600875 0.8461447454
| 13> H -0.778765536 -0.9540675343 1.1689773062
| 14> H -0.3913865751 -1.3501378812 -0.5211147404
| 15> H -1.5369316423 0.6407679243 -1.0274630397
| 16> *
| 17>
| 18>                          ****END OF INPUT****

CARTESIAN COORDINATES (ANGSTROEM)
---------------------------------
  C      1.865396   -0.024184   -0.230254
  C      0.701920    0.307729    0.296202
  C     -0.541119   -0.526287    0.189003
  O     -1.684931    0.231175   -0.163992
  H      2.736829    0.597142   -0.120313
  H      1.994667   -0.941246   -0.781139
  H      0.576700    1.230560    0.846145
  H     -0.778766   -0.954068    1.168977
  H     -0.391387   -1.350138   -0.521115
  H     -1.536932    0.640768   -1.027463

 Total Charge           Charge          ....    0
 Multiplicity           Mult            ....    1
 Number of Electrons    NEL             ....   32
 Basis Dimension        Dim             ....   68

ORBITAL ENERGIES
----------------

  NO   OCC          E(Eh)            E(eV)
   0   2.0000     -18.745806      -510.0993
   1   2.0000      -9.933372      -270.3008
   2   2.0000      -9.893622      -269.2191
   3   2.0000      -9.886735      -269.0317
   4   2.0000      -0.919524       -25.0215
   5   2.0000      -0.705419       -19.1954
   6   2.0000      -0.605995       -16.4900
   7   2.0000      -0.508618       -13.8402
   8   2.0000      -0.464910       -12.6508
   9   2.0000      -0.396991       -10.8027
  10   2.0000      -0.395783       -10.7698
  11   2.0000      -0.381285       -10.3753
  12   2.0000      -0.320909        -8.7324
  13   2.0000      -0.276599        -7.5266
  14   2.0000      -0.245204        -6.6723
  15   2.0000      -0.216873        -5.9014
  16   0.0000      -0.029068        -0.7910
  17   0.0000       0.043745         1.1904
  18   0.0000       0.067726         1.8429
  19   0.0000       0.071897         1.9564
  20   0.0000       0.092056         2.5050

MULLIKEN ATOMIC CHARGES
-----------------------
   0 C :   -0.193786
   1 C :   -0.179908
   2 C :    0.069343
   3 O :   -0.445864
   4 H :    0.102999
   5 H :    0.096186
   6 H :    0.082918
   7 H :    0.100559
   8 H :    0.073951
   9 H :    0.293602
Sum of atomic charges:   -0.0000000

LOEWDIN ATOMIC CHARGES
----------------------
   0 C :   -0.248030
   1 C :   -0.164086
   2 C :   -0.118291
   3 O :   -0.342297
   4 H :    0.123604
   5 H :    0.119931
   6 H :    0.124008
   7 H :    0.123146
   8 H :    0.099901
   9 H :    0.282114

  Mayer bond orders larger than 0.100000
B(  0-C ,  1-C ) :   2.0337 B(  0-C ,  4-H ) :   0.9237 B(  0-C ,  5-H ) :   0.9198
B(  1-C ,  2-C ) :   1.0747 B(  1-C ,  6-H ) :   0.9322 B(  2-C ,  3-O ) :   1.0346
B(  2-C ,  7-H ) :   0.9104 B(  2-C ,  8-H ) :   0.9249 B(  3-O ,  9-H ) :   0.8566

Dispersion correction           -0.005238573
FINAL SINGLE POINT ENERGY      -192.663575177447

DIPOLE MOMENT
-------------

Method             : SCF
Type of density    : Electron Density
Multiplicity       :   1
Irrep              :   0
Energy             :  -192.7029414998874870 Eh
Relativity type    :
Basis              : AO
                                X                 Y                 Z
Electronic contribution:     -1.999677989       0.722299443       0.052801564
Nuclear contribution   :      2.415250542      -0.725507377      -0.410456112
                        -----------------------------------------
Total Dipole Moment    :      0.415572553      -0.003207934      -0.357654547
                        -----------------------------------------
Magnitude (a.u.)       :      0.548295188
Magnitude (Debye)      :      1.393655612

Rotational constants in cm-1:             0.942269             0.142487             0.137091
Rotational constants in MHz :         28248.517307          4271.666794          4109.876954

                             ****ORCA TERMINATED NORMALLY****
TOTAL RUN TIME: 0 days 0 hours 0 minutes 3 seconds 588 msec
