                         Program Version 6.0.0  -   RELEASE  -
|  1> ! r2scan-3c def2/J RI DEFGRID2 scfconv6 printgap
|  2> %output
|  3>     printlevel normal
|  4> end
|  5> * xyz 0 1
|  6> C -1.8350518116 -1.4537302084 -5.08837e-05
|  7> C -0.528277109 -0.7116925189 2.46584e-05
|  8> C 0.6798028514 -1.393607712 0.0001587753
|  9> C 1.890470395 -0.723235556 -5.43488e-05
| 10> C 1.9069362084 0.6605115292 -3.47861e-05
| 11> C 0.7170752552 1.3625429484 -3.3596e-06
| 12> C -0.4979258108 0.6867722384 -5.8238e-05
| 13> O -1.6327582512 1.4441212127 2.83765e-05
| 14> H -1.6532078227 -2.5245514612 -0.0003012084
| 15> H -2.4210849015 -1.211430211 0.8865700071
| 16> H -2.4211464107 -1.2109756089 -0.8865046765
| 17> H 0.6691214604 -2.4739609625 -0.0001236726
| 18> H 2.8155353206 -1.2789104319 -9.32063e-05
| 19> H 2.8438901132 1.1960794453 0.0001135391
| 20> H 0.7011834403 2.4414143958 3.29201e-05
| 21> H -2.4175829739 0.8766452158 7.25318e-05
| 22> *
| 23>
| 24>                          ****END OF INPUT****

CARTESIAN COORDINATES (ANGSTROEM)
---------------------------------
  C     -1.835052   -1.453730   -0.000051
  C     -0.528277   -0.711693    0.000025
  C      0.679803   -1.393608    0.000159
  C      1.890470   -0.723236   -0.000054
  C      1.906936    0.660512   -0.000035
  C      0.717075    1.362543   -0.000003
  C     -0.497926    0.686772   -0.000058
  O     -1.632758    1.444121    0.000028
  H     -1.653208   -2.524551   -0.000301
  H     -2.421085   -1.211430    0.886570
  H     -2.421146   -1.210976   -0.886505
  H      0.669121   -2.473961   -0.000124
  H      2.815535   -1.278910   -0.000093
  H      2.843890    1.196079    0.000114
  H      0.701183    2.441414    0.000033
  H     -2.417583    0.876645    0.000073

 Total Charge           Charge          ....    0
 Multiplicity           Mult            ....    1
 Number of Electrons    NEL             ....   58
 Basis Dimension        Dim             ....  197

ORBITAL ENERGIES
----------------

  NO   OCC          E(Eh)            E(eV)
   0   2.0000     -18.984832      -516.6035
   1   2.0000     -10.092572      -274.6328
   2   2.0000     -10.043018      -273.2844
   3   2.0000     -10.042302      -273.2649
   4   2.0000     -10.032032      -272.9855
   5   2.0000     -10.030922      -272.9553
   6   2.0000     -10.026830      -272.8439
   7   2.0000     -10.024163      -272.7713
   8   2.0000      -1.027831       -27.9687
   9   2.0000      -0.822956       -22.3938
  10   2.0000      -0.747114       -20.3300
  11   2.0000      -0.708161       -19.2700
  12   2.0000      -0.662954       -18.0399
  13   2.0000      -0.575992       -15.6735
  14   2.0000      -0.573403       -15.6031
  15   2.0000      -0.509652       -13.8683
  16   2.0000      -0.463254       -12.6058
  17   2.0000      -0.435585       -11.8529
  18   2.0000      -0.412357       -11.2208
  19   2.0000      -0.404305       -11.0017
  20   2.0000      -0.383384       -10.4324
  21   2.0000      -0.369941       -10.0666
  22   2.0000      -0.365533        -9.9467
  23   2.0000      -0.356627        -9.7043
  24   2.0000      -0.322594        -8.7782
  25   2.0000      -0.310405        -8.4465
  26   2.0000      -0.304155        -8.2765
  27   2.0000      -0.230050        -6.2600
  28   2.0000      -0.202186        -5.5018
  29   0.0000      -0.027149        -0.7388
  30   0.0000      -0.014574        -0.3966
  31   0.0000       0.047742         1.2991
  32   0.0000       0.085769         2.3339
  33   0.0000       0.114853         3.1253

MULLIKEN ATOMIC CHARGES
-----------------------
   0 C :   -0.598843
   1 C :    0.024853
   2 C :   -0.184297
   3 C :   -0.190639
   4 C :   -0.120621
   5 C :   -0.292662
   6 C :    0.365704
   7 O :   -0.421728
   8 H :    0.160914
   9 H :    0.168584
  10 H :    0.168540
  11 H :    0.144937
  12 H :    0.144854
  13 H :    0.147329
  14 H :    0.156677
  15 H :    0.326397
Sum of atomic charges:   -0.0000000

LOEWDIN ATOMIC CHARGES
----------------------
   0 C :   -0.392720
   1 C :   -0.103896
   2 C :   -0.157480
   3 C :   -0.188251
   4 C :   -0.159661
   5 C :   -0.141088
   6 C :    0.187689
   7 O :   -0.499794
   8 H :    0.167434
   9 H :    0.161079
  10 H :    0.161075
  11 H :    0.167243
  12 H :    0.166247
  13 H :    0.167564
  14 H :    0.179565
  15 H :    0.284993

  Mayer bond orders larger than 0.100000
B(  0-C ,  1-C ) :   0.7742 B(  0-C ,  8-H ) :   0.9740 B(  0-C ,  9-H ) :   0.9811
B(  0-C , 10-H ) :   0.9811 B(  1-C ,  2-C ) :   1.3755 B(  1-C ,  6-C ) :   1.4202
B(  2-C ,  3-C ) :   1.4574 B(  2-C , 11-H ) :   0.9299 B(  3-C ,  4-C ) :   1.4238
B(  3-C , 12-H ) :   0.9444 B(  4-C ,  5-C ) :   1.3892 B(  4-C , 13-H ) :   0.9472
B(  5-C ,  6-C ) :   1.4085 B(  5-C , 14-H ) :   0.9448 B(  6-C ,  7-O ) :   0.9501
B(  7-O , 15-H ) :   0.8656

Dispersion correction           -0.005007945
FINAL SINGLE POINT ENERGY      -346.702794334633

DIPOLE MOMENT
-------------

Method             : SCF
Type of density    : Electron Density
Multiplicity       :   1
Irrep              :   0
Energy             :  -346.7033976985813979 Eh
Relativity type    :
Basis              : AO
                                X                 Y                 Z
Electronic contribution:      1.362290123       3.391242824       0.000187432
Nuclear contribution   :     -1.791088340      -3.905470957      -0.000218892
                        -----------------------------------------
Total Dipole Moment    :     -0.428798217      -0.514228133      -0.000031460
                        -----------------------------------------
Magnitude (a.u.)       :      0.669550957
Magnitude (Debye)      :      1.701863285

Rotational constants in cm-1:             0.109027             0.074285             0.044552
Rotational constants in MHz :          3268.550935          2227.009206          1335.633711

                             ****ORCA TERMINATED NORMALLY****
TOTAL RUN TIME: 0 days 0 hours 0 minutes 25 seconds 579 msec
