                         Program Version 6.0.1  -  RELEASE   -
|  1> ! pbe def2-sv(p) def2/J RI DEFGRID1 loosescf d4 GCP(DFT/SV(P)) printgap
|  2> %output
|  3>     printlevel normal
|  4> end
|  5> * xyz 0 1
|  6> C 4.9340195457 -3.395986259 -1.4981024
|  7> C 3.8193894802 -2.8571655174 -0.6231286009
|  8> O 3.0796105958 -1.8861664756 -1.3914708288
|  9> C 2.278395443 -1.0656086766 -0.7587879334
| 10> O 2.1033243519 -1.0645499762 0.4453945379
| 11> C 1.5977254872 -0.089022817 -1.6939859629
| 12> C 0.3590385949 0.4736835197 -1.013214426
| 13> H -0.0489295012 1.3240833777 -1.5674143169
| 14> C 0.6590635296 0.9323067363 0.4017830429
| 15> O -0.0646420617 0.6612433158 1.3423099608
| 16> O 1.6941815325 1.7243914193 0.459195013
| 17> C 2.0470479693 2.26350667 1.7506317909
| 18> C 3.1363373747 3.2963703312 1.5443477598
| 19> S -0.9456142165 -0.7988872009 -0.9033907673
| 20> P -2.3595727375 0.2625177238 0.2697862897
| 21> S -2.3823269963 2.2134310559 0.1113430904
| 22> O -3.7110452446 -0.3903438174 -0.322966835
| 23> C -4.1588500509 -0.1075578655 -1.6508491022
| 24> O -2.4903209112 -0.3004866818 1.7418635041
| 25> C -2.2626663681 -1.6828899404 2.0665982469
| 26> H 5.605545191 -2.5932912152 -1.7874191426
| 27> H 5.4905770497 -4.1467661546 -0.9472527806
| 28> H 4.516511911 -3.8444007491 -2.3942191879
| 29> H 4.2019262328 -2.3691611376 0.2786344642
| 30> H 3.1255044398 -3.6473518494 -0.3214824849
| 31> H 1.3431978093 -0.5891649785 -2.6274183736
| 32> H 2.2961902755 0.7236320807 -1.9048081457
| 33> H 1.1463660916 2.6969046234 2.1973352984
| 34> H 2.3801665664 1.4309343579 2.378186753
| 35> H 4.0081174351 2.8339881707 1.0919822936
| 36> H 2.7779015806 4.0892332426 0.8947510439
| 37> H 3.4117890476 3.7181725372 2.5050660702
| 38> H -4.1336539343 0.9687020095 -1.8309414986
| 39> H -5.1797237614 -0.4772147359 -1.7008287327
| 40> H -3.5251753687 -0.6220521793 -2.3732423483
| 41> H -1.1950329464 -1.8967539328 2.002242009
| 42> H -2.8231282887 -2.3283086706 1.3914311917
| 43> H -2.6116106511 -1.7943252163 3.0898641028
| 44> *
| 45>
| 46>                          ****END OF INPUT****

CARTESIAN COORDINATES (ANGSTROEM)
---------------------------------
  C      4.934020   -3.395986   -1.498102
  C      3.819389   -2.857166   -0.623129
  O      3.079611   -1.886166   -1.391471
  C      2.278395   -1.065609   -0.758788
  O      2.103324   -1.064550    0.445395
  C      1.597725   -0.089023   -1.693986
  C      0.359039    0.473684   -1.013214
  H     -0.048930    1.324083   -1.567414
  C      0.659064    0.932307    0.401783
  O     -0.064642    0.661243    1.342310
  O      1.694182    1.724391    0.459195
  C      2.047048    2.263507    1.750632
  C      3.136337    3.296370    1.544348
  S     -0.945614   -0.798887   -0.903391
  P     -2.359573    0.262518    0.269786
  S     -2.382327    2.213431    0.111343
  O     -3.711045   -0.390344   -0.322967
  C     -4.158850   -0.107558   -1.650849
  O     -2.490321   -0.300487    1.741864
  C     -2.262666   -1.682890    2.066598
  H      5.605545   -2.593291   -1.787419
  H      5.490577   -4.146766   -0.947253
  H      4.516512   -3.844401   -2.394219
  H      4.201926   -2.369161    0.278634
  H      3.125504   -3.647352   -0.321482
  H      1.343198   -0.589165   -2.627418
  H      2.296190    0.723632   -1.904808
  H      1.146366    2.696905    2.197335
  H      2.380167    1.430934    2.378187
  H      4.008117    2.833988    1.091982
  H      2.777902    4.089233    0.894751
  H      3.411789    3.718173    2.505066
  H     -4.133654    0.968702   -1.830941
  H     -5.179724   -0.477215   -1.700829
  H     -3.525175   -0.622052   -2.373242
  H     -1.195033   -1.896754    2.002242
  H     -2.823128   -2.328309    1.391431
  H     -2.611611   -1.794325    3.089864

 Total Charge           Charge          ....    0
 Multiplicity           Mult            ....    1
 Number of Electrons    NEL             ....  174
 Basis Dimension        Dim             ....  316

ORBITAL ENERGIES
----------------

  NO   OCC          E(Eh)            E(eV)
   0   2.0000     -88.031670     -2395.4635
   1   2.0000     -87.963564     -2393.6103
   2   2.0000     -76.412265     -2079.2834
   3   2.0000     -18.818273      -512.0712
   4   2.0000     -18.806154      -511.7415
   5   2.0000     -18.772840      -510.8349
   6   2.0000     -18.770047      -510.7589
   7   2.0000     -18.754132      -510.3259
   8   2.0000     -18.733124      -509.7542
   9   2.0000     -10.024257      -272.7739
  10   2.0000     -10.012451      -272.4526
  11   2.0000      -9.960646      -271.0429
  12   2.0000      -9.946051      -270.6458
  13   2.0000      -9.944483      -270.6031
  14   2.0000      -9.934217      -270.3238
  15   2.0000      -9.927637      -270.1447
  16   2.0000      -9.923788      -270.0400
  17   2.0000      -9.899467      -269.3782
  18   2.0000      -9.888807      -269.0881
  19   2.0000      -7.676447      -208.8867
  20   2.0000      -7.609015      -207.0518
  21   2.0000      -6.407938      -174.3689
  22   2.0000      -5.704265      -155.2210
  23   2.0000      -5.701104      -155.1349
  24   2.0000      -5.693385      -154.9249
  25   2.0000      -5.638252      -153.4246
  26   2.0000      -5.629732      -153.1928
  27   2.0000      -5.628672      -153.1640
  28   2.0000      -4.630566      -126.0041
  29   2.0000      -4.630195      -125.9940
  30   2.0000      -4.628285      -125.9420
  31   2.0000      -1.027566       -27.9615
  32   2.0000      -1.014506       -27.6061
  33   2.0000      -0.966559       -26.3014
  34   2.0000      -0.930630       -25.3237
  35   2.0000      -0.921807       -25.0836
  36   2.0000      -0.914034       -24.8721
  37   2.0000      -0.765640       -20.8341
  38   2.0000      -0.724114       -19.7041
  39   2.0000      -0.707247       -19.2452
  40   2.0000      -0.687350       -18.7038
  41   2.0000      -0.657707       -17.8971
  42   2.0000      -0.621189       -16.9034
  43   2.0000      -0.615842       -16.7579
  44   2.0000      -0.604147       -16.4397
  45   2.0000      -0.593897       -16.1608
  46   2.0000      -0.557782       -15.1780
  47   2.0000      -0.522574       -14.2200
  48   2.0000      -0.510595       -13.8940
  49   2.0000      -0.497040       -13.5251
  50   2.0000      -0.484238       -13.1768
  51   2.0000      -0.469488       -12.7754
  52   2.0000      -0.456446       -12.4205
  53   2.0000      -0.452246       -12.3062
  54   2.0000      -0.445228       -12.1153
  55   2.0000      -0.429164       -11.6782
  56   2.0000      -0.417763       -11.3679
  57   2.0000      -0.415441       -11.3047
  58   2.0000      -0.410846       -11.1797
  59   2.0000      -0.405457       -11.0330
  60   2.0000      -0.400329       -10.8935
  61   2.0000      -0.397862       -10.8264
  62   2.0000      -0.385719       -10.4959
  63   2.0000      -0.379639       -10.3305
  64   2.0000      -0.370235       -10.0746
  65   2.0000      -0.366184        -9.9644
  66   2.0000      -0.361055        -9.8248
  67   2.0000      -0.360441        -9.8081
  68   2.0000      -0.353730        -9.6255
  69   2.0000      -0.350661        -9.5420
  70   2.0000      -0.332820        -9.0565
  71   2.0000      -0.325957        -8.8697
  72   2.0000      -0.317085        -8.6283
  73   2.0000      -0.313720        -8.5368
  74   2.0000      -0.308516        -8.3951
  75   2.0000      -0.302108        -8.2208
  76   2.0000      -0.282385        -7.6841
  77   2.0000      -0.280170        -7.6238
  78   2.0000      -0.276507        -7.5241
  79   2.0000      -0.261578        -7.1179
  80   2.0000      -0.254340        -6.9210
  81   2.0000      -0.242599        -6.6015
  82   2.0000      -0.238020        -6.4769
  83   2.0000      -0.224554        -6.1104
  84   2.0000      -0.212998        -5.7960
  85   2.0000      -0.186411        -5.0725
  86   2.0000      -0.177460        -4.8289
  87   0.0000      -0.040989        -1.1154
  88   0.0000      -0.027248        -0.7414
  89   0.0000      -0.017098        -0.4653
  90   0.0000       0.012392         0.3372
  91   0.0000       0.030820         0.8387

MULLIKEN ATOMIC CHARGES
-----------------------
   0 C :   -0.276249
   1 C :   -0.031756
   2 O :   -0.221804
   3 C :    0.113543
   4 O :   -0.197439
   5 C :   -0.096458
   6 C :   -0.281183
   7 H :    0.146577
   8 C :    0.231749
   9 O :   -0.197740
  10 O :   -0.235561
  11 C :   -0.025893
  12 C :   -0.275323
  13 S :   -0.107589
  14 P :    0.617094
  15 S :   -0.341375
  16 O :   -0.392587
  17 C :   -0.096376
  18 O :   -0.353091
  19 C :   -0.098117
  20 H :    0.117185
  21 H :    0.115973
  22 H :    0.118887
  23 H :    0.113311
  24 H :    0.112949
  25 H :    0.128520
  26 H :    0.139988
  27 H :    0.121652
  28 H :    0.110495
  29 H :    0.110037
  30 H :    0.118298
  31 H :    0.113240
  32 H :    0.111093
  33 H :    0.117603
  34 H :    0.104018
  35 H :    0.130235
  36 H :    0.110528
  37 H :    0.125569
Sum of atomic charges:    0.0000000

LOEWDIN ATOMIC CHARGES
----------------------
   0 C :   -0.350249
   1 C :   -0.105189
   2 O :   -0.052719
   3 C :    0.034813
   4 O :   -0.147591
   5 C :   -0.251545
   6 C :   -0.262951
   7 H :    0.143443
   8 C :    0.012333
   9 O :   -0.159835
  10 O :   -0.050396
  11 C :   -0.102189
  12 C :   -0.350910
  13 S :    0.087908
  14 P :    0.591506
  15 S :   -0.336083
  16 O :   -0.271832
  17 C :   -0.221956
  18 O :   -0.232198
  19 C :   -0.207780
  20 H :    0.127720
  21 H :    0.132916
  22 H :    0.128651
  23 H :    0.119598
  24 H :    0.120756
  25 H :    0.142678
  26 H :    0.155973
  27 H :    0.124557
  28 H :    0.120325
  29 H :    0.124002
  30 H :    0.128106
  31 H :    0.132056
  32 H :    0.106980
  33 H :    0.118340
  34 H :    0.101850
  35 H :    0.116896
  36 H :    0.108116
  37 H :    0.123898

  Mayer bond orders larger than 0.100000
B(  0-C ,  1-C ) :   1.1559 B(  0-C , 20-H ) :   0.9513 B(  0-C , 21-H ) :   0.9434
B(  0-C , 22-H ) :   0.9482 B(  1-C ,  2-O ) :   0.8978 B(  1-C , 23-H ) :   0.9253
B(  1-C , 24-H ) :   0.9350 B(  2-O ,  3-C ) :   1.2583 B(  3-C ,  4-O ) :   1.9924
B(  3-C ,  5-C ) :   0.9956 B(  4-O ,  8-C ) :   0.1035 B(  5-C ,  6-C ) :   1.0585
B(  5-C , 25-H ) :   0.9026 B(  5-C , 26-H ) :   0.8740 B(  6-C ,  7-H ) :   0.8562
B(  6-C ,  8-C ) :   0.8831 B(  6-C , 13-S ) :   1.0348 B(  8-C ,  9-O ) :   1.9641
B(  8-C , 10-O ) :   1.2486 B(  9-O , 14-P ) :   0.1114 B( 10-O , 11-C ) :   0.8989
B( 11-C , 12-C ) :   1.1528 B( 11-C , 27-H ) :   0.9276 B( 11-C , 28-H ) :   0.9314
B( 12-C , 29-H ) :   0.9499 B( 12-C , 30-H ) :   0.9503 B( 12-C , 31-H ) :   0.9435
B( 13-S , 14-P ) :   0.9346 B( 13-S , 15-S ) :   0.1093 B( 14-P , 15-S ) :   1.6106
B( 14-P , 16-O ) :   1.0496 B( 14-P , 18-O ) :   1.1317 B( 16-O , 17-C ) :   0.9447
B( 17-C , 32-H ) :   0.9319 B( 17-C , 33-H ) :   0.9592 B( 17-C , 34-H ) :   0.9456
B( 18-O , 19-C ) :   0.9240 B( 19-C , 35-H ) :   0.9431 B( 19-C , 36-H ) :   0.9452
B( 19-C , 37-H ) :   0.9595

Dispersion correction           -0.050666918
FINAL SINGLE POINT ENERGY     -1979.012773868276

DIPOLE MOMENT
-------------

Method             : SCF
Type of density    : Electron Density
Multiplicity       :   1
Irrep              :   0
Energy             : -1979.1437707154727832 Eh
Relativity type    :
Basis              : AO
                                X                 Y                 Z
Electronic contribution:    -19.713348314       5.175972713       0.943528005
Nuclear contribution   :     21.715018787      -6.413934074      -1.709473247
                        -----------------------------------------
Total Dipole Moment    :      2.001670473      -1.237961361      -0.765945241
                        -----------------------------------------
Magnitude (a.u.)       :      2.475056591
Magnitude (Debye)      :      6.291093892

Rotational constants in cm-1:             0.013336             0.006374             0.005163
Rotational constants in MHz :           399.810679           191.093855           154.768683

                             ****ORCA TERMINATED NORMALLY****
TOTAL RUN TIME: 0 days 0 hours 0 minutes 37 seconds 241 msec
