                         Program Version 6.0.0  -   RELEASE  -
|  1> ! r2scan-3c def2/J RI DEFGRID2 scfconv6 printgap
|  2> %output
|  3>     printlevel normal
|  4> end
|  5> * xyz 0 1
|  6> C 3.4751657052 1.9558414356 -0.9547416697
|  7> C 3.6219683847 0.9430181327 0.163157838
|  8> O 2.964530851 -0.2923923344 -0.1838280869
|  9> P 1.7421556342 -0.9437715527 0.6025518776
| 10> S 1.1538050643 0.0666632269 2.1792214266
| 11> O 2.1721368346 -2.441496864 0.9206382543
| 12> C 2.7657269788 -2.8199697692 2.1761923733
| 13> C 4.1704905773 -2.2696341479 2.3196867027
| 14> S 0.4620047942 -1.5136632933 -0.9748582109
| 15> C 0.4381956 0.0375838699 -1.9201916314
| 16> S -0.1189978864 1.467482413 -0.9479196699
| 17> P -2.0673640613 0.776083295 -0.5915010152
| 18> S -2.9746842512 -0.1864392013 -2.0430992977
| 19> O -2.864621443 2.03754435 -0.0433633044
| 20> C -3.5870848749 2.9294696649 -0.9128303119
| 21> C -2.6590567347 3.7256779676 -1.807043658
| 22> O -1.82120206 -0.0451485131 0.7393691452
| 23> C -2.7952070959 -0.9615424268 1.2831171327
| 24> C -2.0539389863 -2.0841821837 1.9802079663
| 25> H 2.4329869142 2.2487902997 -1.0708025745
| 26> H 4.060911473 2.8353615467 -0.707847967
| 27> H 3.8385998732 1.5379695935 -1.8895339037
| 28> H 3.1921868994 1.3218380278 1.0969374375
| 29> H 4.6706814085 0.682524743 0.3211054662
| 30> H 2.1262261394 -2.4578054935 2.9879195618
| 31> H 2.7568105088 -3.9104923337 2.153933092
| 32> H 4.1340490233 -1.1832902745 2.3953277736
| 33> H 4.6248179639 -2.6702845314 3.2204006182
| 34> H 4.7709878506 -2.546968449 1.4571391506
| 35> H -0.2533285552 -0.1294359971 -2.7463343313
| 36> H 1.4378984058 0.2672692835 -2.2802740845
| 37> H -4.2840639843 2.3346167009 -1.5117906156
| 38> H -4.1394631434 3.5720704144 -0.2261352939
| 39> H -1.8990574585 4.2262432943 -1.2121909024
| 40> H -2.168380372 3.0620602383 -2.5180513048
| 41> H -3.2351639176 4.4646769123 -2.3545005818
| 42> H -3.419058404 -0.4001515787 1.9823536381
| 43> H -3.4153036918 -1.3411752663 0.4630622505
| 44> H -2.7705624385 -2.7522681123 2.4461898349
| 45> H -1.4547454093 -2.6416317928 1.2626988699
| 46> H -1.3949414657 -1.6714281941 2.740355364
| 47> *
| 48>
| 49>                          ****END OF INPUT****

CARTESIAN COORDINATES (ANGSTROEM)
---------------------------------
  C      3.475166    1.955841   -0.954742
  C      3.621968    0.943018    0.163158
  O      2.964531   -0.292392   -0.183828
  P      1.742156   -0.943772    0.602552
  S      1.153805    0.066663    2.179221
  O      2.172137   -2.441497    0.920638
  C      2.765727   -2.819970    2.176192
  C      4.170491   -2.269634    2.319687
  S      0.462005   -1.513663   -0.974858
  C      0.438196    0.037584   -1.920192
  S     -0.118998    1.467482   -0.947920
  P     -2.067364    0.776083   -0.591501
  S     -2.974684   -0.186439   -2.043099
  O     -2.864621    2.037544   -0.043363
  C     -3.587085    2.929470   -0.912830
  C     -2.659057    3.725678   -1.807044
  O     -1.821202   -0.045149    0.739369
  C     -2.795207   -0.961542    1.283117
  C     -2.053939   -2.084182    1.980208
  H      2.432987    2.248790   -1.070803
  H      4.060911    2.835362   -0.707848
  H      3.838600    1.537970   -1.889534
  H      3.192187    1.321838    1.096937
  H      4.670681    0.682525    0.321105
  H      2.126226   -2.457805    2.987920
  H      2.756811   -3.910492    2.153933
  H      4.134049   -1.183290    2.395328
  H      4.624818   -2.670285    3.220401
  H      4.770988   -2.546968    1.457139
  H     -0.253329   -0.129436   -2.746334
  H      1.437898    0.267269   -2.280274
  H     -4.284064    2.334617   -1.511791
  H     -4.139463    3.572070   -0.226135
  H     -1.899057    4.226243   -1.212191
  H     -2.168380    3.062060   -2.518051
  H     -3.235164    4.464677   -2.354501
  H     -3.419058   -0.400152    1.982354
  H     -3.415304   -1.341175    0.463062
  H     -2.770562   -2.752268    2.446190
  H     -1.454745   -2.641632    1.262699
  H     -1.394941   -1.671428    2.740355

 Total Charge           Charge          ....    0
 Multiplicity           Mult            ....    1
 Number of Electrons    NEL             ....  202
 Basis Dimension        Dim             ....  539

ORBITAL ENERGIES
----------------

  NO   OCC          E(Eh)            E(eV)
   0   2.0000     -88.576449     -2410.2877
   1   2.0000     -88.571735     -2410.1594
   2   2.0000     -88.517644     -2408.6875
   3   2.0000     -88.514988     -2408.6153
   4   2.0000     -76.911433     -2092.8665
   5   2.0000     -76.910682     -2092.8461
   6   2.0000     -18.992960      -516.8247
   7   2.0000     -18.990624      -516.7612
   8   2.0000     -18.987514      -516.6765
   9   2.0000     -18.979073      -516.4468
  10   2.0000     -10.108680      -275.0712
  11   2.0000     -10.099669      -274.8260
  12   2.0000     -10.096566      -274.7415
  13   2.0000     -10.095813      -274.7210
  14   2.0000     -10.087578      -274.4970
  15   2.0000     -10.036370      -273.1035
  16   2.0000     -10.030866      -272.9537
  17   2.0000     -10.028168      -272.8803
  18   2.0000     -10.017281      -272.5841
  19   2.0000      -7.871217      -214.1867
  20   2.0000      -7.866009      -214.0450
  21   2.0000      -7.812478      -212.5883
  22   2.0000      -7.809811      -212.5158
  23   2.0000      -6.589637      -179.3131
  24   2.0000      -6.589274      -179.3033
  25   2.0000      -5.818137      -158.3196
  26   2.0000      -5.815058      -158.2358
  27   2.0000      -5.813268      -158.1871
  28   2.0000      -5.809768      -158.0918
  29   2.0000      -5.808201      -158.0492
  30   2.0000      -5.802816      -157.9027
  31   2.0000      -5.760014      -156.7380
  32   2.0000      -5.757532      -156.6704
  33   2.0000      -5.752856      -156.5432
  34   2.0000      -5.752476      -156.5328
  35   2.0000      -5.750027      -156.4662
  36   2.0000      -5.749790      -156.4597
  37   2.0000      -4.735239      -128.8524
  38   2.0000      -4.734711      -128.8380
  39   2.0000      -4.734586      -128.8346
  40   2.0000      -4.734127      -128.8221
  41   2.0000      -4.733243      -128.7981
  42   2.0000      -4.733128      -128.7949
  43   2.0000      -1.045592       -28.4520
  44   2.0000      -1.044202       -28.4142
  45   2.0000      -1.010550       -27.4985
  46   2.0000      -1.003801       -27.3148
  47   2.0000      -0.802568       -21.8390
  48   2.0000      -0.759922       -20.6785
  49   2.0000      -0.746802       -20.3215
  50   2.0000      -0.734386       -19.9837
  51   2.0000      -0.725883       -19.7523
  52   2.0000      -0.705316       -19.1926
  53   2.0000      -0.683785       -18.6067
  54   2.0000      -0.668402       -18.1881
  55   2.0000      -0.631808       -17.1924
  56   2.0000      -0.622183       -16.9305
  57   2.0000      -0.608625       -16.5615
  58   2.0000      -0.600061       -16.3285
  59   2.0000      -0.585446       -15.9308
  60   2.0000      -0.523538       -14.2462
  61   2.0000      -0.520928       -14.1752
  62   2.0000      -0.497249       -13.5308
  63   2.0000      -0.488169       -13.2838
  64   2.0000      -0.476967       -12.9789
  65   2.0000      -0.458602       -12.4792
  66   2.0000      -0.456467       -12.4211
  67   2.0000      -0.451711       -12.2917
  68   2.0000      -0.441160       -12.0046
  69   2.0000      -0.431813       -11.7502
  70   2.0000      -0.417248       -11.3539
  71   2.0000      -0.415101       -11.2955
  72   2.0000      -0.408656       -11.1201
  73   2.0000      -0.402504       -10.9527
  74   2.0000      -0.396781       -10.7970
  75   2.0000      -0.391910       -10.6644
  76   2.0000      -0.384266       -10.4564
  77   2.0000      -0.376911       -10.2563
  78   2.0000      -0.368141       -10.0176
  79   2.0000      -0.366371        -9.9695
  80   2.0000      -0.360276        -9.8036
  81   2.0000      -0.357435        -9.7263
  82   2.0000      -0.353312        -9.6141
  83   2.0000      -0.348730        -9.4894
  84   2.0000      -0.344612        -9.3774
  85   2.0000      -0.335219        -9.1218
  86   2.0000      -0.320676        -8.7260
  87   2.0000      -0.310130        -8.4391
  88   2.0000      -0.307601        -8.3703
  89   2.0000      -0.298333        -8.1181
  90   2.0000      -0.296235        -8.0610
  91   2.0000      -0.290816        -7.9135
  92   2.0000      -0.282547        -7.6885
  93   2.0000      -0.277918        -7.5625
  94   2.0000      -0.275238        -7.4896
  95   2.0000      -0.248539        -6.7631
  96   2.0000      -0.226731        -6.1697
  97   2.0000      -0.220237        -5.9929
  98   2.0000      -0.216230        -5.8839
  99   2.0000      -0.208735        -5.6800
 100   2.0000      -0.205886        -5.6024
 101   0.0000      -0.051480        -1.4008
 102   0.0000      -0.025168        -0.6848
 103   0.0000      -0.003605        -0.0981
 104   0.0000       0.005089         0.1385
 105   0.0000       0.017587         0.4786

MULLIKEN ATOMIC CHARGES
-----------------------
   0 C :   -0.488980
   1 C :   -0.124704
   2 O :   -0.311457
   3 P :    0.743327
   4 S :   -0.473350
   5 O :   -0.307387
   6 C :   -0.149958
   7 C :   -0.450438
   8 S :   -0.121135
   9 C :   -0.238280
  10 S :   -0.128881
  11 P :    0.716682
  12 S :   -0.492688
  13 O :   -0.309101
  14 C :   -0.149027
  15 C :   -0.457464
  16 O :   -0.250007
  17 C :   -0.131963
  18 C :   -0.474194
  19 H :    0.164223
  20 H :    0.150988
  21 H :    0.160149
  22 H :    0.184563
  23 H :    0.147913
  24 H :    0.173741
  25 H :    0.149409
  26 H :    0.163883
  27 H :    0.148432
  28 H :    0.159303
  29 H :    0.214637
  30 H :    0.192434
  31 H :    0.174020
  32 H :    0.148138
  33 H :    0.156346
  34 H :    0.176396
  35 H :    0.147903
  36 H :    0.146962
  37 H :    0.164388
  38 H :    0.139781
  39 H :    0.163441
  40 H :    0.171954
Sum of atomic charges:    0.0000000

LOEWDIN ATOMIC CHARGES
----------------------
   0 C :   -0.398505
   1 C :    0.013366
   2 O :   -0.676903
   3 P :    0.390893
   4 S :   -0.107053
   5 O :   -0.682027
   6 C :    0.018017
   7 C :   -0.399645
   8 S :    0.202879
   9 C :   -0.411228
  10 S :    0.163697
  11 P :    0.373115
  12 S :   -0.137735
  13 O :   -0.655239
  14 C :    0.019655
  15 C :   -0.407679
  16 O :   -0.678186
  17 C :    0.025212
  18 C :   -0.395499
  19 H :    0.162515
  20 H :    0.162437
  21 H :    0.158379
  22 H :    0.185839
  23 H :    0.174877
  24 H :    0.179941
  25 H :    0.179499
  26 H :    0.162227
  27 H :    0.159966
  28 H :    0.160724
  29 H :    0.192456
  30 H :    0.183216
  31 H :    0.180096
  32 H :    0.179576
  33 H :    0.160049
  34 H :    0.165012
  35 H :    0.159309
  36 H :    0.171408
  37 H :    0.180069
  38 H :    0.155665
  39 H :    0.162755
  40 H :    0.166851

  Mayer bond orders larger than 0.100000
B(  0-C ,  1-C ) :   0.9341 B(  0-C , 19-H ) :   0.9626 B(  0-C , 20-H ) :   0.9599
B(  0-C , 21-H ) :   0.9761 B(  1-C ,  2-O ) :   0.7550 B(  1-C , 22-H ) :   0.9513
B(  1-C , 23-H ) :   0.9570 B(  2-O ,  3-P ) :   1.0952 B(  3-P ,  4-S ) :   1.7311
B(  3-P ,  5-O ) :   1.1405 B(  3-P ,  8-S ) :   1.0861 B(  5-O ,  6-C ) :   0.8085
B(  6-C ,  7-C ) :   0.9155 B(  6-C , 24-H ) :   0.9653 B(  6-C , 25-H ) :   0.9594
B(  7-C , 26-H ) :   0.9616 B(  7-C , 27-H ) :   0.9625 B(  7-C , 28-H ) :   0.9713
B(  8-S ,  9-C ) :   0.9053 B(  9-C , 10-S ) :   0.9108 B(  9-C , 29-H ) :   0.9115
B(  9-C , 30-H ) :   0.9089 B( 10-S , 11-P ) :   1.0766 B( 11-P , 12-S ) :   1.7296
B( 11-P , 13-O ) :   1.0611 B( 11-P , 16-O ) :   1.1814 B( 13-O , 14-C ) :   0.8167
B( 14-C , 15-C ) :   0.9193 B( 14-C , 31-H ) :   0.9682 B( 14-C , 32-H ) :   0.9581
B( 15-C , 33-H ) :   0.9688 B( 15-C , 34-H ) :   0.9631 B( 15-C , 35-H ) :   0.9585
B( 16-O , 17-C ) :   0.7795 B( 17-C , 18-C ) :   0.9649 B( 17-C , 36-H ) :   0.9466
B( 17-C , 37-H ) :   0.9582 B( 18-C , 38-H ) :   0.9628 B( 18-C , 39-H ) :   0.9703
B( 18-C , 40-H ) :   0.9635

Dispersion correction           -0.022189044
FINAL SINGLE POINT ENERGY     -2932.456439390872

DIPOLE MOMENT
-------------

Method             : SCF
Type of density    : Electron Density
Multiplicity       :   1
Irrep              :   0
Energy             : -2932.4810785772206145 Eh
Relativity type    :
Basis              : AO
                                X                 Y                 Z
Electronic contribution:     -8.458101932      -4.169483787      -5.478147449
Nuclear contribution   :      9.357822271       4.692368417       5.701441482
                        -----------------------------------------
Total Dipole Moment    :      0.899720339       0.522884630       0.223294033
                        -----------------------------------------
Magnitude (a.u.)       :      1.064314451
Magnitude (Debye)      :      2.705272343

Rotational constants in cm-1:             0.012756             0.005454             0.004709
Rotational constants in MHz :           382.413590           163.493867           141.159384

                             ****ORCA TERMINATED NORMALLY****
TOTAL RUN TIME: 0 days 0 hours 1 minutes 20 seconds 637 msec
