                         Program Version 6.0.0  -   RELEASE  -
|  1> ! r2scan-3c def2/J RI DEFGRID2 scfconv6 printgap
|  2> %output
|  3>     printlevel normal
|  4> end
|  5> %cpcm
|  6>     smd true
|  7>     smdsolvent "water"
|  8> end
|  9> * xyz 0 1
| 10> C 3.4751657052 1.9558414356 -0.9547416697
| 11> C 3.6219683847 0.9430181327 0.163157838
| 12> O 2.964530851 -0.2923923344 -0.1838280869
| 13> P 1.7421556342 -0.9437715527 0.6025518776
| 14> S 1.1538050643 0.0666632269 2.1792214266
| 15> O 2.1721368346 -2.441496864 0.9206382543
| 16> C 2.7657269788 -2.8199697692 2.1761923733
| 17> C 4.1704905773 -2.2696341479 2.3196867027
| 18> S 0.4620047942 -1.5136632933 -0.9748582109
| 19> C 0.4381956 0.0375838699 -1.9201916314
| 20> S -0.1189978864 1.467482413 -0.9479196699
| 21> P -2.0673640613 0.776083295 -0.5915010152
| 22> S -2.9746842512 -0.1864392013 -2.0430992977
| 23> O -2.864621443 2.03754435 -0.0433633044
| 24> C -3.5870848749 2.9294696649 -0.9128303119
| 25> C -2.6590567347 3.7256779676 -1.807043658
| 26> O -1.82120206 -0.0451485131 0.7393691452
| 27> C -2.7952070959 -0.9615424268 1.2831171327
| 28> C -2.0539389863 -2.0841821837 1.9802079663
| 29> H 2.4329869142 2.2487902997 -1.0708025745
| 30> H 4.060911473 2.8353615467 -0.707847967
| 31> H 3.8385998732 1.5379695935 -1.8895339037
| 32> H 3.1921868994 1.3218380278 1.0969374375
| 33> H 4.6706814085 0.682524743 0.3211054662
| 34> H 2.1262261394 -2.4578054935 2.9879195618
| 35> H 2.7568105088 -3.9104923337 2.153933092
| 36> H 4.1340490233 -1.1832902745 2.3953277736
| 37> H 4.6248179639 -2.6702845314 3.2204006182
| 38> H 4.7709878506 -2.546968449 1.4571391506
| 39> H -0.2533285552 -0.1294359971 -2.7463343313
| 40> H 1.4378984058 0.2672692835 -2.2802740845
| 41> H -4.2840639843 2.3346167009 -1.5117906156
| 42> H -4.1394631434 3.5720704144 -0.2261352939
| 43> H -1.8990574585 4.2262432943 -1.2121909024
| 44> H -2.168380372 3.0620602383 -2.5180513048
| 45> H -3.2351639176 4.4646769123 -2.3545005818
| 46> H -3.419058404 -0.4001515787 1.9823536381
| 47> H -3.4153036918 -1.3411752663 0.4630622505
| 48> H -2.7705624385 -2.7522681123 2.4461898349
| 49> H -1.4547454093 -2.6416317928 1.2626988699
| 50> H -1.3949414657 -1.6714281941 2.740355364
| 51> *
| 52>
| 53>                          ****END OF INPUT****

CARTESIAN COORDINATES (ANGSTROEM)
---------------------------------
  C      3.475166    1.955841   -0.954742
  C      3.621968    0.943018    0.163158
  O      2.964531   -0.292392   -0.183828
  P      1.742156   -0.943772    0.602552
  S      1.153805    0.066663    2.179221
  O      2.172137   -2.441497    0.920638
  C      2.765727   -2.819970    2.176192
  C      4.170491   -2.269634    2.319687
  S      0.462005   -1.513663   -0.974858
  C      0.438196    0.037584   -1.920192
  S     -0.118998    1.467482   -0.947920
  P     -2.067364    0.776083   -0.591501
  S     -2.974684   -0.186439   -2.043099
  O     -2.864621    2.037544   -0.043363
  C     -3.587085    2.929470   -0.912830
  C     -2.659057    3.725678   -1.807044
  O     -1.821202   -0.045149    0.739369
  C     -2.795207   -0.961542    1.283117
  C     -2.053939   -2.084182    1.980208
  H      2.432987    2.248790   -1.070803
  H      4.060911    2.835362   -0.707848
  H      3.838600    1.537970   -1.889534
  H      3.192187    1.321838    1.096937
  H      4.670681    0.682525    0.321105
  H      2.126226   -2.457805    2.987920
  H      2.756811   -3.910492    2.153933
  H      4.134049   -1.183290    2.395328
  H      4.624818   -2.670285    3.220401
  H      4.770988   -2.546968    1.457139
  H     -0.253329   -0.129436   -2.746334
  H      1.437898    0.267269   -2.280274
  H     -4.284064    2.334617   -1.511791
  H     -4.139463    3.572070   -0.226135
  H     -1.899057    4.226243   -1.212191
  H     -2.168380    3.062060   -2.518051
  H     -3.235164    4.464677   -2.354501
  H     -3.419058   -0.400152    1.982354
  H     -3.415304   -1.341175    0.463062
  H     -2.770562   -2.752268    2.446190
  H     -1.454745   -2.641632    1.262699
  H     -1.394941   -1.671428    2.740355

 Total Charge           Charge          ....    0
 Multiplicity           Mult            ....    1
 Number of Electrons    NEL             ....  202
 Basis Dimension        Dim             ....  539

ORBITAL ENERGIES
----------------

  NO   OCC          E(Eh)            E(eV)
   0   2.0000     -88.579769     -2410.3781
   1   2.0000     -88.576497     -2410.2890
   2   2.0000     -88.526312     -2408.9234
   3   2.0000     -88.521484     -2408.7920
   4   2.0000     -76.916948     -2093.0165
   5   2.0000     -76.916251     -2092.9976
   6   2.0000     -18.995177      -516.8851
   7   2.0000     -18.993306      -516.8341
   8   2.0000     -18.991222      -516.7774
   9   2.0000     -18.985314      -516.6167
  10   2.0000     -10.106151      -275.0024
  11   2.0000     -10.089203      -274.5412
  12   2.0000     -10.087864      -274.5047
  13   2.0000     -10.087294      -274.4892
  14   2.0000     -10.086108      -274.4569
  15   2.0000     -10.020074      -272.6601
  16   2.0000     -10.018699      -272.6227
  17   2.0000     -10.018365      -272.6136
  18   2.0000     -10.015210      -272.5277
  19   2.0000      -7.874455      -214.2748
  20   2.0000      -7.870875      -214.1774
  21   2.0000      -7.821434      -212.8320
  22   2.0000      -7.816585      -212.7001
  23   2.0000      -6.595644      -179.4766
  24   2.0000      -6.594474      -179.4448
  25   2.0000      -5.821391      -158.4081
  26   2.0000      -5.818286      -158.3236
  27   2.0000      -5.818056      -158.3173
  28   2.0000      -5.814574      -158.2226
  29   2.0000      -5.811453      -158.1377
  30   2.0000      -5.807825      -158.0390
  31   2.0000      -5.768901      -156.9798
  32   2.0000      -5.764265      -156.8536
  33   2.0000      -5.761787      -156.7862
  34   2.0000      -5.761474      -156.7777
  35   2.0000      -5.756783      -156.6500
  36   2.0000      -5.756572      -156.6443
  37   2.0000      -4.741072      -129.0111
  38   2.0000      -4.740485      -128.9952
  39   2.0000      -4.739987      -128.9816
  40   2.0000      -4.739535      -128.9693
  41   2.0000      -4.739438      -128.9667
  42   2.0000      -4.738186      -128.9326
  43   2.0000      -1.049283       -28.5524
  44   2.0000      -1.047180       -28.4952
  45   2.0000      -1.011418       -27.5221
  46   2.0000      -1.008679       -27.4475
  47   2.0000      -0.803969       -21.8771
  48   2.0000      -0.756847       -20.5948
  49   2.0000      -0.742658       -20.2087
  50   2.0000      -0.723778       -19.6950
  51   2.0000      -0.721505       -19.6331
  52   2.0000      -0.705265       -19.1912
  53   2.0000      -0.686940       -18.6926
  54   2.0000      -0.674993       -18.3675
  55   2.0000      -0.630761       -17.1639
  56   2.0000      -0.618881       -16.8406
  57   2.0000      -0.599957       -16.3257
  58   2.0000      -0.597354       -16.2548
  59   2.0000      -0.584175       -15.8962
  60   2.0000      -0.522373       -14.2145
  61   2.0000      -0.516517       -14.0551
  62   2.0000      -0.493551       -13.4302
  63   2.0000      -0.488099       -13.2818
  64   2.0000      -0.476350       -12.9621
  65   2.0000      -0.455382       -12.3916
  66   2.0000      -0.453216       -12.3326
  67   2.0000      -0.446546       -12.1511
  68   2.0000      -0.439224       -11.9519
  69   2.0000      -0.428673       -11.6648
  70   2.0000      -0.416662       -11.3380
  71   2.0000      -0.410656       -11.1745
  72   2.0000      -0.405619       -11.0374
  73   2.0000      -0.402961       -10.9651
  74   2.0000      -0.395081       -10.7507
  75   2.0000      -0.389467       -10.5979
  76   2.0000      -0.381096       -10.3701
  77   2.0000      -0.367975       -10.0131
  78   2.0000      -0.363166        -9.8822
  79   2.0000      -0.357233        -9.7208
  80   2.0000      -0.354917        -9.6578
  81   2.0000      -0.350425        -9.5355
  82   2.0000      -0.346662        -9.4331
  83   2.0000      -0.344810        -9.3828
  84   2.0000      -0.342946        -9.3320
  85   2.0000      -0.331874        -9.0307
  86   2.0000      -0.319386        -8.6909
  87   2.0000      -0.306182        -8.3316
  88   2.0000      -0.303257        -8.2520
  89   2.0000      -0.301075        -8.1927
  90   2.0000      -0.298055        -8.1105
  91   2.0000      -0.289029        -7.8649
  92   2.0000      -0.284087        -7.7304
  93   2.0000      -0.279423        -7.6035
  94   2.0000      -0.275339        -7.4924
  95   2.0000      -0.252882        -6.8813
  96   2.0000      -0.232405        -6.3241
  97   2.0000      -0.228745        -6.2245
  98   2.0000      -0.225907        -6.1473
  99   2.0000      -0.215273        -5.8579
 100   2.0000      -0.212605        -5.7853
 101   0.0000      -0.056105        -1.5267
 102   0.0000      -0.030553        -0.8314
 103   0.0000      -0.007668        -0.2086
 104   0.0000       0.001764         0.0480
 105   0.0000       0.014624         0.3979

MULLIKEN ATOMIC CHARGES
-----------------------
   0 C :   -0.492606
   1 C :   -0.131754
   2 O :   -0.326709
   3 P :    0.777288
   4 S :   -0.521209
   5 O :   -0.339897
   6 C :   -0.150313
   7 C :   -0.482172
   8 S :   -0.156307
   9 C :   -0.248629
  10 S :   -0.130153
  11 P :    0.740875
  12 S :   -0.543829
  13 O :   -0.335890
  14 C :   -0.149215
  15 C :   -0.490614
  16 O :   -0.269398
  17 C :   -0.137788
  18 C :   -0.501902
  19 H :    0.155720
  20 H :    0.172862
  21 H :    0.172756
  22 H :    0.179900
  23 H :    0.173942
  24 H :    0.175858
  25 H :    0.173865
  26 H :    0.168975
  27 H :    0.171874
  28 H :    0.169626
  29 H :    0.233817
  30 H :    0.232394
  31 H :    0.178162
  32 H :    0.174614
  33 H :    0.170191
  34 H :    0.173078
  35 H :    0.172967
  36 H :    0.170619
  37 H :    0.167822
  38 H :    0.165010
  39 H :    0.166931
  40 H :    0.169240
Sum of atomic charges:   -0.0000000

LOEWDIN ATOMIC CHARGES
----------------------
   0 C :   -0.397142
   1 C :    0.020231
   2 O :   -0.683087
   3 P :    0.394753
   4 S :   -0.136724
   5 O :   -0.699315
   6 C :    0.021879
   7 C :   -0.401900
   8 S :    0.182891
   9 C :   -0.401382
  10 S :    0.166266
  11 P :    0.375969
  12 S :   -0.170353
  13 O :   -0.670161
  14 C :    0.024661
  15 C :   -0.409929
  16 O :   -0.691449
  17 C :    0.027329
  18 C :   -0.398516
  19 H :    0.159882
  20 H :    0.170181
  21 H :    0.164365
  22 H :    0.184660
  23 H :    0.186114
  24 H :    0.180821
  25 H :    0.189424
  26 H :    0.162850
  27 H :    0.168512
  28 H :    0.164149
  29 H :    0.198393
  30 H :    0.197861
  31 H :    0.181427
  32 H :    0.190674
  33 H :    0.163792
  34 H :    0.161605
  35 H :    0.168599
  36 H :    0.180276
  37 H :    0.181252
  38 H :    0.164853
  39 H :    0.161873
  40 H :    0.164416

  Mayer bond orders larger than 0.100000
B(  0-C ,  1-C ) :   0.9413 B(  0-C , 19-H ) :   0.9596 B(  0-C , 20-H ) :   0.9562
B(  0-C , 21-H ) :   0.9699 B(  1-C ,  2-O ) :   0.7455 B(  1-C , 22-H ) :   0.9519
B(  1-C , 23-H ) :   0.9481 B(  2-O ,  3-P ) :   1.1109 B(  3-P ,  4-S ) :   1.6915
B(  3-P ,  5-O ) :   1.1446 B(  3-P ,  8-S ) :   1.0988 B(  5-O ,  6-C ) :   0.7973
B(  6-C ,  7-C ) :   0.9090 B(  6-C , 24-H ) :   0.9615 B(  6-C , 25-H ) :   0.9509
B(  7-C , 26-H ) :   0.9592 B(  7-C , 27-H ) :   0.9572 B(  7-C , 28-H ) :   0.9689
B(  8-S ,  9-C ) :   0.8908 B(  9-C , 10-S ) :   0.9095 B(  9-C , 29-H ) :   0.9066
B(  9-C , 30-H ) :   0.8987 B( 10-S , 11-P ) :   1.0969 B( 11-P , 12-S ) :   1.6857
B( 11-P , 13-O ) :   1.0671 B( 11-P , 16-O ) :   1.1853 B( 13-O , 14-C ) :   0.8048
B( 14-C , 15-C ) :   0.9082 B( 14-C , 31-H ) :   0.9659 B( 14-C , 32-H ) :   0.9485
B( 15-C , 33-H ) :   0.9657 B( 15-C , 34-H ) :   0.9633 B( 15-C , 35-H ) :   0.9531
B( 16-O , 17-C ) :   0.7695 B( 17-C , 18-C ) :   0.9587 B( 17-C , 36-H ) :   0.9378
B( 17-C , 37-H ) :   0.9563 B( 18-C , 38-H ) :   0.9588 B( 18-C , 39-H ) :   0.9693
B( 18-C , 40-H ) :   0.9637

Dispersion correction           -0.022189044
FINAL SINGLE POINT ENERGY     -2932.464512453203

DIPOLE MOMENT
-------------

Method             : SCF
Type of density    : Electron Density
Multiplicity       :   1
Irrep              :   0
Energy             : -2932.4891516395514373 Eh
Relativity type    :
Basis              : AO
                                X                 Y                 Z
Electronic contribution:     -8.083086094      -3.905141430      -5.538512191
Nuclear contribution   :      9.357822271       4.692368417       5.701441482
                        -----------------------------------------
Total Dipole Moment    :      1.274736177       0.787226987       0.162929292
                        -----------------------------------------
Magnitude (a.u.)       :      1.507058261
Magnitude (Debye)      :      3.830637675

Rotational constants in cm-1:             0.012756             0.005454             0.004709
Rotational constants in MHz :           382.413590           163.493867           141.159384

                             ****ORCA TERMINATED NORMALLY****
TOTAL RUN TIME: 0 days 0 hours 1 minutes 49 seconds 523 msec
