                         Program Version 6.0.0  -   RELEASE  -
|  1> ! r2scan-3c def2/J RI DEFGRID2 scfconv6 printgap
|  2> %output
|  3>     printlevel normal
|  4> end
|  5> * xyz 0 1
|  6> C 1.0108389709 -0.1073267445 3.4980112192
|  7> C 1.8191189565 0.8727919055 2.6710269407
|  8> O 1.4794029961 0.7651271908 1.2665000189
|  9> P 2.3262446674 -0.1319355832 0.2715151346
| 10> S 2.8491806322 -1.9212558043 0.8903131609
| 11> O 3.5559466928 0.830777922 -0.0323675131
| 12> C 4.7706732509 0.3567792933 -0.639197316
| 13> C 4.5645038683 -0.036452585 -2.0875815954
| 14> S 1.0897373093 -0.0227651596 -1.4340593834
| 15> C 0.0622352521 -1.4586707383 -1.0116736961
| 16> S -1.0286019975 -1.1559511438 0.3923111277
| 17> P -2.2800893373 0.2678042502 -0.5976554054
| 18> S -2.5770908486 -0.0455073794 -2.5044803507
| 19> O -1.6246688538 1.6872397553 -0.3970485639
| 20> C -1.3627944339 2.2804640618 0.8961821789
| 21> C -2.4348130245 3.2931219149 1.2417411881
| 22> O -3.5379359062 0.3488200096 0.3699206238
| 23> C -4.2916742544 -0.7814602505 0.8493962081
| 24> C -4.8012948665 -1.6653631146 -0.2690507928
| 25> H 1.2590284264 -1.129591243 3.221265616
| 26> H 1.2378353811 0.0408019986 4.5488327546
| 27> H -0.0522047815 0.0444527497 3.3337811057
| 28> H 2.8912592857 0.6990691824 2.7951254334
| 29> H 1.5836831343 1.9061559872 2.9307585539
| 30> H 5.4583722382 1.197865194 -0.5424885733
| 31> H 5.1375886052 -0.4956621676 -0.0582582689
| 32> H 5.5227361841 -0.2795936264 -2.535266401
| 33> H 3.9149906051 -0.9091451274 -2.1475186147
| 34> H 4.1034818414 0.7790408389 -2.6394859356
| 35> H 0.7016850349 -2.2986739084 -0.740054387
| 36> H -0.5378651266 -1.6769928596 -1.89548404
| 37> H -1.3075245836 1.4871659449 1.6465547296
| 38> H -0.3828132893 2.7505167039 0.7909796804
| 39> H -3.4013785994 2.802717144 1.3222080216
| 40> H -2.1891343429 3.7645186726 2.1881785967
| 41> H -2.4919071127 4.0513938827 0.4657187454
| 42> H -3.6549386892 -1.3510415969 1.5319827989
| 43> H -5.1146329952 -0.3246292249 1.4019416713
| 44> H -5.4360614492 -2.4416666567 0.1458280798
| 45> H -5.3698904409 -1.0793779176 -0.9872231415
| 46> H -3.9667881991 -2.1304856176 -0.7916621724
| 47> *
| 48>
| 49>                          ****END OF INPUT****

CARTESIAN COORDINATES (ANGSTROEM)
---------------------------------
  C      1.010839   -0.107327    3.498011
  C      1.819119    0.872792    2.671027
  O      1.479403    0.765127    1.266500
  P      2.326245   -0.131936    0.271515
  S      2.849181   -1.921256    0.890313
  O      3.555947    0.830778   -0.032368
  C      4.770673    0.356779   -0.639197
  C      4.564504   -0.036453   -2.087582
  S      1.089737   -0.022765   -1.434059
  C      0.062235   -1.458671   -1.011674
  S     -1.028602   -1.155951    0.392311
  P     -2.280089    0.267804   -0.597655
  S     -2.577091   -0.045507   -2.504480
  O     -1.624669    1.687240   -0.397049
  C     -1.362794    2.280464    0.896182
  C     -2.434813    3.293122    1.241741
  O     -3.537936    0.348820    0.369921
  C     -4.291674   -0.781460    0.849396
  C     -4.801295   -1.665363   -0.269051
  H      1.259028   -1.129591    3.221266
  H      1.237835    0.040802    4.548833
  H     -0.052205    0.044453    3.333781
  H      2.891259    0.699069    2.795125
  H      1.583683    1.906156    2.930759
  H      5.458372    1.197865   -0.542489
  H      5.137589   -0.495662   -0.058258
  H      5.522736   -0.279594   -2.535266
  H      3.914991   -0.909145   -2.147519
  H      4.103482    0.779041   -2.639486
  H      0.701685   -2.298674   -0.740054
  H     -0.537865   -1.676993   -1.895484
  H     -1.307525    1.487166    1.646555
  H     -0.382813    2.750517    0.790980
  H     -3.401379    2.802717    1.322208
  H     -2.189134    3.764519    2.188179
  H     -2.491907    4.051394    0.465719
  H     -3.654939   -1.351042    1.531983
  H     -5.114633   -0.324629    1.401942
  H     -5.436061   -2.441667    0.145828
  H     -5.369890   -1.079378   -0.987223
  H     -3.966788   -2.130486   -0.791662

 Total Charge           Charge          ....    0
 Multiplicity           Mult            ....    1
 Number of Electrons    NEL             ....  202
 Basis Dimension        Dim             ....  539

ORBITAL ENERGIES
----------------

  NO   OCC          E(Eh)            E(eV)
   0   2.0000     -88.575643     -2410.2658
   1   2.0000     -88.574636     -2410.2384
   2   2.0000     -88.523113     -2408.8364
   3   2.0000     -88.515599     -2408.6319
   4   2.0000     -76.915591     -2092.9796
   5   2.0000     -76.913131     -2092.9127
   6   2.0000     -18.996435      -516.9193
   7   2.0000     -18.994969      -516.8794
   8   2.0000     -18.991707      -516.7906
   9   2.0000     -18.987065      -516.6643
  10   2.0000     -10.106628      -275.0153
  11   2.0000     -10.104396      -274.9546
  12   2.0000     -10.103610      -274.9332
  13   2.0000     -10.099106      -274.8106
  14   2.0000     -10.098570      -274.7961
  15   2.0000     -10.030081      -272.9324
  16   2.0000     -10.029395      -272.9137
  17   2.0000     -10.028766      -272.8966
  18   2.0000     -10.028430      -272.8875
  19   2.0000      -7.869785      -214.1477
  20   2.0000      -7.869047      -214.1277
  21   2.0000      -7.817992      -212.7384
  22   2.0000      -7.810447      -212.5331
  23   2.0000      -6.594195      -179.4372
  24   2.0000      -6.591367      -179.3602
  25   2.0000      -5.816707      -158.2807
  26   2.0000      -5.815786      -158.2556
  27   2.0000      -5.813757      -158.2004
  28   2.0000      -5.812820      -158.1749
  29   2.0000      -5.806765      -158.0101
  30   2.0000      -5.806371      -157.9994
  31   2.0000      -5.765555      -156.8887
  32   2.0000      -5.758396      -156.6939
  33   2.0000      -5.758266      -156.6904
  34   2.0000      -5.757935      -156.6814
  35   2.0000      -5.750691      -156.4843
  36   2.0000      -5.750310      -156.4739
  37   2.0000      -4.739757      -128.9753
  38   2.0000      -4.739001      -128.9548
  39   2.0000      -4.737973      -128.9268
  40   2.0000      -4.737217      -128.9062
  41   2.0000      -4.736552      -128.8881
  42   2.0000      -4.734578      -128.8344
  43   2.0000      -1.052119       -28.6296
  44   2.0000      -1.051574       -28.6148
  45   2.0000      -1.012201       -27.5434
  46   2.0000      -1.009681       -27.4748
  47   2.0000      -0.802786       -21.8449
  48   2.0000      -0.759329       -20.6624
  49   2.0000      -0.751076       -20.4378
  50   2.0000      -0.735778       -20.0215
  51   2.0000      -0.732403       -19.9297
  52   2.0000      -0.712428       -19.3861
  53   2.0000      -0.686478       -18.6800
  54   2.0000      -0.669982       -18.2311
  55   2.0000      -0.630594       -17.1593
  56   2.0000      -0.621283       -16.9060
  57   2.0000      -0.610382       -16.6093
  58   2.0000      -0.607126       -16.5207
  59   2.0000      -0.593063       -16.1381
  60   2.0000      -0.532277       -14.4840
  61   2.0000      -0.523006       -14.2317
  62   2.0000      -0.494178       -13.4473
  63   2.0000      -0.491003       -13.3609
  64   2.0000      -0.480013       -13.0618
  65   2.0000      -0.466634       -12.6977
  66   2.0000      -0.459034       -12.4909
  67   2.0000      -0.453173       -12.3315
  68   2.0000      -0.450013       -12.2455
  69   2.0000      -0.433519       -11.7966
  70   2.0000      -0.428943       -11.6721
  71   2.0000      -0.418416       -11.3857
  72   2.0000      -0.413506       -11.2521
  73   2.0000      -0.402367       -10.9490
  74   2.0000      -0.396129       -10.7792
  75   2.0000      -0.389634       -10.6025
  76   2.0000      -0.381484       -10.3807
  77   2.0000      -0.372783       -10.1440
  78   2.0000      -0.371378       -10.1057
  79   2.0000      -0.367016        -9.9870
  80   2.0000      -0.361977        -9.8499
  81   2.0000      -0.360591        -9.8122
  82   2.0000      -0.359508        -9.7827
  83   2.0000      -0.353477        -9.6186
  84   2.0000      -0.351362        -9.5611
  85   2.0000      -0.335722        -9.1355
  86   2.0000      -0.325352        -8.8533
  87   2.0000      -0.313050        -8.5185
  88   2.0000      -0.311564        -8.4781
  89   2.0000      -0.305640        -8.3169
  90   2.0000      -0.303128        -8.2485
  91   2.0000      -0.296866        -8.0781
  92   2.0000      -0.291806        -7.9405
  93   2.0000      -0.280763        -7.6400
  94   2.0000      -0.272557        -7.4166
  95   2.0000      -0.246498        -6.7076
  96   2.0000      -0.230855        -6.2819
  97   2.0000      -0.226292        -6.1577
  98   2.0000      -0.217047        -5.9061
  99   2.0000      -0.212331        -5.7778
 100   2.0000      -0.210579        -5.7301
 101   0.0000      -0.046497        -1.2652
 102   0.0000      -0.025515        -0.6943
 103   0.0000      -0.004300        -0.1170
 104   0.0000      -0.002430        -0.0661
 105   0.0000       0.012544         0.3413

MULLIKEN ATOMIC CHARGES
-----------------------
   0 C :   -0.446431
   1 C :   -0.137678
   2 O :   -0.254753
   3 P :    0.672268
   4 S :   -0.485752
   5 O :   -0.308458
   6 C :   -0.149439
   7 C :   -0.453037
   8 S :   -0.092568
   9 C :   -0.247532
  10 S :   -0.175393
  11 P :    0.648031
  12 S :   -0.429517
  13 O :   -0.250894
  14 C :   -0.102921
  15 C :   -0.484981
  16 O :   -0.293450
  17 C :   -0.162193
  18 C :   -0.426767
  19 H :    0.184814
  20 H :    0.146058
  21 H :    0.144151
  22 H :    0.153256
  23 H :    0.150029
  24 H :    0.147616
  25 H :    0.171825
  26 H :    0.147989
  27 H :    0.176441
  28 H :    0.157728
  29 H :    0.214078
  30 H :    0.219545
  31 H :    0.149198
  32 H :    0.166483
  33 H :    0.164925
  34 H :    0.143714
  35 H :    0.160380
  36 H :    0.152395
  37 H :    0.149163
  38 H :    0.146419
  39 H :    0.165156
  40 H :    0.170100
Sum of atomic charges:    0.0000000

LOEWDIN ATOMIC CHARGES
----------------------
   0 C :   -0.404664
   1 C :    0.023188
   2 O :   -0.681631
   3 P :    0.377023
   4 S :   -0.137502
   5 O :   -0.660959
   6 C :    0.018881
   7 C :   -0.405723
   8 S :    0.192199
   9 C :   -0.424012
  10 S :    0.137988
  11 P :    0.381940
  12 S :   -0.099124
  13 O :   -0.650193
  14 C :    0.020376
  15 C :   -0.392620
  16 O :   -0.670382
  17 C :    0.022891
  18 C :   -0.405723
  19 H :    0.170339
  20 H :    0.157666
  21 H :    0.155280
  22 H :    0.177226
  23 H :    0.177603
  24 H :    0.179263
  25 H :    0.179755
  26 H :    0.159707
  27 H :    0.165766
  28 H :    0.160921
  29 H :    0.191328
  30 H :    0.193303
  31 H :    0.174084
  32 H :    0.186145
  33 H :    0.165329
  34 H :    0.157387
  35 H :    0.162782
  36 H :    0.171888
  37 H :    0.180673
  38 H :    0.158381
  39 H :    0.166040
  40 H :    0.167185

  Mayer bond orders larger than 0.100000
B(  0-C ,  1-C ) :   0.9356 B(  0-C , 19-H ) :   0.9581 B(  0-C , 20-H ) :   0.9665
B(  0-C , 21-H ) :   0.9722 B(  1-C ,  2-O ) :   0.7387 B(  1-C , 22-H ) :   0.9594
B(  1-C , 23-H ) :   0.9664 B(  2-O ,  3-P ) :   1.1343 B(  3-P ,  4-S ) :   1.7388
B(  3-P ,  5-O ) :   1.0716 B(  3-P ,  8-S ) :   1.1154 B(  5-O ,  6-C ) :   0.8167
B(  6-C ,  7-C ) :   0.9235 B(  6-C , 24-H ) :   0.9581 B(  6-C , 25-H ) :   0.9650
B(  7-C , 26-H ) :   0.9590 B(  7-C , 27-H ) :   0.9613 B(  7-C , 28-H ) :   0.9687
B(  8-S ,  9-C ) :   0.9138 B(  9-C , 10-S ) :   0.9148 B(  9-C , 29-H ) :   0.9064
B(  9-C , 30-H ) :   0.9041 B( 10-S , 11-P ) :   0.9889 B( 11-P , 12-S ) :   1.8600
B( 11-P , 13-O ) :   1.1394 B( 11-P , 16-O ) :   1.0334 B( 13-O , 14-C ) :   0.7417
B( 14-C , 15-C ) :   0.9321 B( 14-C , 31-H ) :   0.9687 B( 14-C , 32-H ) :   0.9551
B( 15-C , 33-H ) :   0.9707 B( 15-C , 34-H ) :   0.9669 B( 15-C , 35-H ) :   0.9736
B( 16-O , 17-C ) :   0.8051 B( 17-C , 18-C ) :   0.9436 B( 17-C , 36-H ) :   0.9606
B( 17-C , 37-H ) :   0.9586 B( 18-C , 38-H ) :   0.9616 B( 18-C , 39-H ) :   0.9655
B( 18-C , 40-H ) :   0.9542

Dispersion correction           -0.021825531
FINAL SINGLE POINT ENERGY     -2932.460506149325

DIPOLE MOMENT
-------------

Method             : SCF
Type of density    : Electron Density
Multiplicity       :   1
Irrep              :   0
Energy             : -2932.4851652799966359 Eh
Relativity type    :
Basis              : AO
                                X                 Y                 Z
Electronic contribution:      2.194202918      -4.552566591     -11.952167449
Nuclear contribution   :     -2.017751612       5.095986935      13.507168208
                        -----------------------------------------
Total Dipole Moment    :      0.176451306       0.543420343       1.555000759
                        -----------------------------------------
Magnitude (a.u.)       :      1.656643623
Magnitude (Debye)      :      4.210853448

Rotational constants in cm-1:             0.012540             0.005023             0.004671
Rotational constants in MHz :           375.943919           150.599327           140.041169

                             ****ORCA TERMINATED NORMALLY****
TOTAL RUN TIME: 0 days 0 hours 1 minutes 21 seconds 591 msec
