                         Program Version 6.0.0  -   RELEASE  -
|  1> ! r2scan-3c def2/J RI DEFGRID2 scfconv6 printgap
|  2> %output
|  3>     printlevel normal
|  4> end
|  5> %cpcm
|  6>     smd true
|  7>     smdsolvent "water"
|  8> end
|  9> * xyz 0 1
| 10> C 1.0108389709 -0.1073267445 3.4980112192
| 11> C 1.8191189565 0.8727919055 2.6710269407
| 12> O 1.4794029961 0.7651271908 1.2665000189
| 13> P 2.3262446674 -0.1319355832 0.2715151346
| 14> S 2.8491806322 -1.9212558043 0.8903131609
| 15> O 3.5559466928 0.830777922 -0.0323675131
| 16> C 4.7706732509 0.3567792933 -0.639197316
| 17> C 4.5645038683 -0.036452585 -2.0875815954
| 18> S 1.0897373093 -0.0227651596 -1.4340593834
| 19> C 0.0622352521 -1.4586707383 -1.0116736961
| 20> S -1.0286019975 -1.1559511438 0.3923111277
| 21> P -2.2800893373 0.2678042502 -0.5976554054
| 22> S -2.5770908486 -0.0455073794 -2.5044803507
| 23> O -1.6246688538 1.6872397553 -0.3970485639
| 24> C -1.3627944339 2.2804640618 0.8961821789
| 25> C -2.4348130245 3.2931219149 1.2417411881
| 26> O -3.5379359062 0.3488200096 0.3699206238
| 27> C -4.2916742544 -0.7814602505 0.8493962081
| 28> C -4.8012948665 -1.6653631146 -0.2690507928
| 29> H 1.2590284264 -1.129591243 3.221265616
| 30> H 1.2378353811 0.0408019986 4.5488327546
| 31> H -0.0522047815 0.0444527497 3.3337811057
| 32> H 2.8912592857 0.6990691824 2.7951254334
| 33> H 1.5836831343 1.9061559872 2.9307585539
| 34> H 5.4583722382 1.197865194 -0.5424885733
| 35> H 5.1375886052 -0.4956621676 -0.0582582689
| 36> H 5.5227361841 -0.2795936264 -2.535266401
| 37> H 3.9149906051 -0.9091451274 -2.1475186147
| 38> H 4.1034818414 0.7790408389 -2.6394859356
| 39> H 0.7016850349 -2.2986739084 -0.740054387
| 40> H -0.5378651266 -1.6769928596 -1.89548404
| 41> H -1.3075245836 1.4871659449 1.6465547296
| 42> H -0.3828132893 2.7505167039 0.7909796804
| 43> H -3.4013785994 2.802717144 1.3222080216
| 44> H -2.1891343429 3.7645186726 2.1881785967
| 45> H -2.4919071127 4.0513938827 0.4657187454
| 46> H -3.6549386892 -1.3510415969 1.5319827989
| 47> H -5.1146329952 -0.3246292249 1.4019416713
| 48> H -5.4360614492 -2.4416666567 0.1458280798
| 49> H -5.3698904409 -1.0793779176 -0.9872231415
| 50> H -3.9667881991 -2.1304856176 -0.7916621724
| 51> *
| 52>
| 53>                          ****END OF INPUT****

CARTESIAN COORDINATES (ANGSTROEM)
---------------------------------
  C      1.010839   -0.107327    3.498011
  C      1.819119    0.872792    2.671027
  O      1.479403    0.765127    1.266500
  P      2.326245   -0.131936    0.271515
  S      2.849181   -1.921256    0.890313
  O      3.555947    0.830778   -0.032368
  C      4.770673    0.356779   -0.639197
  C      4.564504   -0.036453   -2.087582
  S      1.089737   -0.022765   -1.434059
  C      0.062235   -1.458671   -1.011674
  S     -1.028602   -1.155951    0.392311
  P     -2.280089    0.267804   -0.597655
  S     -2.577091   -0.045507   -2.504480
  O     -1.624669    1.687240   -0.397049
  C     -1.362794    2.280464    0.896182
  C     -2.434813    3.293122    1.241741
  O     -3.537936    0.348820    0.369921
  C     -4.291674   -0.781460    0.849396
  C     -4.801295   -1.665363   -0.269051
  H      1.259028   -1.129591    3.221266
  H      1.237835    0.040802    4.548833
  H     -0.052205    0.044453    3.333781
  H      2.891259    0.699069    2.795125
  H      1.583683    1.906156    2.930759
  H      5.458372    1.197865   -0.542489
  H      5.137589   -0.495662   -0.058258
  H      5.522736   -0.279594   -2.535266
  H      3.914991   -0.909145   -2.147519
  H      4.103482    0.779041   -2.639486
  H      0.701685   -2.298674   -0.740054
  H     -0.537865   -1.676993   -1.895484
  H     -1.307525    1.487166    1.646555
  H     -0.382813    2.750517    0.790980
  H     -3.401379    2.802717    1.322208
  H     -2.189134    3.764519    2.188179
  H     -2.491907    4.051394    0.465719
  H     -3.654939   -1.351042    1.531983
  H     -5.114633   -0.324629    1.401942
  H     -5.436061   -2.441667    0.145828
  H     -5.369890   -1.079378   -0.987223
  H     -3.966788   -2.130486   -0.791662

 Total Charge           Charge          ....    0
 Multiplicity           Mult            ....    1
 Number of Electrons    NEL             ....  202
 Basis Dimension        Dim             ....  539

ORBITAL ENERGIES
----------------

  NO   OCC          E(Eh)            E(eV)
   0   2.0000     -88.579904     -2410.3817
   1   2.0000     -88.577553     -2410.3178
   2   2.0000     -88.527855     -2408.9654
   3   2.0000     -88.527268     -2408.9494
   4   2.0000     -76.920057     -2093.1012
   5   2.0000     -76.918577     -2093.0609
   6   2.0000     -18.996765      -516.9282
   7   2.0000     -18.995647      -516.8978
   8   2.0000     -18.992700      -516.8176
   9   2.0000     -18.990256      -516.7511
  10   2.0000     -10.103984      -274.9434
  11   2.0000     -10.093468      -274.6572
  12   2.0000     -10.090168      -274.5674
  13   2.0000     -10.090052      -274.5643
  14   2.0000     -10.089004      -274.5358
  15   2.0000     -10.018647      -272.6212
  16   2.0000     -10.018558      -272.6188
  17   2.0000     -10.017987      -272.6033
  18   2.0000     -10.015625      -272.5390
  19   2.0000      -7.874183      -214.2674
  20   2.0000      -7.871893      -214.2051
  21   2.0000      -7.823002      -212.8747
  22   2.0000      -7.822520      -212.8616
  23   2.0000      -6.598334      -179.5498
  24   2.0000      -6.597187      -179.5186
  25   2.0000      -5.821056      -158.3990
  26   2.0000      -5.818668      -158.3340
  27   2.0000      -5.818130      -158.3194
  28   2.0000      -5.815702      -158.2533
  29   2.0000      -5.811235      -158.1317
  30   2.0000      -5.809155      -158.0751
  31   2.0000      -5.770526      -157.0240
  32   2.0000      -5.770198      -157.0151
  33   2.0000      -5.763407      -156.8303
  34   2.0000      -5.762934      -156.8174
  35   2.0000      -5.762774      -156.8130
  36   2.0000      -5.762435      -156.8038
  37   2.0000      -4.744105      -129.0937
  38   2.0000      -4.743482      -129.0767
  39   2.0000      -4.742667      -129.0545
  40   2.0000      -4.742001      -129.0364
  41   2.0000      -4.741702      -129.0283
  42   2.0000      -4.741070      -129.0111
  43   2.0000      -1.053982       -28.6803
  44   2.0000      -1.051308       -28.6075
  45   2.0000      -1.011953       -27.5366
  46   2.0000      -1.010504       -27.4972
  47   2.0000      -0.805077       -21.9073
  48   2.0000      -0.755614       -20.5613
  49   2.0000      -0.744257       -20.2523
  50   2.0000      -0.726649       -19.7731
  51   2.0000      -0.722175       -19.6514
  52   2.0000      -0.710515       -19.3341
  53   2.0000      -0.689248       -18.7554
  54   2.0000      -0.675150       -18.3718
  55   2.0000      -0.627949       -17.0874
  56   2.0000      -0.618180       -16.8215
  57   2.0000      -0.601931       -16.3794
  58   2.0000      -0.601352       -16.3636
  59   2.0000      -0.590798       -16.0764
  60   2.0000      -0.526838       -14.3360
  61   2.0000      -0.517458       -14.0807
  62   2.0000      -0.489227       -13.3125
  63   2.0000      -0.485076       -13.1996
  64   2.0000      -0.479147       -13.0383
  65   2.0000      -0.461633       -12.5617
  66   2.0000      -0.453219       -12.3327
  67   2.0000      -0.447819       -12.1858
  68   2.0000      -0.443471       -12.0675
  69   2.0000      -0.429074       -11.6757
  70   2.0000      -0.423562       -11.5257
  71   2.0000      -0.414535       -11.2801
  72   2.0000      -0.409439       -11.1414
  73   2.0000      -0.398244       -10.8368
  74   2.0000      -0.390511       -10.6263
  75   2.0000      -0.388068       -10.5599
  76   2.0000      -0.379882       -10.3371
  77   2.0000      -0.369033       -10.0419
  78   2.0000      -0.362769        -9.8714
  79   2.0000      -0.361021        -9.8239
  80   2.0000      -0.355217        -9.6659
  81   2.0000      -0.351920        -9.5762
  82   2.0000      -0.350395        -9.5347
  83   2.0000      -0.346724        -9.4348
  84   2.0000      -0.346045        -9.4163
  85   2.0000      -0.333084        -9.0637
  86   2.0000      -0.320491        -8.7210
  87   2.0000      -0.307945        -8.3796
  88   2.0000      -0.305099        -8.3022
  89   2.0000      -0.301450        -8.2029
  90   2.0000      -0.299813        -8.1583
  91   2.0000      -0.293232        -7.9793
  92   2.0000      -0.289107        -7.8670
  93   2.0000      -0.280115        -7.6223
  94   2.0000      -0.274290        -7.4638
  95   2.0000      -0.250132        -6.8064
  96   2.0000      -0.236165        -6.4264
  97   2.0000      -0.233557        -6.3554
  98   2.0000      -0.224176        -6.1001
  99   2.0000      -0.221637        -6.0310
 100   2.0000      -0.220543        -6.0013
 101   0.0000      -0.051422        -1.3993
 102   0.0000      -0.031713        -0.8630
 103   0.0000      -0.007389        -0.2011
 104   0.0000      -0.006525        -0.1775
 105   0.0000       0.012937         0.3520

MULLIKEN ATOMIC CHARGES
-----------------------
   0 C :   -0.490272
   1 C :   -0.133981
   2 O :   -0.277282
   3 P :    0.709890
   4 S :   -0.527745
   5 O :   -0.331494
   6 C :   -0.149429
   7 C :   -0.489206
   8 S :   -0.124130
   9 C :   -0.253715
  10 S :   -0.167444
  11 P :    0.668084
  12 S :   -0.494370
  13 O :   -0.285583
  14 C :   -0.095731
  15 C :   -0.531620
  16 O :   -0.311893
  17 C :   -0.161004
  18 C :   -0.465795
  19 H :    0.172377
  20 H :    0.169524
  21 H :    0.165671
  22 H :    0.168730
  23 H :    0.178184
  24 H :    0.174640
  25 H :    0.177006
  26 H :    0.172583
  27 H :    0.171561
  28 H :    0.170080
  29 H :    0.234446
  30 H :    0.235079
  31 H :    0.174099
  32 H :    0.180032
  33 H :    0.169949
  34 H :    0.171167
  35 H :    0.168541
  36 H :    0.172302
  37 H :    0.177809
  38 H :    0.173551
  39 H :    0.170188
  40 H :    0.165205
Sum of atomic charges:    0.0000000

LOEWDIN ATOMIC CHARGES
----------------------
   0 C :   -0.408409
   1 C :    0.029566
   2 O :   -0.689635
   3 P :    0.382860
   4 S :   -0.162621
   5 O :   -0.671521
   6 C :    0.024095
   7 C :   -0.409513
   8 S :    0.172661
   9 C :   -0.419163
  10 S :    0.148677
  11 P :    0.384894
  12 S :   -0.147779
  13 O :   -0.675771
  14 C :    0.026168
  15 C :   -0.394899
  16 O :   -0.674779
  17 C :    0.030790
  18 C :   -0.409685
  19 H :    0.162919
  20 H :    0.166281
  21 H :    0.161220
  22 H :    0.181914
  23 H :    0.190106
  24 H :    0.190585
  25 H :    0.181409
  26 H :    0.168532
  27 H :    0.161432
  28 H :    0.163584
  29 H :    0.197371
  30 H :    0.197714
  31 H :    0.183696
  32 H :    0.191643
  33 H :    0.165391
  34 H :    0.168742
  35 H :    0.163830
  36 H :    0.179657
  37 H :    0.193013
  38 H :    0.168580
  39 H :    0.164398
  40 H :    0.162047

  Mayer bond orders larger than 0.100000
B(  0-C ,  1-C ) :   0.9204 B(  0-C , 19-H ) :   0.9636 B(  0-C , 20-H ) :   0.9615
B(  0-C , 21-H ) :   0.9696 B(  1-C ,  2-O ) :   0.7266 B(  1-C , 22-H ) :   0.9550
B(  1-C , 23-H ) :   0.9545 B(  2-O ,  3-P ) :   1.1482 B(  3-P ,  4-S ) :   1.7036
B(  3-P ,  5-O ) :   1.0796 B(  3-P ,  8-S ) :   1.1159 B(  5-O ,  6-C ) :   0.8054
B(  6-C ,  7-C ) :   0.9104 B(  6-C , 24-H ) :   0.9488 B(  6-C , 25-H ) :   0.9637
B(  7-C , 26-H ) :   0.9537 B(  7-C , 27-H ) :   0.9627 B(  7-C , 28-H ) :   0.9664
B(  8-S ,  9-C ) :   0.9002 B(  9-C , 10-S ) :   0.9026 B(  9-C , 29-H ) :   0.9029
B(  9-C , 30-H ) :   0.8996 B( 10-S , 11-P ) :   1.0032 B( 11-P , 12-S ) :   1.8241
B( 11-P , 13-O ) :   1.1461 B( 11-P , 16-O ) :   1.0541 B( 13-O , 14-C ) :   0.7278
B( 14-C , 15-C ) :   0.9283 B( 14-C , 31-H ) :   0.9554 B( 14-C , 32-H ) :   0.9461
B( 15-C , 33-H ) :   0.9698 B( 15-C , 34-H ) :   0.9594 B( 15-C , 35-H ) :   0.9727
B( 16-O , 17-C ) :   0.7935 B( 17-C , 18-C ) :   0.9211 B( 17-C , 36-H ) :   0.9570
B( 17-C , 37-H ) :   0.9490 B( 18-C , 38-H ) :   0.9558 B( 18-C , 39-H ) :   0.9667
B( 18-C , 40-H ) :   0.9578

Dispersion correction           -0.021825531
FINAL SINGLE POINT ENERGY     -2932.470643312239

DIPOLE MOMENT
-------------

Method             : SCF
Type of density    : Electron Density
Multiplicity       :   1
Irrep              :   0
Energy             : -2932.4953024429100878 Eh
Relativity type    :
Basis              : AO
                                X                 Y                 Z
Electronic contribution:      2.298127030      -4.498045598     -11.105269104
Nuclear contribution   :     -2.017751612       5.095986935      13.507168208
                        -----------------------------------------
Total Dipole Moment    :      0.280375418       0.597941337       2.401899104
                        -----------------------------------------
Magnitude (a.u.)       :      2.491036636
Magnitude (Debye)      :      6.331711940

Rotational constants in cm-1:             0.012540             0.005023             0.004671
Rotational constants in MHz :           375.943919           150.599327           140.041169

                             ****ORCA TERMINATED NORMALLY****
TOTAL RUN TIME: 0 days 0 hours 1 minutes 57 seconds 321 msec
