                         Program Version 6.0.0  -   RELEASE  -
|  1> ! pbe def2-sv(p) def2/J RI DEFGRID1 loosescf d4 GCP(DFT/SV(P)) printgap
|  2> %output
|  3>     printlevel normal
|  4> end
|  5> * xyz 0 1
|  6> C 5.1242329672 -1.2178543941 -2.3796020968
|  7> C 4.5807168403 -1.0044586187 -0.9823260917
|  8> O 3.2796725571 -0.3814776796 -1.101005084
|  9> P 2.6433805672 0.3876181724 0.1327065117
| 10> S 3.7954362786 1.6994984369 1.0202969933
| 11> O 2.2080388864 -0.8358584036 1.0647447479
| 12> C 2.0133125774 -0.6867082045 2.4798401481
| 13> C 0.8081474178 0.1721256671 2.8026322181
| 14> S 0.9098360967 1.1128387652 -0.8180345009
| 15> C 0.2786554999 -0.4529387342 -1.5063363438
| 16> S -0.6693558402 -1.4367680294 -0.322125667
| 17> P -2.3435564558 -0.1543545428 -0.240385506
| 18> S -2.890935839 0.6576124987 -1.9447767542
| 19> O -1.9225011976 0.8414827246 0.913222738
| 20> C -2.4879345548 2.1622973049 1.0282807267
| 21> C -3.9388407405 2.1056040307 1.4564057422
| 22> O -3.4478978159 -1.0382189514 0.479327796
| 23> C -4.1728375264 -2.0636667022 -0.2303890053
| 24> C -5.3875831686 -2.4310071653 0.5975889773
| 25> H 4.4579851044 -1.8611123528 -2.9470489011
| 26> H 5.2157071784 -0.2650057326 -2.8934622813
| 27> H 6.1019789189 -1.6836850208 -2.3123036402
| 28> H 5.2285276166 -0.3439813362 -0.3959377544
| 29> H 4.4549695088 -1.9496498634 -0.4489141907
| 30> H 1.8898898566 -1.7092994897 2.83814625
| 31> H 2.9190673979 -0.2428093819 2.9055701373
| 32> H -0.0943846506 -0.2482263471 2.3657278067
| 33> H 0.6886542258 0.2363730833 3.8793010394
| 34> H 0.9572344632 1.1760141297 2.402935454
| 35> H 1.1109538247 -1.0602577578 -1.847212519
| 36> H -0.3735755878 -0.1681116855 -2.3328225491
| 37> H -1.8602680203 2.6541043646 1.7723840926
| 38> H -2.3834364933 2.6706255321 0.0642611416
| 39> H -4.3084804334 3.1135101049 1.6165799442
| 40> H -4.5329205134 1.629601806 0.6769767712
| 41> H -4.0367193804 1.5315278198 2.3738477727
| 42> H -4.4574473832 -1.6726905682 -1.2130323856
| 43> H -3.5076289822 -2.9207550469 -0.3657876168
| 44> H -6.038173277 -1.5689208486 0.7136970006
| 45> H -5.9321833777 -3.2253074571 0.0978432461
| 46> H -5.0752217607 -2.7710619958 1.5805456707
| 47> *
| 48>
| 49>                          ****END OF INPUT****

CARTESIAN COORDINATES (ANGSTROEM)
---------------------------------
  C      5.124233   -1.217854   -2.379602
  C      4.580717   -1.004459   -0.982326
  O      3.279673   -0.381478   -1.101005
  P      2.643381    0.387618    0.132707
  S      3.795436    1.699498    1.020297
  O      2.208039   -0.835858    1.064745
  C      2.013313   -0.686708    2.479840
  C      0.808147    0.172126    2.802632
  S      0.909836    1.112839   -0.818035
  C      0.278655   -0.452939   -1.506336
  S     -0.669356   -1.436768   -0.322126
  P     -2.343556   -0.154355   -0.240386
  S     -2.890936    0.657612   -1.944777
  O     -1.922501    0.841483    0.913223
  C     -2.487935    2.162297    1.028281
  C     -3.938841    2.105604    1.456406
  O     -3.447898   -1.038219    0.479328
  C     -4.172838   -2.063667   -0.230389
  C     -5.387583   -2.431007    0.597589
  H      4.457985   -1.861112   -2.947049
  H      5.215707   -0.265006   -2.893462
  H      6.101979   -1.683685   -2.312304
  H      5.228528   -0.343981   -0.395938
  H      4.454970   -1.949650   -0.448914
  H      1.889890   -1.709299    2.838146
  H      2.919067   -0.242809    2.905570
  H     -0.094385   -0.248226    2.365728
  H      0.688654    0.236373    3.879301
  H      0.957234    1.176014    2.402935
  H      1.110954   -1.060258   -1.847213
  H     -0.373576   -0.168112   -2.332823
  H     -1.860268    2.654104    1.772384
  H     -2.383436    2.670626    0.064261
  H     -4.308480    3.113510    1.616580
  H     -4.532921    1.629602    0.676977
  H     -4.036719    1.531528    2.373848
  H     -4.457447   -1.672691   -1.213032
  H     -3.507629   -2.920755   -0.365788
  H     -6.038173   -1.568921    0.713697
  H     -5.932183   -3.225307    0.097843
  H     -5.075222   -2.771062    1.580546

 Total Charge           Charge          ....    0
 Multiplicity           Mult            ....    1
 Number of Electrons    NEL             ....  202
 Basis Dimension        Dim             ....  334

ORBITAL ENERGIES
----------------

  NO   OCC          E(Eh)            E(eV)
   0   2.0000     -88.045225     -2395.8324
   1   2.0000     -88.041159     -2395.7217
   2   2.0000     -87.993333     -2394.4203
   3   2.0000     -87.984551     -2394.1814
   4   2.0000     -76.430803     -2079.7879
   5   2.0000     -76.423637     -2079.5929
   6   2.0000     -18.799997      -511.5739
   7   2.0000     -18.795535      -511.4525
   8   2.0000     -18.792350      -511.3659
   9   2.0000     -18.787936      -511.2457
  10   2.0000      -9.958472      -270.9838
  11   2.0000      -9.956266      -270.9238
  12   2.0000      -9.952984      -270.8345
  13   2.0000      -9.952885      -270.8318
  14   2.0000      -9.945405      -270.6282
  15   2.0000      -9.893212      -269.2080
  16   2.0000      -9.888776      -269.0873
  17   2.0000      -9.885729      -269.0044
  18   2.0000      -9.873033      -268.6589
  19   2.0000      -7.690685      -209.2742
  20   2.0000      -7.686491      -209.1601
  21   2.0000      -7.638205      -207.8461
  22   2.0000      -7.629763      -207.6164
  23   2.0000      -6.428616      -174.9315
  24   2.0000      -6.421578      -174.7400
  25   2.0000      -5.718414      -155.6060
  26   2.0000      -5.715267      -155.5203
  27   2.0000      -5.714726      -155.5056
  28   2.0000      -5.710889      -155.4012
  29   2.0000      -5.707631      -155.3125
  30   2.0000      -5.703176      -155.1913
  31   2.0000      -5.666924      -154.2049
  32   2.0000      -5.658889      -153.9862
  33   2.0000      -5.658688      -153.9807
  34   2.0000      -5.658536      -153.9766
  35   2.0000      -5.650504      -153.7580
  36   2.0000      -5.649790      -153.7386
  37   2.0000      -4.651023      -126.5608
  38   2.0000      -4.650358      -126.5427
  39   2.0000      -4.649170      -126.5104
  40   2.0000      -4.644060      -126.3713
  41   2.0000      -4.643491      -126.3558
  42   2.0000      -4.641953      -126.3140
  43   2.0000      -0.993101       -27.0236
  44   2.0000      -0.984982       -26.8027
  45   2.0000      -0.952170       -25.9099
  46   2.0000      -0.942160       -25.6375
  47   2.0000      -0.765837       -20.8395
  48   2.0000      -0.725789       -19.7497
  49   2.0000      -0.710809       -19.3421
  50   2.0000      -0.692141       -18.8341
  51   2.0000      -0.682353       -18.5678
  52   2.0000      -0.675145       -18.3716
  53   2.0000      -0.653822       -17.7914
  54   2.0000      -0.639168       -17.3926
  55   2.0000      -0.602873       -16.4050
  56   2.0000      -0.589292       -16.0355
  57   2.0000      -0.570393       -15.5212
  58   2.0000      -0.569664       -15.5013
  59   2.0000      -0.562476       -15.3058
  60   2.0000      -0.508623       -13.8403
  61   2.0000      -0.503792       -13.7089
  62   2.0000      -0.481788       -13.1101
  63   2.0000      -0.468436       -12.7468
  64   2.0000      -0.460108       -12.5202
  65   2.0000      -0.446454       -12.1486
  66   2.0000      -0.441613       -12.0169
  67   2.0000      -0.437426       -11.9030
  68   2.0000      -0.429024       -11.6743
  69   2.0000      -0.418007       -11.3746
  70   2.0000      -0.409154       -11.1337
  71   2.0000      -0.399672       -10.8756
  72   2.0000      -0.391998       -10.6668
  73   2.0000      -0.390063       -10.6141
  74   2.0000      -0.383495       -10.4354
  75   2.0000      -0.376824       -10.2539
  76   2.0000      -0.364112        -9.9080
  77   2.0000      -0.361648        -9.8409
  78   2.0000      -0.355085        -9.6624
  79   2.0000      -0.351050        -9.5526
  80   2.0000      -0.350584        -9.5399
  81   2.0000      -0.347099        -9.4450
  82   2.0000      -0.342450        -9.3186
  83   2.0000      -0.334660        -9.1066
  84   2.0000      -0.328737        -8.9454
  85   2.0000      -0.322403        -8.7730
  86   2.0000      -0.313272        -8.5246
  87   2.0000      -0.306252        -8.3335
  88   2.0000      -0.296320        -8.0633
  89   2.0000      -0.291445        -7.9306
  90   2.0000      -0.287687        -7.8284
  91   2.0000      -0.279481        -7.6051
  92   2.0000      -0.273015        -7.4291
  93   2.0000      -0.268881        -7.3166
  94   2.0000      -0.257419        -7.0047
  95   2.0000      -0.233480        -6.3533
  96   2.0000      -0.218871        -5.9558
  97   2.0000      -0.213541        -5.8108
  98   2.0000      -0.206759        -5.6262
  99   2.0000      -0.206400        -5.6164
 100   2.0000      -0.200277        -5.4498
 101   0.0000      -0.042384        -1.1533
 102   0.0000      -0.021945        -0.5972
 103   0.0000      -0.013165        -0.3582
 104   0.0000       0.004749         0.1292
 105   0.0000       0.010134         0.2757

MULLIKEN ATOMIC CHARGES
-----------------------
   0 C :   -0.278050
   1 C :   -0.010101
   2 O :   -0.385565
   3 P :    0.609889
   4 S :   -0.322113
   5 O :   -0.385199
   6 C :    0.001620
   7 C :   -0.329398
   8 S :   -0.055125
   9 C :   -0.377237
  10 S :   -0.075147
  11 P :    0.613837
  12 S :   -0.333871
  13 O :   -0.353327
  14 C :   -0.004745
  15 C :   -0.307868
  16 O :   -0.375966
  17 C :   -0.013789
  18 C :   -0.280450
  19 H :    0.114132
  20 H :    0.123824
  21 H :    0.112072
  22 H :    0.106786
  23 H :    0.102051
  24 H :    0.099523
  25 H :    0.106997
  26 H :    0.137249
  27 H :    0.104165
  28 H :    0.119973
  29 H :    0.192506
  30 H :    0.198057
  31 H :    0.111517
  32 H :    0.115758
  33 H :    0.114294
  34 H :    0.122134
  35 H :    0.116703
  36 H :    0.108384
  37 H :    0.104015
  38 H :    0.120242
  39 H :    0.114100
  40 H :    0.118124
Sum of atomic charges:   -0.0000000

LOEWDIN ATOMIC CHARGES
----------------------
   0 C :   -0.350064
   1 C :   -0.117673
   2 O :   -0.251765
   3 P :    0.566990
   4 S :   -0.321373
   5 O :   -0.251803
   6 C :   -0.120932
   7 C :   -0.373332
   8 S :    0.098817
   9 C :   -0.482453
  10 S :    0.092350
  11 P :    0.570336
  12 S :   -0.320613
  13 O :   -0.228342
  14 C :   -0.115985
  15 C :   -0.364461
  16 O :   -0.246268
  17 C :   -0.119721
  18 C :   -0.349835
  19 H :    0.125167
  20 H :    0.130828
  21 H :    0.131201
  22 H :    0.109545
  23 H :    0.111841
  24 H :    0.116659
  25 H :    0.107321
  26 H :    0.119558
  27 H :    0.127321
  28 H :    0.118962
  29 H :    0.135029
  30 H :    0.131067
  31 H :    0.121280
  32 H :    0.112315
  33 H :    0.131539
  34 H :    0.121661
  35 H :    0.126349
  36 H :    0.109830
  37 H :    0.110386
  38 H :    0.128500
  39 H :    0.131962
  40 H :    0.127806

  Mayer bond orders larger than 0.100000
B(  0-C ,  1-C ) :   1.1625 B(  0-C , 19-H ) :   0.9518 B(  0-C , 20-H ) :   0.9499
B(  0-C , 21-H ) :   0.9414 B(  1-C ,  2-O ) :   0.8948 B(  1-C , 22-H ) :   0.9092
B(  1-C , 23-H ) :   0.9307 B(  2-O ,  3-P ) :   1.0927 B(  3-P ,  4-S ) :   1.6505
B(  3-P ,  5-O ) :   1.0810 B(  3-P ,  8-S ) :   0.9884 B(  5-O ,  6-C ) :   0.9064
B(  6-C ,  7-C ) :   1.1635 B(  6-C , 24-H ) :   0.9325 B(  6-C , 25-H ) :   0.9153
B(  7-C , 26-H ) :   0.9307 B(  7-C , 27-H ) :   0.9378 B(  7-C , 28-H ) :   0.9343
B(  8-S ,  9-C ) :   0.9832 B(  9-C , 10-S ) :   1.0030 B(  9-C , 29-H ) :   0.8899
B(  9-C , 30-H ) :   0.8717 B( 10-S , 11-P ) :   0.9682 B( 10-S , 12-S ) :   0.1098
B( 11-P , 12-S ) :   1.5992 B( 11-P , 13-O ) :   1.1330 B( 11-P , 16-O ) :   1.1111
B( 13-O , 14-C ) :   0.8986 B( 14-C , 15-C ) :   1.1636 B( 14-C , 31-H ) :   0.9327
B( 14-C , 32-H ) :   0.9163 B( 15-C , 33-H ) :   0.9392 B( 15-C , 34-H ) :   0.9356
B( 15-C , 35-H ) :   0.9463 B( 16-O , 17-C ) :   0.9016 B( 17-C , 18-C ) :   1.1609
B( 17-C , 36-H ) :   0.9113 B( 17-C , 37-H ) :   0.9288 B( 18-C , 38-H ) :   0.9515
B( 18-C , 39-H ) :   0.9416 B( 18-C , 40-H ) :   0.9502

Dispersion correction           -0.063072912
FINAL SINGLE POINT ENERGY     -2929.524778740870

DIPOLE MOMENT
-------------

Method             : SCF
Type of density    : Electron Density
Multiplicity       :   1
Irrep              :   0
Energy             : -2929.6467848320280609 Eh
Relativity type    :
Basis              : AO
                                X                 Y                 Z
Electronic contribution:      8.628528513       7.050983052      -7.725475528
Nuclear contribution   :     -9.282738576      -8.430723691       8.179884274
                        -----------------------------------------
Total Dipole Moment    :     -0.654210063      -1.379740639       0.454408746
                        -----------------------------------------
Magnitude (a.u.)       :      1.593161118
Magnitude (Debye)      :      4.049493742

Rotational constants in cm-1:             0.013575             0.004263             0.004017
Rotational constants in MHz :           406.971172           127.797059           120.427283

                             ****ORCA TERMINATED NORMALLY****
TOTAL RUN TIME: 0 days 0 hours 0 minutes 20 seconds 652 msec
