                         Program Version 6.0.0  -   RELEASE  -
|  1> ! r2scan-3c def2/J RI DEFGRID2 scfconv6 printgap
|  2> %output
|  3>     printlevel normal
|  4> end
|  5> * xyz 0 1
|  6> C 5.9751693322 -1.0236579622 0.4412240264
|  7> C 4.6184195515 -1.3191404787 -0.1645953298
|  8> O 3.762406993 -0.1851127759 0.0942773353
|  9> P 2.4003361024 0.0168395702 -0.699833926
| 10> S 2.5335104487 -0.0303336541 -2.6489486842
| 11> O 1.916599924 1.4126333268 -0.1527774425
| 12> C 1.8144520133 1.7131552267 1.2626536442
| 13> C 0.8239490382 2.8466221826 1.4277425488
| 14> S 1.1518910556 -1.4696135733 0.1734739159
| 15> C -0.1290588376 -1.4533117371 -1.1060736319
| 16> S -0.8555846979 0.1900626254 -1.3887035856
| 17> P -2.2100000326 0.2376144279 0.241502011
| 18> S -3.1942199558 1.9186933611 0.4370169316
| 19> O -1.2652978487 -0.1705196973 1.4401885927
| 20> C -1.6130285899 0.1210633654 2.8121038001
| 21> C -2.8121952352 -0.6825434102 3.2659809598
| 22> O -3.0739237192 -1.0933271693 0.0559227754
| 23> C -4.1533279814 -1.1610379472 -0.8949523019
| 24> C -5.4802787207 -0.8683270052 -0.2217022129
| 25> H 6.6340016182 -1.8675264992 0.2653395604
| 26> H 6.401755703 -0.1347791751 -0.0150149924
| 27> H 5.87744456 -0.8592624507 1.5102738263
| 28> H 4.1594593255 -2.2011213988 0.28971154
| 29> H 4.6830025598 -1.4644107773 -1.2477320579
| 30> H 1.4864348537 0.8109168443 1.78826493
| 31> H 2.808965855 1.9949573595 1.6124672544
| 32> H 1.1504264963 3.7128029246 0.8594286988
| 33> H -0.1592330644 2.5526261208 1.0631655057
| 34> H 0.7507180644 3.1099628895 2.4780075072
| 35> H -0.8993438942 -2.1520450599 -0.789672102
| 36> H 0.3153789065 -1.742828072 -2.0575626534
| 37> H -0.7130806481 -0.1420743332 3.369332537
| 38> H -1.8110783948 1.1938433378 2.8988511972
| 39> H -3.694431722 -0.3713764415 2.7083432461
| 40> H -2.6416243647 -1.7421254761 3.0953223353
| 41> H -2.9832890566 -0.5080863056 4.3235901358
| 42> H -3.9637015747 -0.4542075232 -1.7092706467
| 43> H -4.1236623631 -2.1807970114 -1.2838181041
| 44> H -5.6385129433 -1.5546012863 0.6054201912
| 45> H -5.4927039227 0.1516623613 0.156417105
| 46> H -6.2813762761 -0.9857144548 -0.9442640683
| 47> *
| 48>
| 49>                          ****END OF INPUT****

CARTESIAN COORDINATES (ANGSTROEM)
---------------------------------
  C      5.975169   -1.023658    0.441224
  C      4.618420   -1.319140   -0.164595
  O      3.762407   -0.185113    0.094277
  P      2.400336    0.016840   -0.699834
  S      2.533510   -0.030334   -2.648949
  O      1.916600    1.412633   -0.152777
  C      1.814452    1.713155    1.262654
  C      0.823949    2.846622    1.427743
  S      1.151891   -1.469614    0.173474
  C     -0.129059   -1.453312   -1.106074
  S     -0.855585    0.190063   -1.388704
  P     -2.210000    0.237614    0.241502
  S     -3.194220    1.918693    0.437017
  O     -1.265298   -0.170520    1.440189
  C     -1.613029    0.121063    2.812104
  C     -2.812195   -0.682543    3.265981
  O     -3.073924   -1.093327    0.055923
  C     -4.153328   -1.161038   -0.894952
  C     -5.480279   -0.868327   -0.221702
  H      6.634002   -1.867526    0.265340
  H      6.401756   -0.134779   -0.015015
  H      5.877445   -0.859262    1.510274
  H      4.159459   -2.201121    0.289712
  H      4.683003   -1.464411   -1.247732
  H      1.486435    0.810917    1.788265
  H      2.808966    1.994957    1.612467
  H      1.150426    3.712803    0.859429
  H     -0.159233    2.552626    1.063166
  H      0.750718    3.109963    2.478008
  H     -0.899344   -2.152045   -0.789672
  H      0.315379   -1.742828   -2.057563
  H     -0.713081   -0.142074    3.369333
  H     -1.811078    1.193843    2.898851
  H     -3.694432   -0.371376    2.708343
  H     -2.641624   -1.742125    3.095322
  H     -2.983289   -0.508086    4.323590
  H     -3.963702   -0.454208   -1.709271
  H     -4.123662   -2.180797   -1.283818
  H     -5.638513   -1.554601    0.605420
  H     -5.492704    0.151662    0.156417
  H     -6.281376   -0.985714   -0.944264

 Total Charge           Charge          ....    0
 Multiplicity           Mult            ....    1
 Number of Electrons    NEL             ....  202
 Basis Dimension        Dim             ....  539

ORBITAL ENERGIES
----------------

  NO   OCC          E(Eh)            E(eV)
   0   2.0000     -88.574911     -2410.2459
   1   2.0000     -88.572847     -2410.1897
   2   2.0000     -88.525012     -2408.8880
   3   2.0000     -88.517421     -2408.6815
   4   2.0000     -76.917045     -2093.0192
   5   2.0000     -76.911503     -2092.8684
   6   2.0000     -18.996154      -516.9116
   7   2.0000     -18.994642      -516.8705
   8   2.0000     -18.992904      -516.8232
   9   2.0000     -18.987979      -516.6892
  10   2.0000     -10.108278      -275.0602
  11   2.0000     -10.105328      -274.9800
  12   2.0000     -10.103844      -274.9396
  13   2.0000     -10.099761      -274.8285
  14   2.0000     -10.097890      -274.7776
  15   2.0000     -10.034729      -273.0588
  16   2.0000     -10.034438      -273.0509
  17   2.0000     -10.029530      -272.9174
  18   2.0000     -10.025202      -272.7996
  19   2.0000      -7.868639      -214.1165
  20   2.0000      -7.867403      -214.0829
  21   2.0000      -7.819656      -212.7837
  22   2.0000      -7.812144      -212.5793
  23   2.0000      -6.595440      -179.4711
  24   2.0000      -6.589998      -179.3230
  25   2.0000      -5.815993      -158.2612
  26   2.0000      -5.814217      -158.2129
  27   2.0000      -5.812135      -158.1562
  28   2.0000      -5.811186      -158.1304
  29   2.0000      -5.805720      -157.9817
  30   2.0000      -5.804612      -157.9515
  31   2.0000      -5.767288      -156.9359
  32   2.0000      -5.760021      -156.7382
  33   2.0000      -5.759876      -156.7342
  34   2.0000      -5.759616      -156.7271
  35   2.0000      -5.752413      -156.5311
  36   2.0000      -5.752080      -156.5221
  37   2.0000      -4.740870      -129.0056
  38   2.0000      -4.740550      -128.9969
  39   2.0000      -4.739077      -128.9568
  40   2.0000      -4.735797      -128.8676
  41   2.0000      -4.735049      -128.8472
  42   2.0000      -4.733364      -128.8014
  43   2.0000      -1.054880       -28.7047
  44   2.0000      -1.049752       -28.5652
  45   2.0000      -1.015777       -27.6407
  46   2.0000      -1.008014       -27.4295
  47   2.0000      -0.801072       -21.7983
  48   2.0000      -0.760974       -20.7072
  49   2.0000      -0.751855       -20.4590
  50   2.0000      -0.735889       -20.0246
  51   2.0000      -0.734047       -19.9744
  52   2.0000      -0.710870       -19.3438
  53   2.0000      -0.687878       -18.7181
  54   2.0000      -0.668484       -18.1904
  55   2.0000      -0.632527       -17.2119
  56   2.0000      -0.615527       -16.7493
  57   2.0000      -0.607021       -16.5179
  58   2.0000      -0.600383       -16.3373
  59   2.0000      -0.597699       -16.2642
  60   2.0000      -0.536250       -14.5921
  61   2.0000      -0.528841       -14.3905
  62   2.0000      -0.500286       -13.6135
  63   2.0000      -0.500049       -13.6070
  64   2.0000      -0.480842       -13.0844
  65   2.0000      -0.463711       -12.6182
  66   2.0000      -0.460447       -12.5294
  67   2.0000      -0.456227       -12.4146
  68   2.0000      -0.448151       -12.1948
  69   2.0000      -0.430102       -11.7037
  70   2.0000      -0.426152       -11.5962
  71   2.0000      -0.422340       -11.4925
  72   2.0000      -0.411426       -11.1955
  73   2.0000      -0.404259       -11.0005
  74   2.0000      -0.392638       -10.6842
  75   2.0000      -0.383142       -10.4258
  76   2.0000      -0.380953       -10.3663
  77   2.0000      -0.380453       -10.3526
  78   2.0000      -0.372269       -10.1299
  79   2.0000      -0.368954       -10.0398
  80   2.0000      -0.363045        -9.8790
  81   2.0000      -0.361751        -9.8437
  82   2.0000      -0.356430        -9.6990
  83   2.0000      -0.351844        -9.5742
  84   2.0000      -0.347276        -9.4499
  85   2.0000      -0.336983        -9.1698
  86   2.0000      -0.325445        -8.8558
  87   2.0000      -0.317642        -8.6435
  88   2.0000      -0.314473        -8.5572
  89   2.0000      -0.312804        -8.5118
  90   2.0000      -0.311144        -8.4667
  91   2.0000      -0.295715        -8.0468
  92   2.0000      -0.284702        -7.7471
  93   2.0000      -0.279286        -7.5998
  94   2.0000      -0.271530        -7.3887
  95   2.0000      -0.245121        -6.6701
  96   2.0000      -0.232484        -6.3262
  97   2.0000      -0.223682        -6.0867
  98   2.0000      -0.219596        -5.9755
  99   2.0000      -0.215119        -5.8537
 100   2.0000      -0.210783        -5.7357
 101   0.0000      -0.043748        -1.1904
 102   0.0000      -0.021785        -0.5928
 103   0.0000      -0.007993        -0.2175
 104   0.0000       0.004459         0.1213
 105   0.0000       0.009527         0.2592

MULLIKEN ATOMIC CHARGES
-----------------------
   0 C :   -0.439439
   1 C :   -0.152974
   2 O :   -0.284005
   3 P :    0.680138
   4 S :   -0.442817
   5 O :   -0.264019
   6 C :   -0.109628
   7 C :   -0.463662
   8 S :   -0.181226
   9 C :   -0.250990
  10 S :   -0.107333
  11 P :    0.644054
  12 S :   -0.456643
  13 O :   -0.255460
  14 C :   -0.156263
  15 C :   -0.449182
  16 O :   -0.299771
  17 C :   -0.126041
  18 C :   -0.461408
  19 H :    0.146751
  20 H :    0.159678
  21 H :    0.150391
  22 H :    0.150179
  23 H :    0.170847
  24 H :    0.155668
  25 H :    0.153912
  26 H :    0.157095
  27 H :    0.183927
  28 H :    0.141729
  29 H :    0.195599
  30 H :    0.216594
  31 H :    0.153355
  32 H :    0.176232
  33 H :    0.170161
  34 H :    0.158869
  35 H :    0.148564
  36 H :    0.158540
  37 H :    0.147518
  38 H :    0.150574
  39 H :    0.183917
  40 H :    0.146569
Sum of atomic charges:   -0.0000000

LOEWDIN ATOMIC CHARGES
----------------------
   0 C :   -0.386024
   1 C :    0.019205
   2 O :   -0.669708
   3 P :    0.367370
   4 S :   -0.098893
   5 O :   -0.648875
   6 C :    0.023108
   7 C :   -0.389655
   8 S :    0.143025
   9 C :   -0.413751
  10 S :    0.191662
  11 P :    0.363946
  12 S :   -0.112018
  13 O :   -0.689816
  14 C :    0.019971
  15 C :   -0.397720
  16 O :   -0.685697
  17 C :    0.021308
  18 C :   -0.402024
  19 H :    0.160192
  20 H :    0.162311
  21 H :    0.158467
  22 H :    0.171412
  23 H :    0.181092
  24 H :    0.175526
  25 H :    0.173332
  26 H :    0.163290
  27 H :    0.170984
  28 H :    0.158487
  29 H :    0.187746
  30 H :    0.191994
  31 H :    0.179778
  32 H :    0.180913
  33 H :    0.166568
  34 H :    0.161863
  35 H :    0.160205
  36 H :    0.178312
  37 H :    0.177010
  38 H :    0.157036
  39 H :    0.168846
  40 H :    0.159218

  Mayer bond orders larger than 0.100000
B(  0-C ,  1-C ) :   0.9556 B(  0-C , 19-H ) :   0.9640 B(  0-C , 20-H ) :   0.9711
B(  0-C , 21-H ) :   0.9716 B(  1-C ,  2-O ) :   0.7843 B(  1-C , 22-H ) :   0.9421
B(  1-C , 23-H ) :   0.9514 B(  2-O ,  3-P ) :   1.0524 B(  3-P ,  4-S ) :   1.8293
B(  3-P ,  5-O ) :   1.1863 B(  3-P ,  8-S ) :   0.9728 B(  5-O ,  6-C ) :   0.7276
B(  6-C ,  7-C ) :   0.9354 B(  6-C , 24-H ) :   0.9588 B(  6-C , 25-H ) :   0.9426
B(  7-C , 26-H ) :   0.9662 B(  7-C , 27-H ) :   0.9628 B(  7-C , 28-H ) :   0.9675
B(  8-S ,  9-C ) :   0.9196 B(  9-C , 10-S ) :   0.9107 B(  9-C , 29-H ) :   0.9182
B(  9-C , 30-H ) :   0.9137 B( 10-S , 11-P ) :   1.0896 B( 11-P , 12-S ) :   1.7971
B( 11-P , 13-O ) :   1.1338 B( 11-P , 16-O ) :   1.0162 B( 13-O , 14-C ) :   0.7827
B( 14-C , 15-C ) :   0.9278 B( 14-C , 31-H ) :   0.9584 B( 14-C , 32-H ) :   0.9582
B( 15-C , 33-H ) :   0.9599 B( 15-C , 34-H ) :   0.9726 B( 15-C , 35-H ) :   0.9606
B( 16-O , 17-C ) :   0.7848 B( 17-C , 18-C ) :   0.9486 B( 17-C , 36-H ) :   0.9647
B( 17-C , 37-H ) :   0.9623 B( 18-C , 38-H ) :   0.9747 B( 18-C , 39-H ) :   0.9588
B( 18-C , 40-H ) :   0.9629

Dispersion correction           -0.021537088
FINAL SINGLE POINT ENERGY     -2932.464070722447

DIPOLE MOMENT
-------------

Method             : SCF
Type of density    : Electron Density
Multiplicity       :   1
Irrep              :   0
Energy             : -2932.4887234840475685 Eh
Relativity type    :
Basis              : AO
                                X                 Y                 Z
Electronic contribution:      3.948750689       3.389212946     -16.643399089
Nuclear contribution   :     -4.018499990      -4.780812774      18.333331997
                        -----------------------------------------
Total Dipole Moment    :     -0.069749301      -1.391599828       1.689932907
                        -----------------------------------------
Magnitude (a.u.)       :      2.190271280
Magnitude (Debye)      :      5.567227158

Rotational constants in cm-1:             0.014096             0.004556             0.004285
Rotational constants in MHz :           422.599618           136.583881           128.459952

                             ****ORCA TERMINATED NORMALLY****
TOTAL RUN TIME: 0 days 0 hours 1 minutes 20 seconds 344 msec
