                         Program Version 6.0.0  -   RELEASE  -
|  1> ! r2scan-3c def2/J RI DEFGRID2 scfconv6 printgap
|  2> %output
|  3>     printlevel normal
|  4> end
|  5> %cpcm
|  6>     smd true
|  7>     smdsolvent "water"
|  8> end
|  9> * xyz 0 1
| 10> C 5.9751693322 -1.0236579622 0.4412240264
| 11> C 4.6184195515 -1.3191404787 -0.1645953298
| 12> O 3.762406993 -0.1851127759 0.0942773353
| 13> P 2.4003361024 0.0168395702 -0.699833926
| 14> S 2.5335104487 -0.0303336541 -2.6489486842
| 15> O 1.916599924 1.4126333268 -0.1527774425
| 16> C 1.8144520133 1.7131552267 1.2626536442
| 17> C 0.8239490382 2.8466221826 1.4277425488
| 18> S 1.1518910556 -1.4696135733 0.1734739159
| 19> C -0.1290588376 -1.4533117371 -1.1060736319
| 20> S -0.8555846979 0.1900626254 -1.3887035856
| 21> P -2.2100000326 0.2376144279 0.241502011
| 22> S -3.1942199558 1.9186933611 0.4370169316
| 23> O -1.2652978487 -0.1705196973 1.4401885927
| 24> C -1.6130285899 0.1210633654 2.8121038001
| 25> C -2.8121952352 -0.6825434102 3.2659809598
| 26> O -3.0739237192 -1.0933271693 0.0559227754
| 27> C -4.1533279814 -1.1610379472 -0.8949523019
| 28> C -5.4802787207 -0.8683270052 -0.2217022129
| 29> H 6.6340016182 -1.8675264992 0.2653395604
| 30> H 6.401755703 -0.1347791751 -0.0150149924
| 31> H 5.87744456 -0.8592624507 1.5102738263
| 32> H 4.1594593255 -2.2011213988 0.28971154
| 33> H 4.6830025598 -1.4644107773 -1.2477320579
| 34> H 1.4864348537 0.8109168443 1.78826493
| 35> H 2.808965855 1.9949573595 1.6124672544
| 36> H 1.1504264963 3.7128029246 0.8594286988
| 37> H -0.1592330644 2.5526261208 1.0631655057
| 38> H 0.7507180644 3.1099628895 2.4780075072
| 39> H -0.8993438942 -2.1520450599 -0.789672102
| 40> H 0.3153789065 -1.742828072 -2.0575626534
| 41> H -0.7130806481 -0.1420743332 3.369332537
| 42> H -1.8110783948 1.1938433378 2.8988511972
| 43> H -3.694431722 -0.3713764415 2.7083432461
| 44> H -2.6416243647 -1.7421254761 3.0953223353
| 45> H -2.9832890566 -0.5080863056 4.3235901358
| 46> H -3.9637015747 -0.4542075232 -1.7092706467
| 47> H -4.1236623631 -2.1807970114 -1.2838181041
| 48> H -5.6385129433 -1.5546012863 0.6054201912
| 49> H -5.4927039227 0.1516623613 0.156417105
| 50> H -6.2813762761 -0.9857144548 -0.9442640683
| 51> *
| 52>
| 53>                          ****END OF INPUT****

CARTESIAN COORDINATES (ANGSTROEM)
---------------------------------
  C      5.975169   -1.023658    0.441224
  C      4.618420   -1.319140   -0.164595
  O      3.762407   -0.185113    0.094277
  P      2.400336    0.016840   -0.699834
  S      2.533510   -0.030334   -2.648949
  O      1.916600    1.412633   -0.152777
  C      1.814452    1.713155    1.262654
  C      0.823949    2.846622    1.427743
  S      1.151891   -1.469614    0.173474
  C     -0.129059   -1.453312   -1.106074
  S     -0.855585    0.190063   -1.388704
  P     -2.210000    0.237614    0.241502
  S     -3.194220    1.918693    0.437017
  O     -1.265298   -0.170520    1.440189
  C     -1.613029    0.121063    2.812104
  C     -2.812195   -0.682543    3.265981
  O     -3.073924   -1.093327    0.055923
  C     -4.153328   -1.161038   -0.894952
  C     -5.480279   -0.868327   -0.221702
  H      6.634002   -1.867526    0.265340
  H      6.401756   -0.134779   -0.015015
  H      5.877445   -0.859262    1.510274
  H      4.159459   -2.201121    0.289712
  H      4.683003   -1.464411   -1.247732
  H      1.486435    0.810917    1.788265
  H      2.808966    1.994957    1.612467
  H      1.150426    3.712803    0.859429
  H     -0.159233    2.552626    1.063166
  H      0.750718    3.109963    2.478008
  H     -0.899344   -2.152045   -0.789672
  H      0.315379   -1.742828   -2.057563
  H     -0.713081   -0.142074    3.369333
  H     -1.811078    1.193843    2.898851
  H     -3.694432   -0.371376    2.708343
  H     -2.641624   -1.742125    3.095322
  H     -2.983289   -0.508086    4.323590
  H     -3.963702   -0.454208   -1.709271
  H     -4.123662   -2.180797   -1.283818
  H     -5.638513   -1.554601    0.605420
  H     -5.492704    0.151662    0.156417
  H     -6.281376   -0.985714   -0.944264

 Total Charge           Charge          ....    0
 Multiplicity           Mult            ....    1
 Number of Electrons    NEL             ....  202
 Basis Dimension        Dim             ....  539

ORBITAL ENERGIES
----------------

  NO   OCC          E(Eh)            E(eV)
   0   2.0000     -88.578602     -2410.3463
   1   2.0000     -88.575981     -2410.2750
   2   2.0000     -88.530163     -2409.0282
   3   2.0000     -88.529799     -2409.0183
   4   2.0000     -76.919449     -2093.0846
   5   2.0000     -76.919365     -2093.0823
   6   2.0000     -18.995754      -516.9007
   7   2.0000     -18.994736      -516.8730
   8   2.0000     -18.993346      -516.8352
   9   2.0000     -18.992484      -516.8118
  10   2.0000     -10.105544      -274.9858
  11   2.0000     -10.091853      -274.6133
  12   2.0000     -10.090826      -274.5853
  13   2.0000     -10.090738      -274.5829
  14   2.0000     -10.090469      -274.5756
  15   2.0000     -10.019888      -272.6550
  16   2.0000     -10.019305      -272.6391
  17   2.0000     -10.019157      -272.6351
  18   2.0000     -10.016442      -272.5612
  19   2.0000      -7.872567      -214.2234
  20   2.0000      -7.870402      -214.1645
  21   2.0000      -7.825164      -212.9335
  22   2.0000      -7.824908      -212.9266
  23   2.0000      -6.597926      -179.5387
  24   2.0000      -6.597816      -179.5357
  25   2.0000      -5.819843      -158.3660
  26   2.0000      -5.817234      -158.2950
  27   2.0000      -5.816023      -158.2620
  28   2.0000      -5.814211      -158.2127
  29   2.0000      -5.809757      -158.0915
  30   2.0000      -5.807594      -158.0327
  31   2.0000      -5.772713      -157.0835
  32   2.0000      -5.772508      -157.0779
  33   2.0000      -5.765535      -156.8882
  34   2.0000      -5.765137      -156.8773
  35   2.0000      -5.765134      -156.8773
  36   2.0000      -5.764946      -156.8721
  37   2.0000      -4.743690      -129.0824
  38   2.0000      -4.743158      -129.0679
  39   2.0000      -4.742910      -129.0611
  40   2.0000      -4.742905      -129.0610
  41   2.0000      -4.741610      -129.0258
  42   2.0000      -4.741424      -129.0207
  43   2.0000      -1.054367       -28.6908
  44   2.0000      -1.051902       -28.6237
  45   2.0000      -1.012223       -27.5440
  46   2.0000      -1.011937       -27.5362
  47   2.0000      -0.801737       -21.8164
  48   2.0000      -0.757009       -20.5993
  49   2.0000      -0.745093       -20.2750
  50   2.0000      -0.726586       -19.7714
  51   2.0000      -0.723161       -19.6782
  52   2.0000      -0.709189       -19.2980
  53   2.0000      -0.691870       -18.8267
  54   2.0000      -0.675032       -18.3686
  55   2.0000      -0.625423       -17.0186
  56   2.0000      -0.612336       -16.6625
  57   2.0000      -0.598396       -16.2832
  58   2.0000      -0.596983       -16.2447
  59   2.0000      -0.592564       -16.1245
  60   2.0000      -0.533813       -14.5258
  61   2.0000      -0.522085       -14.2067
  62   2.0000      -0.499058       -13.5801
  63   2.0000      -0.491925       -13.3860
  64   2.0000      -0.477893       -13.0041
  65   2.0000      -0.458702       -12.4819
  66   2.0000      -0.452434       -12.3113
  67   2.0000      -0.450569       -12.2606
  68   2.0000      -0.441293       -12.0082
  69   2.0000      -0.429599       -11.6900
  70   2.0000      -0.421812       -11.4781
  71   2.0000      -0.414895       -11.2899
  72   2.0000      -0.407637       -11.0924
  73   2.0000      -0.396881       -10.7997
  74   2.0000      -0.390603       -10.6288
  75   2.0000      -0.380351       -10.3499
  76   2.0000      -0.377126       -10.2621
  77   2.0000      -0.371307       -10.1038
  78   2.0000      -0.366171        -9.9640
  79   2.0000      -0.357579        -9.7302
  80   2.0000      -0.354723        -9.6525
  81   2.0000      -0.353616        -9.6224
  82   2.0000      -0.347822        -9.4647
  83   2.0000      -0.346657        -9.4330
  84   2.0000      -0.341857        -9.3024
  85   2.0000      -0.333959        -9.0875
  86   2.0000      -0.321181        -8.7398
  87   2.0000      -0.316205        -8.6044
  88   2.0000      -0.313837        -8.5399
  89   2.0000      -0.305017        -8.2999
  90   2.0000      -0.304100        -8.2750
  91   2.0000      -0.289864        -7.8876
  92   2.0000      -0.283851        -7.7240
  93   2.0000      -0.277928        -7.5628
  94   2.0000      -0.273212        -7.4345
  95   2.0000      -0.249936        -6.8011
  96   2.0000      -0.238447        -6.4885
  97   2.0000      -0.232117        -6.3162
  98   2.0000      -0.229203        -6.2369
  99   2.0000      -0.222460        -6.0534
 100   2.0000      -0.220622        -6.0034
 101   0.0000      -0.048299        -1.3143
 102   0.0000      -0.026371        -0.7176
 103   0.0000      -0.012306        -0.3349
 104   0.0000      -0.000317        -0.0086
 105   0.0000       0.008719         0.2373

MULLIKEN ATOMIC CHARGES
-----------------------
   0 C :   -0.480978
   1 C :   -0.139680
   2 O :   -0.305185
   3 P :    0.681617
   4 S :   -0.500609
   5 O :   -0.294427
   6 C :   -0.101688
   7 C :   -0.506321
   8 S :   -0.174257
   9 C :   -0.253790
  10 S :   -0.156310
  11 P :    0.689499
  12 S :   -0.516488
  13 O :   -0.275798
  14 C :   -0.149365
  15 C :   -0.488907
  16 O :   -0.313342
  17 C :   -0.126239
  18 C :   -0.492756
  19 H :    0.169516
  20 H :    0.166385
  21 H :    0.165911
  22 H :    0.169425
  23 H :    0.172503
  24 H :    0.175086
  25 H :    0.175841
  26 H :    0.168607
  27 H :    0.171845
  28 H :    0.173180
  29 H :    0.235232
  30 H :    0.234713
  31 H :    0.182260
  32 H :    0.180621
  33 H :    0.168551
  34 H :    0.172671
  35 H :    0.173447
  36 H :    0.165076
  37 H :    0.176159
  38 H :    0.166394
  39 H :    0.172567
  40 H :    0.169029
Sum of atomic charges:   -0.0000000

LOEWDIN ATOMIC CHARGES
----------------------
   0 C :   -0.389117
   1 C :    0.024604
   2 O :   -0.678746
   3 P :    0.367797
   4 S :   -0.145363
   5 O :   -0.673206
   6 C :    0.030475
   7 C :   -0.394853
   8 S :    0.154216
   9 C :   -0.403216
  10 S :    0.164040
  11 P :    0.371852
  12 S :   -0.150426
  13 O :   -0.693914
  14 C :    0.027289
  15 C :   -0.401341
  16 O :   -0.688572
  17 C :    0.026516
  18 C :   -0.405782
  19 H :    0.169186
  20 H :    0.163222
  21 H :    0.163250
  22 H :    0.179591
  23 H :    0.181654
  24 H :    0.183399
  25 H :    0.183336
  26 H :    0.164437
  27 H :    0.164482
  28 H :    0.171070
  29 H :    0.202438
  30 H :    0.198103
  31 H :    0.191595
  32 H :    0.182788
  33 H :    0.163432
  34 H :    0.165038
  35 H :    0.169396
  36 H :    0.180321
  37 H :    0.189065
  38 H :    0.162055
  39 H :    0.162730
  40 H :    0.167160

  Mayer bond orders larger than 0.100000
B(  0-C ,  1-C ) :   0.9536 B(  0-C , 19-H ) :   0.9579 B(  0-C , 20-H ) :   0.9695
B(  0-C , 21-H ) :   0.9681 B(  1-C ,  2-O ) :   0.7756 B(  1-C , 22-H ) :   0.9324
B(  1-C , 23-H ) :   0.9485 B(  2-O ,  3-P ) :   1.0614 B(  3-P ,  4-S ) :   1.8049
B(  3-P ,  5-O ) :   1.1880 B(  3-P ,  8-S ) :   0.9985 B(  5-O ,  6-C ) :   0.7202
B(  6-C ,  7-C ) :   0.9265 B(  6-C , 24-H ) :   0.9493 B(  6-C , 25-H ) :   0.9336
B(  7-C , 26-H ) :   0.9659 B(  7-C , 27-H ) :   0.9669 B(  7-C , 28-H ) :   0.9596
B(  8-S ,  9-C ) :   0.9100 B(  9-C , 10-S ) :   0.9047 B(  9-C , 29-H ) :   0.9066
B(  9-C , 30-H ) :   0.9069 B( 10-S , 11-P ) :   1.0877 B( 11-P , 12-S ) :   1.7492
B( 11-P , 13-O ) :   1.1509 B( 11-P , 16-O ) :   1.0321 B( 13-O , 14-C ) :   0.7712
B( 14-C , 15-C ) :   0.9110 B( 14-C , 31-H ) :   0.9492 B( 14-C , 32-H ) :   0.9555
B( 15-C , 33-H ) :   0.9594 B( 15-C , 34-H ) :   0.9708 B( 15-C , 35-H ) :   0.9551
B( 16-O , 17-C ) :   0.7701 B( 17-C , 18-C ) :   0.9403 B( 17-C , 36-H ) :   0.9605
B( 17-C , 37-H ) :   0.9531 B( 18-C , 38-H ) :   0.9710 B( 18-C , 39-H ) :   0.9626
B( 18-C , 40-H ) :   0.9589

Dispersion correction           -0.021537088
FINAL SINGLE POINT ENERGY     -2932.475794331213

DIPOLE MOMENT
-------------

Method             : SCF
Type of density    : Electron Density
Multiplicity       :   1
Irrep              :   0
Energy             : -2932.5004470928138289 Eh
Relativity type    :
Basis              : AO
                                X                 Y                 Z
Electronic contribution:      3.952443312       2.583308078     -15.909620466
Nuclear contribution   :     -4.018499990      -4.780812774      18.333331997
                        -----------------------------------------
Total Dipole Moment    :     -0.066056678      -2.197504696       2.423711531
                        -----------------------------------------
Magnitude (a.u.)       :      3.272272598
Magnitude (Debye)      :      8.317455945

Rotational constants in cm-1:             0.014096             0.004556             0.004285
Rotational constants in MHz :           422.599618           136.583881           128.459952

                             ****ORCA TERMINATED NORMALLY****
TOTAL RUN TIME: 0 days 0 hours 1 minutes 57 seconds 209 msec
