                         Program Version 6.0.0  -   RELEASE  -
|  1> ! pbe def2-sv(p) def2/J RI DEFGRID1 loosescf d4 GCP(DFT/SV(P)) printgap
|  2> %output
|  3>     printlevel normal
|  4> end
|  5> * xyz 0 1
|  6> C 4.1380013864 2.5578343757 0.7781286189
|  7> C 4.6499169183 1.4112211292 -0.0691189059
|  8> O 3.5857043066 0.7630369572 -0.7903203081
|  9> P 2.4877754641 -0.1270997142 -0.0613109424
| 10> S 3.1834457627 -1.2160488783 1.4179194486
| 11> O 1.8370638726 -0.8925041046 -1.2834857799
| 12> C 2.4305113532 -2.0745226555 -1.8673458995
| 13> C 1.8408067234 -3.3302542904 -1.2571536014
| 14> S 0.907080308 1.1697179659 0.3885166303
| 15> C -0.0022849998 -0.0260993396 1.4433702231
| 16> S -1.7031521289 0.4928082755 1.6583231292
| 17> P -2.3391540258 0.0178905738 -0.3280474691
| 18> S -1.5356497762 -1.5868793474 -1.1107465705
| 19> O -2.0236337821 1.2480532877 -1.2574953557
| 20> C -2.1033468683 2.6548302233 -0.9169316703
| 21> C -3.4285854379 3.0552405841 -0.3059415381
| 22> O -3.9220155701 0.0518095838 -0.2353767497
| 23> C -4.7172391348 -0.6051370295 0.7690459279
| 24> C -4.4304985328 -2.0886346366 0.8700324938
| 25> H 3.556134187 3.2460235074 0.1701812184
| 26> H 3.504942192 2.1749613881 1.5778027034
| 27> H 4.9795209306 3.0844943069 1.2164757864
| 28> H 5.1498455855 0.6631208448 0.5546203804
| 29> H 5.3256451977 1.7554763232 -0.8530203456
| 30> H 2.1885739336 -1.9994946165 -2.9285885883
| 31> H 3.5148014291 -2.0366757883 -1.7302459197
| 32> H 2.2185688594 -4.1982431688 -1.7873665719
| 33> H 2.1147476429 -3.407626582 -0.2069476621
| 34> H 0.7559517855 -3.3027267453 -1.3359798981
| 35> H 0.4612656519 -0.0666537278 2.4265620874
| 36> H 0.0148953236 -1.0018588311 0.9510630806
| 37> H -1.2724694044 2.8792253365 -0.2409158099
| 38> H -1.9371846304 3.1479826366 -1.875879283
| 39> H -3.5483635492 2.603725691 0.6767063204
| 40> H -3.4508923598 4.1356257789 -0.2004725536
| 41> H -4.2491004401 2.7397510048 -0.9451272476
| 42> H -4.5323504732 -0.1105177651 1.7264648283
| 43> H -5.7426546848 -0.4192151804 0.445115171
| 44> H -3.4094693627 -2.2530291767 1.2115386728
| 45> H -5.1169281418 -2.541629448 1.5780397774
| 46> H -4.5470923884 -2.5652464172 -0.1005815663
| 47> *
| 48>
| 49>                          ****END OF INPUT****

CARTESIAN COORDINATES (ANGSTROEM)
---------------------------------
  C      4.138001    2.557834    0.778129
  C      4.649917    1.411221   -0.069119
  O      3.585704    0.763037   -0.790320
  P      2.487775   -0.127100   -0.061311
  S      3.183446   -1.216049    1.417919
  O      1.837064   -0.892504   -1.283486
  C      2.430511   -2.074523   -1.867346
  C      1.840807   -3.330254   -1.257154
  S      0.907080    1.169718    0.388517
  C     -0.002285   -0.026099    1.443370
  S     -1.703152    0.492808    1.658323
  P     -2.339154    0.017891   -0.328047
  S     -1.535650   -1.586879   -1.110747
  O     -2.023634    1.248053   -1.257495
  C     -2.103347    2.654830   -0.916932
  C     -3.428585    3.055241   -0.305942
  O     -3.922016    0.051810   -0.235377
  C     -4.717239   -0.605137    0.769046
  C     -4.430499   -2.088635    0.870032
  H      3.556134    3.246024    0.170181
  H      3.504942    2.174961    1.577803
  H      4.979521    3.084494    1.216476
  H      5.149846    0.663121    0.554620
  H      5.325645    1.755476   -0.853020
  H      2.188574   -1.999495   -2.928589
  H      3.514801   -2.036676   -1.730246
  H      2.218569   -4.198243   -1.787367
  H      2.114748   -3.407627   -0.206948
  H      0.755952   -3.302727   -1.335980
  H      0.461266   -0.066654    2.426562
  H      0.014895   -1.001859    0.951063
  H     -1.272469    2.879225   -0.240916
  H     -1.937185    3.147983   -1.875879
  H     -3.548364    2.603726    0.676706
  H     -3.450892    4.135626   -0.200473
  H     -4.249100    2.739751   -0.945127
  H     -4.532350   -0.110518    1.726465
  H     -5.742655   -0.419215    0.445115
  H     -3.409469   -2.253029    1.211539
  H     -5.116928   -2.541629    1.578040
  H     -4.547092   -2.565246   -0.100582

 Total Charge           Charge          ....    0
 Multiplicity           Mult            ....    1
 Number of Electrons    NEL             ....  202
 Basis Dimension        Dim             ....  334

ORBITAL ENERGIES
----------------

  NO   OCC          E(Eh)            E(eV)
   0   2.0000     -88.053044     -2396.0451
   1   2.0000     -88.040655     -2395.7080
   2   2.0000     -87.984703     -2394.1855
   3   2.0000     -87.979440     -2394.0423
   4   2.0000     -76.427182     -2079.6894
   5   2.0000     -76.423218     -2079.5815
   6   2.0000     -18.795596      -511.4542
   7   2.0000     -18.791302      -511.3373
   8   2.0000     -18.788236      -511.2539
   9   2.0000     -18.781269      -511.0643
  10   2.0000      -9.961455      -271.0650
  11   2.0000      -9.955724      -270.9090
  12   2.0000      -9.955517      -270.9034
  13   2.0000      -9.951051      -270.7819
  14   2.0000      -9.945108      -270.6201
  15   2.0000      -9.890038      -269.1216
  16   2.0000      -9.884295      -268.9653
  17   2.0000      -9.884127      -268.9608
  18   2.0000      -9.869479      -268.5622
  19   2.0000      -7.697729      -209.4659
  20   2.0000      -7.685904      -209.1441
  21   2.0000      -7.629743      -207.6159
  22   2.0000      -7.624549      -207.4745
  23   2.0000      -6.424172      -174.8106
  24   2.0000      -6.420878      -174.7210
  25   2.0000      -5.725338      -155.7944
  26   2.0000      -5.722178      -155.7084
  27   2.0000      -5.715120      -155.5163
  28   2.0000      -5.713766      -155.4795
  29   2.0000      -5.710747      -155.3973
  30   2.0000      -5.702509      -155.1732
  31   2.0000      -5.658510      -153.9759
  32   2.0000      -5.653623      -153.8429
  33   2.0000      -5.650415      -153.7556
  34   2.0000      -5.650020      -153.7449
  35   2.0000      -5.645246      -153.6150
  36   2.0000      -5.644424      -153.5926
  37   2.0000      -4.646860      -126.4475
  38   2.0000      -4.646474      -126.4370
  39   2.0000      -4.644084      -126.3720
  40   2.0000      -4.643390      -126.3531
  41   2.0000      -4.642574      -126.3309
  42   2.0000      -4.641460      -126.3006
  43   2.0000      -0.987767       -26.8785
  44   2.0000      -0.982393       -26.7323
  45   2.0000      -0.945483       -25.7279
  46   2.0000      -0.939970       -25.5779
  47   2.0000      -0.767131       -20.8747
  48   2.0000      -0.722043       -19.6478
  49   2.0000      -0.710350       -19.3296
  50   2.0000      -0.692923       -18.8554
  51   2.0000      -0.685222       -18.6458
  52   2.0000      -0.673387       -18.3238
  53   2.0000      -0.650117       -17.6906
  54   2.0000      -0.635463       -17.2918
  55   2.0000      -0.594903       -16.1881
  56   2.0000      -0.591058       -16.0835
  57   2.0000      -0.580202       -15.7881
  58   2.0000      -0.568607       -15.4726
  59   2.0000      -0.561798       -15.2873
  60   2.0000      -0.497404       -13.5350
  61   2.0000      -0.493780       -13.4364
  62   2.0000      -0.474125       -12.9016
  63   2.0000      -0.465727       -12.6731
  64   2.0000      -0.454950       -12.3798
  65   2.0000      -0.447459       -12.1760
  66   2.0000      -0.440152       -11.9771
  67   2.0000      -0.434579       -11.8255
  68   2.0000      -0.432733       -11.7753
  69   2.0000      -0.418142       -11.3782
  70   2.0000      -0.413701       -11.2574
  71   2.0000      -0.402442       -10.9510
  72   2.0000      -0.394419       -10.7327
  73   2.0000      -0.391841       -10.6625
  74   2.0000      -0.382015       -10.3952
  75   2.0000      -0.371525       -10.1097
  76   2.0000      -0.360764        -9.8169
  77   2.0000      -0.354291        -9.6407
  78   2.0000      -0.351640        -9.5686
  79   2.0000      -0.349141        -9.5006
  80   2.0000      -0.347290        -9.4502
  81   2.0000      -0.344137        -9.3645
  82   2.0000      -0.341065        -9.2808
  83   2.0000      -0.334448        -9.1008
  84   2.0000      -0.332160        -9.0385
  85   2.0000      -0.321464        -8.7475
  86   2.0000      -0.306251        -8.3335
  87   2.0000      -0.297404        -8.0928
  88   2.0000      -0.293908        -7.9976
  89   2.0000      -0.285725        -7.7750
  90   2.0000      -0.281169        -7.6510
  91   2.0000      -0.276530        -7.5248
  92   2.0000      -0.270273        -7.3545
  93   2.0000      -0.266647        -7.2558
  94   2.0000      -0.260401        -7.0859
  95   2.0000      -0.236844        -6.4449
  96   2.0000      -0.223646        -6.0857
  97   2.0000      -0.203658        -5.5418
  98   2.0000      -0.199949        -5.4409
  99   2.0000      -0.198620        -5.4047
 100   2.0000      -0.192012        -5.2249
 101   0.0000      -0.045814        -1.2467
 102   0.0000      -0.034138        -0.9290
 103   0.0000      -0.011444        -0.3114
 104   0.0000       0.009303         0.2531
 105   0.0000       0.015645         0.4257

MULLIKEN ATOMIC CHARGES
-----------------------
   0 C :   -0.316144
   1 C :   -0.006084
   2 O :   -0.371277
   3 P :    0.609211
   4 S :   -0.346883
   5 O :   -0.351881
   6 C :    0.004775
   7 C :   -0.308404
   8 S :   -0.091102
   9 C :   -0.345507
  10 S :   -0.124358
  11 P :    0.600834
  12 S :   -0.305915
  13 O :   -0.348928
  14 C :   -0.000410
  15 C :   -0.311358
  16 O :   -0.372457
  17 C :   -0.012886
  18 C :   -0.305907
  19 H :    0.116139
  20 H :    0.126564
  21 H :    0.113373
  22 H :    0.112346
  23 H :    0.105339
  24 H :    0.108430
  25 H :    0.097161
  26 H :    0.102650
  27 H :    0.124211
  28 H :    0.135389
  29 H :    0.188450
  30 H :    0.208797
  31 H :    0.113580
  32 H :    0.111420
  33 H :    0.114667
  34 H :    0.114619
  35 H :    0.125081
  36 H :    0.110813
  37 H :    0.110722
  38 H :    0.125513
  39 H :    0.110974
  40 H :    0.128443
Sum of atomic charges:   -0.0000000

LOEWDIN ATOMIC CHARGES
----------------------
   0 C :   -0.369165
   1 C :   -0.120253
   2 O :   -0.244577
   3 P :    0.571437
   4 S :   -0.330907
   5 O :   -0.233759
   6 C :   -0.109239
   7 C :   -0.366716
   8 S :    0.084045
   9 C :   -0.476821
  10 S :    0.071597
  11 P :    0.571297
  12 S :   -0.295120
  13 O :   -0.229984
  14 C :   -0.112656
  15 C :   -0.367458
  16 O :   -0.240933
  17 C :   -0.114018
  18 C :   -0.368688
  19 H :    0.124184
  20 H :    0.121166
  21 H :    0.131215
  22 H :    0.110287
  23 H :    0.118715
  24 H :    0.121232
  25 H :    0.107192
  26 H :    0.126375
  27 H :    0.122435
  28 H :    0.124744
  29 H :    0.134523
  30 H :    0.124644
  31 H :    0.102680
  32 H :    0.124070
  33 H :    0.115451
  34 H :    0.131914
  35 H :    0.129315
  36 H :    0.106890
  37 H :    0.122117
  38 H :    0.121460
  39 H :    0.129911
  40 H :    0.131403

  Mayer bond orders larger than 0.100000
B(  0-C ,  1-C ) :   1.1641 B(  0-C , 19-H ) :   0.9459 B(  0-C , 20-H ) :   0.9348
B(  0-C , 21-H ) :   0.9385 B(  1-C ,  2-O ) :   0.9086 B(  1-C , 22-H ) :   0.9137
B(  1-C , 23-H ) :   0.9335 B(  2-O ,  3-P ) :   1.1112 B(  3-P ,  4-S ) :   1.5803
B(  3-P ,  5-O ) :   1.1489 B(  3-P ,  8-S ) :   0.9729 B(  4-S ,  8-S ) :   0.1112
B(  5-O ,  6-C ) :   0.8907 B(  6-C ,  7-C ) :   1.1716 B(  6-C , 24-H ) :   0.9334
B(  6-C , 25-H ) :   0.9186 B(  7-C , 26-H ) :   0.9388 B(  7-C , 27-H ) :   0.9343
B(  7-C , 28-H ) :   0.9369 B(  8-S ,  9-C ) :   0.9716 B(  9-C , 10-S ) :   1.0172
B(  9-C , 29-H ) :   0.8991 B(  9-C , 30-H ) :   0.8544 B( 10-S , 11-P ) :   0.9113
B( 10-S , 12-S ) :   0.1109 B( 11-P , 12-S ) :   1.6482 B( 11-P , 13-O ) :   1.1494
B( 11-P , 16-O ) :   1.0963 B( 13-O , 14-C ) :   0.9034 B( 14-C , 15-C ) :   1.1659
B( 14-C , 31-H ) :   0.9148 B( 14-C , 32-H ) :   0.9351 B( 15-C , 33-H ) :   0.9401
B( 15-C , 34-H ) :   0.9358 B( 15-C , 35-H ) :   0.9421 B( 16-O , 17-C ) :   0.9120
B( 17-C , 18-C ) :   1.1672 B( 17-C , 36-H ) :   0.9261 B( 17-C , 37-H ) :   0.9336
B( 18-C , 38-H ) :   0.9330 B( 18-C , 39-H ) :   0.9347 B( 18-C , 40-H ) :   0.9425

Dispersion correction           -0.065260870
FINAL SINGLE POINT ENERGY     -2929.513124335117

DIPOLE MOMENT
-------------

Method             : SCF
Type of density    : Electron Density
Multiplicity       :   1
Irrep              :   0
Energy             : -2929.6325918003144579 Eh
Relativity type    :
Basis              : AO
                                X                 Y                 Z
Electronic contribution:      3.370982253      -1.418281255      -0.333993065
Nuclear contribution   :     -3.938156689       2.519124795       0.536004093
                        -----------------------------------------
Total Dipole Moment    :     -0.567174436       1.100843540       0.202011028
                        -----------------------------------------
Magnitude (a.u.)       :      1.254731762
Magnitude (Debye)      :      3.189274684

Rotational constants in cm-1:             0.012595             0.004914             0.004266
Rotational constants in MHz :           377.590565           147.307353           127.891436

                             ****ORCA TERMINATED NORMALLY****
TOTAL RUN TIME: 0 days 0 hours 0 minutes 20 seconds 884 msec
