                         Program Version 6.0.0  -   RELEASE  -
|  1> ! pbe def2-sv(p) def2/J RI DEFGRID1 loosescf d4 GCP(DFT/SV(P)) printgap
|  2> %output
|  3>     printlevel normal
|  4> end
|  5> * xyz 0 1
|  6> C 3.9290462283 -1.72672894 -2.3958442002
|  7> C 4.0137894946 -0.2400652781 -2.1198332444
|  8> O 3.4179704133 0.1189771825 -0.8581343204
|  9> P 1.8642716788 -0.0249442141 -0.5739927768
| 10> S 0.6777237429 0.4468933141 -2.0569595604
| 11> O 1.658329345 0.9043029751 0.684632334
| 12> C 2.6261202498 1.1776091233 1.7264199983
| 13> C 2.9646918067 -0.0521022004 2.5428314272
| 14> S 1.6020580929 -2.0207945343 0.1006235861
| 15> C -0.1999739061 -1.9588797062 0.1828966794
| 16> S -0.8244390577 -0.9478093186 1.5740649896
| 17> P -1.798376812 0.6932840449 0.674740825
| 18> S -1.000831755 2.4615742385 0.4124928126
| 19> O -3.0152761847 0.9318793409 1.6713159185
| 20> C -3.8235908937 -0.0634319241 2.3417995441
| 21> C -4.5691032134 -0.966183279 1.3806547571
| 22> O -2.3579016208 -0.0182284559 -0.6410168995
| 23> C -2.8440326481 0.7303629544 -1.7717141462
| 24> C -2.8640503143 -0.1953768119 -2.9697543374
| 25> H 2.8936807386 -2.0159570826 -2.5671801035
| 26> H 4.5094710648 -1.9564123974 -3.283616615
| 27> H 4.3177419535 -2.2929381377 -1.553342578
| 28> H 3.5141091905 0.3280203873 -2.9104612222
| 29> H 5.047249566 0.0947559983 -2.0189701198
| 30> H 3.5170354232 1.6010842833 1.2591665448
| 31> H 2.1251735796 1.9394250202 2.3272541345
| 32> H 2.0579262074 -0.5129225702 2.9292872464
| 33> H 3.5003338482 -0.777459974 1.9339678221
| 34> H 3.5946468266 0.2453429086 3.3753907796
| 35> H -0.5349033457 -2.9769517958 0.3611277246
| 36> H -0.5953232661 -1.5594867669 -0.7505718398
| 37> H -3.1760783015 -0.6444695665 3.0024869692
| 38> H -4.5103390967 0.5401798057 2.9379211969
| 39> H -5.1641739624 -0.3732886254 0.6902002385
| 40> H -3.8714237965 -1.5766205115 0.8121285888
| 41> H -5.226751284 -1.6168578223 1.9487227633
| 42> H -3.843378031 1.1004506395 -1.527423659
| 43> H -2.1807342515 1.5858514653 -1.9382480941
| 44> H -1.8495191249 -0.495688928 -3.220076431
| 45> H -3.4590216272 -1.077215252 -2.7508912721
| 46> H -3.2940466204 0.3320540967 -3.8145522709
| 47> *
| 48>
| 49>                          ****END OF INPUT****

CARTESIAN COORDINATES (ANGSTROEM)
---------------------------------
  C      3.929046   -1.726729   -2.395844
  C      4.013789   -0.240065   -2.119833
  O      3.417970    0.118977   -0.858134
  P      1.864272   -0.024944   -0.573993
  S      0.677724    0.446893   -2.056960
  O      1.658329    0.904303    0.684632
  C      2.626120    1.177609    1.726420
  C      2.964692   -0.052102    2.542831
  S      1.602058   -2.020795    0.100624
  C     -0.199974   -1.958880    0.182897
  S     -0.824439   -0.947809    1.574065
  P     -1.798377    0.693284    0.674741
  S     -1.000832    2.461574    0.412493
  O     -3.015276    0.931879    1.671316
  C     -3.823591   -0.063432    2.341800
  C     -4.569103   -0.966183    1.380655
  O     -2.357902   -0.018228   -0.641017
  C     -2.844033    0.730363   -1.771714
  C     -2.864050   -0.195377   -2.969754
  H      2.893681   -2.015957   -2.567180
  H      4.509471   -1.956412   -3.283617
  H      4.317742   -2.292938   -1.553343
  H      3.514109    0.328020   -2.910461
  H      5.047250    0.094756   -2.018970
  H      3.517035    1.601084    1.259167
  H      2.125174    1.939425    2.327254
  H      2.057926   -0.512923    2.929287
  H      3.500334   -0.777460    1.933968
  H      3.594647    0.245343    3.375391
  H     -0.534903   -2.976952    0.361128
  H     -0.595323   -1.559487   -0.750572
  H     -3.176078   -0.644470    3.002487
  H     -4.510339    0.540180    2.937921
  H     -5.164174   -0.373289    0.690200
  H     -3.871424   -1.576621    0.812129
  H     -5.226751   -1.616858    1.948723
  H     -3.843378    1.100451   -1.527424
  H     -2.180734    1.585851   -1.938248
  H     -1.849519   -0.495689   -3.220076
  H     -3.459022   -1.077215   -2.750891
  H     -3.294047    0.332054   -3.814552

 Total Charge           Charge          ....    0
 Multiplicity           Mult            ....    1
 Number of Electrons    NEL             ....  202
 Basis Dimension        Dim             ....  334

ORBITAL ENERGIES
----------------

  NO   OCC          E(Eh)            E(eV)
   0   2.0000     -88.042788     -2395.7661
   1   2.0000     -88.040804     -2395.7121
   2   2.0000     -87.983223     -2394.1452
   3   2.0000     -87.962237     -2393.5742
   4   2.0000     -76.425898     -2079.6544
   5   2.0000     -76.413299     -2079.3116
   6   2.0000     -18.798134      -511.5232
   7   2.0000     -18.783187      -511.1165
   8   2.0000     -18.781885      -511.0811
   9   2.0000     -18.778038      -510.9764
  10   2.0000      -9.958872      -270.9947
  11   2.0000      -9.957319      -270.9524
  12   2.0000      -9.949552      -270.7411
  13   2.0000      -9.949249      -270.7328
  14   2.0000      -9.941154      -270.5125
  15   2.0000      -9.888214      -269.0720
  16   2.0000      -9.885296      -268.9926
  17   2.0000      -9.881721      -268.8953
  18   2.0000      -9.878076      -268.7961
  19   2.0000      -7.688005      -209.2012
  20   2.0000      -7.685926      -209.1447
  21   2.0000      -7.628151      -207.5725
  22   2.0000      -7.607621      -207.0139
  23   2.0000      -6.423098      -174.7814
  24   2.0000      -6.410814      -174.4471
  25   2.0000      -5.715753      -155.5335
  26   2.0000      -5.714146      -155.4898
  27   2.0000      -5.712574      -155.4470
  28   2.0000      -5.710040      -155.3781
  29   2.0000      -5.705001      -155.2410
  30   2.0000      -5.702871      -155.1830
  31   2.0000      -5.656940      -153.9332
  32   2.0000      -5.648917      -153.7148
  33   2.0000      -5.648239      -153.6964
  34   2.0000      -5.636946      -153.3891
  35   2.0000      -5.628228      -153.1519
  36   2.0000      -5.627319      -153.1271
  37   2.0000      -4.646278      -126.4317
  38   2.0000      -4.644625      -126.3867
  39   2.0000      -4.643274      -126.3499
  40   2.0000      -4.633803      -126.0922
  41   2.0000      -4.632737      -126.0632
  42   2.0000      -4.630744      -126.0089
  43   2.0000      -0.987790       -26.8791
  44   2.0000      -0.971903       -26.4468
  45   2.0000      -0.941676       -25.6243
  46   2.0000      -0.933872       -25.4120
  47   2.0000      -0.762439       -20.7470
  48   2.0000      -0.717630       -19.5277
  49   2.0000      -0.707576       -19.2541
  50   2.0000      -0.690762       -18.7966
  51   2.0000      -0.686814       -18.6892
  52   2.0000      -0.672547       -18.3009
  53   2.0000      -0.646608       -17.5951
  54   2.0000      -0.626947       -17.0601
  55   2.0000      -0.598491       -16.2858
  56   2.0000      -0.578123       -15.7315
  57   2.0000      -0.577249       -15.7078
  58   2.0000      -0.568868       -15.4797
  59   2.0000      -0.558784       -15.2053
  60   2.0000      -0.495908       -13.4943
  61   2.0000      -0.493933       -13.4406
  62   2.0000      -0.472055       -12.8453
  63   2.0000      -0.468712       -12.7543
  64   2.0000      -0.452492       -12.3129
  65   2.0000      -0.445550       -12.1240
  66   2.0000      -0.439561       -11.9611
  67   2.0000      -0.431777       -11.7493
  68   2.0000      -0.424717       -11.5571
  69   2.0000      -0.423266       -11.5177
  70   2.0000      -0.408891       -11.1265
  71   2.0000      -0.395380       -10.7588
  72   2.0000      -0.394809       -10.7433
  73   2.0000      -0.381908       -10.3922
  74   2.0000      -0.378574       -10.3015
  75   2.0000      -0.369150       -10.0451
  76   2.0000      -0.358461        -9.7542
  77   2.0000      -0.355530        -9.6745
  78   2.0000      -0.349297        -9.5049
  79   2.0000      -0.348250        -9.4764
  80   2.0000      -0.343578        -9.3492
  81   2.0000      -0.342042        -9.3074
  82   2.0000      -0.339429        -9.2363
  83   2.0000      -0.335751        -9.1362
  84   2.0000      -0.326992        -8.8979
  85   2.0000      -0.317482        -8.6391
  86   2.0000      -0.308746        -8.4014
  87   2.0000      -0.301602        -8.2070
  88   2.0000      -0.297205        -8.0874
  89   2.0000      -0.291328        -7.9274
  90   2.0000      -0.271374        -7.3845
  91   2.0000      -0.268956        -7.3187
  92   2.0000      -0.265622        -7.2279
  93   2.0000      -0.258559        -7.0358
  94   2.0000      -0.254635        -6.9290
  95   2.0000      -0.234612        -6.3841
  96   2.0000      -0.217320        -5.9136
  97   2.0000      -0.209603        -5.7036
  98   2.0000      -0.197670        -5.3789
  99   2.0000      -0.181050        -4.9266
 100   2.0000      -0.168084        -4.5738
 101   0.0000      -0.043300        -1.1782
 102   0.0000      -0.025078        -0.6824
 103   0.0000      -0.018615        -0.5065
 104   0.0000       0.000012         0.0003
 105   0.0000       0.019495         0.5305

MULLIKEN ATOMIC CHARGES
-----------------------
   0 C :   -0.323107
   1 C :   -0.000090
   2 O :   -0.382020
   3 P :    0.615857
   4 S :   -0.310727
   5 O :   -0.338997
   6 C :    0.011082
   7 C :   -0.320594
   8 S :   -0.098600
   9 C :   -0.361037
  10 S :   -0.116166
  11 P :    0.621746
  12 S :   -0.297735
  13 O :   -0.373739
  14 C :   -0.010736
  15 C :   -0.310386
  16 O :   -0.395552
  17 C :   -0.009216
  18 C :   -0.293570
  19 H :    0.130473
  20 H :    0.116210
  21 H :    0.117703
  22 H :    0.115983
  23 H :    0.106157
  24 H :    0.106435
  25 H :    0.113761
  26 H :    0.128385
  27 H :    0.116236
  28 H :    0.110310
  29 H :    0.181327
  30 H :    0.216546
  31 H :    0.111033
  32 H :    0.107972
  33 H :    0.116897
  34 H :    0.119974
  35 H :    0.109796
  36 H :    0.098099
  37 H :    0.123360
  38 H :    0.132550
  39 H :    0.105886
  40 H :    0.108495
Sum of atomic charges:    0.0000000

LOEWDIN ATOMIC CHARGES
----------------------
   0 C :   -0.372469
   1 C :   -0.115632
   2 O :   -0.244211
   3 P :    0.574496
   4 S :   -0.295925
   5 O :   -0.224295
   6 C :   -0.105620
   7 C :   -0.370611
   8 S :    0.078073
   9 C :   -0.476428
  10 S :    0.075164
  11 P :    0.557294
  12 S :   -0.299134
  13 O :   -0.249341
  14 C :   -0.119274
  15 C :   -0.367195
  16 O :   -0.251955
  17 C :   -0.120775
  18 C :   -0.356134
  19 H :    0.122174
  20 H :    0.133021
  21 H :    0.123392
  22 H :    0.114734
  23 H :    0.119252
  24 H :    0.113115
  25 H :    0.124429
  26 H :    0.124683
  27 H :    0.115136
  28 H :    0.129481
  29 H :    0.137273
  30 H :    0.131192
  31 H :    0.106058
  32 H :    0.120798
  33 H :    0.125321
  34 H :    0.120227
  35 H :    0.129255
  36 H :    0.107710
  37 H :    0.111739
  38 H :    0.124069
  39 H :    0.121353
  40 H :    0.129562

  Mayer bond orders larger than 0.100000
B(  0-C ,  1-C ) :   1.1663 B(  0-C , 19-H ) :   0.9324 B(  0-C , 20-H ) :   0.9367
B(  0-C , 21-H ) :   0.9442 B(  1-C ,  2-O ) :   0.9014 B(  1-C , 22-H ) :   0.9179
B(  1-C , 23-H ) :   0.9340 B(  2-O ,  3-P ) :   1.0857 B(  3-P ,  4-S ) :   1.6269
B(  3-P ,  5-O ) :   1.1552 B(  3-P ,  8-S ) :   0.9320 B(  4-S ,  8-S ) :   0.1065
B(  5-O ,  6-C ) :   0.8960 B(  6-C ,  7-C ) :   1.1689 B(  6-C , 24-H ) :   0.9294
B(  6-C , 25-H ) :   0.9296 B(  7-C , 26-H ) :   0.9390 B(  7-C , 27-H ) :   0.9410
B(  7-C , 28-H ) :   0.9363 B(  8-S ,  9-C ) :   1.0125 B(  9-C , 10-S ) :   0.9899
B(  9-C , 29-H ) :   0.9115 B(  9-C , 30-H ) :   0.8575 B( 10-S , 11-P ) :   0.9456
B( 10-S , 12-S ) :   0.1045 B( 11-P , 12-S ) :   1.6817 B( 11-P , 13-O ) :   1.1034
B( 11-P , 16-O ) :   1.0638 B( 13-O , 14-C ) :   0.9154 B( 14-C , 15-C ) :   1.1634
B( 14-C , 31-H ) :   0.9213 B( 14-C , 32-H ) :   0.9348 B( 15-C , 33-H ) :   0.9453
B( 15-C , 34-H ) :   0.9373 B( 15-C , 35-H ) :   0.9376 B( 16-O , 17-C ) :   0.8902
B( 17-C , 18-C ) :   1.1627 B( 17-C , 36-H ) :   0.9304 B( 17-C , 37-H ) :   0.9046
B( 18-C , 38-H ) :   0.9412 B( 18-C , 39-H ) :   0.9499 B( 18-C , 40-H ) :   0.9418

Dispersion correction           -0.068881427
FINAL SINGLE POINT ENERGY     -2929.505155413186

DIPOLE MOMENT
-------------

Method             : SCF
Type of density    : Electron Density
Multiplicity       :   1
Irrep              :   0
Energy             : -2929.6225611704521725 Eh
Relativity type    :
Basis              : AO
                                X                 Y                 Z
Electronic contribution:      2.841497765       8.617678702       4.653714612
Nuclear contribution   :     -2.542250647     -10.050815058      -4.541725758
                        -----------------------------------------
Total Dipole Moment    :      0.299247118      -1.433136357       0.111988853
                        -----------------------------------------
Magnitude (a.u.)       :      1.468322225
Magnitude (Debye)      :      3.732178496

Rotational constants in cm-1:             0.012404             0.005726             0.005216
Rotational constants in MHz :           371.851351           171.673085           156.371042

                             ****ORCA TERMINATED NORMALLY****
TOTAL RUN TIME: 0 days 0 hours 0 minutes 21 seconds 787 msec
