                         Program Version 6.0.0  -   RELEASE  -
|  1> ! pbe def2-sv(p) def2/J RI DEFGRID1 loosescf d4 GCP(DFT/SV(P)) printgap
|  2> %output
|  3>     printlevel normal
|  4> end
|  5> * xyz 0 1
|  6> C 4.2260442198 -1.3509030459 -2.4825271565
|  7> C 4.2395099788 0.0663166203 -1.9482258806
|  8> O 3.6216871664 0.1606580529 -0.6523941912
|  9> P 2.0599667125 -0.0394741099 -0.4347334684
| 10> S 0.9648528045 0.7435341837 -1.8699644281
| 11> O 1.8763670417 0.527195346 1.029997061
| 12> C 2.183655269 1.9003074211 1.3682742237
| 13> C 1.883343209 2.0833953841 2.8400067785
| 14> S 1.7859621327 -2.0864864473 -0.0659102443
| 15> C 0.0224104435 -2.2065879206 -0.471369714
| 16> S -1.0756322556 -1.7634138452 0.9115343318
| 17> P -1.9937916165 0.0515350772 0.3158817977
| 18> S -1.2261080468 1.8015333234 0.7706710531
| 19> O -3.4582255229 -0.1270130347 0.9167396947
| 20> C -3.8079180794 0.3264297332 2.2319445831
| 21> C -3.1560814926 -0.5198943264 3.3065317042
| 22> O -2.2251788602 -0.2726820231 -1.215236827
| 23> C -2.5533711472 0.7473968337 -2.1797941505
| 24> C -3.9163920108 1.3517949941 -1.9224569066
| 25> H 4.6428061617 -2.0350497193 -1.7479204584
| 26> H 3.2044289626 -1.6550814076 -2.705344872
| 27> H 4.8138309929 -1.395352699 -3.3937116328
| 28> H 3.7139563314 0.7417708066 -2.6310994838
| 29> H 5.2555665693 0.4253283009 -1.7791035081
| 30> H 3.2377471742 2.0780021371 1.1429907265
| 31> H 1.5615400932 2.5570381546 0.7517853012
| 32> H 2.4411694589 1.3586796599 3.4256337388
| 33> H 2.1643942764 3.0883014631 3.1367996224
| 34> H 0.8200999161 1.9441094375 3.0164263383
| 35> H -0.1672368525 -3.2525541662 -0.6959452831
| 36> H -0.1967584149 -1.5671119779 -1.32696832
| 37> H -3.5051036101 1.374805704 2.3299797969
| 38> H -4.89548426 0.2490854656 2.2598000644
| 39> H -2.0723180084 -0.4113553989 3.2535469551
| 40> H -3.4971182681 -0.1930695838 4.2835026321
| 41> H -3.404997171 -1.5683118012 3.1651585283
| 42> H -1.7707545483 1.5131154515 -2.1553550211
| 43> H -2.5125266084 0.2215050384 -3.1347023973
| 44> H -4.6670253975 0.568418128 -1.8584726592
| 45> H -3.9046273404 1.9079735172 -0.9858539904
| 46> H -4.1649237404 2.0302633553 -2.7324258185
| 47> *
| 48>
| 49>                          ****END OF INPUT****

CARTESIAN COORDINATES (ANGSTROEM)
---------------------------------
  C      4.226044   -1.350903   -2.482527
  C      4.239510    0.066317   -1.948226
  O      3.621687    0.160658   -0.652394
  P      2.059967   -0.039474   -0.434733
  S      0.964853    0.743534   -1.869964
  O      1.876367    0.527195    1.029997
  C      2.183655    1.900307    1.368274
  C      1.883343    2.083395    2.840007
  S      1.785962   -2.086486   -0.065910
  C      0.022410   -2.206588   -0.471370
  S     -1.075632   -1.763414    0.911534
  P     -1.993792    0.051535    0.315882
  S     -1.226108    1.801533    0.770671
  O     -3.458226   -0.127013    0.916740
  C     -3.807918    0.326430    2.231945
  C     -3.156081   -0.519894    3.306532
  O     -2.225179   -0.272682   -1.215237
  C     -2.553371    0.747397   -2.179794
  C     -3.916392    1.351795   -1.922457
  H      4.642806   -2.035050   -1.747920
  H      3.204429   -1.655081   -2.705345
  H      4.813831   -1.395353   -3.393712
  H      3.713956    0.741771   -2.631099
  H      5.255567    0.425328   -1.779104
  H      3.237747    2.078002    1.142991
  H      1.561540    2.557038    0.751785
  H      2.441169    1.358680    3.425634
  H      2.164394    3.088301    3.136800
  H      0.820100    1.944109    3.016426
  H     -0.167237   -3.252554   -0.695945
  H     -0.196758   -1.567112   -1.326968
  H     -3.505104    1.374806    2.329980
  H     -4.895484    0.249085    2.259800
  H     -2.072318   -0.411355    3.253547
  H     -3.497118   -0.193070    4.283503
  H     -3.404997   -1.568312    3.165159
  H     -1.770755    1.513115   -2.155355
  H     -2.512527    0.221505   -3.134702
  H     -4.667025    0.568418   -1.858473
  H     -3.904627    1.907974   -0.985854
  H     -4.164924    2.030263   -2.732426

 Total Charge           Charge          ....    0
 Multiplicity           Mult            ....    1
 Number of Electrons    NEL             ....  202
 Basis Dimension        Dim             ....  334

ORBITAL ENERGIES
----------------

  NO   OCC          E(Eh)            E(eV)
   0   2.0000     -88.042282     -2395.7523
   1   2.0000     -88.036310     -2395.5898
   2   2.0000     -87.984329     -2394.1753
   3   2.0000     -87.980281     -2394.0652
   4   2.0000     -76.423001     -2079.5756
   5   2.0000     -76.422417     -2079.5597
   6   2.0000     -18.792959      -511.3824
   7   2.0000     -18.788959      -511.2736
   8   2.0000     -18.786448      -511.2052
   9   2.0000     -18.782704      -511.1033
  10   2.0000      -9.955929      -270.9146
  11   2.0000      -9.951520      -270.7946
  12   2.0000      -9.947735      -270.6916
  13   2.0000      -9.945593      -270.6334
  14   2.0000      -9.941767      -270.5292
  15   2.0000      -9.883800      -268.9519
  16   2.0000      -9.883119      -268.9333
  17   2.0000      -9.878950      -268.8199
  18   2.0000      -9.874685      -268.7038
  19   2.0000      -7.688013      -209.2015
  20   2.0000      -7.681860      -209.0340
  21   2.0000      -7.629085      -207.5980
  22   2.0000      -7.625095      -207.4894
  23   2.0000      -6.420891      -174.7213
  24   2.0000      -6.419932      -174.6952
  25   2.0000      -5.715911      -155.5378
  26   2.0000      -5.712470      -155.4442
  27   2.0000      -5.710118      -155.3802
  28   2.0000      -5.706188      -155.2733
  29   2.0000      -5.704868      -155.2373
  30   2.0000      -5.698547      -155.0653
  31   2.0000      -5.657733      -153.9548
  32   2.0000      -5.653877      -153.8498
  33   2.0000      -5.649986      -153.7439
  34   2.0000      -5.649237      -153.7236
  35   2.0000      -5.645892      -153.6325
  36   2.0000      -5.645199      -153.6137
  37   2.0000      -4.643543      -126.3572
  38   2.0000      -4.642500      -126.3288
  39   2.0000      -4.642393      -126.3259
  40   2.0000      -4.641811      -126.3101
  41   2.0000      -4.641454      -126.3004
  42   2.0000      -4.640316      -126.2694
  43   2.0000      -0.984220       -26.7820
  44   2.0000      -0.983135       -26.7525
  45   2.0000      -0.942827       -25.6556
  46   2.0000      -0.939613       -25.5682
  47   2.0000      -0.760504       -20.6944
  48   2.0000      -0.718434       -19.5496
  49   2.0000      -0.704688       -19.1755
  50   2.0000      -0.685371       -18.6499
  51   2.0000      -0.683254       -18.5923
  52   2.0000      -0.669844       -18.2274
  53   2.0000      -0.650395       -17.6981
  54   2.0000      -0.631679       -17.1889
  55   2.0000      -0.600091       -16.3293
  56   2.0000      -0.588794       -16.0219
  57   2.0000      -0.569861       -15.5067
  58   2.0000      -0.568087       -15.4584
  59   2.0000      -0.552843       -15.0436
  60   2.0000      -0.499763       -13.5993
  61   2.0000      -0.488602       -13.2955
  62   2.0000      -0.471566       -12.8320
  63   2.0000      -0.468809       -12.7569
  64   2.0000      -0.452405       -12.3106
  65   2.0000      -0.443780       -12.0759
  66   2.0000      -0.435272       -11.8443
  67   2.0000      -0.435005       -11.8371
  68   2.0000      -0.422277       -11.4907
  69   2.0000      -0.418243       -11.3810
  70   2.0000      -0.412182       -11.2160
  71   2.0000      -0.393028       -10.6948
  72   2.0000      -0.387199       -10.5362
  73   2.0000      -0.383783       -10.4433
  74   2.0000      -0.380398       -10.3511
  75   2.0000      -0.377109       -10.2617
  76   2.0000      -0.364088        -9.9073
  77   2.0000      -0.352822        -9.6008
  78   2.0000      -0.350783        -9.5453
  79   2.0000      -0.346567        -9.4306
  80   2.0000      -0.345755        -9.4085
  81   2.0000      -0.341914        -9.3039
  82   2.0000      -0.335579        -9.1316
  83   2.0000      -0.327943        -8.9238
  84   2.0000      -0.326579        -8.8867
  85   2.0000      -0.311875        -8.4865
  86   2.0000      -0.306329        -8.3356
  87   2.0000      -0.294833        -8.0228
  88   2.0000      -0.292082        -7.9480
  89   2.0000      -0.286489        -7.7958
  90   2.0000      -0.280463        -7.6318
  91   2.0000      -0.270184        -7.3521
  92   2.0000      -0.268082        -7.2949
  93   2.0000      -0.260717        -7.0945
  94   2.0000      -0.256912        -6.9909
  95   2.0000      -0.236715        -6.4413
  96   2.0000      -0.219934        -5.9847
  97   2.0000      -0.213488        -5.8093
  98   2.0000      -0.204520        -5.5653
  99   2.0000      -0.193145        -5.2557
 100   2.0000      -0.181007        -4.9255
 101   0.0000      -0.038727        -1.0538
 102   0.0000      -0.029281        -0.7968
 103   0.0000      -0.021578        -0.5872
 104   0.0000       0.004676         0.1273
 105   0.0000       0.020921         0.5693

MULLIKEN ATOMIC CHARGES
-----------------------
   0 C :   -0.313356
   1 C :   -0.004277
   2 O :   -0.380783
   3 P :    0.626976
   4 S :   -0.338180
   5 O :   -0.359364
   6 C :   -0.004715
   7 C :   -0.283170
   8 S :   -0.076823
   9 C :   -0.361563
  10 S :   -0.091236
  11 P :    0.618654
  12 S :   -0.321893
  13 O :   -0.370718
  14 C :   -0.005287
  15 C :   -0.325538
  16 O :   -0.370963
  17 C :   -0.007764
  18 C :   -0.303541
  19 H :    0.117541
  20 H :    0.122907
  21 H :    0.112776
  22 H :    0.111627
  23 H :    0.103810
  24 H :    0.099343
  25 H :    0.112975
  26 H :    0.111442
  27 H :    0.103996
  28 H :    0.126392
  29 H :    0.184216
  30 H :    0.208325
  31 H :    0.107715
  32 H :    0.103626
  33 H :    0.131821
  34 H :    0.114573
  35 H :    0.122094
  36 H :    0.127270
  37 H :    0.102501
  38 H :    0.115220
  39 H :    0.122700
  40 H :    0.110671
Sum of atomic charges:   -0.0000000

LOEWDIN ATOMIC CHARGES
----------------------
   0 C :   -0.369347
   1 C :   -0.120167
   2 O :   -0.244665
   3 P :    0.570593
   4 S :   -0.312873
   5 O :   -0.237071
   6 C :   -0.116790
   7 C :   -0.352998
   8 S :    0.092729
   9 C :   -0.478356
  10 S :    0.080112
  11 P :    0.571405
  12 S :   -0.304144
  13 O :   -0.243626
  14 C :   -0.124251
  15 C :   -0.370461
  16 O :   -0.236066
  17 C :   -0.117971
  18 C :   -0.365547
  19 H :    0.124513
  20 H :    0.119938
  21 H :    0.130914
  22 H :    0.110104
  23 H :    0.117984
  24 H :    0.107846
  25 H :    0.109507
  26 H :    0.125160
  27 H :    0.127790
  28 H :    0.125309
  29 H :    0.139434
  30 H :    0.130106
  31 H :    0.106652
  32 H :    0.118133
  33 H :    0.121041
  34 H :    0.131880
  35 H :    0.125942
  36 H :    0.110903
  37 H :    0.118187
  38 H :    0.125698
  39 H :    0.122371
  40 H :    0.130082

  Mayer bond orders larger than 0.100000
B(  0-C ,  1-C ) :   1.1660 B(  0-C , 19-H ) :   0.9451 B(  0-C , 20-H ) :   0.9353
B(  0-C , 21-H ) :   0.9380 B(  1-C ,  2-O ) :   0.9088 B(  1-C , 22-H ) :   0.9132
B(  1-C , 23-H ) :   0.9332 B(  2-O ,  3-P ) :   1.0956 B(  3-P ,  4-S ) :   1.6037
B(  3-P ,  5-O ) :   1.1568 B(  3-P ,  8-S ) :   0.9645 B(  4-S ,  8-S ) :   0.1162
B(  5-O ,  6-C ) :   0.8894 B(  6-C ,  7-C ) :   1.1695 B(  6-C , 24-H ) :   0.9277
B(  6-C , 25-H ) :   0.9120 B(  7-C , 26-H ) :   0.9490 B(  7-C , 27-H ) :   0.9411
B(  7-C , 28-H ) :   0.9420 B(  8-S ,  9-C ) :   1.0076 B(  9-C , 10-S ) :   0.9966
B(  9-C , 29-H ) :   0.9102 B(  9-C , 30-H ) :   0.8576 B( 10-S , 11-P ) :   0.9631
B( 10-S , 12-S ) :   0.1071 B( 11-P , 12-S ) :   1.6062 B( 11-P , 13-O ) :   1.0874
B( 11-P , 16-O ) :   1.1252 B( 13-O , 14-C ) :   0.9162 B( 14-C , 15-C ) :   1.1642
B( 14-C , 31-H ) :   0.9092 B( 14-C , 32-H ) :   0.9317 B( 15-C , 33-H ) :   0.9317
B( 15-C , 34-H ) :   0.9387 B( 15-C , 35-H ) :   0.9436 B( 16-O , 17-C ) :   0.8943
B( 17-C , 18-C ) :   1.1643 B( 17-C , 36-H ) :   0.9116 B( 17-C , 37-H ) :   0.9360
B( 18-C , 38-H ) :   0.9448 B( 18-C , 39-H ) :   0.9354 B( 18-C , 40-H ) :   0.9388

Dispersion correction           -0.067137451
FINAL SINGLE POINT ENERGY     -2929.518501511740

DIPOLE MOMENT
-------------

Method             : SCF
Type of density    : Electron Density
Multiplicity       :   1
Irrep              :   0
Energy             : -2929.6368088935737433 Eh
Relativity type    :
Basis              : AO
                                X                 Y                 Z
Electronic contribution:      2.895461323      -7.687399084      -1.808015390
Nuclear contribution   :     -2.798698581       7.518351831       1.633346895
                        -----------------------------------------
Total Dipole Moment    :      0.096762742      -0.169047252      -0.174668495
                        -----------------------------------------
Magnitude (a.u.)       :      0.261627760
Magnitude (Debye)      :      0.665004918

Rotational constants in cm-1:             0.011893             0.005448             0.005149
Rotational constants in MHz :           356.542682           163.325266           154.374709

                             ****ORCA TERMINATED NORMALLY****
TOTAL RUN TIME: 0 days 0 hours 0 minutes 21 seconds 368 msec
