                         Program Version 6.0.1  -  RELEASE   -
|  1> ! pbe def2-sv(p) def2/J RI DEFGRID1 loosescf d4 GCP(DFT/SV(P)) printgap
|  2> %output
|  3>     printlevel normal
|  4> end
|  5> * xyz 0 1
|  6> C 4.3178522649 -1.9861711617 0.8878240869
|  7> C 2.8391782777 -1.9927409824 0.5565667158
|  8> O 2.6083747087 -1.0190880645 -0.481887994
|  9> C 1.43743627 -1.0022905852 -1.0743310343
| 10> O 0.5155419912 -1.7460466045 -0.7936305385
| 11> C 1.3544661192 0.0594177854 -2.150393978
| 12> C 0.2189685317 1.0404593884 -1.8441488839
| 13> H 0.1258055047 1.7572752234 -2.6646804243
| 14> C 0.447607116 1.798962342 -0.5495212848
| 15> O -0.42011843 1.8951712531 0.2996267876
| 16> O 1.6409225592 2.3113146339 -0.4769098752
| 17> C 2.0443340802 2.9791315607 0.7403215628
| 18> C 2.6748974301 1.9810394644 1.6965621022
| 19> S -1.4160034587 0.2402014786 -1.7328346529
| 20> P -1.5910349908 -0.2959137786 0.3134277361
| 21> S -0.3477916012 -0.5620295729 1.8072462203
| 22> O -2.7835851128 0.604061704 0.9001312364
| 23> C -3.9096369938 1.0037416489 0.1072879287
| 24> O -2.3456410177 -1.6697544568 -0.0980568866
| 25> C -2.7209465248 -2.62409153 0.8927864371
| 26> H 4.6131372785 -1.010405422 1.2605113194
| 27> H 4.5123621612 -2.7310935436 1.6518277603
| 28> H 4.8999795286 -2.2189862756 0.001175882
| 29> H 2.2223014736 -1.7238785648 1.420197957
| 30> H 2.5049816751 -2.9682417086 0.1894971608
| 31> H 1.1386194577 -0.4325321598 -3.0995526561
| 32> H 2.3019067252 0.5947277754 -2.2019756851
| 33> H 2.7641026796 3.7274983327 0.4091055454
| 34> H 1.1688955426 3.4536658359 1.190230408
| 35> H 1.9403448588 1.2386704087 2.0071487619
| 36> H 3.5037085517 1.4733619112 1.2110198644
| 37> H 3.0357810706 2.5031158739 2.5761290566
| 38> H -3.6603631046 1.9123463896 -0.4397095623
| 39> H -4.7130219311 1.1923780187 0.8155978655
| 40> H -4.1888216161 0.2136194551 -0.5918618002
| 41> H -3.3781005737 -2.1689830073 1.6367239987
| 42> H -1.8303633591 -3.014336144 1.3880042938
| 43> H -3.2360896199 -3.4156904317 0.3546485915
| 44> *
| 45>
| 46>                          ****END OF INPUT****

CARTESIAN COORDINATES (ANGSTROEM)
---------------------------------
  C      4.317852   -1.986171    0.887824
  C      2.839178   -1.992741    0.556567
  O      2.608375   -1.019088   -0.481888
  C      1.437436   -1.002291   -1.074331
  O      0.515542   -1.746047   -0.793631
  C      1.354466    0.059418   -2.150394
  C      0.218969    1.040459   -1.844149
  H      0.125806    1.757275   -2.664680
  C      0.447607    1.798962   -0.549521
  O     -0.420118    1.895171    0.299627
  O      1.640923    2.311315   -0.476910
  C      2.044334    2.979132    0.740322
  C      2.674897    1.981039    1.696562
  S     -1.416003    0.240201   -1.732835
  P     -1.591035   -0.295914    0.313428
  S     -0.347792   -0.562030    1.807246
  O     -2.783585    0.604062    0.900131
  C     -3.909637    1.003742    0.107288
  O     -2.345641   -1.669754   -0.098057
  C     -2.720947   -2.624092    0.892786
  H      4.613137   -1.010405    1.260511
  H      4.512362   -2.731094    1.651828
  H      4.899980   -2.218986    0.001176
  H      2.222301   -1.723879    1.420198
  H      2.504982   -2.968242    0.189497
  H      1.138619   -0.432532   -3.099553
  H      2.301907    0.594728   -2.201976
  H      2.764103    3.727498    0.409106
  H      1.168896    3.453666    1.190230
  H      1.940345    1.238670    2.007149
  H      3.503709    1.473362    1.211020
  H      3.035781    2.503116    2.576129
  H     -3.660363    1.912346   -0.439710
  H     -4.713022    1.192378    0.815598
  H     -4.188822    0.213619   -0.591862
  H     -3.378101   -2.168983    1.636724
  H     -1.830363   -3.014336    1.388004
  H     -3.236090   -3.415690    0.354649

 Total Charge           Charge          ....    0
 Multiplicity           Mult            ....    1
 Number of Electrons    NEL             ....  174
 Basis Dimension        Dim             ....  316

ORBITAL ENERGIES
----------------

  NO   OCC          E(Eh)            E(eV)
   0   2.0000     -88.028659     -2395.3816
   1   2.0000     -87.962026     -2393.5684
   2   2.0000     -76.410833     -2079.2445
   3   2.0000     -18.821330      -512.1544
   4   2.0000     -18.802843      -511.6514
   5   2.0000     -18.765305      -510.6299
   6   2.0000     -18.762988      -510.5669
   7   2.0000     -18.758159      -510.4355
   8   2.0000     -18.732404      -509.7346
   9   2.0000     -10.026764      -272.8421
  10   2.0000     -10.007231      -272.3106
  11   2.0000      -9.956231      -270.9228
  12   2.0000      -9.955444      -270.9014
  13   2.0000      -9.940188      -270.4863
  14   2.0000      -9.931236      -270.2427
  15   2.0000      -9.923114      -270.0216
  16   2.0000      -9.914063      -269.7754
  17   2.0000      -9.886704      -269.0309
  18   2.0000      -9.885422      -268.9960
  19   2.0000      -7.673743      -208.8132
  20   2.0000      -7.607348      -207.0065
  21   2.0000      -6.405949      -174.3147
  22   2.0000      -5.702145      -155.1632
  23   2.0000      -5.698637      -155.0678
  24   2.0000      -5.689705      -154.8247
  25   2.0000      -5.636840      -153.3862
  26   2.0000      -5.628086      -153.1480
  27   2.0000      -5.626648      -153.1089
  28   2.0000      -4.628906      -125.9589
  29   2.0000      -4.628059      -125.9359
  30   2.0000      -4.626349      -125.8894
  31   2.0000      -1.031715       -28.0744
  32   2.0000      -1.009022       -27.4569
  33   2.0000      -0.957604       -26.0577
  34   2.0000      -0.936276       -25.4774
  35   2.0000      -0.914441       -24.8832
  36   2.0000      -0.910353       -24.7720
  37   2.0000      -0.766440       -20.8559
  38   2.0000      -0.711792       -19.3689
  39   2.0000      -0.709196       -19.2982
  40   2.0000      -0.682467       -18.5709
  41   2.0000      -0.652653       -17.7596
  42   2.0000      -0.626202       -17.0398
  43   2.0000      -0.614294       -16.7158
  44   2.0000      -0.599507       -16.3134
  45   2.0000      -0.588265       -16.0075
  46   2.0000      -0.563195       -15.3253
  47   2.0000      -0.511057       -13.9066
  48   2.0000      -0.505468       -13.7545
  49   2.0000      -0.498232       -13.5576
  50   2.0000      -0.485046       -13.1988
  51   2.0000      -0.457871       -12.4593
  52   2.0000      -0.455953       -12.4071
  53   2.0000      -0.449144       -12.2218
  54   2.0000      -0.439916       -11.9707
  55   2.0000      -0.425673       -11.5831
  56   2.0000      -0.418381       -11.3847
  57   2.0000      -0.412084       -11.2134
  58   2.0000      -0.406812       -11.0699
  59   2.0000      -0.401188       -10.9169
  60   2.0000      -0.398403       -10.8411
  61   2.0000      -0.393219       -10.7000
  62   2.0000      -0.383585       -10.4379
  63   2.0000      -0.380849       -10.3634
  64   2.0000      -0.364767        -9.9258
  65   2.0000      -0.362272        -9.8579
  66   2.0000      -0.360682        -9.8147
  67   2.0000      -0.355393        -9.6707
  68   2.0000      -0.345351        -9.3975
  69   2.0000      -0.342028        -9.3070
  70   2.0000      -0.335545        -9.1306
  71   2.0000      -0.329599        -8.9688
  72   2.0000      -0.311519        -8.4769
  73   2.0000      -0.307465        -8.3665
  74   2.0000      -0.303888        -8.2692
  75   2.0000      -0.296208        -8.0602
  76   2.0000      -0.293796        -7.9946
  77   2.0000      -0.276660        -7.5283
  78   2.0000      -0.267056        -7.2670
  79   2.0000      -0.257275        -7.0008
  80   2.0000      -0.252512        -6.8712
  81   2.0000      -0.246802        -6.7158
  82   2.0000      -0.233612        -6.3569
  83   2.0000      -0.225308        -6.1309
  84   2.0000      -0.194696        -5.2980
  85   2.0000      -0.181302        -4.9335
  86   2.0000      -0.169877        -4.6226
  87   0.0000      -0.046034        -1.2527
  88   0.0000      -0.043789        -1.1916
  89   0.0000      -0.026586        -0.7235
  90   0.0000       0.006029         0.1641
  91   0.0000       0.033138         0.9017

MULLIKEN ATOMIC CHARGES
-----------------------
   0 C :   -0.281628
   1 C :   -0.038891
   2 O :   -0.226934
   3 C :    0.083584
   4 O :   -0.192867
   5 C :   -0.014422
   6 C :   -0.326254
   7 H :    0.154230
   8 C :    0.210187
   9 O :   -0.179792
  10 O :   -0.217971
  11 C :   -0.010422
  12 C :   -0.335880
  13 S :   -0.061219
  14 P :    0.637009
  15 S :   -0.337837
  16 O :   -0.374398
  17 C :   -0.105825
  18 O :   -0.396304
  19 C :   -0.096491
  20 H :    0.118970
  21 H :    0.112133
  22 H :    0.110519
  23 H :    0.130239
  24 H :    0.105206
  25 H :    0.123505
  26 H :    0.113291
  27 H :    0.105467
  28 H :    0.119938
  29 H :    0.153316
  30 H :    0.122035
  31 H :    0.112341
  32 H :    0.115233
  33 H :    0.121087
  34 H :    0.111005
  35 H :    0.103829
  36 H :    0.120610
  37 H :    0.113399
Sum of atomic charges:    0.0000000

LOEWDIN ATOMIC CHARGES
----------------------
   0 C :   -0.351402
   1 C :   -0.111549
   2 O :   -0.051751
   3 C :    0.017610
   4 O :   -0.163790
   5 C :   -0.249130
   6 C :   -0.262472
   7 H :    0.151711
   8 C :    0.014206
   9 O :   -0.146900
  10 O :   -0.035517
  11 C :   -0.103419
  12 C :   -0.363646
  13 S :    0.128464
  14 P :    0.603681
  15 S :   -0.305729
  16 O :   -0.257306
  17 C :   -0.219279
  18 O :   -0.272726
  19 C :   -0.216785
  20 H :    0.124317
  21 H :    0.131528
  22 H :    0.124348
  23 H :    0.117543
  24 H :    0.117608
  25 H :    0.146977
  26 H :    0.137576
  27 H :    0.119203
  28 H :    0.125479
  29 H :    0.130039
  30 H :    0.123336
  31 H :    0.131396
  32 H :    0.110162
  33 H :    0.119587
  34 H :    0.104205
  35 H :    0.105246
  36 H :    0.111273
  37 H :    0.115908

  Mayer bond orders larger than 0.100000
B(  0-C ,  1-C ) :   1.1504 B(  0-C , 20-H ) :   0.9474 B(  0-C , 21-H ) :   0.9437
B(  0-C , 22-H ) :   0.9493 B(  1-C ,  2-O ) :   0.8903 B(  1-C , 23-H ) :   0.9182
B(  1-C , 24-H ) :   0.9268 B(  2-O ,  3-C ) :   1.2468 B(  3-C ,  4-O ) :   1.9895
B(  3-C ,  5-C ) :   1.0044 B(  5-C ,  6-C ) :   1.0149 B(  5-C , 25-H ) :   0.8880
B(  5-C , 26-H ) :   0.8855 B(  6-C ,  7-H ) :   0.8729 B(  6-C ,  8-C ) :   0.8941
B(  6-C , 13-S ) :   1.0663 B(  8-C ,  9-O ) :   1.9581 B(  8-C , 10-O ) :   1.2773
B(  9-O , 14-P ) :   0.1206 B( 10-O , 11-C ) :   0.8928 B( 11-C , 12-C ) :   1.1798
B( 11-C , 27-H ) :   0.9364 B( 11-C , 28-H ) :   0.9126 B( 12-C , 29-H ) :   0.9233
B( 12-C , 30-H ) :   0.9395 B( 12-C , 31-H ) :   0.9388 B( 13-S , 14-P ) :   0.9153
B( 13-S , 15-S ) :   0.1120 B( 14-P , 15-S ) :   1.5307 B( 14-P , 16-O ) :   1.0805
B( 14-P , 18-O ) :   1.0418 B( 16-O , 17-C ) :   0.9400 B( 17-C , 32-H ) :   0.9491
B( 17-C , 33-H ) :   0.9569 B( 17-C , 34-H ) :   0.9400 B( 18-O , 19-C ) :   0.9449
B( 19-C , 35-H ) :   0.9476 B( 19-C , 36-H ) :   0.9416 B( 19-C , 37-H ) :   0.9572

Dispersion correction           -0.056144584
FINAL SINGLE POINT ENERGY     -1978.994043306764

DIPOLE MOMENT
-------------

Method             : SCF
Type of density    : Electron Density
Multiplicity       :   1
Irrep              :   0
Energy             : -1979.1218183644045894 Eh
Relativity type    :
Basis              : AO
                                X                 Y                 Z
Electronic contribution:    -13.444803306       1.874457483      -7.020521948
Nuclear contribution   :     14.337598631      -1.238199904       6.382345520
                        -----------------------------------------
Total Dipole Moment    :      0.892795325       0.636257580      -0.638176428
                        -----------------------------------------
Magnitude (a.u.)       :      1.268533151
Magnitude (Debye)      :      3.224355025

Rotational constants in cm-1:             0.013636             0.008631             0.007402
Rotational constants in MHz :           408.792064           258.748668           221.910569

                             ****ORCA TERMINATED NORMALLY****
TOTAL RUN TIME: 0 days 0 hours 0 minutes 37 seconds 455 msec
