                         Program Version 6.0.0  -   RELEASE  -
|  1> ! pbe def2-sv(p) def2/J RI DEFGRID1 loosescf d4 GCP(DFT/SV(P)) printgap
|  2> %output
|  3>     printlevel normal
|  4> end
|  5> * xyz 0 1
|  6> C 4.5320695608 -1.7468790971 -1.3062601019
|  7> C 4.7434214537 -0.3869635635 -0.672334251
|  8> O 3.7129223427 -0.0625765171 0.2751501653
|  9> P 2.2108418635 0.2296580263 -0.1587527154
| 10> S 2.0303430326 1.2103040333 -1.852769229
| 11> O 1.6358532423 0.9053928276 1.1545973116
| 12> C 1.7159718943 2.3204926158 1.4078556779
| 13> C 3.1450940187 2.8134010275 1.4809114959
| 14> S 1.3046161633 -1.6643415487 -0.0177751916
| 15> C -0.1391609416 -1.4411679948 -1.1185751008
| 16> S -1.7056265506 -1.7985231518 -0.2915703026
| 17> P -2.4268692925 0.1714793328 0.1121041431
| 18> S -1.2452717864 1.6677513319 -0.3196466472
| 19> O -2.9507552931 0.1162612103 1.6171528888
| 20> C -2.1222465921 0.3936326143 2.7570921203
| 21> C -1.0637057601 -0.6682891589 2.9778246064
| 22> O -3.7847702844 0.2658657997 -0.6784494923
| 23> C -4.8260804538 -0.74360582 -0.5835246447
| 24> C -4.9665057897 -1.4625251171 -1.909853506
| 25> H 3.6502723324 -1.724639217 -1.9451140679
| 26> H 5.3974523084 -1.9994659461 -1.9105203397
| 27> H 4.3912301889 -2.5039534869 -0.5390274302
| 28> H 4.7647752869 0.3933841444 -1.4400892733
| 29> H 5.6604399028 -0.3552808674 -0.0824866856
| 30> H 1.1587807732 2.8408739369 0.6215810683
| 31> H 1.1972646468 2.441022789 2.3602121196
| 32> H 3.6179062049 2.7261312836 0.5032365454
| 33> H 3.1486531821 3.8566420587 1.7810106436
| 34> H 3.7081430663 2.2242905728 2.2002576306
| 35> H -0.045657977 -2.1576656763 -1.9296218206
| 36> H -0.1405043067 -0.4136605288 -1.4917423709
| 37> H -1.6616580377 1.3769272056 2.6169525379
| 38> H -2.8304614582 0.4313391742 3.5864356288
| 39> H -0.3004872545 -0.6110526129 2.2029444874
| 40> H -0.5876107833 -0.5051243617 3.9394422577
| 41> H -1.5100749721 -1.6593829625 2.9615123123
| 42> H -4.5804624205 -1.4378066681 0.2226201386
| 43> H -5.7325680737 -0.1918578504 -0.3305896642
| 44> H -5.1352989602 -0.7425292542 -2.7057637071
| 45> H -4.0658207988 -2.0291864861 -2.1317435567
| 46> H -5.8103726588 -2.1428610741 -1.8565485599
| 47> *
| 48>
| 49>                          ****END OF INPUT****

CARTESIAN COORDINATES (ANGSTROEM)
---------------------------------
  C      4.532070   -1.746879   -1.306260
  C      4.743421   -0.386964   -0.672334
  O      3.712922   -0.062577    0.275150
  P      2.210842    0.229658   -0.158753
  S      2.030343    1.210304   -1.852769
  O      1.635853    0.905393    1.154597
  C      1.715972    2.320493    1.407856
  C      3.145094    2.813401    1.480911
  S      1.304616   -1.664342   -0.017775
  C     -0.139161   -1.441168   -1.118575
  S     -1.705627   -1.798523   -0.291570
  P     -2.426869    0.171479    0.112104
  S     -1.245272    1.667751   -0.319647
  O     -2.950755    0.116261    1.617153
  C     -2.122247    0.393633    2.757092
  C     -1.063706   -0.668289    2.977825
  O     -3.784770    0.265866   -0.678449
  C     -4.826080   -0.743606   -0.583525
  C     -4.966506   -1.462525   -1.909854
  H      3.650272   -1.724639   -1.945114
  H      5.397452   -1.999466   -1.910520
  H      4.391230   -2.503953   -0.539027
  H      4.764775    0.393384   -1.440089
  H      5.660440   -0.355281   -0.082487
  H      1.158781    2.840874    0.621581
  H      1.197265    2.441023    2.360212
  H      3.617906    2.726131    0.503237
  H      3.148653    3.856642    1.781011
  H      3.708143    2.224291    2.200258
  H     -0.045658   -2.157666   -1.929622
  H     -0.140504   -0.413661   -1.491742
  H     -1.661658    1.376927    2.616953
  H     -2.830461    0.431339    3.586436
  H     -0.300487   -0.611053    2.202944
  H     -0.587611   -0.505124    3.939442
  H     -1.510075   -1.659383    2.961512
  H     -4.580462   -1.437807    0.222620
  H     -5.732568   -0.191858   -0.330590
  H     -5.135299   -0.742529   -2.705764
  H     -4.065821   -2.029186   -2.131744
  H     -5.810373   -2.142861   -1.856549

 Total Charge           Charge          ....    0
 Multiplicity           Mult            ....    1
 Number of Electrons    NEL             ....  202
 Basis Dimension        Dim             ....  334

ORBITAL ENERGIES
----------------

  NO   OCC          E(Eh)            E(eV)
   0   2.0000     -88.045016     -2395.8267
   1   2.0000     -88.041279     -2395.7250
   2   2.0000     -87.985618     -2394.2104
   3   2.0000     -87.984819     -2394.1886
   4   2.0000     -76.424959     -2079.6288
   5   2.0000     -76.424080     -2079.6049
   6   2.0000     -18.790374      -511.3121
   7   2.0000     -18.789952      -511.3006
   8   2.0000     -18.789666      -511.2928
   9   2.0000     -18.785440      -511.1778
  10   2.0000      -9.958577      -270.9866
  11   2.0000      -9.955430      -270.9010
  12   2.0000      -9.950493      -270.7667
  13   2.0000      -9.950290      -270.7612
  14   2.0000      -9.945880      -270.6412
  15   2.0000      -9.886683      -269.0303
  16   2.0000      -9.882413      -268.9141
  17   2.0000      -9.880036      -268.8494
  18   2.0000      -9.876379      -268.7499
  19   2.0000      -7.689872      -209.2521
  20   2.0000      -7.686225      -209.1528
  21   2.0000      -7.630516      -207.6369
  22   2.0000      -7.629621      -207.6125
  23   2.0000      -6.422642      -174.7690
  24   2.0000      -6.421472      -174.7371
  25   2.0000      -5.717744      -155.5877
  26   2.0000      -5.714267      -155.4931
  27   2.0000      -5.714085      -155.4882
  28   2.0000      -5.710762      -155.3977
  29   2.0000      -5.706963      -155.2944
  30   2.0000      -5.703135      -155.1902
  31   2.0000      -5.659502      -154.0029
  32   2.0000      -5.658547      -153.9769
  33   2.0000      -5.651019      -153.7720
  34   2.0000      -5.650686      -153.7630
  35   2.0000      -5.650368      -153.7543
  36   2.0000      -5.649710      -153.7364
  37   2.0000      -4.645316      -126.4055
  38   2.0000      -4.644280      -126.3773
  39   2.0000      -4.643820      -126.3648
  40   2.0000      -4.643144      -126.3464
  41   2.0000      -4.643114      -126.3456
  42   2.0000      -4.642243      -126.3219
  43   2.0000      -0.986416       -26.8417
  44   2.0000      -0.983889       -26.7730
  45   2.0000      -0.942529       -25.6475
  46   2.0000      -0.942231       -25.6394
  47   2.0000      -0.760461       -20.6932
  48   2.0000      -0.720402       -19.6031
  49   2.0000      -0.709090       -19.2953
  50   2.0000      -0.686594       -18.6832
  51   2.0000      -0.684627       -18.6297
  52   2.0000      -0.674965       -18.3667
  53   2.0000      -0.650949       -17.7132
  54   2.0000      -0.634281       -17.2597
  55   2.0000      -0.601595       -16.3702
  56   2.0000      -0.588309       -16.0087
  57   2.0000      -0.575423       -15.6580
  58   2.0000      -0.570048       -15.5118
  59   2.0000      -0.558411       -15.1951
  60   2.0000      -0.503193       -13.6926
  61   2.0000      -0.489113       -13.3094
  62   2.0000      -0.470871       -12.8131
  63   2.0000      -0.469489       -12.7754
  64   2.0000      -0.455448       -12.3934
  65   2.0000      -0.445950       -12.1349
  66   2.0000      -0.439087       -11.9482
  67   2.0000      -0.437226       -11.8975
  68   2.0000      -0.431561       -11.7434
  69   2.0000      -0.415801       -11.3145
  70   2.0000      -0.411433       -11.1957
  71   2.0000      -0.394375       -10.7315
  72   2.0000      -0.391477       -10.6526
  73   2.0000      -0.386310       -10.5120
  74   2.0000      -0.379881       -10.3371
  75   2.0000      -0.373592       -10.1660
  76   2.0000      -0.365099        -9.9349
  77   2.0000      -0.356610        -9.7039
  78   2.0000      -0.352771        -9.5994
  79   2.0000      -0.347135        -9.4460
  80   2.0000      -0.345811        -9.4100
  81   2.0000      -0.344171        -9.3654
  82   2.0000      -0.340709        -9.2712
  83   2.0000      -0.334356        -9.0983
  84   2.0000      -0.332862        -9.0576
  85   2.0000      -0.312619        -8.5068
  86   2.0000      -0.307518        -8.3680
  87   2.0000      -0.300815        -8.1856
  88   2.0000      -0.292254        -7.9526
  89   2.0000      -0.292088        -7.9481
  90   2.0000      -0.279847        -7.6150
  91   2.0000      -0.272478        -7.4145
  92   2.0000      -0.269350        -7.3294
  93   2.0000      -0.262688        -7.1481
  94   2.0000      -0.260003        -7.0750
  95   2.0000      -0.230240        -6.2651
  96   2.0000      -0.219638        -5.9766
  97   2.0000      -0.215224        -5.8565
  98   2.0000      -0.204366        -5.5611
  99   2.0000      -0.199182        -5.4200
 100   2.0000      -0.190288        -5.1780
 101   0.0000      -0.040981        -1.1152
 102   0.0000      -0.031069        -0.8454
 103   0.0000      -0.024175        -0.6578
 104   0.0000       0.011903         0.3239
 105   0.0000       0.021218         0.5774

MULLIKEN ATOMIC CHARGES
-----------------------
   0 C :   -0.311866
   1 C :   -0.003976
   2 O :   -0.374357
   3 P :    0.615631
   4 S :   -0.319390
   5 O :   -0.358333
   6 C :   -0.005925
   7 C :   -0.306062
   8 S :   -0.095370
   9 C :   -0.340709
  10 S :   -0.118520
  11 P :    0.591167
  12 S :   -0.291006
  13 O :   -0.380087
  14 C :   -0.000101
  15 C :   -0.338081
  16 O :   -0.354652
  17 C :   -0.018799
  18 C :   -0.282398
  19 H :    0.122798
  20 H :    0.111961
  21 H :    0.118154
  22 H :    0.109827
  23 H :    0.103984
  24 H :    0.124258
  25 H :    0.101852
  26 H :    0.123035
  27 H :    0.111040
  28 H :    0.114982
  29 H :    0.183927
  30 H :    0.210141
  31 H :    0.108484
  32 H :    0.101429
  33 H :    0.155492
  34 H :    0.107086
  35 H :    0.112729
  36 H :    0.108701
  37 H :    0.114352
  38 H :    0.122263
  39 H :    0.117387
  40 H :    0.108949
Sum of atomic charges:    0.0000000

LOEWDIN ATOMIC CHARGES
----------------------
   0 C :   -0.369600
   1 C :   -0.120218
   2 O :   -0.243751
   3 P :    0.573649
   4 S :   -0.315208
   5 O :   -0.236065
   6 C :   -0.117375
   7 C :   -0.367203
   8 S :    0.089698
   9 C :   -0.475762
  10 S :    0.069481
  11 P :    0.562573
  12 S :   -0.276519
  13 O :   -0.251111
  14 C :   -0.114964
  15 C :   -0.375358
  16 O :   -0.239060
  17 C :   -0.112572
  18 C :   -0.358748
  19 H :    0.120399
  20 H :    0.130357
  21 H :    0.124087
  22 H :    0.109591
  23 H :    0.118042
  24 H :    0.110182
  25 H :    0.116159
  26 H :    0.121872
  27 H :    0.130148
  28 H :    0.125233
  29 H :    0.136340
  30 H :    0.127947
  31 H :    0.109257
  32 H :    0.116909
  33 H :    0.118980
  34 H :    0.128989
  35 H :    0.122446
  36 H :    0.107473
  37 H :    0.123088
  38 H :    0.130474
  39 H :    0.120857
  40 H :    0.129283

  Mayer bond orders larger than 0.100000
B(  0-C ,  1-C ) :   1.1677 B(  0-C , 19-H ) :   0.9363 B(  0-C , 20-H ) :   0.9379
B(  0-C , 21-H ) :   0.9441 B(  1-C ,  2-O ) :   0.9104 B(  1-C , 22-H ) :   0.9142
B(  1-C , 23-H ) :   0.9337 B(  2-O ,  3-P ) :   1.0977 B(  3-P ,  4-S ) :   1.5961
B(  3-P ,  5-O ) :   1.1326 B(  3-P ,  8-S ) :   0.9697 B(  4-S ,  8-S ) :   0.1147
B(  5-O ,  6-C ) :   0.9040 B(  6-C ,  7-C ) :   1.1622 B(  6-C , 24-H ) :   0.9158
B(  6-C , 25-H ) :   0.9344 B(  7-C , 26-H ) :   0.9350 B(  7-C , 27-H ) :   0.9381
B(  7-C , 28-H ) :   0.9440 B(  8-S ,  9-C ) :   0.9883 B(  9-C , 10-S ) :   1.0126
B(  9-C , 29-H ) :   0.9104 B(  9-C , 30-H ) :   0.8447 B( 10-S , 11-P ) :   0.9303
B( 10-S , 12-S ) :   0.1113 B( 11-P , 12-S ) :   1.6536 B( 11-P , 13-O ) :   1.0886
B( 11-P , 16-O ) :   1.1443 B( 13-O , 14-C ) :   0.9115 B( 14-C , 15-C ) :   1.1648
B( 14-C , 31-H ) :   0.9175 B( 14-C , 32-H ) :   0.9345 B( 15-C , 33-H ) :   0.9193
B( 15-C , 34-H ) :   0.9375 B( 15-C , 35-H ) :   0.9424 B( 16-O , 17-C ) :   0.8872
B( 17-C , 18-C ) :   1.1630 B( 17-C , 36-H ) :   0.9186 B( 17-C , 37-H ) :   0.9340
B( 18-C , 38-H ) :   0.9459 B( 18-C , 39-H ) :   0.9401 B( 18-C , 40-H ) :   0.9399

Dispersion correction           -0.066146863
FINAL SINGLE POINT ENERGY     -2929.518971345653

DIPOLE MOMENT
-------------

Method             : SCF
Type of density    : Electron Density
Multiplicity       :   1
Irrep              :   0
Energy             : -2929.6382225796169223 Eh
Relativity type    :
Basis              : AO
                                X                 Y                 Z
Electronic contribution:     -4.296586923       1.576225830      -5.551324743
Nuclear contribution   :      4.189819686      -2.372180023       6.371452206
                        -----------------------------------------
Total Dipole Moment    :     -0.106767237      -0.795954193       0.820127464
                        -----------------------------------------
Magnitude (a.u.)       :      1.147846408
Magnitude (Debye)      :      2.917593705

Rotational constants in cm-1:             0.013203             0.004930             0.004505
Rotational constants in MHz :           395.820308           147.801339           135.044850

                             ****ORCA TERMINATED NORMALLY****
TOTAL RUN TIME: 0 days 0 hours 0 minutes 21 seconds 333 msec
