                         Program Version 6.0.0  -   RELEASE  -
|  1> ! r2scan-3c def2/J RI DEFGRID2 scfconv6 printgap
|  2> %output
|  3>     printlevel normal
|  4> end
|  5> * xyz 0 1
|  6> C 4.0299871674 -1.3068829962 -2.3397732819
|  7> C 4.6125274501 -1.0868460879 -0.9584721524
|  8> O 3.6058359684 -1.0969872597 0.0684125448
|  9> P 2.4982409351 0.0371271019 0.1866277719
| 10> S 3.134066677 1.8460626473 -0.2042610461
| 11> O 2.0292831825 -0.0827495703 1.6869145482
| 12> C 1.2413033229 -1.1397162048 2.2849270133
| 13> C 1.8059958529 -2.5192465345 2.0241180094
| 14> S 0.8811974205 -0.6662452916 -1.0191279293
| 15> C 0.106340963 0.9432803029 -1.2761355824
| 16> S -0.7202869115 1.577460985 0.2118161351
| 17> P -2.4094585513 0.3194871007 0.0727861838
| 18> S -3.1308193338 -0.0341674126 -1.7192829366
| 19> O -3.4690165633 0.9204649533 1.0955070542
| 20> C -4.4566278329 1.8880988884 0.6997611369
| 21> C -3.8348373086 3.2263840942 0.3568622814
| 22> O -1.8779554382 -0.9306844159 0.8885965654
| 23> C -2.5385986349 -2.2196631144 0.8366364043
| 24> C -1.8066938049 -3.1471963735 -0.1121841442
| 25> H 3.4072284076 -2.197664049 -2.352667863
| 26> H 3.4246729216 -0.4495466006 -2.629961176
| 27> H 4.838542193 -1.4218174307 -3.0544960494
| 28> H 5.1424328939 -0.1302232883 -0.9134503245
| 29> H 5.2839651047 -1.8970770181 -0.6709551855
| 30> H 1.2595213806 -0.8896813736 3.3469531404
| 31> H 0.2183995852 -1.0554116354 1.9084443544
| 32> H 1.7646638263 -2.7489131258 0.9608474406
| 33> H 2.8409874929 -2.5704085353 2.3518685867
| 34> H 1.2188863976 -3.251140179 2.5708133225
| 35> H -0.6268201275 0.8231056855 -2.0742090768
| 36> H 0.8712882905 1.6746251321 -1.5391239611
| 37> H -5.0070083849 1.4890853751 -0.1584711804
| 38> H -5.1164894888 1.9590084937 1.5653463141
| 39> H -4.6201342618 3.9534491145 0.1766029451
| 40> H -3.2034509231 3.5705012344 1.1724278459
| 41> H -3.2254468239 3.1350803756 -0.5416820981
| 42> H -2.5110577396 -2.5876836989 1.8632879784
| 43> H -3.5768357922 -2.0787597492 0.5246214002
| 44> H -2.278094896 -4.1243127622 -0.0907792351
| 45> H -1.8467575254 -2.7543533328 -1.1259498906
| 46> H -0.765215378 -3.2405964316 0.1809300828
| 47> *
| 48>
| 49>                          ****END OF INPUT****

CARTESIAN COORDINATES (ANGSTROEM)
---------------------------------
  C      4.029987   -1.306883   -2.339773
  C      4.612527   -1.086846   -0.958472
  O      3.605836   -1.096987    0.068413
  P      2.498241    0.037127    0.186628
  S      3.134067    1.846063   -0.204261
  O      2.029283   -0.082750    1.686915
  C      1.241303   -1.139716    2.284927
  C      1.805996   -2.519247    2.024118
  S      0.881197   -0.666245   -1.019128
  C      0.106341    0.943280   -1.276136
  S     -0.720287    1.577461    0.211816
  P     -2.409459    0.319487    0.072786
  S     -3.130819   -0.034167   -1.719283
  O     -3.469017    0.920465    1.095507
  C     -4.456628    1.888099    0.699761
  C     -3.834837    3.226384    0.356862
  O     -1.877955   -0.930684    0.888597
  C     -2.538599   -2.219663    0.836636
  C     -1.806694   -3.147196   -0.112184
  H      3.407228   -2.197664   -2.352668
  H      3.424673   -0.449547   -2.629961
  H      4.838542   -1.421817   -3.054496
  H      5.142433   -0.130223   -0.913450
  H      5.283965   -1.897077   -0.670955
  H      1.259521   -0.889681    3.346953
  H      0.218400   -1.055412    1.908444
  H      1.764664   -2.748913    0.960847
  H      2.840987   -2.570409    2.351869
  H      1.218886   -3.251140    2.570813
  H     -0.626820    0.823106   -2.074209
  H      0.871288    1.674625   -1.539124
  H     -5.007008    1.489085   -0.158471
  H     -5.116489    1.959008    1.565346
  H     -4.620134    3.953449    0.176603
  H     -3.203451    3.570501    1.172428
  H     -3.225447    3.135080   -0.541682
  H     -2.511058   -2.587684    1.863288
  H     -3.576836   -2.078760    0.524621
  H     -2.278095   -4.124313   -0.090779
  H     -1.846758   -2.754353   -1.125950
  H     -0.765215   -3.240596    0.180930

 Total Charge           Charge          ....    0
 Multiplicity           Mult            ....    1
 Number of Electrons    NEL             ....  202
 Basis Dimension        Dim             ....  539

ORBITAL ENERGIES
----------------

  NO   OCC          E(Eh)            E(eV)
   0   2.0000     -88.577700     -2410.3218
   1   2.0000     -88.574802     -2410.2429
   2   2.0000     -88.525415     -2408.8990
   3   2.0000     -88.517501     -2408.6837
   4   2.0000     -76.917528     -2093.0323
   5   2.0000     -76.913471     -2092.9219
   6   2.0000     -18.996335      -516.9165
   7   2.0000     -18.994294      -516.8610
   8   2.0000     -18.992863      -516.8221
   9   2.0000     -18.987426      -516.6741
  10   2.0000     -10.104746      -274.9641
  11   2.0000     -10.103492      -274.9300
  12   2.0000     -10.100315      -274.8435
  13   2.0000     -10.098668      -274.7987
  14   2.0000     -10.097018      -274.7538
  15   2.0000     -10.033284      -273.0195
  16   2.0000     -10.030533      -272.9447
  17   2.0000     -10.029734      -272.9229
  18   2.0000     -10.028341      -272.8850
  19   2.0000      -7.871787      -214.2022
  20   2.0000      -7.869244      -214.1330
  21   2.0000      -7.820246      -212.7997
  22   2.0000      -7.812362      -212.5852
  23   2.0000      -6.596164      -179.4907
  24   2.0000      -6.591765      -179.3711
  25   2.0000      -5.818655      -158.3336
  26   2.0000      -5.816034      -158.2623
  27   2.0000      -5.815741      -158.2544
  28   2.0000      -5.813106      -158.1827
  29   2.0000      -5.808857      -158.0670
  30   2.0000      -5.806422      -158.0008
  31   2.0000      -5.767811      -156.9501
  32   2.0000      -5.760642      -156.7550
  33   2.0000      -5.760208      -156.7432
  34   2.0000      -5.760031      -156.7384
  35   2.0000      -5.752614      -156.5366
  36   2.0000      -5.752347      -156.5293
  37   2.0000      -4.741677      -129.0276
  38   2.0000      -4.740993      -129.0090
  39   2.0000      -4.739955      -128.9807
  40   2.0000      -4.737455      -128.9127
  41   2.0000      -4.736775      -128.8942
  42   2.0000      -4.735282      -128.8536
  43   2.0000      -1.053757       -28.6742
  44   2.0000      -1.048460       -28.5300
  45   2.0000      -1.014341       -27.6016
  46   2.0000      -1.009052       -27.4577
  47   2.0000      -0.802941       -21.8491
  48   2.0000      -0.759847       -20.6765
  49   2.0000      -0.751062       -20.4374
  50   2.0000      -0.734329       -19.9821
  51   2.0000      -0.733293       -19.9539
  52   2.0000      -0.714696       -19.4479
  53   2.0000      -0.687738       -18.7143
  54   2.0000      -0.669790       -18.2259
  55   2.0000      -0.634156       -17.2563
  56   2.0000      -0.626195       -17.0396
  57   2.0000      -0.610878       -16.6228
  58   2.0000      -0.608502       -16.5582
  59   2.0000      -0.589611       -16.0441
  60   2.0000      -0.530898       -14.4465
  61   2.0000      -0.515913       -14.0387
  62   2.0000      -0.493669       -13.4334
  63   2.0000      -0.489138       -13.3101
  64   2.0000      -0.479875       -13.0581
  65   2.0000      -0.463425       -12.6104
  66   2.0000      -0.461717       -12.5640
  67   2.0000      -0.457875       -12.4594
  68   2.0000      -0.449137       -12.2216
  69   2.0000      -0.439634       -11.9631
  70   2.0000      -0.426724       -11.6117
  71   2.0000      -0.416624       -11.3369
  72   2.0000      -0.414531       -11.2800
  73   2.0000      -0.402213       -10.9448
  74   2.0000      -0.395934       -10.7739
  75   2.0000      -0.391938       -10.6652
  76   2.0000      -0.383035       -10.4229
  77   2.0000      -0.380266       -10.3476
  78   2.0000      -0.371764       -10.1162
  79   2.0000      -0.368566       -10.0292
  80   2.0000      -0.366314        -9.9679
  81   2.0000      -0.361536        -9.8379
  82   2.0000      -0.358918        -9.7667
  83   2.0000      -0.354552        -9.6478
  84   2.0000      -0.350795        -9.5456
  85   2.0000      -0.332905        -9.0588
  86   2.0000      -0.323149        -8.7933
  87   2.0000      -0.312743        -8.5102
  88   2.0000      -0.308741        -8.4013
  89   2.0000      -0.306760        -8.3474
  90   2.0000      -0.305786        -8.3209
  91   2.0000      -0.296621        -8.0715
  92   2.0000      -0.284529        -7.7424
  93   2.0000      -0.279448        -7.6042
  94   2.0000      -0.275680        -7.5016
  95   2.0000      -0.248056        -6.7499
  96   2.0000      -0.231140        -6.2896
  97   2.0000      -0.228077        -6.2063
  98   2.0000      -0.219107        -5.9622
  99   2.0000      -0.215793        -5.8720
 100   2.0000      -0.214283        -5.8309
 101   0.0000      -0.047146        -1.2829
 102   0.0000      -0.028433        -0.7737
 103   0.0000      -0.004882        -0.1328
 104   0.0000      -0.001258        -0.0342
 105   0.0000       0.012978         0.3531

MULLIKEN ATOMIC CHARGES
-----------------------
   0 C :   -0.440222
   1 C :   -0.170526
   2 O :   -0.265781
   3 P :    0.656751
   4 S :   -0.461782
   5 O :   -0.258225
   6 C :   -0.158959
   7 C :   -0.454667
   8 S :   -0.155249
   9 C :   -0.256561
  10 S :   -0.094152
  11 P :    0.663581
  12 S :   -0.481934
  13 O :   -0.305460
  14 C :   -0.149484
  15 C :   -0.452319
  16 O :   -0.269446
  17 C :   -0.131689
  18 C :   -0.454330
  19 H :    0.152171
  20 H :    0.176848
  21 H :    0.147546
  22 H :    0.176112
  23 H :    0.148143
  24 H :    0.151726
  25 H :    0.188954
  26 H :    0.157311
  27 H :    0.161994
  28 H :    0.150504
  29 H :    0.214472
  30 H :    0.223827
  31 H :    0.171469
  32 H :    0.148254
  33 H :    0.148414
  34 H :    0.157993
  35 H :    0.176246
  36 H :    0.151063
  37 H :    0.157476
  38 H :    0.146325
  39 H :    0.180844
  40 H :    0.152764
Sum of atomic charges:   -0.0000000

LOEWDIN ATOMIC CHARGES
----------------------
   0 C :   -0.408138
   1 C :    0.021091
   2 O :   -0.671703
   3 P :    0.386990
   4 S :   -0.109099
   5 O :   -0.650175
   6 C :    0.022109
   7 C :   -0.404168
   8 S :    0.145856
   9 C :   -0.425247
  10 S :    0.184901
  11 P :    0.376898
  12 S :   -0.136096
  13 O :   -0.658502
  14 C :    0.019685
  15 C :   -0.405636
  16 O :   -0.695560
  17 C :    0.023325
  18 C :   -0.401501
  19 H :    0.159185
  20 H :    0.165663
  21 H :    0.159186
  22 H :    0.181187
  23 H :    0.179151
  24 H :    0.182764
  25 H :    0.197422
  26 H :    0.161701
  27 H :    0.164867
  28 H :    0.159288
  29 H :    0.192906
  30 H :    0.194134
  31 H :    0.179650
  32 H :    0.179689
  33 H :    0.159922
  34 H :    0.161085
  35 H :    0.165719
  36 H :    0.177599
  37 H :    0.178334
  38 H :    0.158362
  39 H :    0.168497
  40 H :    0.158659

  Mayer bond orders larger than 0.100000
B(  0-C ,  1-C ) :   0.9135 B(  0-C , 19-H ) :   0.9686 B(  0-C , 20-H ) :   0.9642
B(  0-C , 21-H ) :   0.9573 B(  1-C ,  2-O ) :   0.8097 B(  1-C , 22-H ) :   0.9679
B(  1-C , 23-H ) :   0.9616 B(  2-O ,  3-P ) :   1.0415 B(  3-P ,  4-S ) :   1.8028
B(  3-P ,  5-O ) :   1.1863 B(  3-P ,  8-S ) :   0.9907 B(  5-O ,  6-C ) :   0.8114
B(  6-C ,  7-C ) :   0.9001 B(  6-C , 24-H ) :   0.9610 B(  6-C , 25-H ) :   0.9493
B(  7-C , 26-H ) :   0.9654 B(  7-C , 27-H ) :   0.9656 B(  7-C , 28-H ) :   0.9607
B(  8-S ,  9-C ) :   0.9096 B(  9-C , 10-S ) :   0.9077 B(  9-C , 29-H ) :   0.9023
B(  9-C , 30-H ) :   0.9017 B( 10-S , 11-P ) :   1.1106 B( 11-P , 12-S ) :   1.7470
B( 11-P , 13-O ) :   1.0752 B( 11-P , 16-O ) :   1.1346 B( 13-O , 14-C ) :   0.8161
B( 14-C , 15-C ) :   0.9232 B( 14-C , 31-H ) :   0.9654 B( 14-C , 32-H ) :   0.9580
B( 15-C , 33-H ) :   0.9586 B( 15-C , 34-H ) :   0.9686 B( 15-C , 35-H ) :   0.9610
B( 16-O , 17-C ) :   0.7527 B( 17-C , 18-C ) :   0.9461 B( 17-C , 36-H ) :   0.9635
B( 17-C , 37-H ) :   0.9609 B( 18-C , 38-H ) :   0.9647 B( 18-C , 39-H ) :   0.9612
B( 18-C , 40-H ) :   0.9661

Dispersion correction           -0.021996093
FINAL SINGLE POINT ENERGY     -2932.462385988435

DIPOLE MOMENT
-------------

Method             : SCF
Type of density    : Electron Density
Multiplicity       :   1
Irrep              :   0
Energy             : -2932.4870633947434726 Eh
Relativity type    :
Basis              : AO
                                X                 Y                 Z
Electronic contribution:      1.877474309      12.978956636      -0.767050443
Nuclear contribution   :     -2.431548679     -14.293212391       1.282130075
                        -----------------------------------------
Total Dipole Moment    :     -0.554074369      -1.314255755       0.515079632
                        -----------------------------------------
Magnitude (a.u.)       :      1.516434510
Magnitude (Debye)      :      3.854470205

Rotational constants in cm-1:             0.012925             0.004957             0.004521
Rotational constants in MHz :           387.472000           148.601061           135.548475

                             ****ORCA TERMINATED NORMALLY****
TOTAL RUN TIME: 0 days 0 hours 1 minutes 21 seconds 466 msec
