                         Program Version 6.0.0  -   RELEASE  -
|  1> ! r2scan-3c def2/J RI DEFGRID2 scfconv6 printgap
|  2> %output
|  3>     printlevel normal
|  4> end
|  5> %cpcm
|  6>     smd true
|  7>     smdsolvent "water"
|  8> end
|  9> * xyz 0 1
| 10> C 4.0299871674 -1.3068829962 -2.3397732819
| 11> C 4.6125274501 -1.0868460879 -0.9584721524
| 12> O 3.6058359684 -1.0969872597 0.0684125448
| 13> P 2.4982409351 0.0371271019 0.1866277719
| 14> S 3.134066677 1.8460626473 -0.2042610461
| 15> O 2.0292831825 -0.0827495703 1.6869145482
| 16> C 1.2413033229 -1.1397162048 2.2849270133
| 17> C 1.8059958529 -2.5192465345 2.0241180094
| 18> S 0.8811974205 -0.6662452916 -1.0191279293
| 19> C 0.106340963 0.9432803029 -1.2761355824
| 20> S -0.7202869115 1.577460985 0.2118161351
| 21> P -2.4094585513 0.3194871007 0.0727861838
| 22> S -3.1308193338 -0.0341674126 -1.7192829366
| 23> O -3.4690165633 0.9204649533 1.0955070542
| 24> C -4.4566278329 1.8880988884 0.6997611369
| 25> C -3.8348373086 3.2263840942 0.3568622814
| 26> O -1.8779554382 -0.9306844159 0.8885965654
| 27> C -2.5385986349 -2.2196631144 0.8366364043
| 28> C -1.8066938049 -3.1471963735 -0.1121841442
| 29> H 3.4072284076 -2.197664049 -2.352667863
| 30> H 3.4246729216 -0.4495466006 -2.629961176
| 31> H 4.838542193 -1.4218174307 -3.0544960494
| 32> H 5.1424328939 -0.1302232883 -0.9134503245
| 33> H 5.2839651047 -1.8970770181 -0.6709551855
| 34> H 1.2595213806 -0.8896813736 3.3469531404
| 35> H 0.2183995852 -1.0554116354 1.9084443544
| 36> H 1.7646638263 -2.7489131258 0.9608474406
| 37> H 2.8409874929 -2.5704085353 2.3518685867
| 38> H 1.2188863976 -3.251140179 2.5708133225
| 39> H -0.6268201275 0.8231056855 -2.0742090768
| 40> H 0.8712882905 1.6746251321 -1.5391239611
| 41> H -5.0070083849 1.4890853751 -0.1584711804
| 42> H -5.1164894888 1.9590084937 1.5653463141
| 43> H -4.6201342618 3.9534491145 0.1766029451
| 44> H -3.2034509231 3.5705012344 1.1724278459
| 45> H -3.2254468239 3.1350803756 -0.5416820981
| 46> H -2.5110577396 -2.5876836989 1.8632879784
| 47> H -3.5768357922 -2.0787597492 0.5246214002
| 48> H -2.278094896 -4.1243127622 -0.0907792351
| 49> H -1.8467575254 -2.7543533328 -1.1259498906
| 50> H -0.765215378 -3.2405964316 0.1809300828
| 51> *
| 52>
| 53>                          ****END OF INPUT****

CARTESIAN COORDINATES (ANGSTROEM)
---------------------------------
  C      4.029987   -1.306883   -2.339773
  C      4.612527   -1.086846   -0.958472
  O      3.605836   -1.096987    0.068413
  P      2.498241    0.037127    0.186628
  S      3.134067    1.846063   -0.204261
  O      2.029283   -0.082750    1.686915
  C      1.241303   -1.139716    2.284927
  C      1.805996   -2.519247    2.024118
  S      0.881197   -0.666245   -1.019128
  C      0.106341    0.943280   -1.276136
  S     -0.720287    1.577461    0.211816
  P     -2.409459    0.319487    0.072786
  S     -3.130819   -0.034167   -1.719283
  O     -3.469017    0.920465    1.095507
  C     -4.456628    1.888099    0.699761
  C     -3.834837    3.226384    0.356862
  O     -1.877955   -0.930684    0.888597
  C     -2.538599   -2.219663    0.836636
  C     -1.806694   -3.147196   -0.112184
  H      3.407228   -2.197664   -2.352668
  H      3.424673   -0.449547   -2.629961
  H      4.838542   -1.421817   -3.054496
  H      5.142433   -0.130223   -0.913450
  H      5.283965   -1.897077   -0.670955
  H      1.259521   -0.889681    3.346953
  H      0.218400   -1.055412    1.908444
  H      1.764664   -2.748913    0.960847
  H      2.840987   -2.570409    2.351869
  H      1.218886   -3.251140    2.570813
  H     -0.626820    0.823106   -2.074209
  H      0.871288    1.674625   -1.539124
  H     -5.007008    1.489085   -0.158471
  H     -5.116489    1.959008    1.565346
  H     -4.620134    3.953449    0.176603
  H     -3.203451    3.570501    1.172428
  H     -3.225447    3.135080   -0.541682
  H     -2.511058   -2.587684    1.863288
  H     -3.576836   -2.078760    0.524621
  H     -2.278095   -4.124313   -0.090779
  H     -1.846758   -2.754353   -1.125950
  H     -0.765215   -3.240596    0.180930

 Total Charge           Charge          ....    0
 Multiplicity           Mult            ....    1
 Number of Electrons    NEL             ....  202
 Basis Dimension        Dim             ....  539

ORBITAL ENERGIES
----------------

  NO   OCC          E(Eh)            E(eV)
   0   2.0000     -88.581039     -2410.4126
   1   2.0000     -88.577624     -2410.3197
   2   2.0000     -88.529148     -2409.0006
   3   2.0000     -88.528667     -2408.9875
   4   2.0000     -76.920530     -2093.1140
   5   2.0000     -76.919537     -2093.0870
   6   2.0000     -18.996388      -516.9180
   7   2.0000     -18.995364      -516.8901
   8   2.0000     -18.993625      -516.8428
   9   2.0000     -18.991547      -516.7863
  10   2.0000     -10.103808      -274.9386
  11   2.0000     -10.090287      -274.5707
  12   2.0000     -10.089890      -274.5599
  13   2.0000     -10.089617      -274.5524
  14   2.0000     -10.089446      -274.5478
  15   2.0000     -10.020084      -272.6603
  16   2.0000     -10.018737      -272.6237
  17   2.0000     -10.018069      -272.6055
  18   2.0000     -10.016417      -272.5606
  19   2.0000      -7.875261      -214.2968
  20   2.0000      -7.871983      -214.2075
  21   2.0000      -7.824244      -212.9085
  22   2.0000      -7.823892      -212.8989
  23   2.0000      -6.598897      -179.5651
  24   2.0000      -6.598178      -179.5456
  25   2.0000      -5.822087      -158.4270
  26   2.0000      -5.819200      -158.3485
  27   2.0000      -5.818825      -158.3383
  28   2.0000      -5.815869      -158.2578
  29   2.0000      -5.812385      -158.1630
  30   2.0000      -5.809095      -158.0735
  31   2.0000      -5.771771      -157.0579
  32   2.0000      -5.771438      -157.0488
  33   2.0000      -5.764644      -156.8639
  34   2.0000      -5.764193      -156.8517
  35   2.0000      -5.764162      -156.8508
  36   2.0000      -5.763912      -156.8440
  37   2.0000      -4.744556      -129.1059
  38   2.0000      -4.743841      -129.0865
  39   2.0000      -4.743607      -129.0801
  40   2.0000      -4.743013      -129.0639
  41   2.0000      -4.742538      -129.0510
  42   2.0000      -4.742078      -129.0385
  43   2.0000      -1.052445       -28.6385
  44   2.0000      -1.052077       -28.6285
  45   2.0000      -1.012735       -27.5579
  46   2.0000      -1.011742       -27.5309
  47   2.0000      -0.804834       -21.9006
  48   2.0000      -0.755877       -20.5684
  49   2.0000      -0.744740       -20.2654
  50   2.0000      -0.725947       -19.7540
  51   2.0000      -0.722495       -19.6601
  52   2.0000      -0.712229       -19.3807
  53   2.0000      -0.689832       -18.7713
  54   2.0000      -0.674809       -18.3625
  55   2.0000      -0.632719       -17.2172
  56   2.0000      -0.622391       -16.9361
  57   2.0000      -0.603167       -16.4130
  58   2.0000      -0.600934       -16.3523
  59   2.0000      -0.587358       -15.9828
  60   2.0000      -0.523684       -14.2502
  61   2.0000      -0.512856       -13.9555
  62   2.0000      -0.488541       -13.2939
  63   2.0000      -0.485331       -13.2065
  64   2.0000      -0.479298       -13.0423
  65   2.0000      -0.458889       -12.4870
  66   2.0000      -0.455266       -12.3884
  67   2.0000      -0.454337       -12.3631
  68   2.0000      -0.442599       -12.0437
  69   2.0000      -0.434779       -11.8309
  70   2.0000      -0.422767       -11.5041
  71   2.0000      -0.411266       -11.1911
  72   2.0000      -0.409223       -11.1355
  73   2.0000      -0.396133       -10.7793
  74   2.0000      -0.394080       -10.7235
  75   2.0000      -0.390933       -10.6378
  76   2.0000      -0.381341       -10.3768
  77   2.0000      -0.375048       -10.2056
  78   2.0000      -0.363862        -9.9012
  79   2.0000      -0.360057        -9.7977
  80   2.0000      -0.358917        -9.7666
  81   2.0000      -0.352117        -9.5816
  82   2.0000      -0.349926        -9.5220
  83   2.0000      -0.347503        -9.4560
  84   2.0000      -0.345120        -9.3912
  85   2.0000      -0.329368        -8.9626
  86   2.0000      -0.316375        -8.6090
  87   2.0000      -0.307023        -8.3545
  88   2.0000      -0.305573        -8.3151
  89   2.0000      -0.304085        -8.2746
  90   2.0000      -0.301082        -8.1928
  91   2.0000      -0.291414        -7.9298
  92   2.0000      -0.283896        -7.7252
  93   2.0000      -0.278995        -7.5918
  94   2.0000      -0.277483        -7.5507
  95   2.0000      -0.250641        -6.8203
  96   2.0000      -0.236446        -6.4340
  97   2.0000      -0.234901        -6.3920
  98   2.0000      -0.225907        -6.1472
  99   2.0000      -0.225721        -6.1422
 100   2.0000      -0.221125        -6.0171
 101   0.0000      -0.051754        -1.4083
 102   0.0000      -0.033870        -0.9217
 103   0.0000      -0.007164        -0.1949
 104   0.0000      -0.005209        -0.1417
 105   0.0000       0.013458         0.3662

MULLIKEN ATOMIC CHARGES
-----------------------
   0 C :   -0.478833
   1 C :   -0.162844
   2 O :   -0.285395
   3 P :    0.668238
   4 S :   -0.517965
   5 O :   -0.296195
   6 C :   -0.152411
   7 C :   -0.484684
   8 S :   -0.143618
   9 C :   -0.262064
  10 S :   -0.122346
  11 P :    0.702364
  12 S :   -0.524172
  13 O :   -0.330554
  14 C :   -0.149888
  15 C :   -0.488748
  16 O :   -0.288132
  17 C :   -0.128402
  18 C :   -0.492475
  19 H :    0.168368
  20 H :    0.172373
  21 H :    0.171867
  22 H :    0.178844
  23 H :    0.175749
  24 H :    0.175844
  25 H :    0.188119
  26 H :    0.164693
  27 H :    0.170673
  28 H :    0.177349
  29 H :    0.232982
  30 H :    0.237579
  31 H :    0.177415
  32 H :    0.175006
  33 H :    0.172908
  34 H :    0.170247
  35 H :    0.171735
  36 H :    0.177369
  37 H :    0.170488
  38 H :    0.169700
  39 H :    0.170745
  40 H :    0.168071
Sum of atomic charges:   -0.0000000

LOEWDIN ATOMIC CHARGES
----------------------
   0 C :   -0.410810
   1 C :    0.026594
   2 O :   -0.678862
   3 P :    0.388743
   4 S :   -0.152193
   5 O :   -0.674709
   6 C :    0.027332
   7 C :   -0.403367
   8 S :    0.156647
   9 C :   -0.420325
  10 S :    0.167069
  11 P :    0.383066
  12 S :   -0.161299
  13 O :   -0.669971
  14 C :    0.024781
  15 C :   -0.409441
  16 O :   -0.700267
  17 C :    0.029862
  18 C :   -0.404861
  19 H :    0.163527
  20 H :    0.161441
  21 H :    0.168026
  22 H :    0.181662
  23 H :    0.191023
  24 H :    0.192501
  25 H :    0.197989
  26 H :    0.163279
  27 H :    0.165802
  28 H :    0.170618
  29 H :    0.198371
  30 H :    0.198038
  31 H :    0.181567
  32 H :    0.190882
  33 H :    0.168707
  34 H :    0.163698
  35 H :    0.161525
  36 H :    0.189369
  37 H :    0.182066
  38 H :    0.166742
  39 H :    0.162300
  40 H :    0.162878

  Mayer bond orders larger than 0.100000
B(  0-C ,  1-C ) :   0.9034 B(  0-C , 19-H ) :   0.9658 B(  0-C , 20-H ) :   0.9652
B(  0-C , 21-H ) :   0.9522 B(  1-C ,  2-O ) :   0.7980 B(  1-C , 22-H ) :   0.9661
B(  1-C , 23-H ) :   0.9507 B(  2-O ,  3-P ) :   1.0521 B(  3-P ,  4-S ) :   1.7819
B(  3-P ,  5-O ) :   1.1869 B(  3-P ,  8-S ) :   1.0094 B(  5-O ,  6-C ) :   0.8018
B(  6-C ,  7-C ) :   0.8985 B(  6-C , 24-H ) :   0.9503 B(  6-C , 25-H ) :   0.9424
B(  7-C , 26-H ) :   0.9594 B(  7-C , 27-H ) :   0.9671 B(  7-C , 28-H ) :   0.9522
B(  8-S ,  9-C ) :   0.9002 B(  9-C , 10-S ) :   0.8953 B(  9-C , 29-H ) :   0.8996
B(  9-C , 30-H ) :   0.8981 B( 10-S , 11-P ) :   1.1122 B( 11-P , 12-S ) :   1.7119
B( 11-P , 13-O ) :   1.0820 B( 11-P , 16-O ) :   1.1498 B( 13-O , 14-C ) :   0.8051
B( 14-C , 15-C ) :   0.9101 B( 14-C , 31-H ) :   0.9640 B( 14-C , 32-H ) :   0.9487
B( 15-C , 33-H ) :   0.9534 B( 15-C , 34-H ) :   0.9662 B( 15-C , 35-H ) :   0.9625
B( 16-O , 17-C ) :   0.7404 B( 17-C , 18-C ) :   0.9332 B( 17-C , 36-H ) :   0.9518
B( 17-C , 37-H ) :   0.9580 B( 18-C , 38-H ) :   0.9601 B( 18-C , 39-H ) :   0.9651
B( 18-C , 40-H ) :   0.9646

Dispersion correction           -0.021996093
FINAL SINGLE POINT ENERGY     -2932.470799091425

DIPOLE MOMENT
-------------

Method             : SCF
Type of density    : Electron Density
Multiplicity       :   1
Irrep              :   0
Energy             : -2932.4954764977328523 Eh
Relativity type    :
Basis              : AO
                                X                 Y                 Z
Electronic contribution:      1.612649473      12.325117597      -0.691576095
Nuclear contribution   :     -2.431548679     -14.293212391       1.282130075
                        -----------------------------------------
Total Dipole Moment    :     -0.818899206      -1.968094795       0.590553980
                        -----------------------------------------
Magnitude (a.u.)       :      2.211955477
Magnitude (Debye)      :      5.622344008

Rotational constants in cm-1:             0.012925             0.004957             0.004521
Rotational constants in MHz :           387.472000           148.601061           135.548475

                             ****ORCA TERMINATED NORMALLY****
TOTAL RUN TIME: 0 days 0 hours 1 minutes 49 seconds 241 msec
