                         Program Version 6.0.0  -   RELEASE  -
|  1> ! r2scan-3c def2/J RI DEFGRID2 scfconv6 printgap
|  2> %output
|  3>     printlevel normal
|  4> end
|  5> * xyz 0 1
|  6> C 3.9526237421 -1.7626508173 -2.2757077296
|  7> C 4.4757636467 -1.5550815326 -0.8695780449
|  8> O 3.4183010513 -1.348862061 0.0858437204
|  9> P 2.4733721373 -0.0717617581 0.0549703455
| 10> S 3.3335318937 1.6289367969 -0.373842707
| 11> O 1.8518053606 -0.0682378654 1.5036770558
| 12> C 1.2425850329 -1.2360467502 2.1063090671
| 13> C 2.1985107384 -1.8842479234 3.0860688239
| 14> S 0.8703417781 -0.6593891286 -1.2342661134
| 15> C 0.2048977558 1.0024059108 -1.4566370615
| 16> S -0.5542216133 1.6655410814 0.0540434991
| 17> P -2.311092949 0.5051837602 -0.0511636448
| 18> S -3.0939353022 0.2740740355 -1.8377353884
| 19> O -3.2803910718 1.178740772 1.0126853418
| 20> C -4.0813940601 2.337340098 0.7030538057
| 21> C -5.3182673525 2.3018930651 1.5782688273
| 22> O -1.8824202368 -0.8156550988 0.7020011706
| 23> C -2.6377687641 -2.0471964696 0.5713662082
| 24> C -1.673251257 -3.2079907587 0.4423852197
| 25> H 3.1990315801 -2.5460092821 -2.2895463785
| 26> H 3.5087091932 -0.8409881152 -2.6488065275
| 27> H 4.7759321116 -2.0423189427 -2.9250843414
| 28> H 5.1452332373 -0.6904906644 -0.8323304402
| 29> H 4.9914900032 -2.4415119516 -0.4976004954
| 30> H 0.3475423965 -0.8567548392 2.6046380043
| 31> H 0.9545851845 -1.9315869099 1.3136002436
| 32> H 2.5135407041 -1.1598497297 3.8320874457
| 33> H 1.6978193894 -2.7119246791 3.5786600409
| 34> H 3.0765438396 -2.2543234493 2.5634458211
| 35> H -0.5469585098 0.9472047045 -2.2445760046
| 36> H 1.0143793882 1.6831075901 -1.7213562323
| 37> H -3.4763866126 3.2258913294 0.8998929018
| 38> H -4.3438736253 2.3083010999 -0.3600242701
| 39> H -5.9163460526 3.1861924463 1.3840861116
| 40> H -5.9069788068 1.4156913945 1.3581900036
| 41> H -5.0305377021 2.2839599493 2.6254533493
| 42> H -3.2590516575 -2.1359411437 1.4643893281
| 43> H -3.2798470104 -1.971157968 -0.3126324246
| 44> H -1.0241705249 -3.0583523455 -0.4172878117
| 45> H -1.066378629 -3.2959561357 1.3385998359
| 46> H -2.2415540099 -4.1222138677 0.3037617277
| 47> *
| 48>
| 49>                          ****END OF INPUT****

CARTESIAN COORDINATES (ANGSTROEM)
---------------------------------
  C      3.952624   -1.762651   -2.275708
  C      4.475764   -1.555082   -0.869578
  O      3.418301   -1.348862    0.085844
  P      2.473372   -0.071762    0.054970
  S      3.333532    1.628937   -0.373843
  O      1.851805   -0.068238    1.503677
  C      1.242585   -1.236047    2.106309
  C      2.198511   -1.884248    3.086069
  S      0.870342   -0.659389   -1.234266
  C      0.204898    1.002406   -1.456637
  S     -0.554222    1.665541    0.054043
  P     -2.311093    0.505184   -0.051164
  S     -3.093935    0.274074   -1.837735
  O     -3.280391    1.178741    1.012685
  C     -4.081394    2.337340    0.703054
  C     -5.318267    2.301893    1.578269
  O     -1.882420   -0.815655    0.702001
  C     -2.637769   -2.047196    0.571366
  C     -1.673251   -3.207991    0.442385
  H      3.199032   -2.546009   -2.289546
  H      3.508709   -0.840988   -2.648807
  H      4.775932   -2.042319   -2.925084
  H      5.145233   -0.690491   -0.832330
  H      4.991490   -2.441512   -0.497600
  H      0.347542   -0.856755    2.604638
  H      0.954585   -1.931587    1.313600
  H      2.513541   -1.159850    3.832087
  H      1.697819   -2.711925    3.578660
  H      3.076544   -2.254323    2.563446
  H     -0.546959    0.947205   -2.244576
  H      1.014379    1.683108   -1.721356
  H     -3.476387    3.225891    0.899893
  H     -4.343874    2.308301   -0.360024
  H     -5.916346    3.186192    1.384086
  H     -5.906979    1.415691    1.358190
  H     -5.030538    2.283960    2.625453
  H     -3.259052   -2.135941    1.464389
  H     -3.279847   -1.971158   -0.312632
  H     -1.024171   -3.058352   -0.417288
  H     -1.066379   -3.295956    1.338600
  H     -2.241554   -4.122214    0.303762

 Total Charge           Charge          ....    0
 Multiplicity           Mult            ....    1
 Number of Electrons    NEL             ....  202
 Basis Dimension        Dim             ....  539

ORBITAL ENERGIES
----------------

  NO   OCC          E(Eh)            E(eV)
   0   2.0000     -88.575024     -2410.2489
   1   2.0000     -88.572678     -2410.1851
   2   2.0000     -88.520961     -2408.7778
   3   2.0000     -88.520604     -2408.7681
   4   2.0000     -76.914363     -2092.9462
   5   2.0000     -76.913914     -2092.9340
   6   2.0000     -18.996786      -516.9288
   7   2.0000     -18.993648      -516.8434
   8   2.0000     -18.993643      -516.8433
   9   2.0000     -18.988326      -516.6986
  10   2.0000     -10.102373      -274.8996
  11   2.0000     -10.101543      -274.8770
  12   2.0000     -10.101094      -274.8647
  13   2.0000     -10.099012      -274.8081
  14   2.0000     -10.098976      -274.8071
  15   2.0000     -10.035536      -273.0808
  16   2.0000     -10.033669      -273.0300
  17   2.0000     -10.030760      -272.9509
  18   2.0000     -10.030472      -272.9430
  19   2.0000      -7.869132      -214.1300
  20   2.0000      -7.867144      -214.0759
  21   2.0000      -7.815869      -212.6806
  22   2.0000      -7.815377      -212.6672
  23   2.0000      -6.593077      -179.4067
  24   2.0000      -6.592433      -179.3892
  25   2.0000      -5.816043      -158.2626
  26   2.0000      -5.813930      -158.2051
  27   2.0000      -5.813010      -158.1800
  28   2.0000      -5.811050      -158.1267
  29   2.0000      -5.806235      -157.9957
  30   2.0000      -5.804275      -157.9424
  31   2.0000      -5.763378      -156.8295
  32   2.0000      -5.763064      -156.8209
  33   2.0000      -5.756140      -156.6325
  34   2.0000      -5.755981      -156.6282
  35   2.0000      -5.755574      -156.6171
  36   2.0000      -5.755417      -156.6129
  37   2.0000      -4.738556      -128.9427
  38   2.0000      -4.738313      -128.9361
  39   2.0000      -4.737970      -128.9267
  40   2.0000      -4.737286      -128.9081
  41   2.0000      -4.736803      -128.8950
  42   2.0000      -4.735894      -128.8702
  43   2.0000      -1.052377       -28.6366
  44   2.0000      -1.051336       -28.6083
  45   2.0000      -1.012183       -27.5429
  46   2.0000      -1.011080       -27.5129
  47   2.0000      -0.801488       -21.8096
  48   2.0000      -0.761463       -20.7205
  49   2.0000      -0.751901       -20.4603
  50   2.0000      -0.735999       -20.0276
  51   2.0000      -0.735615       -20.0171
  52   2.0000      -0.711158       -19.3516
  53   2.0000      -0.684861       -18.6360
  54   2.0000      -0.668371       -18.1873
  55   2.0000      -0.631051       -17.1718
  56   2.0000      -0.623625       -16.9697
  57   2.0000      -0.607807       -16.5393
  58   2.0000      -0.604284       -16.4434
  59   2.0000      -0.589424       -16.0390
  60   2.0000      -0.536698       -14.6043
  61   2.0000      -0.523988       -14.2584
  62   2.0000      -0.502218       -13.6661
  63   2.0000      -0.495164       -13.4741
  64   2.0000      -0.475803       -12.9473
  65   2.0000      -0.466916       -12.7054
  66   2.0000      -0.460561       -12.5325
  67   2.0000      -0.454733       -12.3739
  68   2.0000      -0.445705       -12.1282
  69   2.0000      -0.440045       -11.9742
  70   2.0000      -0.423474       -11.5233
  71   2.0000      -0.412807       -11.2331
  72   2.0000      -0.409926       -11.1547
  73   2.0000      -0.398126       -10.8336
  74   2.0000      -0.395462       -10.7611
  75   2.0000      -0.392655       -10.6847
  76   2.0000      -0.382389       -10.4053
  77   2.0000      -0.376212       -10.2373
  78   2.0000      -0.374102       -10.1798
  79   2.0000      -0.371171       -10.1001
  80   2.0000      -0.367329        -9.9955
  81   2.0000      -0.361291        -9.8312
  82   2.0000      -0.358455        -9.7541
  83   2.0000      -0.357439        -9.7264
  84   2.0000      -0.350369        -9.5340
  85   2.0000      -0.334011        -9.0889
  86   2.0000      -0.326553        -8.8860
  87   2.0000      -0.315626        -8.5886
  88   2.0000      -0.312670        -8.5082
  89   2.0000      -0.308887        -8.4052
  90   2.0000      -0.306688        -8.3454
  91   2.0000      -0.295598        -8.0436
  92   2.0000      -0.283777        -7.7220
  93   2.0000      -0.279302        -7.6002
  94   2.0000      -0.273297        -7.4368
  95   2.0000      -0.246735        -6.7140
  96   2.0000      -0.231751        -6.3063
  97   2.0000      -0.226050        -6.1511
  98   2.0000      -0.218075        -5.9341
  99   2.0000      -0.215422        -5.8619
 100   2.0000      -0.213379        -5.8063
 101   0.0000      -0.045453        -1.2368
 102   0.0000      -0.024366        -0.6630
 103   0.0000      -0.001984        -0.0540
 104   0.0000       0.000494         0.0134
 105   0.0000       0.014042         0.3821

MULLIKEN ATOMIC CHARGES
-----------------------
   0 C :   -0.444108
   1 C :   -0.166172
   2 O :   -0.292132
   3 P :    0.642747
   4 S :   -0.442043
   5 O :   -0.262129
   6 C :   -0.097438
   7 C :   -0.480353
   8 S :   -0.159523
   9 C :   -0.242716
  10 S :   -0.116059
  11 P :    0.693934
  12 S :   -0.502659
  13 O :   -0.298961
  14 C :   -0.141624
  15 C :   -0.445913
  16 O :   -0.255793
  17 C :   -0.118678
  18 C :   -0.478501
  19 H :    0.152703
  20 H :    0.181048
  21 H :    0.148362
  22 H :    0.175086
  23 H :    0.147782
  24 H :    0.170727
  25 H :    0.157588
  26 H :    0.159569
  27 H :    0.144132
  28 H :    0.164712
  29 H :    0.215076
  30 H :    0.218061
  31 H :    0.151345
  32 H :    0.170213
  33 H :    0.147488
  34 H :    0.156408
  35 H :    0.153915
  36 H :    0.150532
  37 H :    0.171434
  38 H :    0.175064
  39 H :    0.148681
  40 H :    0.148196
Sum of atomic charges:   -0.0000000

LOEWDIN ATOMIC CHARGES
----------------------
   0 C :   -0.408473
   1 C :    0.022617
   2 O :   -0.671112
   3 P :    0.381579
   4 S :   -0.101428
   5 O :   -0.653087
   6 C :    0.016607
   7 C :   -0.392370
   8 S :    0.136978
   9 C :   -0.424196
  10 S :    0.186536
  11 P :    0.369696
  12 S :   -0.148634
  13 O :   -0.662027
  14 C :    0.021801
  15 C :   -0.386491
  16 O :   -0.667030
  17 C :    0.023325
  18 C :   -0.395990
  19 H :    0.159730
  20 H :    0.167140
  21 H :    0.159752
  22 H :    0.180907
  23 H :    0.179149
  24 H :    0.185499
  25 H :    0.177189
  26 H :    0.162722
  27 H :    0.157796
  28 H :    0.164603
  29 H :    0.193373
  30 H :    0.192398
  31 H :    0.172244
  32 H :    0.181505
  33 H :    0.160330
  34 H :    0.160332
  35 H :    0.159651
  36 H :    0.172407
  37 H :    0.183725
  38 H :    0.166182
  39 H :    0.154990
  40 H :    0.160075

  Mayer bond orders larger than 0.100000
B(  0-C ,  1-C ) :   0.9177 B(  0-C , 19-H ) :   0.9673 B(  0-C , 20-H ) :   0.9628
B(  0-C , 21-H ) :   0.9562 B(  1-C ,  2-O ) :   0.8180 B(  1-C , 22-H ) :   0.9683
B(  1-C , 23-H ) :   0.9615 B(  2-O ,  3-P ) :   1.0341 B(  3-P ,  4-S ) :   1.8429
B(  3-P ,  5-O ) :   1.1399 B(  3-P ,  8-S ) :   1.0131 B(  5-O ,  6-C ) :   0.7356
B(  6-C ,  7-C ) :   0.9323 B(  6-C , 24-H ) :   0.9546 B(  6-C , 25-H ) :   0.9639
B(  7-C , 26-H ) :   0.9731 B(  7-C , 27-H ) :   0.9661 B(  7-C , 28-H ) :   0.9708
B(  8-S ,  9-C ) :   0.9134 B(  9-C , 10-S ) :   0.9160 B(  9-C , 29-H ) :   0.9011
B(  9-C , 30-H ) :   0.9061 B( 10-S , 11-P ) :   1.0979 B( 11-P , 12-S ) :   1.7273
B( 11-P , 13-O ) :   1.0870 B( 11-P , 16-O ) :   1.1629 B( 13-O , 14-C ) :   0.7726
B( 14-C , 15-C ) :   0.9585 B( 14-C , 31-H ) :   0.9462 B( 14-C , 32-H ) :   0.9526
B( 15-C , 33-H ) :   0.9647 B( 15-C , 34-H ) :   0.9720 B( 15-C , 35-H ) :   0.9718
B( 16-O , 17-C ) :   0.7624 B( 17-C , 18-C ) :   0.9495 B( 17-C , 36-H ) :   0.9498
B( 17-C , 37-H ) :   0.9543 B( 18-C , 38-H ) :   0.9696 B( 18-C , 39-H ) :   0.9726
B( 18-C , 40-H ) :   0.9629

Dispersion correction           -0.021120469
FINAL SINGLE POINT ENERGY     -2932.463615335796

DIPOLE MOMENT
-------------

Method             : SCF
Type of density    : Electron Density
Multiplicity       :   1
Irrep              :   0
Energy             : -2932.4890043656755552 Eh
Relativity type    :
Basis              : AO
                                X                 Y                 Z
Electronic contribution:      4.291462765      15.032978126      -7.848013721
Nuclear contribution   :     -4.725835901     -16.444480916       8.603738281
                        -----------------------------------------
Total Dipole Moment    :     -0.434373135      -1.411502791       0.755724560
                        -----------------------------------------
Magnitude (a.u.)       :      1.658957431
Magnitude (Debye)      :      4.216734681

Rotational constants in cm-1:             0.012795             0.004607             0.004408
Rotational constants in MHz :           383.574926           138.117223           132.148105

                             ****ORCA TERMINATED NORMALLY****
TOTAL RUN TIME: 0 days 0 hours 1 minutes 21 seconds 153 msec
