                         Program Version 6.0.0  -   RELEASE  -
|  1> ! r2scan-3c def2/J RI DEFGRID2 scfconv6 printgap
|  2> %output
|  3>     printlevel normal
|  4> end
|  5> %cpcm
|  6>     smd true
|  7>     smdsolvent "water"
|  8> end
|  9> * xyz 0 1
| 10> C 3.9526237421 -1.7626508173 -2.2757077296
| 11> C 4.4757636467 -1.5550815326 -0.8695780449
| 12> O 3.4183010513 -1.348862061 0.0858437204
| 13> P 2.4733721373 -0.0717617581 0.0549703455
| 14> S 3.3335318937 1.6289367969 -0.373842707
| 15> O 1.8518053606 -0.0682378654 1.5036770558
| 16> C 1.2425850329 -1.2360467502 2.1063090671
| 17> C 2.1985107384 -1.8842479234 3.0860688239
| 18> S 0.8703417781 -0.6593891286 -1.2342661134
| 19> C 0.2048977558 1.0024059108 -1.4566370615
| 20> S -0.5542216133 1.6655410814 0.0540434991
| 21> P -2.311092949 0.5051837602 -0.0511636448
| 22> S -3.0939353022 0.2740740355 -1.8377353884
| 23> O -3.2803910718 1.178740772 1.0126853418
| 24> C -4.0813940601 2.337340098 0.7030538057
| 25> C -5.3182673525 2.3018930651 1.5782688273
| 26> O -1.8824202368 -0.8156550988 0.7020011706
| 27> C -2.6377687641 -2.0471964696 0.5713662082
| 28> C -1.673251257 -3.2079907587 0.4423852197
| 29> H 3.1990315801 -2.5460092821 -2.2895463785
| 30> H 3.5087091932 -0.8409881152 -2.6488065275
| 31> H 4.7759321116 -2.0423189427 -2.9250843414
| 32> H 5.1452332373 -0.6904906644 -0.8323304402
| 33> H 4.9914900032 -2.4415119516 -0.4976004954
| 34> H 0.3475423965 -0.8567548392 2.6046380043
| 35> H 0.9545851845 -1.9315869099 1.3136002436
| 36> H 2.5135407041 -1.1598497297 3.8320874457
| 37> H 1.6978193894 -2.7119246791 3.5786600409
| 38> H 3.0765438396 -2.2543234493 2.5634458211
| 39> H -0.5469585098 0.9472047045 -2.2445760046
| 40> H 1.0143793882 1.6831075901 -1.7213562323
| 41> H -3.4763866126 3.2258913294 0.8998929018
| 42> H -4.3438736253 2.3083010999 -0.3600242701
| 43> H -5.9163460526 3.1861924463 1.3840861116
| 44> H -5.9069788068 1.4156913945 1.3581900036
| 45> H -5.0305377021 2.2839599493 2.6254533493
| 46> H -3.2590516575 -2.1359411437 1.4643893281
| 47> H -3.2798470104 -1.971157968 -0.3126324246
| 48> H -1.0241705249 -3.0583523455 -0.4172878117
| 49> H -1.066378629 -3.2959561357 1.3385998359
| 50> H -2.2415540099 -4.1222138677 0.3037617277
| 51> *
| 52>
| 53>                          ****END OF INPUT****

CARTESIAN COORDINATES (ANGSTROEM)
---------------------------------
  C      3.952624   -1.762651   -2.275708
  C      4.475764   -1.555082   -0.869578
  O      3.418301   -1.348862    0.085844
  P      2.473372   -0.071762    0.054970
  S      3.333532    1.628937   -0.373843
  O      1.851805   -0.068238    1.503677
  C      1.242585   -1.236047    2.106309
  C      2.198511   -1.884248    3.086069
  S      0.870342   -0.659389   -1.234266
  C      0.204898    1.002406   -1.456637
  S     -0.554222    1.665541    0.054043
  P     -2.311093    0.505184   -0.051164
  S     -3.093935    0.274074   -1.837735
  O     -3.280391    1.178741    1.012685
  C     -4.081394    2.337340    0.703054
  C     -5.318267    2.301893    1.578269
  O     -1.882420   -0.815655    0.702001
  C     -2.637769   -2.047196    0.571366
  C     -1.673251   -3.207991    0.442385
  H      3.199032   -2.546009   -2.289546
  H      3.508709   -0.840988   -2.648807
  H      4.775932   -2.042319   -2.925084
  H      5.145233   -0.690491   -0.832330
  H      4.991490   -2.441512   -0.497600
  H      0.347542   -0.856755    2.604638
  H      0.954585   -1.931587    1.313600
  H      2.513541   -1.159850    3.832087
  H      1.697819   -2.711925    3.578660
  H      3.076544   -2.254323    2.563446
  H     -0.546959    0.947205   -2.244576
  H      1.014379    1.683108   -1.721356
  H     -3.476387    3.225891    0.899893
  H     -4.343874    2.308301   -0.360024
  H     -5.916346    3.186192    1.384086
  H     -5.906979    1.415691    1.358190
  H     -5.030538    2.283960    2.625453
  H     -3.259052   -2.135941    1.464389
  H     -3.279847   -1.971158   -0.312632
  H     -1.024171   -3.058352   -0.417288
  H     -1.066379   -3.295956    1.338600
  H     -2.241554   -4.122214    0.303762

 Total Charge           Charge          ....    0
 Multiplicity           Mult            ....    1
 Number of Electrons    NEL             ....  202
 Basis Dimension        Dim             ....  539

ORBITAL ENERGIES
----------------

  NO   OCC          E(Eh)            E(eV)
   0   2.0000     -88.581092     -2410.4141
   1   2.0000     -88.576408     -2410.2866
   2   2.0000     -88.531325     -2409.0598
   3   2.0000     -88.528273     -2408.9768
   4   2.0000     -76.920514     -2093.1136
   5   2.0000     -76.919467     -2093.0851
   6   2.0000     -18.997352      -516.9442
   7   2.0000     -18.995873      -516.9040
   8   2.0000     -18.994328      -516.8619
   9   2.0000     -18.993624      -516.8428
  10   2.0000     -10.103541      -274.9313
  11   2.0000     -10.091309      -274.5985
  12   2.0000     -10.091226      -274.5962
  13   2.0000     -10.089789      -274.5571
  14   2.0000     -10.089279      -274.5432
  15   2.0000     -10.019466      -272.6435
  16   2.0000     -10.018801      -272.6254
  17   2.0000     -10.018536      -272.6182
  18   2.0000     -10.018355      -272.6133
  19   2.0000      -7.875316      -214.2982
  20   2.0000      -7.870822      -214.1760
  21   2.0000      -7.826460      -212.9688
  22   2.0000      -7.823458      -212.8871
  23   2.0000      -6.599067      -179.5698
  24   2.0000      -6.598177      -179.5455
  25   2.0000      -5.822172      -158.4293
  26   2.0000      -5.819162      -158.3474
  27   2.0000      -5.817637      -158.3059
  28   2.0000      -5.814756      -158.2276
  29   2.0000      -5.812505      -158.1663
  30   2.0000      -5.807902      -158.0411
  31   2.0000      -5.774028      -157.1193
  32   2.0000      -5.770916      -157.0346
  33   2.0000      -5.766631      -156.9180
  34   2.0000      -5.766575      -156.9165
  35   2.0000      -5.763728      -156.8390
  36   2.0000      -5.763570      -156.8347
  37   2.0000      -4.744880      -129.1147
  38   2.0000      -4.743887      -129.0877
  39   2.0000      -4.743583      -129.0795
  40   2.0000      -4.743075      -129.0656
  41   2.0000      -4.742666      -129.0545
  42   2.0000      -4.742011      -129.0367
  43   2.0000      -1.054748       -28.7011
  44   2.0000      -1.052544       -28.6412
  45   2.0000      -1.013348       -27.5746
  46   2.0000      -1.012508       -27.5517
  47   2.0000      -0.805118       -21.9084
  48   2.0000      -0.757488       -20.6123
  49   2.0000      -0.745820       -20.2948
  50   2.0000      -0.726544       -19.7703
  51   2.0000      -0.724077       -19.7031
  52   2.0000      -0.710461       -19.3326
  53   2.0000      -0.688830       -18.7440
  54   2.0000      -0.675120       -18.3709
  55   2.0000      -0.628634       -17.1060
  56   2.0000      -0.617687       -16.8081
  57   2.0000      -0.602168       -16.3858
  58   2.0000      -0.595780       -16.2120
  59   2.0000      -0.587000       -15.9731
  60   2.0000      -0.532578       -14.4922
  61   2.0000      -0.520374       -14.1601
  62   2.0000      -0.497845       -13.5470
  63   2.0000      -0.491240       -13.3673
  64   2.0000      -0.477247       -12.9866
  65   2.0000      -0.462999       -12.5988
  66   2.0000      -0.455084       -12.3835
  67   2.0000      -0.446625       -12.1533
  68   2.0000      -0.440723       -11.9927
  69   2.0000      -0.435468       -11.8497
  70   2.0000      -0.421963       -11.4822
  71   2.0000      -0.409162       -11.1339
  72   2.0000      -0.406395       -11.0586
  73   2.0000      -0.395904       -10.7731
  74   2.0000      -0.393044       -10.6953
  75   2.0000      -0.388092       -10.5605
  76   2.0000      -0.379377       -10.3234
  77   2.0000      -0.369586       -10.0570
  78   2.0000      -0.363884        -9.9018
  79   2.0000      -0.363052        -9.8791
  80   2.0000      -0.356977        -9.7138
  81   2.0000      -0.353054        -9.6071
  82   2.0000      -0.349475        -9.5097
  83   2.0000      -0.347497        -9.4559
  84   2.0000      -0.344711        -9.3801
  85   2.0000      -0.331042        -9.0081
  86   2.0000      -0.322382        -8.7725
  87   2.0000      -0.311801        -8.4845
  88   2.0000      -0.308060        -8.3827
  89   2.0000      -0.304619        -8.2891
  90   2.0000      -0.304119        -8.2755
  91   2.0000      -0.292159        -7.9500
  92   2.0000      -0.282154        -7.6778
  93   2.0000      -0.278851        -7.5879
  94   2.0000      -0.275306        -7.4915
  95   2.0000      -0.252041        -6.8584
  96   2.0000      -0.239818        -6.5258
  97   2.0000      -0.235861        -6.4181
  98   2.0000      -0.227296        -6.1850
  99   2.0000      -0.224930        -6.1206
 100   2.0000      -0.220644        -6.0040
 101   0.0000      -0.051707        -1.4070
 102   0.0000      -0.031590        -0.8596
 103   0.0000      -0.005743        -0.1563
 104   0.0000      -0.005175        -0.1408
 105   0.0000       0.013193         0.3590

MULLIKEN ATOMIC CHARGES
-----------------------
   0 C :   -0.482308
   1 C :   -0.158710
   2 O :   -0.308105
   3 P :    0.659416
   4 S :   -0.497894
   5 O :   -0.292747
   6 C :   -0.088266
   7 C :   -0.526646
   8 S :   -0.153514
   9 C :   -0.250261
  10 S :   -0.142459
  11 P :    0.720380
  12 S :   -0.544945
  13 O :   -0.322254
  14 C :   -0.136129
  15 C :   -0.485395
  16 O :   -0.278568
  17 C :   -0.113052
  18 C :   -0.507641
  19 H :    0.168788
  20 H :    0.174348
  21 H :    0.173023
  22 H :    0.179894
  23 H :    0.176523
  24 H :    0.182904
  25 H :    0.176263
  26 H :    0.168355
  27 H :    0.171464
  28 H :    0.170166
  29 H :    0.232709
  30 H :    0.234001
  31 H :    0.172245
  32 H :    0.170403
  33 H :    0.169578
  34 H :    0.166309
  35 H :    0.165957
  36 H :    0.174426
  37 H :    0.169709
  38 H :    0.171148
  39 H :    0.171270
  40 H :    0.169615
Sum of atomic charges:   -0.0000000

LOEWDIN ATOMIC CHARGES
----------------------
   0 C :   -0.411156
   1 C :    0.028857
   2 O :   -0.673740
   3 P :    0.384256
   4 S :   -0.143406
   5 O :   -0.676614
   6 C :    0.022172
   7 C :   -0.394198
   8 S :    0.145006
   9 C :   -0.420313
  10 S :    0.168988
  11 P :    0.373991
  12 S :   -0.176389
  13 O :   -0.673306
  14 C :    0.025892
  15 C :   -0.390175
  16 O :   -0.676601
  17 C :    0.029680
  18 C :   -0.397747
  19 H :    0.163832
  20 H :    0.161959
  21 H :    0.168742
  22 H :    0.182011
  23 H :    0.191599
  24 H :    0.190563
  25 H :    0.184640
  26 H :    0.164256
  27 H :    0.169022
  28 H :    0.164985
  29 H :    0.198250
  30 H :    0.196890
  31 H :    0.180455
  32 H :    0.181868
  33 H :    0.168891
  34 H :    0.162454
  35 H :    0.163122
  36 H :    0.182834
  37 H :    0.183402
  38 H :    0.163897
  39 H :    0.163087
  40 H :    0.168044

  Mayer bond orders larger than 0.100000
B(  0-C ,  1-C ) :   0.9050 B(  0-C , 19-H ) :   0.9644 B(  0-C , 20-H ) :   0.9649
B(  0-C , 21-H ) :   0.9510 B(  1-C ,  2-O ) :   0.8054 B(  1-C , 22-H ) :   0.9673
B(  1-C , 23-H ) :   0.9504 B(  2-O ,  3-P ) :   1.0491 B(  3-P ,  4-S ) :   1.8178
B(  3-P ,  5-O ) :   1.1456 B(  3-P ,  8-S ) :   1.0219 B(  5-O ,  6-C ) :   0.7201
B(  6-C ,  7-C ) :   0.9312 B(  6-C , 24-H ) :   0.9462 B(  6-C , 25-H ) :   0.9522
B(  7-C , 26-H ) :   0.9720 B(  7-C , 27-H ) :   0.9588 B(  7-C , 28-H ) :   0.9695
B(  8-S ,  9-C ) :   0.9044 B(  9-C , 10-S ) :   0.9029 B(  9-C , 29-H ) :   0.8985
B(  9-C , 30-H ) :   0.9017 B( 10-S , 11-P ) :   1.1047 B( 11-P , 12-S ) :   1.6965
B( 11-P , 13-O ) :   1.0947 B( 11-P , 16-O ) :   1.1753 B( 13-O , 14-C ) :   0.7639
B( 14-C , 15-C ) :   0.9545 B( 14-C , 31-H ) :   0.9378 B( 14-C , 32-H ) :   0.9499
B( 15-C , 33-H ) :   0.9590 B( 15-C , 34-H ) :   0.9692 B( 15-C , 35-H ) :   0.9689
B( 16-O , 17-C ) :   0.7516 B( 17-C , 18-C ) :   0.9482 B( 17-C , 36-H ) :   0.9397
B( 17-C , 37-H ) :   0.9531 B( 18-C , 38-H ) :   0.9682 B( 18-C , 39-H ) :   0.9666
B( 18-C , 40-H ) :   0.9580

Dispersion correction           -0.021120469
FINAL SINGLE POINT ENERGY     -2932.473071831187

DIPOLE MOMENT
-------------

Method             : SCF
Type of density    : Electron Density
Multiplicity       :   1
Irrep              :   0
Energy             : -2932.4984608610666328 Eh
Relativity type    :
Basis              : AO
                                X                 Y                 Z
Electronic contribution:      4.114736340      14.379466610      -7.742078577
Nuclear contribution   :     -4.725835901     -16.444480916       8.603738281
                        -----------------------------------------
Total Dipole Moment    :     -0.611099561      -2.065014306       0.861659704
                        -----------------------------------------
Magnitude (a.u.)       :      2.319522409
Magnitude (Debye)      :      5.895757419

Rotational constants in cm-1:             0.012795             0.004607             0.004408
Rotational constants in MHz :           383.574926           138.117223           132.148105

                             ****ORCA TERMINATED NORMALLY****
TOTAL RUN TIME: 0 days 0 hours 1 minutes 48 seconds 814 msec
