                         Program Version 6.0.0  -   RELEASE  -
|  1> ! pbe def2-sv(p) def2/J RI DEFGRID1 loosescf d4 GCP(DFT/SV(P)) printgap
|  2> %output
|  3>     printlevel normal
|  4> end
|  5> * xyz 0 1
|  6> C 3.8919163754 3.0081616922 -0.8720147947
|  7> C 2.6562673326 2.1910409694 -0.5555852527
|  8> O 3.0832977545 0.9543031593 0.0479000667
|  9> P 2.0645758476 0.0456005625 0.8645050929
| 10> S 1.0578908246 0.9899050703 2.2480565444
| 11> O 2.997540195 -1.0576932898 1.4875640518
| 12> C 4.0325155706 -1.7694199444 0.7562229749
| 13> C 3.5914819998 -3.184778002 0.440128744
| 14> S 1.0235629797 -0.8999749692 -0.7496154286
| 15> C -0.0553048904 -2.0130577593 0.1834323349
| 16> S -1.3839063717 -1.1719025141 1.1018017325
| 17> P -2.0923907135 0.0241121193 -0.4860154482
| 18> S -2.1881335935 -0.8499218915 -2.243217555
| 19> O -1.1367891451 1.2805306279 -0.316602334
| 20> C -1.4358100029 2.6087061377 -0.7957837925
| 21> C -1.3471804161 2.7005087329 -2.3055990432
| 22> O -3.4781851917 0.6105949503 0.0230486561
| 23> C -4.7284295481 -0.0541136601 -0.2339261002
| 24> C -4.8655357292 -1.3307886435 0.5692447529
| 25> H 4.4440166631 3.2140500135 0.0405197627
| 26> H 4.5334288884 2.4623487235 -1.5573859933
| 27> H 3.5915830958 3.9451824784 -1.3292327506
| 28> H 2.0914398628 1.9504228857 -1.4606994049
| 29> H 1.9992645806 2.7106089359 0.1500791013
| 30> H 4.2752543091 -1.2138699108 -0.1503870934
| 31> H 4.8886401602 -1.7639628316 1.4323746477
| 32> H 4.4347128079 -3.7301199146 0.028020497
| 33> H 3.2566977502 -3.6827356155 1.34616661
| 34> H 2.7845910182 -3.1848600897 -0.2885086136
| 35> H 0.519337688 -2.5665516805 0.9232165951
| 36> H -0.4967345535 -2.6788361041 -0.5572567116
| 37> H -2.4286207912 2.8912209546 -0.4389149749
| 38> H -0.6815808695 3.2292565328 -0.3073977926
| 39> H -2.1167476395 2.0837995122 -2.7668162003
| 40> H -1.4871694154 3.7324857901 -2.6110435745
| 41> H -0.3766225677 2.3508454273 -2.649551219
| 42> H -5.4806246105 0.6839107404 0.0476661765
| 43> H -4.7923046713 -0.265543165 -1.3062988736
| 44> H -5.8646772849 -1.7331989845 0.437182382
| 45> H -4.1390985146 -2.0655328632 0.2248450636
| 46> H -4.6898810671 -1.1345326248 1.6240747894
| 47> *
| 48>
| 49>                          ****END OF INPUT****

CARTESIAN COORDINATES (ANGSTROEM)
---------------------------------
  C      3.891916    3.008162   -0.872015
  C      2.656267    2.191041   -0.555585
  O      3.083298    0.954303    0.047900
  P      2.064576    0.045601    0.864505
  S      1.057891    0.989905    2.248057
  O      2.997540   -1.057693    1.487564
  C      4.032516   -1.769420    0.756223
  C      3.591482   -3.184778    0.440129
  S      1.023563   -0.899975   -0.749615
  C     -0.055305   -2.013058    0.183432
  S     -1.383906   -1.171903    1.101802
  P     -2.092391    0.024112   -0.486015
  S     -2.188134   -0.849922   -2.243218
  O     -1.136789    1.280531   -0.316602
  C     -1.435810    2.608706   -0.795784
  C     -1.347180    2.700509   -2.305599
  O     -3.478185    0.610595    0.023049
  C     -4.728430   -0.054114   -0.233926
  C     -4.865536   -1.330789    0.569245
  H      4.444017    3.214050    0.040520
  H      4.533429    2.462349   -1.557386
  H      3.591583    3.945182   -1.329233
  H      2.091440    1.950423   -1.460699
  H      1.999265    2.710609    0.150079
  H      4.275254   -1.213870   -0.150387
  H      4.888640   -1.763963    1.432375
  H      4.434713   -3.730120    0.028020
  H      3.256698   -3.682736    1.346167
  H      2.784591   -3.184860   -0.288509
  H      0.519338   -2.566552    0.923217
  H     -0.496735   -2.678836   -0.557257
  H     -2.428621    2.891221   -0.438915
  H     -0.681581    3.229257   -0.307398
  H     -2.116748    2.083800   -2.766816
  H     -1.487169    3.732486   -2.611044
  H     -0.376623    2.350845   -2.649551
  H     -5.480625    0.683911    0.047666
  H     -4.792305   -0.265543   -1.306299
  H     -5.864677   -1.733199    0.437182
  H     -4.139099   -2.065533    0.224845
  H     -4.689881   -1.134533    1.624075

 Total Charge           Charge          ....    0
 Multiplicity           Mult            ....    1
 Number of Electrons    NEL             ....  202
 Basis Dimension        Dim             ....  334

ORBITAL ENERGIES
----------------

  NO   OCC          E(Eh)            E(eV)
   0   2.0000     -88.039432     -2395.6747
   1   2.0000     -88.034938     -2395.5525
   2   2.0000     -87.983073     -2394.1411
   3   2.0000     -87.975516     -2393.9355
   4   2.0000     -76.424245     -2079.6094
   5   2.0000     -76.420737     -2079.5140
   6   2.0000     -18.793688      -511.4022
   7   2.0000     -18.792327      -511.3652
   8   2.0000     -18.791137      -511.3328
   9   2.0000     -18.781470      -511.0698
  10   2.0000      -9.957562      -270.9590
  11   2.0000      -9.957560      -270.9590
  12   2.0000      -9.954602      -270.8785
  13   2.0000      -9.951209      -270.7862
  14   2.0000      -9.949968      -270.7524
  15   2.0000      -9.890024      -269.1212
  16   2.0000      -9.889977      -269.1200
  17   2.0000      -9.882270      -268.9102
  18   2.0000      -9.880677      -268.8669
  19   2.0000      -7.683848      -209.0881
  20   2.0000      -7.680301      -208.9916
  21   2.0000      -7.628107      -207.5713
  22   2.0000      -7.620806      -207.3727
  23   2.0000      -6.421244      -174.7309
  24   2.0000      -6.418343      -174.6520
  25   2.0000      -5.711597      -155.4205
  26   2.0000      -5.708492      -155.3360
  27   2.0000      -5.708333      -155.3316
  28   2.0000      -5.704981      -155.2404
  29   2.0000      -5.700884      -155.1289
  30   2.0000      -5.696842      -155.0189
  31   2.0000      -5.656878      -153.9315
  32   2.0000      -5.649925      -153.7423
  33   2.0000      -5.648884      -153.7139
  34   2.0000      -5.648291      -153.6978
  35   2.0000      -5.641473      -153.5123
  36   2.0000      -5.640692      -153.4910
  37   2.0000      -4.644267      -126.3769
  38   2.0000      -4.642773      -126.3363
  39   2.0000      -4.641617      -126.3048
  40   2.0000      -4.641480      -126.3011
  41   2.0000      -4.640127      -126.2643
  42   2.0000      -4.638214      -126.2122
  43   2.0000      -0.987368       -26.8676
  44   2.0000      -0.984358       -26.7857
  45   2.0000      -0.944891       -25.7118
  46   2.0000      -0.939808       -25.5735
  47   2.0000      -0.761263       -20.7150
  48   2.0000      -0.719993       -19.5920
  49   2.0000      -0.708684       -19.2843
  50   2.0000      -0.693801       -18.8793
  51   2.0000      -0.685711       -18.6591
  52   2.0000      -0.670602       -18.2480
  53   2.0000      -0.646787       -17.6000
  54   2.0000      -0.635068       -17.2811
  55   2.0000      -0.593617       -16.1531
  56   2.0000      -0.583410       -15.8754
  57   2.0000      -0.575969       -15.6729
  58   2.0000      -0.574570       -15.6349
  59   2.0000      -0.561332       -15.2746
  60   2.0000      -0.510039       -13.8789
  61   2.0000      -0.494953       -13.4684
  62   2.0000      -0.479980       -13.0609
  63   2.0000      -0.468357       -12.7446
  64   2.0000      -0.459041       -12.4911
  65   2.0000      -0.444837       -12.1046
  66   2.0000      -0.437509       -11.9052
  67   2.0000      -0.436780       -11.8854
  68   2.0000      -0.428681       -11.6650
  69   2.0000      -0.413575       -11.2539
  70   2.0000      -0.407709       -11.0943
  71   2.0000      -0.403181       -10.9711
  72   2.0000      -0.387569       -10.5463
  73   2.0000      -0.383154       -10.4262
  74   2.0000      -0.374534       -10.1916
  75   2.0000      -0.371300       -10.1036
  76   2.0000      -0.366765        -9.9802
  77   2.0000      -0.358679        -9.7602
  78   2.0000      -0.354726        -9.6526
  79   2.0000      -0.353381        -9.6160
  80   2.0000      -0.350544        -9.5388
  81   2.0000      -0.345624        -9.4049
  82   2.0000      -0.340164        -9.2563
  83   2.0000      -0.339487        -9.2379
  84   2.0000      -0.332790        -9.0557
  85   2.0000      -0.317925        -8.6512
  86   2.0000      -0.311248        -8.4695
  87   2.0000      -0.303621        -8.2619
  88   2.0000      -0.296466        -8.0673
  89   2.0000      -0.293958        -7.9990
  90   2.0000      -0.285326        -7.7641
  91   2.0000      -0.272627        -7.4186
  92   2.0000      -0.270438        -7.3590
  93   2.0000      -0.258549        -7.0355
  94   2.0000      -0.256975        -6.9926
  95   2.0000      -0.237665        -6.4672
  96   2.0000      -0.213369        -5.8061
  97   2.0000      -0.204686        -5.5698
  98   2.0000      -0.197189        -5.3658
  99   2.0000      -0.191568        -5.2128
 100   2.0000      -0.180083        -4.9003
 101   0.0000      -0.044927        -1.2225
 102   0.0000      -0.024945        -0.6788
 103   0.0000       0.000167         0.0045
 104   0.0000       0.002142         0.0583
 105   0.0000       0.017529         0.4770

MULLIKEN ATOMIC CHARGES
-----------------------
   0 C :   -0.275167
   1 C :   -0.037658
   2 O :   -0.388671
   3 P :    0.601568
   4 S :   -0.295509
   5 O :   -0.363307
   6 C :   -0.008764
   7 C :   -0.302673
   8 S :   -0.107060
   9 C :   -0.346000
  10 S :   -0.061245
  11 P :    0.630572
  12 S :   -0.342313
  13 O :   -0.357099
  14 C :   -0.007395
  15 C :   -0.316140
  16 O :   -0.378214
  17 C :   -0.005084
  18 C :   -0.314788
  19 H :    0.121528
  20 H :    0.114254
  21 H :    0.110688
  22 H :    0.116948
  23 H :    0.114662
  24 H :    0.109996
  25 H :    0.111901
  26 H :    0.112578
  27 H :    0.120906
  28 H :    0.124737
  29 H :    0.181773
  30 H :    0.191075
  31 H :    0.107720
  32 H :    0.108372
  33 H :    0.126325
  34 H :    0.105792
  35 H :    0.123063
  36 H :    0.103702
  37 H :    0.111048
  38 H :    0.112549
  39 H :    0.125607
  40 H :    0.119723
Sum of atomic charges:   -0.0000000

LOEWDIN ATOMIC CHARGES
----------------------
   0 C :   -0.349892
   1 C :   -0.121676
   2 O :   -0.253388
   3 P :    0.557740
   4 S :   -0.301683
   5 O :   -0.241283
   6 C :   -0.110966
   7 C :   -0.362834
   8 S :    0.076641
   9 C :   -0.474624
  10 S :    0.098795
  11 P :    0.572864
  12 S :   -0.332799
  13 O :   -0.239106
  14 C :   -0.110570
  15 C :   -0.366491
  16 O :   -0.243028
  17 C :   -0.120868
  18 C :   -0.369019
  19 H :    0.129831
  20 H :    0.125804
  21 H :    0.130508
  22 H :    0.109931
  23 H :    0.108760
  24 H :    0.112186
  25 H :    0.122617
  26 H :    0.131583
  27 H :    0.127492
  28 H :    0.120308
  29 H :    0.131457
  30 H :    0.133646
  31 H :    0.112142
  32 H :    0.116790
  33 H :    0.122570
  34 H :    0.126860
  35 H :    0.124957
  36 H :    0.117646
  37 H :    0.109534
  38 H :    0.130986
  39 H :    0.120857
  40 H :    0.125720

  Mayer bond orders larger than 0.100000
B(  0-C ,  1-C ) :   1.1568 B(  0-C , 19-H ) :   0.9501 B(  0-C , 20-H ) :   0.9508
B(  0-C , 21-H ) :   0.9417 B(  1-C ,  2-O ) :   0.9073 B(  1-C , 22-H ) :   0.9248
B(  1-C , 23-H ) :   0.9047 B(  2-O ,  3-P ) :   1.0705 B(  3-P ,  4-S ) :   1.6999
B(  3-P ,  5-O ) :   1.1262 B(  3-P ,  8-S ) :   0.9295 B(  4-S ,  8-S ) :   0.1174
B(  5-O ,  6-C ) :   0.8941 B(  6-C ,  7-C ) :   1.1671 B(  6-C , 24-H ) :   0.9176
B(  6-C , 25-H ) :   0.9350 B(  7-C , 26-H ) :   0.9390 B(  7-C , 27-H ) :   0.9443
B(  7-C , 28-H ) :   0.9334 B(  8-S ,  9-C ) :   1.0012 B(  9-C , 10-S ) :   1.0023
B(  9-C , 29-H ) :   0.8995 B(  9-C , 30-H ) :   0.8954 B( 10-S , 11-P ) :   0.9680
B( 10-S , 12-S ) :   0.1171 B( 11-P , 12-S ) :   1.5905 B( 11-P , 13-O ) :   1.1179
B( 11-P , 16-O ) :   1.0950 B( 13-O , 14-C ) :   0.9163 B( 14-C , 15-C ) :   1.1611
B( 14-C , 31-H ) :   0.9277 B( 14-C , 32-H ) :   0.9285 B( 15-C , 33-H ) :   0.9339
B( 15-C , 34-H ) :   0.9374 B( 15-C , 35-H ) :   0.9443 B( 16-O , 17-C ) :   0.9064
B( 17-C , 18-C ) :   1.1663 B( 17-C , 36-H ) :   0.9328 B( 17-C , 37-H ) :   0.9124
B( 18-C , 38-H ) :   0.9380 B( 18-C , 39-H ) :   0.9344 B( 18-C , 40-H ) :   0.9453

Dispersion correction           -0.065998272
FINAL SINGLE POINT ENERGY     -2929.513215978680

DIPOLE MOMENT
-------------

Method             : SCF
Type of density    : Electron Density
Multiplicity       :   1
Irrep              :   0
Energy             : -2929.6307455586161268 Eh
Relativity type    :
Basis              : AO
                                X                 Y                 Z
Electronic contribution:     -3.711479289      -4.790057665       8.358247213
Nuclear contribution   :      4.090924157       4.930866542      -8.932547783
                        -----------------------------------------
Total Dipole Moment    :      0.379444868       0.140808877      -0.574300571
                        -----------------------------------------
Magnitude (a.u.)       :      0.702585720
Magnitude (Debye)      :      1.785830977

Rotational constants in cm-1:             0.011801             0.005456             0.004697
Rotational constants in MHz :           353.793678           163.557713           140.825535

                             ****ORCA TERMINATED NORMALLY****
TOTAL RUN TIME: 0 days 0 hours 0 minutes 21 seconds 303 msec
