                         Program Version 6.0.1  -  RELEASE   -
|  1> ! r2scan-3c def2/J RI DEFGRID2 scfconv6 printgap
|  2> %output
|  3>     printlevel normal
|  4> end
|  5> * xyz 0 1
|  6> C 4.9335561399 -3.3797347178 -1.3608551301
|  7> C 3.9211504245 -2.6703272449 -0.4839672511
|  8> O 3.134747786 -1.8031038811 -1.3261078267
|  9> C 2.2990832505 -0.9721542418 -0.7521771682
| 10> O 2.1360831322 -0.8825818203 0.4494231618
| 11> C 1.5633990082 -0.1097988246 -1.7553094674
| 12> C 0.3177120418 0.4685749145 -1.101087992
| 13> H -0.1408745466 1.2376395544 -1.7296313361
| 14> C 0.6286192218 1.0897497999 0.2492895564
| 15> O -0.0599440804 0.8857877122 1.2308777822
| 16> O 1.6209689794 1.9363752136 0.1795606716
| 17> C 2.011365708 2.6381422771 1.3792222106
| 18> C 3.1301162927 1.8939082422 2.0886179695
| 19> S -0.9248264022 -0.8405226357 -0.8251937495
| 20> P -2.3624258368 0.277852606 0.2625018719
| 21> S -2.4768207626 2.1982025357 -0.1008419272
| 22> O -3.6944990009 -0.493100807 -0.221338815
| 23> C -4.1827016146 -0.375526049 -1.559754828
| 24> O -2.433431827 -0.1278603246 1.7893385347
| 25> C -2.1536567689 -1.4611820483 2.2504651764
| 26> H 5.5842953865 -2.6556077552 -1.8413898292
| 27> H 5.5309453297 -4.0480899049 -0.7498932442
| 28> H 4.4222833544 -3.9544352632 -2.1268192028
| 29> H 4.4019313491 -2.0616983819 0.2879874273
| 30> H 3.2432494249 -3.3755602913 0.0061761221
| 31> H 1.3094157502 -0.7022625759 -2.6332631744
| 32> H 2.2263669418 0.7044368476 -2.0558224697
| 33> H 2.3371875481 3.6178193306 1.028255531
| 34> H 1.1327565271 2.7377610907 2.0227203247
| 35> H 4.0093823034 1.8425917252 1.4528252144
| 36> H 3.3796796581 2.4116909182 3.0086360271
| 37> H 2.8070350829 0.881522358 2.3229348811
| 38> H -4.2088960243 0.6747858177 -1.8556642427
| 39> H -5.1871648636 -0.7904840183 -1.5429766029
| 40> H -3.5425684223 -0.9389422784 -2.2386482232
| 41> H -1.083503836 -1.6545636799 2.1668749477
| 42> H -2.7194086403 -2.1892122117 1.6705153797
| 43> H -2.4615706124 -1.4705683487 3.2927692748
| 44> *
| 45>
| 46>                          ****END OF INPUT****

CARTESIAN COORDINATES (ANGSTROEM)
---------------------------------
  C      4.933556   -3.379735   -1.360855
  C      3.921150   -2.670327   -0.483967
  O      3.134748   -1.803104   -1.326108
  C      2.299083   -0.972154   -0.752177
  O      2.136083   -0.882582    0.449423
  C      1.563399   -0.109799   -1.755309
  C      0.317712    0.468575   -1.101088
  H     -0.140875    1.237640   -1.729631
  C      0.628619    1.089750    0.249290
  O     -0.059944    0.885788    1.230878
  O      1.620969    1.936375    0.179561
  C      2.011366    2.638142    1.379222
  C      3.130116    1.893908    2.088618
  S     -0.924826   -0.840523   -0.825194
  P     -2.362426    0.277853    0.262502
  S     -2.476821    2.198203   -0.100842
  O     -3.694499   -0.493101   -0.221339
  C     -4.182702   -0.375526   -1.559755
  O     -2.433432   -0.127860    1.789339
  C     -2.153657   -1.461182    2.250465
  H      5.584295   -2.655608   -1.841390
  H      5.530945   -4.048090   -0.749893
  H      4.422283   -3.954435   -2.126819
  H      4.401931   -2.061698    0.287987
  H      3.243249   -3.375560    0.006176
  H      1.309416   -0.702263   -2.633263
  H      2.226367    0.704437   -2.055822
  H      2.337188    3.617819    1.028256
  H      1.132757    2.737761    2.022720
  H      4.009382    1.842592    1.452825
  H      3.379680    2.411691    3.008636
  H      2.807035    0.881522    2.322935
  H     -4.208896    0.674786   -1.855664
  H     -5.187165   -0.790484   -1.542977
  H     -3.542568   -0.938942   -2.238648
  H     -1.083504   -1.654564    2.166875
  H     -2.719409   -2.189212    1.670515
  H     -2.461571   -1.470568    3.292769

 Total Charge           Charge          ....    0
 Multiplicity           Mult            ....    1
 Number of Electrons    NEL             ....  174
 Basis Dimension        Dim             ....  510

ORBITAL ENERGIES
----------------

  NO   OCC          E(Eh)            E(eV)
   0   2.0000     -88.566806     -2410.0253
   1   2.0000     -88.499326     -2408.1891
   2   2.0000     -76.900531     -2092.5698
   3   2.0000     -19.017329      -517.4878
   4   2.0000     -19.003612      -517.1146
   5   2.0000     -18.973539      -516.2962
   6   2.0000     -18.969723      -516.1924
   7   2.0000     -18.948431      -515.6130
   8   2.0000     -18.928908      -515.0818
   9   2.0000     -10.173112      -276.8244
  10   2.0000     -10.160940      -276.4932
  11   2.0000     -10.106948      -275.0240
  12   2.0000     -10.094375      -274.6819
  13   2.0000     -10.091227      -274.5962
  14   2.0000     -10.081752      -274.3384
  15   2.0000     -10.074863      -274.1510
  16   2.0000     -10.072110      -274.0760
  17   2.0000     -10.043432      -273.2957
  18   2.0000     -10.025991      -272.8211
  19   2.0000      -7.861230      -213.9149
  20   2.0000      -7.794341      -212.0948
  21   2.0000      -6.577918      -178.9943
  22   2.0000      -5.808118      -158.0469
  23   2.0000      -5.805150      -157.9662
  24   2.0000      -5.798258      -157.7786
  25   2.0000      -5.742275      -156.2552
  26   2.0000      -5.734842      -156.0530
  27   2.0000      -5.733787      -156.0243
  28   2.0000      -4.723517      -128.5334
  29   2.0000      -4.723289      -128.5272
  30   2.0000      -4.721353      -128.4746
  31   2.0000      -1.095267       -29.8037
  32   2.0000      -1.080951       -29.4142
  33   2.0000      -1.030835       -28.0504
  34   2.0000      -0.997239       -27.1363
  35   2.0000      -0.988395       -26.8956
  36   2.0000      -0.981631       -26.7115
  37   2.0000      -0.812478       -22.1087
  38   2.0000      -0.766248       -20.8507
  39   2.0000      -0.743628       -20.2352
  40   2.0000      -0.725059       -19.7299
  41   2.0000      -0.695348       -18.9214
  42   2.0000      -0.658879       -17.9290
  43   2.0000      -0.654944       -17.8219
  44   2.0000      -0.639675       -17.4064
  45   2.0000      -0.629140       -17.1198
  46   2.0000      -0.595259       -16.1978
  47   2.0000      -0.551919       -15.0185
  48   2.0000      -0.530571       -14.4376
  49   2.0000      -0.519382       -14.1331
  50   2.0000      -0.507494       -13.8096
  51   2.0000      -0.490088       -13.3360
  52   2.0000      -0.476208       -12.9583
  53   2.0000      -0.473630       -12.8881
  54   2.0000      -0.461620       -12.5613
  55   2.0000      -0.446501       -12.1499
  56   2.0000      -0.444127       -12.0853
  57   2.0000      -0.441128       -12.0037
  58   2.0000      -0.430962       -11.7271
  59   2.0000      -0.430028       -11.7016
  60   2.0000      -0.416343       -11.3293
  61   2.0000      -0.409476       -11.1424
  62   2.0000      -0.403807       -10.9881
  63   2.0000      -0.401001       -10.9118
  64   2.0000      -0.391396       -10.6504
  65   2.0000      -0.383365       -10.4319
  66   2.0000      -0.381596       -10.3838
  67   2.0000      -0.373705       -10.1690
  68   2.0000      -0.368555       -10.0289
  69   2.0000      -0.351140        -9.5550
  70   2.0000      -0.347042        -9.4435
  71   2.0000      -0.343016        -9.3339
  72   2.0000      -0.338754        -9.2180
  73   2.0000      -0.332115        -9.0373
  74   2.0000      -0.320820        -8.7300
  75   2.0000      -0.309986        -8.4351
  76   2.0000      -0.301024        -8.1913
  77   2.0000      -0.298051        -8.1104
  78   2.0000      -0.291987        -7.9454
  79   2.0000      -0.277028        -7.5383
  80   2.0000      -0.271141        -7.3781
  81   2.0000      -0.259986        -7.0746
  82   2.0000      -0.256016        -6.9666
  83   2.0000      -0.242623        -6.6021
  84   2.0000      -0.228526        -6.2185
  85   2.0000      -0.201858        -5.4928
  86   2.0000      -0.192872        -5.2483
  87   0.0000      -0.040672        -1.1067
  88   0.0000      -0.027357        -0.7444
  89   0.0000      -0.014473        -0.3938
  90   0.0000       0.012110         0.3295
  91   0.0000       0.035281         0.9600

MULLIKEN ATOMIC CHARGES
-----------------------
   0 C :   -0.440868
   1 C :   -0.153257
   2 O :   -0.138356
   3 C :    0.355203
   4 O :   -0.375651
   5 C :   -0.412405
   6 C :   -0.020974
   7 H :    0.235950
   8 C :    0.313347
   9 O :   -0.394049
  10 O :   -0.134171
  11 C :   -0.152899
  12 C :   -0.476575
  13 S :   -0.212191
  14 P :    0.802238
  15 S :   -0.467648
  16 O :   -0.368892
  17 C :   -0.302581
  18 O :   -0.296408
  19 C :   -0.301200
  20 H :    0.153739
  21 H :    0.151289
  22 H :    0.154797
  23 H :    0.161455
  24 H :    0.158174
  25 H :    0.188157
  26 H :    0.196589
  27 H :    0.149217
  28 H :    0.186425
  29 H :    0.144538
  30 H :    0.147047
  31 H :    0.188354
  32 H :    0.175189
  33 H :    0.147535
  34 H :    0.151007
  35 H :    0.179035
  36 H :    0.156823
  37 H :    0.152020
Sum of atomic charges:   -0.0000000

LOEWDIN ATOMIC CHARGES
----------------------
   0 C :   -0.383605
   1 C :    0.037973
   2 O :   -0.575214
   3 C :    0.364868
   4 O :   -0.423588
   5 C :   -0.207345
   6 C :   -0.198178
   7 H :    0.205213
   8 C :    0.352174
   9 O :   -0.454798
  10 O :   -0.569456
  11 C :    0.037285
  12 C :   -0.389382
  13 S :    0.208978
  14 P :    0.409486
  15 S :   -0.095524
  16 O :   -0.695550
  17 C :   -0.069966
  18 O :   -0.638770
  19 C :   -0.052963
  20 H :    0.160262
  21 H :    0.161505
  22 H :    0.161005
  23 H :    0.182366
  24 H :    0.180307
  25 H :    0.190041
  26 H :    0.201157
  27 H :    0.178375
  28 H :    0.195963
  29 H :    0.154769
  30 H :    0.158561
  31 H :    0.174252
  32 H :    0.175802
  33 H :    0.174284
  34 H :    0.164876
  35 H :    0.177413
  36 H :    0.168040
  37 H :    0.179386

  Mayer bond orders larger than 0.100000
B(  0-C ,  1-C ) :   0.9470 B(  0-C , 20-H ) :   0.9730 B(  0-C , 21-H ) :   0.9674
B(  0-C , 22-H ) :   0.9703 B(  1-C ,  2-O ) :   0.7787 B(  1-C , 23-H ) :   0.9537
B(  1-C , 24-H ) :   0.9474 B(  2-O ,  3-C ) :   1.1872 B(  3-C ,  4-O ) :   1.7382
B(  3-C ,  5-C ) :   0.9647 B(  4-O ,  8-C ) :   0.1457 B(  5-C ,  6-C ) :   0.8914
B(  5-C , 10-O ) :   0.1233 B(  5-C , 25-H ) :   0.9715 B(  5-C , 26-H ) :   0.9246
B(  6-C ,  7-H ) :   0.9106 B(  6-C ,  8-C ) :   0.8850 B(  6-C , 13-S ) :   0.9369
B(  8-C ,  9-O ) :   1.7640 B(  8-C , 10-O ) :   1.1637 B(  9-O , 14-P ) :   0.1164
B( 10-O , 11-C ) :   0.7841 B( 11-C , 12-C ) :   0.9309 B( 11-C , 27-H ) :   0.9608
B( 11-C , 28-H ) :   0.9719 B( 12-C , 29-H ) :   0.9707 B( 12-C , 30-H ) :   0.9657
B( 12-C , 31-H ) :   0.9675 B( 13-S , 14-P ) :   0.9686 B( 14-P , 15-S ) :   1.7801
B( 14-P , 16-O ) :   1.0012 B( 14-P , 18-O ) :   1.2041 B( 16-O , 17-C ) :   0.8414
B( 17-C , 32-H ) :   0.9586 B( 17-C , 33-H ) :   0.9700 B( 17-C , 34-H ) :   0.9578
B( 18-O , 19-C ) :   0.7965 B( 19-C , 35-H ) :   0.9560 B( 19-C , 36-H ) :   0.9652
B( 19-C , 37-H ) :   0.9656

Dispersion correction           -0.017081440
FINAL SINGLE POINT ENERGY     -1981.445863333105

DIPOLE MOMENT
-------------

Method             : SCF
Type of density    : Electron Density
Multiplicity       :   1
Irrep              :   0
Energy             : -1981.4667310174863815 Eh
Relativity type    :
Basis              : AO
                                X                 Y                 Z
Electronic contribution:    -19.862682201       8.046257627      -0.995929716
Nuclear contribution   :     21.959374263      -9.426129185       0.278951228
                        -----------------------------------------
Total Dipole Moment    :      2.096692062      -1.379871557      -0.716978488
                        -----------------------------------------
Magnitude (a.u.)       :      2.610406342
Magnitude (Debye)      :      6.635125620

Rotational constants in cm-1:             0.014453             0.006288             0.005324
Rotational constants in MHz :           433.285774           188.519085           159.612295

                             ****ORCA TERMINATED NORMALLY****
TOTAL RUN TIME: 0 days 0 hours 1 minutes 23 seconds 549 msec
