                         Program Version 6.0.1  -  RELEASE   -
|  1> ! r2scan-3c def2/J RI DEFGRID2 scfconv6 printgap
|  2> %output
|  3>     printlevel normal
|  4> end
|  5> %cpcm
|  6>     smd true
|  7>     smdsolvent "water"
|  8> end
|  9> * xyz 0 1
| 10> C 4.9335561399 -3.3797347178 -1.3608551301
| 11> C 3.9211504245 -2.6703272449 -0.4839672511
| 12> O 3.134747786 -1.8031038811 -1.3261078267
| 13> C 2.2990832505 -0.9721542418 -0.7521771682
| 14> O 2.1360831322 -0.8825818203 0.4494231618
| 15> C 1.5633990082 -0.1097988246 -1.7553094674
| 16> C 0.3177120418 0.4685749145 -1.101087992
| 17> H -0.1408745466 1.2376395544 -1.7296313361
| 18> C 0.6286192218 1.0897497999 0.2492895564
| 19> O -0.0599440804 0.8857877122 1.2308777822
| 20> O 1.6209689794 1.9363752136 0.1795606716
| 21> C 2.011365708 2.6381422771 1.3792222106
| 22> C 3.1301162927 1.8939082422 2.0886179695
| 23> S -0.9248264022 -0.8405226357 -0.8251937495
| 24> P -2.3624258368 0.277852606 0.2625018719
| 25> S -2.4768207626 2.1982025357 -0.1008419272
| 26> O -3.6944990009 -0.493100807 -0.221338815
| 27> C -4.1827016146 -0.375526049 -1.559754828
| 28> O -2.433431827 -0.1278603246 1.7893385347
| 29> C -2.1536567689 -1.4611820483 2.2504651764
| 30> H 5.5842953865 -2.6556077552 -1.8413898292
| 31> H 5.5309453297 -4.0480899049 -0.7498932442
| 32> H 4.4222833544 -3.9544352632 -2.1268192028
| 33> H 4.4019313491 -2.0616983819 0.2879874273
| 34> H 3.2432494249 -3.3755602913 0.0061761221
| 35> H 1.3094157502 -0.7022625759 -2.6332631744
| 36> H 2.2263669418 0.7044368476 -2.0558224697
| 37> H 2.3371875481 3.6178193306 1.028255531
| 38> H 1.1327565271 2.7377610907 2.0227203247
| 39> H 4.0093823034 1.8425917252 1.4528252144
| 40> H 3.3796796581 2.4116909182 3.0086360271
| 41> H 2.8070350829 0.881522358 2.3229348811
| 42> H -4.2088960243 0.6747858177 -1.8556642427
| 43> H -5.1871648636 -0.7904840183 -1.5429766029
| 44> H -3.5425684223 -0.9389422784 -2.2386482232
| 45> H -1.083503836 -1.6545636799 2.1668749477
| 46> H -2.7194086403 -2.1892122117 1.6705153797
| 47> H -2.4615706124 -1.4705683487 3.2927692748
| 48> *
| 49>
| 50>                          ****END OF INPUT****

CARTESIAN COORDINATES (ANGSTROEM)
---------------------------------
  C      4.933556   -3.379735   -1.360855
  C      3.921150   -2.670327   -0.483967
  O      3.134748   -1.803104   -1.326108
  C      2.299083   -0.972154   -0.752177
  O      2.136083   -0.882582    0.449423
  C      1.563399   -0.109799   -1.755309
  C      0.317712    0.468575   -1.101088
  H     -0.140875    1.237640   -1.729631
  C      0.628619    1.089750    0.249290
  O     -0.059944    0.885788    1.230878
  O      1.620969    1.936375    0.179561
  C      2.011366    2.638142    1.379222
  C      3.130116    1.893908    2.088618
  S     -0.924826   -0.840523   -0.825194
  P     -2.362426    0.277853    0.262502
  S     -2.476821    2.198203   -0.100842
  O     -3.694499   -0.493101   -0.221339
  C     -4.182702   -0.375526   -1.559755
  O     -2.433432   -0.127860    1.789339
  C     -2.153657   -1.461182    2.250465
  H      5.584295   -2.655608   -1.841390
  H      5.530945   -4.048090   -0.749893
  H      4.422283   -3.954435   -2.126819
  H      4.401931   -2.061698    0.287987
  H      3.243249   -3.375560    0.006176
  H      1.309416   -0.702263   -2.633263
  H      2.226367    0.704437   -2.055822
  H      2.337188    3.617819    1.028256
  H      1.132757    2.737761    2.022720
  H      4.009382    1.842592    1.452825
  H      3.379680    2.411691    3.008636
  H      2.807035    0.881522    2.322935
  H     -4.208896    0.674786   -1.855664
  H     -5.187165   -0.790484   -1.542977
  H     -3.542568   -0.938942   -2.238648
  H     -1.083504   -1.654564    2.166875
  H     -2.719409   -2.189212    1.670515
  H     -2.461571   -1.470568    3.292769

 Total Charge           Charge          ....    0
 Multiplicity           Mult            ....    1
 Number of Electrons    NEL             ....  174
 Basis Dimension        Dim             ....  510

ORBITAL ENERGIES
----------------

  NO   OCC          E(Eh)            E(eV)
   0   2.0000     -88.576791     -2410.2970
   1   2.0000     -88.521652     -2408.7966
   2   2.0000     -76.918433     -2093.0570
   3   2.0000     -19.011537      -517.3302
   4   2.0000     -19.011323      -517.3244
   5   2.0000     -18.992228      -516.8048
   6   2.0000     -18.984849      -516.6040
   7   2.0000     -18.952874      -515.7339
   8   2.0000     -18.947032      -515.5749
   9   2.0000     -10.174760      -276.8693
  10   2.0000     -10.173471      -276.8342
  11   2.0000     -10.096560      -274.7414
  12   2.0000     -10.088078      -274.5105
  13   2.0000     -10.087205      -274.4868
  14   2.0000     -10.083755      -274.3929
  15   2.0000     -10.076741      -274.2021
  16   2.0000     -10.061862      -273.7972
  17   2.0000     -10.020135      -272.6617
  18   2.0000     -10.019210      -272.6366
  19   2.0000      -7.871123      -214.1841
  20   2.0000      -7.817032      -212.7123
  21   2.0000      -6.595994      -179.4861
  22   2.0000      -5.818014      -158.3162
  23   2.0000      -5.815061      -158.2359
  24   2.0000      -5.808145      -158.0477
  25   2.0000      -5.764821      -156.8688
  26   2.0000      -5.757545      -156.6708
  27   2.0000      -5.756537      -156.6433
  28   2.0000      -4.741605      -129.0256
  29   2.0000      -4.741238      -129.0156
  30   2.0000      -4.739551      -128.9697
  31   2.0000      -1.093705       -29.7612
  32   2.0000      -1.088521       -29.6202
  33   2.0000      -1.047996       -28.5174
  34   2.0000      -1.004238       -27.3267
  35   2.0000      -0.999909       -27.2089
  36   2.0000      -0.997495       -27.1432
  37   2.0000      -0.813018       -22.1234
  38   2.0000      -0.753359       -20.4999
  39   2.0000      -0.744370       -20.2553
  40   2.0000      -0.728895       -19.8343
  41   2.0000      -0.696937       -18.9646
  42   2.0000      -0.663481       -18.0542
  43   2.0000      -0.659110       -17.9353
  44   2.0000      -0.652261       -17.7489
  45   2.0000      -0.619384       -16.8543
  46   2.0000      -0.591971       -16.1083
  47   2.0000      -0.540663       -14.7122
  48   2.0000      -0.536657       -14.6032
  49   2.0000      -0.524070       -14.2607
  50   2.0000      -0.508319       -13.8321
  51   2.0000      -0.489569       -13.3219
  52   2.0000      -0.487624       -13.2689
  53   2.0000      -0.470459       -12.8018
  54   2.0000      -0.467319       -12.7164
  55   2.0000      -0.455553       -12.3962
  56   2.0000      -0.446746       -12.1566
  57   2.0000      -0.444928       -12.1071
  58   2.0000      -0.437509       -11.9052
  59   2.0000      -0.428402       -11.6574
  60   2.0000      -0.422632       -11.5004
  61   2.0000      -0.411606       -11.2004
  62   2.0000      -0.405535       -11.0352
  63   2.0000      -0.403175       -10.9710
  64   2.0000      -0.388215       -10.5639
  65   2.0000      -0.379319       -10.3218
  66   2.0000      -0.372417       -10.1340
  67   2.0000      -0.365349        -9.9417
  68   2.0000      -0.357874        -9.7382
  69   2.0000      -0.351466        -9.5639
  70   2.0000      -0.350884        -9.5480
  71   2.0000      -0.346758        -9.4358
  72   2.0000      -0.332526        -9.0485
  73   2.0000      -0.326821        -8.8932
  74   2.0000      -0.320834        -8.7303
  75   2.0000      -0.313978        -8.5438
  76   2.0000      -0.309680        -8.4268
  77   2.0000      -0.307839        -8.3767
  78   2.0000      -0.290321        -7.9000
  79   2.0000      -0.287771        -7.8306
  80   2.0000      -0.279972        -7.6184
  81   2.0000      -0.273442        -7.4407
  82   2.0000      -0.263464        -7.1692
  83   2.0000      -0.257814        -7.0155
  84   2.0000      -0.241162        -6.5624
  85   2.0000      -0.223820        -6.0905
  86   2.0000      -0.216627        -5.8947
  87   0.0000      -0.048429        -1.3178
  88   0.0000      -0.032060        -0.8724
  89   0.0000      -0.024959        -0.6792
  90   0.0000       0.003295         0.0897
  91   0.0000       0.020734         0.5642

MULLIKEN ATOMIC CHARGES
-----------------------
   0 C :   -0.491222
   1 C :   -0.154644
   2 O :   -0.144717
   3 C :    0.390939
   4 O :   -0.442138
   5 C :   -0.439431
   6 C :   -0.004804
   7 H :    0.264088
   8 C :    0.297821
   9 O :   -0.448472
  10 O :   -0.146583
  11 C :   -0.136347
  12 C :   -0.512624
  13 S :   -0.204220
  14 P :    0.803276
  15 S :   -0.518698
  16 O :   -0.403770
  17 C :   -0.309283
  18 O :   -0.349064
  19 C :   -0.304995
  20 H :    0.166658
  21 H :    0.171475
  22 H :    0.165805
  23 H :    0.174585
  24 H :    0.177537
  25 H :    0.221140
  26 H :    0.236957
  27 H :    0.177490
  28 H :    0.181811
  29 H :    0.169935
  30 H :    0.171811
  31 H :    0.175615
  32 H :    0.174958
  33 H :    0.175701
  34 H :    0.171227
  35 H :    0.180340
  36 H :    0.180829
  37 H :    0.181016
Sum of atomic charges:   -0.0000000

LOEWDIN ATOMIC CHARGES
----------------------
   0 C :   -0.387513
   1 C :    0.041473
   2 O :   -0.572503
   3 C :    0.374607
   4 O :   -0.470812
   5 C :   -0.196008
   6 C :   -0.189045
   7 H :    0.215649
   8 C :    0.353095
   9 O :   -0.504301
  10 O :   -0.567900
  11 C :    0.042241
  12 C :   -0.391031
  13 S :    0.221655
  14 P :    0.405033
  15 S :   -0.137863
  16 O :   -0.712535
  17 C :   -0.064461
  18 O :   -0.672942
  19 C :   -0.046244
  20 H :    0.163337
  21 H :    0.169382
  22 H :    0.163474
  23 H :    0.187424
  24 H :    0.186727
  25 H :    0.203625
  26 H :    0.216811
  27 H :    0.190849
  28 H :    0.193805
  29 H :    0.162802
  30 H :    0.168232
  31 H :    0.167223
  32 H :    0.175951
  33 H :    0.186252
  34 H :    0.173729
  35 H :    0.179445
  36 H :    0.178891
  37 H :    0.191444

  Mayer bond orders larger than 0.100000
B(  0-C ,  1-C ) :   0.9421 B(  0-C , 20-H ) :   0.9716 B(  0-C , 21-H ) :   0.9617
B(  0-C , 22-H ) :   0.9687 B(  1-C ,  2-O ) :   0.7677 B(  1-C , 23-H ) :   0.9474
B(  1-C , 24-H ) :   0.9398 B(  2-O ,  3-C ) :   1.2055 B(  3-C ,  4-O ) :   1.6875
B(  3-C ,  5-C ) :   0.9480 B(  4-O ,  8-C ) :   0.1456 B(  5-C ,  6-C ) :   0.8837
B(  5-C , 10-O ) :   0.1098 B(  5-C , 25-H ) :   0.9673 B(  5-C , 26-H ) :   0.9199
B(  6-C ,  7-H ) :   0.8922 B(  6-C ,  8-C ) :   0.8833 B(  6-C , 13-S ) :   0.9215
B(  8-C ,  9-O ) :   1.7257 B(  8-C , 10-O ) :   1.1692 B(  9-O , 14-P ) :   0.1177
B( 10-O , 11-C ) :   0.7701 B( 11-C , 12-C ) :   0.9201 B( 11-C , 27-H ) :   0.9495
B( 11-C , 28-H ) :   0.9665 B( 12-C , 29-H ) :   0.9674 B( 12-C , 30-H ) :   0.9590
B( 12-C , 31-H ) :   0.9693 B( 13-S , 14-P ) :   1.0003 B( 14-P , 15-S ) :   1.7754
B( 14-P , 16-O ) :   0.9996 B( 14-P , 18-O ) :   1.1899 B( 16-O , 17-C ) :   0.8335
B( 17-C , 32-H ) :   0.9553 B( 17-C , 33-H ) :   0.9594 B( 17-C , 34-H ) :   0.9507
B( 18-O , 19-C ) :   0.7905 B( 19-C , 35-H ) :   0.9493 B( 19-C , 36-H ) :   0.9545
B( 19-C , 37-H ) :   0.9543

Dispersion correction           -0.017081440
FINAL SINGLE POINT ENERGY     -1981.462909066942

DIPOLE MOMENT
-------------

Method             : SCF
Type of density    : Electron Density
Multiplicity       :   1
Irrep              :   0
Energy             : -1981.4837767513233757 Eh
Relativity type    :
Basis              : AO
                                X                 Y                 Z
Electronic contribution:    -19.208966210       7.640721904      -1.758543676
Nuclear contribution   :     21.959374263      -9.426129185       0.278951228
                        -----------------------------------------
Total Dipole Moment    :      2.750408053      -1.785407281      -1.479592448
                        -----------------------------------------
Magnitude (a.u.)       :      3.597445959
Magnitude (Debye)      :      9.143980945

Rotational constants in cm-1:             0.014453             0.006288             0.005324
Rotational constants in MHz :           433.285774           188.519085           159.612295

                             ****ORCA TERMINATED NORMALLY****
TOTAL RUN TIME: 0 days 0 hours 1 minutes 49 seconds 855 msec
