                         Program Version 6.0.0  -   RELEASE  -
|  1> ! pbe def2-sv(p) def2/J RI DEFGRID1 loosescf d4 GCP(DFT/SV(P)) printgap
|  2> %output
|  3>     printlevel normal
|  4> end
|  5> * xyz 0 1
|  6> C 3.6000725939 1.7852930059 -1.8486462158
|  7> C 2.3434945906 1.0013277474 -2.1592561695
|  8> O 2.2606079414 -0.2176652071 -1.3941521761
|  9> P 2.1602580228 -0.2498547081 0.1837504059
| 10> S 1.0964279993 1.1780766772 1.0224241388
| 11> O 3.6831986963 -0.2513408088 0.6306777123
| 12> C 4.0932240406 0.0124810316 1.9832858006
| 13> C 3.6480987615 -1.0791784198 2.9347363152
| 14> S 1.6019161204 -2.2674952651 0.425628501
| 15> C -0.1191955201 -2.1955018941 -0.129991605
| 16> S -1.2336125866 -1.4065671996 1.0891004768
| 17> P -2.1287609957 0.0263688564 -0.1637521595
| 18> S -1.1881148269 0.5724671315 -1.8009236833
| 19> O -2.6028542626 1.2197671633 0.7661311313
| 20> C -1.9610612269 2.5001063342 0.8958752244
| 21> C -3.0377814942 3.5618400541 0.9923404046
| 22> O -3.4938026737 -0.748037141 -0.390389117
| 23> C -4.5451138915 -0.2180560673 -1.2295668655
| 24> C -4.5038104414 -0.8611635707 -2.6019040062
| 25> H 4.4753031755 1.1517422288 -1.9666301611
| 26> H 3.6694401333 2.6322158106 -2.5240619992
| 27> H 3.5642144645 2.1518932203 -0.8233151807
| 28> H 2.3209927928 0.6559545681 -3.1937499685
| 29> H 1.4477981987 1.5979211397 -1.9590181518
| 30> H 5.180226681 0.0753263298 1.9194751694
| 31> H 3.6795430534 0.9794555588 2.2878106704
| 32> H 2.5613403795 -1.0810330884 3.016340498
| 33> H 3.9711125841 -2.0515468539 2.571561922
| 34> H 4.07417995 -0.8981242841 3.916315856
| 35> H -0.4327944784 -3.2278871003 -0.2565777523
| 36> H -0.1771812773 -1.6412563274 -1.0699084082
| 37> H -1.3395254457 2.4710638662 1.7937994135
| 38> H -1.312072123 2.6631555542 0.0290069661
| 39> H -3.6177434296 3.5962643066 0.0736006447
| 40> H -3.7014535038 3.3391535563 1.8227627531
| 41> H -2.5676211048 4.5260168623 1.1543862061
| 42> H -5.468651222 -0.4611473169 -0.7016385818
| 43> H -4.4395467043 0.8680389753 -1.2990057975
| 44> H -4.5672456145 -1.941465746 -2.5073879123
| 45> H -5.3404193854 -0.5006546286 -3.1918720858
| 46> H -3.5755177658 -0.6067777769 -3.1092868578
| 47> *
| 48>
| 49>                          ****END OF INPUT****

CARTESIAN COORDINATES (ANGSTROEM)
---------------------------------
  C      3.600073    1.785293   -1.848646
  C      2.343495    1.001328   -2.159256
  O      2.260608   -0.217665   -1.394152
  P      2.160258   -0.249855    0.183750
  S      1.096428    1.178077    1.022424
  O      3.683199   -0.251341    0.630678
  C      4.093224    0.012481    1.983286
  C      3.648099   -1.079178    2.934736
  S      1.601916   -2.267495    0.425629
  C     -0.119196   -2.195502   -0.129992
  S     -1.233613   -1.406567    1.089100
  P     -2.128761    0.026369   -0.163752
  S     -1.188115    0.572467   -1.800924
  O     -2.602854    1.219767    0.766131
  C     -1.961061    2.500106    0.895875
  C     -3.037781    3.561840    0.992340
  O     -3.493803   -0.748037   -0.390389
  C     -4.545114   -0.218056   -1.229567
  C     -4.503810   -0.861164   -2.601904
  H      4.475303    1.151742   -1.966630
  H      3.669440    2.632216   -2.524062
  H      3.564214    2.151893   -0.823315
  H      2.320993    0.655955   -3.193750
  H      1.447798    1.597921   -1.959018
  H      5.180227    0.075326    1.919475
  H      3.679543    0.979456    2.287811
  H      2.561340   -1.081033    3.016340
  H      3.971113   -2.051547    2.571562
  H      4.074180   -0.898124    3.916316
  H     -0.432794   -3.227887   -0.256578
  H     -0.177181   -1.641256   -1.069908
  H     -1.339525    2.471064    1.793799
  H     -1.312072    2.663156    0.029007
  H     -3.617743    3.596264    0.073601
  H     -3.701454    3.339154    1.822763
  H     -2.567621    4.526017    1.154386
  H     -5.468651   -0.461147   -0.701639
  H     -4.439547    0.868039   -1.299006
  H     -4.567246   -1.941466   -2.507388
  H     -5.340419   -0.500655   -3.191872
  H     -3.575518   -0.606778   -3.109287

 Total Charge           Charge          ....    0
 Multiplicity           Mult            ....    1
 Number of Electrons    NEL             ....  202
 Basis Dimension        Dim             ....  334

ORBITAL ENERGIES
----------------

  NO   OCC          E(Eh)            E(eV)
   0   2.0000     -88.040361     -2395.7000
   1   2.0000     -88.035031     -2395.5550
   2   2.0000     -87.985867     -2394.2172
   3   2.0000     -87.982623     -2394.1289
   4   2.0000     -76.423529     -2079.5900
   5   2.0000     -76.423026     -2079.5763
   6   2.0000     -18.791145      -511.3331
   7   2.0000     -18.790818      -511.3242
   8   2.0000     -18.785146      -511.1698
   9   2.0000     -18.782552      -511.0992
  10   2.0000      -9.953202      -270.8404
  11   2.0000      -9.951004      -270.7806
  12   2.0000      -9.950508      -270.7671
  13   2.0000      -9.945446      -270.6293
  14   2.0000      -9.942967      -270.5619
  15   2.0000      -9.884390      -268.9679
  16   2.0000      -9.882691      -268.9217
  17   2.0000      -9.879087      -268.8236
  18   2.0000      -9.878597      -268.8103
  19   2.0000      -7.685912      -209.1443
  20   2.0000      -7.680596      -208.9996
  21   2.0000      -7.630611      -207.6395
  22   2.0000      -7.627205      -207.5468
  23   2.0000      -6.420983      -174.7238
  24   2.0000      -6.420686      -174.7157
  25   2.0000      -5.713718      -155.4782
  26   2.0000      -5.710488      -155.3903
  27   2.0000      -5.708623      -155.3395
  28   2.0000      -5.705400      -155.2518
  29   2.0000      -5.702791      -155.1808
  30   2.0000      -5.697021      -155.0238
  31   2.0000      -5.659309      -153.9976
  32   2.0000      -5.655978      -153.9070
  33   2.0000      -5.651713      -153.7909
  34   2.0000      -5.650467      -153.7570
  35   2.0000      -5.647896      -153.6871
  36   2.0000      -5.647491      -153.6760
  37   2.0000      -4.643507      -126.3563
  38   2.0000      -4.643233      -126.3488
  39   2.0000      -4.642745      -126.3355
  40   2.0000      -4.642255      -126.3222
  41   2.0000      -4.641522      -126.3022
  42   2.0000      -4.641362      -126.2979
  43   2.0000      -0.983871       -26.7725
  44   2.0000      -0.982370       -26.7316
  45   2.0000      -0.942887       -25.6573
  46   2.0000      -0.939151       -25.5556
  47   2.0000      -0.759198       -20.6588
  48   2.0000      -0.720598       -19.6085
  49   2.0000      -0.705155       -19.1883
  50   2.0000      -0.685375       -18.6500
  51   2.0000      -0.683895       -18.6097
  52   2.0000      -0.669137       -18.2082
  53   2.0000      -0.650632       -17.7046
  54   2.0000      -0.633837       -17.2476
  55   2.0000      -0.599799       -16.3214
  56   2.0000      -0.586648       -15.9635
  57   2.0000      -0.570051       -15.5119
  58   2.0000      -0.568508       -15.4699
  59   2.0000      -0.555737       -15.1224
  60   2.0000      -0.503816       -13.7095
  61   2.0000      -0.488002       -13.2792
  62   2.0000      -0.473805       -12.8929
  63   2.0000      -0.469510       -12.7760
  64   2.0000      -0.449636       -12.2352
  65   2.0000      -0.444489       -12.0952
  66   2.0000      -0.436688       -11.8829
  67   2.0000      -0.429660       -11.6916
  68   2.0000      -0.425696       -11.5838
  69   2.0000      -0.415405       -11.3038
  70   2.0000      -0.408855       -11.1255
  71   2.0000      -0.391852       -10.6628
  72   2.0000      -0.385806       -10.4983
  73   2.0000      -0.382138       -10.3985
  74   2.0000      -0.378981       -10.3126
  75   2.0000      -0.374339       -10.1863
  76   2.0000      -0.372340       -10.1319
  77   2.0000      -0.353163        -9.6101
  78   2.0000      -0.350160        -9.5283
  79   2.0000      -0.347930        -9.4676
  80   2.0000      -0.344801        -9.3825
  81   2.0000      -0.340564        -9.2672
  82   2.0000      -0.337877        -9.1941
  83   2.0000      -0.334884        -9.1126
  84   2.0000      -0.331421        -9.0184
  85   2.0000      -0.311426        -8.4743
  86   2.0000      -0.305399        -8.3103
  87   2.0000      -0.293605        -7.9894
  88   2.0000      -0.291536        -7.9331
  89   2.0000      -0.285551        -7.7702
  90   2.0000      -0.278843        -7.5877
  91   2.0000      -0.272755        -7.4221
  92   2.0000      -0.268627        -7.3097
  93   2.0000      -0.260625        -7.0920
  94   2.0000      -0.259989        -7.0747
  95   2.0000      -0.239279        -6.5111
  96   2.0000      -0.222652        -6.0587
  97   2.0000      -0.209402        -5.6981
  98   2.0000      -0.202624        -5.5137
  99   2.0000      -0.189425        -5.1545
 100   2.0000      -0.185825        -5.0566
 101   0.0000      -0.038177        -1.0388
 102   0.0000      -0.030087        -0.8187
 103   0.0000      -0.008831        -0.2403
 104   0.0000       0.006067         0.1651
 105   0.0000       0.024186         0.6581

MULLIKEN ATOMIC CHARGES
-----------------------
   0 C :   -0.307714
   1 C :   -0.007812
   2 O :   -0.366153
   3 P :    0.625242
   4 S :   -0.343583
   5 O :   -0.371914
   6 C :   -0.002477
   7 C :   -0.322194
   8 S :   -0.085274
   9 C :   -0.357071
  10 S :   -0.067119
  11 P :    0.628198
  12 S :   -0.337491
  13 O :   -0.379686
  14 C :   -0.027866
  15 C :   -0.277119
  16 O :   -0.367936
  17 C :   -0.004733
  18 C :   -0.289304
  19 H :    0.115251
  20 H :    0.110010
  21 H :    0.119907
  22 H :    0.103164
  23 H :    0.126665
  24 H :    0.104934
  25 H :    0.109693
  26 H :    0.132254
  27 H :    0.119756
  28 H :    0.113615
  29 H :    0.184919
  30 H :    0.197513
  31 H :    0.117819
  32 H :    0.118641
  33 H :    0.113268
  34 H :    0.115215
  35 H :    0.111573
  36 H :    0.106463
  37 H :    0.098767
  38 H :    0.112430
  39 H :    0.105452
  40 H :    0.124697
Sum of atomic charges:   -0.0000000

LOEWDIN ATOMIC CHARGES
----------------------
   0 C :   -0.366741
   1 C :   -0.118572
   2 O :   -0.237276
   3 P :    0.574286
   4 S :   -0.319730
   5 O :   -0.241793
   6 C :   -0.119993
   7 C :   -0.371222
   8 S :    0.092563
   9 C :   -0.477666
  10 S :    0.088783
  11 P :    0.572221
  12 S :   -0.308513
  13 O :   -0.241192
  14 C :   -0.122440
  15 C :   -0.352373
  16 O :   -0.249147
  17 C :   -0.113467
  18 C :   -0.361791
  19 H :    0.125265
  20 H :    0.129569
  21 H :    0.120726
  22 H :    0.119078
  23 H :    0.108752
  24 H :    0.118596
  25 H :    0.109700
  26 H :    0.123345
  27 H :    0.124358
  28 H :    0.131533
  29 H :    0.137831
  30 H :    0.123504
  31 H :    0.112505
  32 H :    0.106559
  33 H :    0.123599
  34 H :    0.125980
  35 H :    0.130958
  36 H :    0.118677
  37 H :    0.106728
  38 H :    0.125573
  39 H :    0.127300
  40 H :    0.123928

  Mayer bond orders larger than 0.100000
B(  0-C ,  1-C ) :   1.1625 B(  0-C , 19-H ) :   0.9447 B(  0-C , 20-H ) :   0.9387
B(  0-C , 21-H ) :   0.9357 B(  1-C ,  2-O ) :   0.8996 B(  1-C , 22-H ) :   0.9363
B(  1-C , 23-H ) :   0.9099 B(  2-O ,  3-P ) :   1.1346 B(  3-P ,  4-S ) :   1.5958
B(  3-P ,  5-O ) :   1.1052 B(  3-P ,  8-S ) :   0.9670 B(  4-S ,  8-S ) :   0.1170
B(  5-O ,  6-C ) :   0.9071 B(  6-C ,  7-C ) :   1.1664 B(  6-C , 24-H ) :   0.9332
B(  6-C , 25-H ) :   0.9140 B(  7-C , 26-H ) :   0.9335 B(  7-C , 27-H ) :   0.9437
B(  7-C , 28-H ) :   0.9377 B(  8-S ,  9-C ) :   0.9986 B(  9-C , 10-S ) :   0.9964
B(  9-C , 29-H ) :   0.9117 B(  9-C , 30-H ) :   0.8548 B( 10-S , 11-P ) :   0.9722
B( 10-S , 12-S ) :   0.1168 B( 11-P , 12-S ) :   1.5729 B( 11-P , 13-O ) :   1.1248
B( 11-P , 16-O ) :   1.1262 B( 13-O , 14-C ) :   0.8969 B( 14-C , 15-C ) :   1.1528
B( 14-C , 31-H ) :   0.9274 B( 14-C , 32-H ) :   0.9071 B( 15-C , 33-H ) :   0.9490
B( 15-C , 34-H ) :   0.9498 B( 15-C , 35-H ) :   0.9421 B( 16-O , 17-C ) :   0.8980
B( 17-C , 18-C ) :   1.1684 B( 17-C , 36-H ) :   0.9354 B( 17-C , 37-H ) :   0.9149
B( 18-C , 38-H ) :   0.9474 B( 18-C , 39-H ) :   0.9409 B( 18-C , 40-H ) :   0.9342

Dispersion correction           -0.066024671
FINAL SINGLE POINT ENERGY     -2929.518679764769

DIPOLE MOMENT
-------------

Method             : SCF
Type of density    : Electron Density
Multiplicity       :   1
Irrep              :   0
Energy             : -2929.6366942013787593 Eh
Relativity type    :
Basis              : AO
                                X                 Y                 Z
Electronic contribution:      1.486589474     -13.269456236       3.778387571
Nuclear contribution   :     -1.535380012      13.669676902      -3.813927218
                        -----------------------------------------
Total Dipole Moment    :     -0.048790538       0.400220666      -0.035539647
                        -----------------------------------------
Magnitude (a.u.)       :      0.404747038
Magnitude (Debye)      :      1.028785212

Rotational constants in cm-1:             0.012088             0.005053             0.004855
Rotational constants in MHz :           362.383787           151.471815           145.557939

                             ****ORCA TERMINATED NORMALLY****
TOTAL RUN TIME: 0 days 0 hours 0 minutes 21 seconds 139 msec
