                         Program Version 6.0.0  -   RELEASE  -
|  1> ! pbe def2-sv(p) def2/J RI DEFGRID1 loosescf d4 GCP(DFT/SV(P)) printgap
|  2> %output
|  3>     printlevel normal
|  4> end
|  5> * xyz 0 1
|  6> C 1.8676779257 -2.9244964614 0.5931603599
|  7> C 1.8930916616 -1.7191245316 1.5101197087
|  8> O 2.8815427871 -0.7463993705 1.1277505592
|  9> P 2.8410128331 0.1449387767 -0.1907640293
| 10> S 3.1570549267 -0.7312582828 -1.9103569701
| 11> O 3.9620223264 1.2064192618 0.0959219305
| 12> C 3.9920610023 2.0514256179 1.2750218951
| 13> C 4.8996313204 1.4626137403 2.3353391243
| 14> S 1.0005383783 1.2502353182 -0.0363042742
| 15> C 0.0921167559 0.4431569269 -1.3752205768
| 16> S -0.9707855216 -0.889658657 -0.7815910173
| 17> P -2.623481754 0.3466325788 -0.2315943928
| 18> S -3.0088790365 1.7871183736 -1.502829725
| 19> O -2.3702870792 0.9281771304 1.2040514323
| 20> C -1.7696624804 0.2786586795 2.3534491799
| 21> C -2.2837067437 -1.1240763309 2.589534821
| 22> O -3.7999741933 -0.6931597442 -0.0131293079
| 23> C -4.4405255321 -1.3410110018 -1.1304525318
| 24> C -5.7710845776 -1.8851895801 -0.6516198059
| 25> H 1.5059978072 -2.6461131212 -0.3951059123
| 26> H 2.8657876098 -3.3425715738 0.4917135385
| 27> H 1.2031847829 -3.6748070767 1.008840391
| 28> H 2.1876763281 -1.9981227044 2.5233165334
| 29> H 0.9125381327 -1.2348733761 1.5303984731
| 30> H 4.3722613863 3.0081609791 0.912572686
| 31> H 2.9715619237 2.1799255779 1.6455204876
| 32> H 4.9502340033 2.145738569 3.177446596
| 33> H 4.5172001947 0.5030189125 2.6713471266
| 34> H 5.8972643774 1.3183272833 1.929931342
| 35> H 0.8089722678 0.0115241695 -2.0779417497
| 36> H -0.5319545669 1.1988771181 -1.8558257595
| 37> H -0.6864066671 0.29130215 2.2052271117
| 38> H -2.0288571821 0.9469475828 3.1761601266
| 39> H -2.0096332166 -1.7762130005 1.7623581676
| 40> H -1.8462911091 -1.5100981309 3.5052740677
| 41> H -3.3661713266 -1.1145736201 2.6848317352
| 42> H -4.5724460373 -0.6072600251 -1.9329763795
| 43> H -3.7837878928 -2.1410438763 -1.4822613164
| 44> H -6.269810592 -2.3822570626 -1.4771092199
| 45> H -5.614172167 -2.5955400669 0.1545218871
| 46> H -6.3974015692 -1.0739503591 -0.2912163427
| 47> *
| 48>
| 49>                          ****END OF INPUT****

CARTESIAN COORDINATES (ANGSTROEM)
---------------------------------
  C      1.867678   -2.924496    0.593160
  C      1.893092   -1.719125    1.510120
  O      2.881543   -0.746399    1.127751
  P      2.841013    0.144939   -0.190764
  S      3.157055   -0.731258   -1.910357
  O      3.962022    1.206419    0.095922
  C      3.992061    2.051426    1.275022
  C      4.899631    1.462614    2.335339
  S      1.000538    1.250235   -0.036304
  C      0.092117    0.443157   -1.375221
  S     -0.970786   -0.889659   -0.781591
  P     -2.623482    0.346633   -0.231594
  S     -3.008879    1.787118   -1.502830
  O     -2.370287    0.928177    1.204051
  C     -1.769662    0.278659    2.353449
  C     -2.283707   -1.124076    2.589535
  O     -3.799974   -0.693160   -0.013129
  C     -4.440526   -1.341011   -1.130453
  C     -5.771085   -1.885190   -0.651620
  H      1.505998   -2.646113   -0.395106
  H      2.865788   -3.342572    0.491714
  H      1.203185   -3.674807    1.008840
  H      2.187676   -1.998123    2.523317
  H      0.912538   -1.234873    1.530398
  H      4.372261    3.008161    0.912573
  H      2.971562    2.179926    1.645520
  H      4.950234    2.145739    3.177447
  H      4.517200    0.503019    2.671347
  H      5.897264    1.318327    1.929931
  H      0.808972    0.011524   -2.077942
  H     -0.531955    1.198877   -1.855826
  H     -0.686407    0.291302    2.205227
  H     -2.028857    0.946948    3.176160
  H     -2.009633   -1.776213    1.762358
  H     -1.846291   -1.510098    3.505274
  H     -3.366171   -1.114574    2.684832
  H     -4.572446   -0.607260   -1.932976
  H     -3.783788   -2.141044   -1.482261
  H     -6.269811   -2.382257   -1.477109
  H     -5.614172   -2.595540    0.154522
  H     -6.397402   -1.073950   -0.291216

 Total Charge           Charge          ....    0
 Multiplicity           Mult            ....    1
 Number of Electrons    NEL             ....  202
 Basis Dimension        Dim             ....  334

ORBITAL ENERGIES
----------------

  NO   OCC          E(Eh)            E(eV)
   0   2.0000     -88.047521     -2395.8948
   1   2.0000     -88.045235     -2395.8326
   2   2.0000     -87.990014     -2394.3300
   3   2.0000     -87.983697     -2394.1581
   4   2.0000     -76.430737     -2079.7861
   5   2.0000     -76.429648     -2079.7565
   6   2.0000     -18.798843      -511.5425
   7   2.0000     -18.797767      -511.5132
   8   2.0000     -18.796999      -511.4923
   9   2.0000     -18.796983      -511.4919
  10   2.0000      -9.964112      -271.1373
  11   2.0000      -9.963020      -271.1076
  12   2.0000      -9.960720      -271.0450
  13   2.0000      -9.957169      -270.9484
  14   2.0000      -9.950639      -270.7707
  15   2.0000      -9.895798      -269.2784
  16   2.0000      -9.892170      -269.1796
  17   2.0000      -9.891801      -269.1696
  18   2.0000      -9.884861      -268.9807
  19   2.0000      -7.692088      -209.3123
  20   2.0000      -7.689825      -209.2508
  21   2.0000      -7.635223      -207.7650
  22   2.0000      -7.629009      -207.5959
  23   2.0000      -6.428213      -174.9206
  24   2.0000      -6.427162      -174.8920
  25   2.0000      -5.719637      -155.6392
  26   2.0000      -5.717562      -155.5828
  27   2.0000      -5.716653      -155.5580
  28   2.0000      -5.714386      -155.4964
  29   2.0000      -5.709445      -155.3619
  30   2.0000      -5.707009      -155.2956
  31   2.0000      -5.664287      -154.1331
  32   2.0000      -5.658051      -153.9634
  33   2.0000      -5.655955      -153.9064
  34   2.0000      -5.655067      -153.8822
  35   2.0000      -5.649606      -153.7336
  36   2.0000      -5.649012      -153.7174
  37   2.0000      -4.650956      -126.5589
  38   2.0000      -4.650093      -126.5355
  39   2.0000      -4.650006      -126.5331
  40   2.0000      -4.649082      -126.5079
  41   2.0000      -4.648405      -126.4895
  42   2.0000      -4.647194      -126.4566
  43   2.0000      -0.993783       -27.0422
  44   2.0000      -0.992911       -27.0185
  45   2.0000      -0.951901       -25.9025
  46   2.0000      -0.950366       -25.8608
  47   2.0000      -0.765046       -20.8180
  48   2.0000      -0.727654       -19.8005
  49   2.0000      -0.719022       -19.5656
  50   2.0000      -0.699002       -19.0208
  51   2.0000      -0.695487       -18.9252
  52   2.0000      -0.679672       -18.4948
  53   2.0000      -0.652900       -17.7663
  54   2.0000      -0.640015       -17.4157
  55   2.0000      -0.600730       -16.3467
  56   2.0000      -0.594268       -16.1709
  57   2.0000      -0.580967       -15.8089
  58   2.0000      -0.574896       -15.6437
  59   2.0000      -0.569105       -15.4861
  60   2.0000      -0.513044       -13.9606
  61   2.0000      -0.503326       -13.6962
  62   2.0000      -0.483901       -13.1676
  63   2.0000      -0.481447       -13.1009
  64   2.0000      -0.462803       -12.5935
  65   2.0000      -0.452699       -12.3186
  66   2.0000      -0.445608       -12.1256
  67   2.0000      -0.441878       -12.0241
  68   2.0000      -0.433451       -11.7948
  69   2.0000      -0.425505       -11.5786
  70   2.0000      -0.415992       -11.3197
  71   2.0000      -0.410224       -11.1628
  72   2.0000      -0.401113       -10.9148
  73   2.0000      -0.389893       -10.6095
  74   2.0000      -0.380961       -10.3665
  75   2.0000      -0.372362       -10.1325
  76   2.0000      -0.367236        -9.9930
  77   2.0000      -0.363399        -9.8886
  78   2.0000      -0.360930        -9.8214
  79   2.0000      -0.358997        -9.7688
  80   2.0000      -0.355016        -9.6605
  81   2.0000      -0.351606        -9.5677
  82   2.0000      -0.348302        -9.4778
  83   2.0000      -0.341743        -9.2993
  84   2.0000      -0.339074        -9.2267
  85   2.0000      -0.326936        -8.8964
  86   2.0000      -0.317802        -8.6478
  87   2.0000      -0.303841        -8.2679
  88   2.0000      -0.300853        -8.1866
  89   2.0000      -0.296446        -8.0667
  90   2.0000      -0.293659        -7.9909
  91   2.0000      -0.283811        -7.7229
  92   2.0000      -0.281091        -7.6489
  93   2.0000      -0.266953        -7.2642
  94   2.0000      -0.262628        -7.1465
  95   2.0000      -0.242880        -6.6091
  96   2.0000      -0.221549        -6.0286
  97   2.0000      -0.212989        -5.7957
  98   2.0000      -0.203837        -5.5467
  99   2.0000      -0.202212        -5.5025
 100   2.0000      -0.197364        -5.3706
 101   0.0000      -0.049157        -1.3376
 102   0.0000      -0.033530        -0.9124
 103   0.0000      -0.013770        -0.3747
 104   0.0000       0.000259         0.0070
 105   0.0000       0.010450         0.2844

MULLIKEN ATOMIC CHARGES
-----------------------
   0 C :   -0.299206
   1 C :   -0.039595
   2 O :   -0.375494
   3 P :    0.599346
   4 S :   -0.294334
   5 O :   -0.351934
   6 C :   -0.018715
   7 C :   -0.288934
   8 S :   -0.118738
   9 C :   -0.353441
  10 S :   -0.121578
  11 P :    0.599243
  12 S :   -0.308720
  13 O :   -0.355573
  14 C :   -0.010818
  15 C :   -0.319053
  16 O :   -0.378613
  17 C :   -0.013637
  18 C :   -0.281715
  19 H :    0.127037
  20 H :    0.121774
  21 H :    0.107119
  22 H :    0.103694
  23 H :    0.123819
  24 H :    0.117872
  25 H :    0.107882
  26 H :    0.111185
  27 H :    0.122619
  28 H :    0.123741
  29 H :    0.196000
  30 H :    0.197242
  31 H :    0.129958
  32 H :    0.110244
  33 H :    0.122924
  34 H :    0.113647
  35 H :    0.127286
  36 H :    0.110525
  37 H :    0.104252
  38 H :    0.114903
  39 H :    0.114599
  40 H :    0.123183
Sum of atomic charges:    0.0000000

LOEWDIN ATOMIC CHARGES
----------------------
   0 C :   -0.366496
   1 C :   -0.121489
   2 O :   -0.245820
   3 P :    0.568464
   4 S :   -0.286424
   5 O :   -0.232107
   6 C :   -0.110685
   7 C :   -0.358706
   8 S :    0.063394
   9 C :   -0.492094
  10 S :    0.066752
  11 P :    0.569644
  12 S :   -0.310269
  13 O :   -0.231438
  14 C :   -0.111206
  15 C :   -0.370263
  16 O :   -0.244177
  17 C :   -0.120243
  18 C :   -0.350341
  19 H :    0.116357
  20 H :    0.129584
  21 H :    0.128869
  22 H :    0.118141
  23 H :    0.099950
  24 H :    0.125223
  25 H :    0.105314
  26 H :    0.130125
  27 H :    0.126743
  28 H :    0.131141
  29 H :    0.125813
  30 H :    0.128634
  31 H :    0.105714
  32 H :    0.124596
  33 H :    0.115981
  34 H :    0.131453
  35 H :    0.130269
  36 H :    0.111477
  37 H :    0.109798
  38 H :    0.132424
  39 H :    0.125582
  40 H :    0.130315

  Mayer bond orders larger than 0.100000
B(  0-C ,  1-C ) :   1.1675 B(  0-C , 19-H ) :   0.9290 B(  0-C , 20-H ) :   0.9442
B(  0-C , 21-H ) :   0.9364 B(  1-C ,  2-O ) :   0.9169 B(  1-C , 22-H ) :   0.9339
B(  1-C , 23-H ) :   0.8968 B(  2-O ,  3-P ) :   1.0713 B(  3-P ,  4-S ) :   1.6522
B(  3-P ,  5-O ) :   1.1536 B(  3-P ,  8-S ) :   0.9354 B(  4-S ,  8-S ) :   0.1155
B(  4-S , 29-H ) :   0.1167 B(  5-O ,  6-C ) :   0.8903 B(  6-C ,  7-C ) :   1.1652
B(  6-C , 24-H ) :   0.9352 B(  6-C , 25-H ) :   0.9168 B(  7-C , 26-H ) :   0.9392
B(  7-C , 27-H ) :   0.9417 B(  7-C , 28-H ) :   0.9464 B(  8-S ,  9-C ) :   1.0082
B(  9-C , 10-S ) :   1.0046 B(  9-C , 29-H ) :   0.8495 B(  9-C , 30-H ) :   0.8550
B( 10-S , 11-P ) :   0.9366 B( 10-S , 12-S ) :   0.1082 B( 11-P , 12-S ) :   1.6422
B( 11-P , 13-O ) :   1.1551 B( 11-P , 16-O ) :   1.0938 B( 12-S , 30-H ) :   0.1076
B( 13-O , 14-C ) :   0.8928 B( 14-C , 15-C ) :   1.1714 B( 14-C , 31-H ) :   0.9112
B( 14-C , 32-H ) :   0.9306 B( 15-C , 33-H ) :   0.9349 B( 15-C , 34-H ) :   0.9350
B( 15-C , 35-H ) :   0.9402 B( 16-O , 17-C ) :   0.9000 B( 17-C , 18-C ) :   1.1604
B( 17-C , 36-H ) :   0.9081 B( 17-C , 37-H ) :   0.9294 B( 18-C , 38-H ) :   0.9414
B( 18-C , 39-H ) :   0.9514 B( 18-C , 40-H ) :   0.9505

Dispersion correction           -0.063409107
FINAL SINGLE POINT ENERGY     -2929.515008444013

DIPOLE MOMENT
-------------

Method             : SCF
Type of density    : Electron Density
Multiplicity       :   1
Irrep              :   0
Energy             : -2929.6369187411746680 Eh
Relativity type    :
Basis              : AO
                                X                 Y                 Z
Electronic contribution:      4.507489849      13.114621453     -17.079588305
Nuclear contribution   :     -4.799958007     -14.067418248      19.174299564
                        -----------------------------------------
Total Dipole Moment    :     -0.292468158      -0.952796795       2.094711259
                        -----------------------------------------
Magnitude (a.u.)       :      2.319735893
Magnitude (Debye)      :      5.896300054

Rotational constants in cm-1:             0.013576             0.004122             0.004086
Rotational constants in MHz :           407.005477           123.575040           122.504177

                             ****ORCA TERMINATED NORMALLY****
TOTAL RUN TIME: 0 days 0 hours 0 minutes 20 seconds 924 msec
