                         Program Version 6.0.1  -  RELEASE   -
|  1> ! pbe def2-sv(p) def2/J RI DEFGRID1 loosescf d4 GCP(DFT/SV(P)) printgap
|  2> %output
|  3>     printlevel normal
|  4> end
|  5> * xyz 0 1
|  6> C 5.1828910741 -2.3870209723 -1.6797583968
|  7> C 4.5626563684 -1.0857886103 -1.1958102009
|  8> O 3.1282718969 -1.1141186201 -1.3161463392
|  9> C 2.4345135948 -1.679409961 -0.3404292441
| 10> O 2.9235378806 -2.2133454222 0.6277969782
| 11> C 0.9419143317 -1.6341041169 -0.616275982
| 12> C 0.5220488593 -0.2447570949 -1.0804406427
| 13> H 1.0303008051 -0.0095219392 -2.022979172
| 14> C 0.9485633555 0.8259693245 -0.0927431308
| 15> O 1.9603468292 0.7277707107 0.5629363553
| 16> O 0.1672046218 1.8876359849 -0.1249888193
| 17> C 0.570273612 3.053246212 0.6263619778
| 18> C 0.1679759319 2.9675127648 2.0877854816
| 19> S -1.2456242391 -0.1480012584 -1.4974812218
| 20> P -2.1155162696 0.1817510008 0.4125960551
| 21> S -1.1103400603 -0.4054666018 1.9911225377
| 22> O -2.5696722913 1.6909958691 0.5003716816
| 23> C -3.3665694835 2.3114520061 -0.5294431103
| 24> O -3.5383419198 -0.5305570298 0.2349315107
| 25> C -3.6546077074 -1.9551956733 0.1576157274
| 26> H 4.8674942811 -3.2089799912 -1.0414330317
| 27> H 4.8753468365 -2.5906387598 -2.7016861416
| 28> H 6.2638846399 -2.3042984464 -1.639321289
| 29> H 4.8691019601 -0.2429053056 -1.8157315128
| 30> H 4.8155770941 -0.8972320979 -0.1484958043
| 31> H 0.427631882 -1.9161303098 0.3045112802
| 32> H 0.7137245633 -2.3617680271 -1.3966647785
| 33> H 1.6557999405 3.1504054834 0.5348510804
| 34> H 0.0644471094 3.8764992276 0.1217809285
| 35> H 0.6721749869 2.1317404569 2.5695697482
| 36> H 0.4506226467 3.8871076523 2.5891856691
| 37> H -0.9055840431 2.820750998 2.1787680874
| 38> H -4.339081904 1.8271644521 -0.5872974434
| 39> H -2.8535256971 2.2392382783 -1.488242103
| 40> H -3.4690141941 3.3489972411 -0.222835871
| 41> H -4.7142404357 -2.1693662905 0.2711388586
| 42> H -3.0847782026 -2.4235155962 0.9617330223
| 43> H -3.2933759901 -2.3039947099 -0.8095223755
| 44> *
| 45>
| 46>                          ****END OF INPUT****

CARTESIAN COORDINATES (ANGSTROEM)
---------------------------------
  C      5.182891   -2.387021   -1.679758
  C      4.562656   -1.085789   -1.195810
  O      3.128272   -1.114119   -1.316146
  C      2.434514   -1.679410   -0.340429
  O      2.923538   -2.213345    0.627797
  C      0.941914   -1.634104   -0.616276
  C      0.522049   -0.244757   -1.080441
  H      1.030301   -0.009522   -2.022979
  C      0.948563    0.825969   -0.092743
  O      1.960347    0.727771    0.562936
  O      0.167205    1.887636   -0.124989
  C      0.570274    3.053246    0.626362
  C      0.167976    2.967513    2.087785
  S     -1.245624   -0.148001   -1.497481
  P     -2.115516    0.181751    0.412596
  S     -1.110340   -0.405467    1.991123
  O     -2.569672    1.690996    0.500372
  C     -3.366569    2.311452   -0.529443
  O     -3.538342   -0.530557    0.234932
  C     -3.654608   -1.955196    0.157616
  H      4.867494   -3.208980   -1.041433
  H      4.875347   -2.590639   -2.701686
  H      6.263885   -2.304298   -1.639321
  H      4.869102   -0.242905   -1.815732
  H      4.815577   -0.897232   -0.148496
  H      0.427632   -1.916130    0.304511
  H      0.713725   -2.361768   -1.396665
  H      1.655800    3.150405    0.534851
  H      0.064447    3.876499    0.121781
  H      0.672175    2.131740    2.569570
  H      0.450623    3.887108    2.589186
  H     -0.905584    2.820751    2.178768
  H     -4.339082    1.827164   -0.587297
  H     -2.853526    2.239238   -1.488242
  H     -3.469014    3.348997   -0.222836
  H     -4.714240   -2.169366    0.271139
  H     -3.084778   -2.423516    0.961733
  H     -3.293376   -2.303995   -0.809522

 Total Charge           Charge          ....    0
 Multiplicity           Mult            ....    1
 Number of Electrons    NEL             ....  174
 Basis Dimension        Dim             ....  316

ORBITAL ENERGIES
----------------

  NO   OCC          E(Eh)            E(eV)
   0   2.0000     -88.045498     -2395.8398
   1   2.0000     -87.989853     -2394.3256
   2   2.0000     -76.431973     -2079.8197
   3   2.0000     -18.810153      -511.8503
   4   2.0000     -18.801088      -511.6036
   5   2.0000     -18.798360      -511.5294
   6   2.0000     -18.790732      -511.3218
   7   2.0000     -18.741441      -509.9805
   8   2.0000     -18.720917      -509.4220
   9   2.0000     -10.019819      -272.6531
  10   2.0000      -9.998159      -272.0637
  11   2.0000      -9.955642      -270.9068
  12   2.0000      -9.951549      -270.7954
  13   2.0000      -9.949198      -270.7314
  14   2.0000      -9.948247      -270.7056
  15   2.0000      -9.939012      -270.4543
  16   2.0000      -9.900017      -269.3932
  17   2.0000      -9.879688      -268.8400
  18   2.0000      -9.873789      -268.6795
  19   2.0000      -7.690362      -209.2654
  20   2.0000      -7.634609      -207.7483
  21   2.0000      -6.428942      -174.9404
  22   2.0000      -5.718237      -155.6011
  23   2.0000      -5.714747      -155.5062
  24   2.0000      -5.707459      -155.3079
  25   2.0000      -5.663723      -154.1178
  26   2.0000      -5.654981      -153.8799
  27   2.0000      -5.654807      -153.8751
  28   2.0000      -4.651711      -126.5795
  29   2.0000      -4.650837      -126.5557
  30   2.0000      -4.649232      -126.5120
  31   2.0000      -1.017225       -27.6801
  32   2.0000      -0.996812       -27.1246
  33   2.0000      -0.993793       -27.0425
  34   2.0000      -0.949328       -25.8325
  35   2.0000      -0.922413       -25.1001
  36   2.0000      -0.899945       -24.4887
  37   2.0000      -0.767878       -20.8950
  38   2.0000      -0.709285       -19.3006
  39   2.0000      -0.702115       -19.1055
  40   2.0000      -0.689209       -18.7543
  41   2.0000      -0.657647       -17.8955
  42   2.0000      -0.642744       -17.4900
  43   2.0000      -0.627729       -17.0814
  44   2.0000      -0.614020       -16.7083
  45   2.0000      -0.588668       -16.0185
  46   2.0000      -0.567475       -15.4418
  47   2.0000      -0.522193       -14.2096
  48   2.0000      -0.496901       -13.5214
  49   2.0000      -0.492411       -13.3992
  50   2.0000      -0.484229       -13.1765
  51   2.0000      -0.480558       -13.0766
  52   2.0000      -0.455914       -12.4061
  53   2.0000      -0.440422       -11.9845
  54   2.0000      -0.439752       -11.9663
  55   2.0000      -0.433362       -11.7924
  56   2.0000      -0.421542       -11.4707
  57   2.0000      -0.418099       -11.3771
  58   2.0000      -0.416586       -11.3359
  59   2.0000      -0.407616       -11.0918
  60   2.0000      -0.404650       -11.0111
  61   2.0000      -0.395458       -10.7609
  62   2.0000      -0.391914       -10.6645
  63   2.0000      -0.378671       -10.3042
  64   2.0000      -0.372476       -10.1356
  65   2.0000      -0.359316        -9.7775
  66   2.0000      -0.357196        -9.7198
  67   2.0000      -0.346289        -9.4230
  68   2.0000      -0.342382        -9.3167
  69   2.0000      -0.336676        -9.1614
  70   2.0000      -0.329879        -8.9765
  71   2.0000      -0.321224        -8.7409
  72   2.0000      -0.317749        -8.6464
  73   2.0000      -0.314340        -8.5536
  74   2.0000      -0.312156        -8.4942
  75   2.0000      -0.303664        -8.2631
  76   2.0000      -0.296524        -8.0688
  77   2.0000      -0.286910        -7.8072
  78   2.0000      -0.276283        -7.5181
  79   2.0000      -0.268363        -7.3025
  80   2.0000      -0.263372        -7.1667
  81   2.0000      -0.247297        -6.7293
  82   2.0000      -0.241794        -6.5796
  83   2.0000      -0.220779        -6.0077
  84   2.0000      -0.208340        -5.6692
  85   2.0000      -0.206925        -5.6307
  86   2.0000      -0.201114        -5.4726
  87   0.0000      -0.041933        -1.1411
  88   0.0000      -0.033631        -0.9152
  89   0.0000      -0.005053        -0.1375
  90   0.0000       0.001858         0.0506
  91   0.0000       0.010624         0.2891

MULLIKEN ATOMIC CHARGES
-----------------------
   0 C :   -0.304740
   1 C :   -0.005601
   2 O :   -0.255757
   3 C :    0.114506
   4 O :   -0.191653
   5 C :   -0.032549
   6 C :   -0.310668
   7 H :    0.161192
   8 C :    0.182252
   9 O :   -0.175621
  10 O :   -0.229778
  11 C :   -0.008656
  12 C :   -0.312091
  13 S :   -0.096992
  14 P :    0.605027
  15 S :   -0.283166
  16 O :   -0.359918
  17 C :   -0.108927
  18 O :   -0.388397
  19 C :   -0.102109
  20 H :    0.128739
  21 H :    0.106721
  22 H :    0.109795
  23 H :    0.095058
  24 H :    0.114560
  25 H :    0.118432
  26 H :    0.108577
  27 H :    0.104678
  28 H :    0.096064
  29 H :    0.140101
  30 H :    0.104275
  31 H :    0.128833
  32 H :    0.127345
  33 H :    0.123692
  34 H :    0.130799
  35 H :    0.127334
  36 H :    0.121873
  37 H :    0.116768
Sum of atomic charges:   -0.0000000

LOEWDIN ATOMIC CHARGES
----------------------
   0 C :   -0.358019
   1 C :   -0.108513
   2 O :   -0.072980
   3 C :    0.029669
   4 O :   -0.158160
   5 C :   -0.250930
   6 C :   -0.270033
   7 H :    0.154983
   8 C :    0.011054
   9 O :   -0.135900
  10 O :   -0.061695
  11 C :   -0.105322
  12 C :   -0.363431
  13 S :    0.095621
  14 P :    0.571248
  15 S :   -0.271253
  16 O :   -0.234119
  17 C :   -0.211137
  18 O :   -0.259821
  19 C :   -0.216018
  20 H :    0.131031
  21 H :    0.121452
  22 H :    0.129042
  23 H :    0.114275
  24 H :    0.123844
  25 H :    0.134727
  26 H :    0.140313
  27 H :    0.118569
  28 H :    0.114970
  29 H :    0.133158
  30 H :    0.126812
  31 H :    0.125241
  32 H :    0.117716
  33 H :    0.111265
  34 H :    0.125623
  35 H :    0.123711
  36 H :    0.113502
  37 H :    0.109504

  Mayer bond orders larger than 0.100000
B(  0-C ,  1-C ) :   1.1726 B(  0-C , 20-H ) :   0.9448 B(  0-C , 21-H ) :   0.9487
B(  0-C , 22-H ) :   0.9447 B(  1-C ,  2-O ) :   0.9205 B(  1-C , 23-H ) :   0.9386
B(  1-C , 24-H ) :   0.9156 B(  2-O ,  3-C ) :   1.1815 B(  3-C ,  4-O ) :   2.0705
B(  3-C ,  5-C ) :   1.0192 B(  5-C ,  6-C ) :   1.0357 B(  5-C , 25-H ) :   0.8818
B(  5-C , 26-H ) :   0.8840 B(  6-C ,  7-H ) :   0.8512 B(  6-C ,  8-C ) :   0.9126
B(  6-C , 13-S ) :   0.9960 B(  8-C ,  9-O ) :   2.0298 B(  8-C , 10-O ) :   1.2443
B( 10-O , 11-C ) :   0.9030 B( 11-C , 12-C ) :   1.1785 B( 11-C , 27-H ) :   0.9196
B( 11-C , 28-H ) :   0.9370 B( 12-C , 29-H ) :   0.9393 B( 12-C , 30-H ) :   0.9390
B( 12-C , 31-H ) :   0.9379 B( 13-S , 14-P ) :   0.9613 B( 13-S , 15-S ) :   0.1136
B( 14-P , 15-S ) :   1.6385 B( 14-P , 16-O ) :   1.1165 B( 14-P , 18-O ) :   1.0701
B( 16-O , 17-C ) :   0.9158 B( 17-C , 32-H ) :   0.9472 B( 17-C , 33-H ) :   0.9373
B( 17-C , 34-H ) :   0.9587 B( 18-O , 19-C ) :   0.9295 B( 19-C , 35-H ) :   0.9583
B( 19-C , 36-H ) :   0.9359 B( 19-C , 37-H ) :   0.9470

Dispersion correction           -0.054021052
FINAL SINGLE POINT ENERGY     -1979.020938922855

DIPOLE MOMENT
-------------

Method             : SCF
Type of density    : Electron Density
Multiplicity       :   1
Irrep              :   0
Energy             : -1979.1508475854798235 Eh
Relativity type    :
Basis              : AO
                                X                 Y                 Z
Electronic contribution:    -10.498819519      -1.636185717       2.760263333
Nuclear contribution   :      9.538107713       2.537388135      -4.449935443
                        -----------------------------------------
Total Dipole Moment    :     -0.960711806       0.901202417      -1.689672109
                        -----------------------------------------
Magnitude (a.u.)       :      2.142457656
Magnitude (Debye)      :      5.445694586

Rotational constants in cm-1:             0.016216             0.006415             0.005622
Rotational constants in MHz :           486.134931           192.319899           168.543426

                             ****ORCA TERMINATED NORMALLY****
TOTAL RUN TIME: 0 days 0 hours 0 minutes 27 seconds 342 msec
