                         Program Version 6.0.1  -  RELEASE   -
|  1> ! r2scan-3c def2/J RI DEFGRID2 scfconv6 printgap
|  2> %output
|  3>     printlevel normal
|  4> end
|  5> * xyz 0 1
|  6> C 3.2532398473 -3.8963694884 -0.8404932078
|  7> C 4.0110407357 -2.5822552282 -0.9400602358
|  8> O 3.2173811456 -1.5915383715 -1.6234468489
|  9> C 2.3934638408 -0.848787579 -0.9234724848
| 10> O 2.2666096896 -0.8985147755 0.2848408942
| 11> C 1.6173615395 0.11783459 -1.7932780559
| 12> C 0.3739262204 0.570690659 -1.0434036022
| 13> H -0.1169485459 1.4063828289 -1.5509639965
| 14> C 0.7023081531 1.0061210552 0.3726231223
| 15> O 0.0345359642 0.663765028 1.3310833294
| 16> O 1.6899887196 1.8577258601 0.4158802409
| 17> C 2.0615786269 2.3777322611 1.7097741434
| 18> C 3.1016574926 3.4590677373 1.4979171352
| 19> S -0.8321901113 -0.794538694 -0.9206034139
| 20> P -2.2751365763 0.1472393465 0.3168037228
| 21> S -2.4236868626 2.0959496261 0.2048987294
| 22> O -3.6007407923 -0.578429515 -0.2476650655
| 23> C -4.1061285937 -0.3027421094 -1.5562390466
| 24> O -2.3215284105 -0.45112108 1.7797752154
| 25> C -1.99580684 -1.821793438 2.0686026767
| 26> H 2.9653209631 -4.2378237915 -1.8306355041
| 27> H 3.8869328172 -4.642767196 -0.3731142445
| 28> H 2.3567178074 -3.7663692629 -0.2380699749
| 29> H 4.9074282061 -2.6841576473 -1.5516778665
| 30> H 4.2660722657 -2.2034807931 0.0536718307
| 31> H 1.3575924542 -0.3621657059 -2.7357656685
| 32> H 2.2533273498 0.9818092928 -1.9969323014
| 33> H 1.1587191493 2.7624142711 2.1950835096
| 34> H 2.4476990007 1.5441708472 2.3048151049
| 35> H 2.6921111322 4.2522680742 0.8797764951
| 36> H 3.3895902456 3.8681275279 2.4604733836
| 37> H 3.9769889379 3.043883833 1.0080917574
| 38> H -4.156059761 0.7757570118 -1.716644099
| 39> H -5.1020614764 -0.7371593867 -1.5831966301
| 40> H -3.4629545854 -0.7625872623 -2.3065727492
| 41> H -2.3185796201 -1.979633869 3.0943670725
| 42> H -0.9174301346 -1.9602152474 1.982545972
| 43> H -2.5227046898 -2.4890873813 1.387685436
| 44> *
| 45>
| 46>                          ****END OF INPUT****

CARTESIAN COORDINATES (ANGSTROEM)
---------------------------------
  C      3.253240   -3.896369   -0.840493
  C      4.011041   -2.582255   -0.940060
  O      3.217381   -1.591538   -1.623447
  C      2.393464   -0.848788   -0.923472
  O      2.266610   -0.898515    0.284841
  C      1.617362    0.117835   -1.793278
  C      0.373926    0.570691   -1.043404
  H     -0.116949    1.406383   -1.550964
  C      0.702308    1.006121    0.372623
  O      0.034536    0.663765    1.331083
  O      1.689989    1.857726    0.415880
  C      2.061579    2.377732    1.709774
  C      3.101657    3.459068    1.497917
  S     -0.832190   -0.794539   -0.920603
  P     -2.275137    0.147239    0.316804
  S     -2.423687    2.095950    0.204899
  O     -3.600741   -0.578430   -0.247665
  C     -4.106129   -0.302742   -1.556239
  O     -2.321528   -0.451121    1.779775
  C     -1.995807   -1.821793    2.068603
  H      2.965321   -4.237824   -1.830636
  H      3.886933   -4.642767   -0.373114
  H      2.356718   -3.766369   -0.238070
  H      4.907428   -2.684158   -1.551678
  H      4.266072   -2.203481    0.053672
  H      1.357592   -0.362166   -2.735766
  H      2.253327    0.981809   -1.996932
  H      1.158719    2.762414    2.195084
  H      2.447699    1.544171    2.304815
  H      2.692111    4.252268    0.879776
  H      3.389590    3.868128    2.460473
  H      3.976989    3.043884    1.008092
  H     -4.156060    0.775757   -1.716644
  H     -5.102061   -0.737159   -1.583197
  H     -3.462955   -0.762587   -2.306573
  H     -2.318580   -1.979634    3.094367
  H     -0.917430   -1.960215    1.982546
  H     -2.522705   -2.489087    1.387685

 Total Charge           Charge          ....    0
 Multiplicity           Mult            ....    1
 Number of Electrons    NEL             ....  174
 Basis Dimension        Dim             ....  510

ORBITAL ENERGIES
----------------

  NO   OCC          E(Eh)            E(eV)
   0   2.0000     -88.567317     -2410.0392
   1   2.0000     -88.499693     -2408.1991
   2   2.0000     -76.900849     -2092.5785
   3   2.0000     -19.016385      -517.4621
   4   2.0000     -19.003322      -517.1067
   5   2.0000     -18.973762      -516.3023
   6   2.0000     -18.970012      -516.2003
   7   2.0000     -18.947929      -515.5994
   8   2.0000     -18.927995      -515.0569
   9   2.0000     -10.173194      -276.8267
  10   2.0000     -10.159773      -276.4615
  11   2.0000     -10.105478      -274.9840
  12   2.0000     -10.094260      -274.6788
  13   2.0000     -10.091987      -274.6169
  14   2.0000     -10.082157      -274.3494
  15   2.0000     -10.075184      -274.1597
  16   2.0000     -10.071438      -274.0578
  17   2.0000     -10.039489      -273.1884
  18   2.0000     -10.032361      -272.9944
  19   2.0000      -7.861733      -213.9286
  20   2.0000      -7.794730      -212.1054
  21   2.0000      -6.578242      -179.0031
  22   2.0000      -5.808600      -158.0600
  23   2.0000      -5.805674      -157.9804
  24   2.0000      -5.798767      -157.7925
  25   2.0000      -5.742668      -156.2659
  26   2.0000      -5.735219      -156.0632
  27   2.0000      -5.734181      -156.0350
  28   2.0000      -4.723821      -128.5417
  29   2.0000      -4.723627      -128.5364
  30   2.0000      -4.721680      -128.4834
  31   2.0000      -1.094124       -29.7726
  32   2.0000      -1.081430       -29.4272
  33   2.0000      -1.031064       -28.0567
  34   2.0000      -0.997266       -27.1370
  35   2.0000      -0.988500       -26.8985
  36   2.0000      -0.980193       -26.6724
  37   2.0000      -0.812480       -22.1087
  38   2.0000      -0.762453       -20.7474
  39   2.0000      -0.748171       -20.3588
  40   2.0000      -0.724607       -19.7176
  41   2.0000      -0.695247       -18.9186
  42   2.0000      -0.659483       -17.9455
  43   2.0000      -0.655137       -17.8272
  44   2.0000      -0.639657       -17.4059
  45   2.0000      -0.632951       -17.2235
  46   2.0000      -0.592854       -16.1324
  47   2.0000      -0.542145       -14.7525
  48   2.0000      -0.536241       -14.5919
  49   2.0000      -0.522013       -14.2047
  50   2.0000      -0.508945       -13.8491
  51   2.0000      -0.483610       -13.1597
  52   2.0000      -0.476143       -12.9565
  53   2.0000      -0.468952       -12.7608
  54   2.0000      -0.468316       -12.7435
  55   2.0000      -0.453221       -12.3328
  56   2.0000      -0.448426       -12.2023
  57   2.0000      -0.436676       -11.8826
  58   2.0000      -0.430413       -11.7121
  59   2.0000      -0.424293       -11.5456
  60   2.0000      -0.416396       -11.3307
  61   2.0000      -0.409012       -11.1298
  62   2.0000      -0.406837       -11.0706
  63   2.0000      -0.403025       -10.9669
  64   2.0000      -0.390701       -10.6315
  65   2.0000      -0.384561       -10.4644
  66   2.0000      -0.377209       -10.2644
  67   2.0000      -0.371660       -10.1134
  68   2.0000      -0.367482        -9.9997
  69   2.0000      -0.360927        -9.8213
  70   2.0000      -0.349550        -9.5117
  71   2.0000      -0.343160        -9.3379
  72   2.0000      -0.330570        -8.9953
  73   2.0000      -0.325684        -8.8623
  74   2.0000      -0.321435        -8.7467
  75   2.0000      -0.319317        -8.6891
  76   2.0000      -0.301006        -8.1908
  77   2.0000      -0.298411        -8.1202
  78   2.0000      -0.290991        -7.9183
  79   2.0000      -0.277491        -7.5509
  80   2.0000      -0.270891        -7.3713
  81   2.0000      -0.260244        -7.0816
  82   2.0000      -0.256048        -6.9674
  83   2.0000      -0.241571        -6.5735
  84   2.0000      -0.228427        -6.2158
  85   2.0000      -0.202429        -5.5084
  86   2.0000      -0.193218        -5.2577
  87   0.0000      -0.041143        -1.1196
  88   0.0000      -0.026914        -0.7324
  89   0.0000      -0.014023        -0.3816
  90   0.0000       0.012039         0.3276
  91   0.0000       0.034850         0.9483

MULLIKEN ATOMIC CHARGES
-----------------------
   0 C :   -0.462095
   1 C :   -0.142013
   2 O :   -0.159129
   3 C :    0.389082
   4 O :   -0.385049
   5 C :   -0.421426
   6 C :   -0.022384
   7 H :    0.237098
   8 C :    0.289575
   9 O :   -0.388095
  10 O :   -0.115275
  11 C :   -0.163957
  12 C :   -0.451831
  13 S :   -0.212412
  14 P :    0.803234
  15 S :   -0.468640
  16 O :   -0.366285
  17 C :   -0.302604
  18 O :   -0.296620
  19 C :   -0.300423
  20 H :    0.154719
  21 H :    0.150451
  22 H :    0.172331
  23 H :    0.151763
  24 H :    0.168861
  25 H :    0.189022
  26 H :    0.196782
  27 H :    0.175070
  28 H :    0.162956
  29 H :    0.156457
  30 H :    0.149993
  31 H :    0.150355
  32 H :    0.175077
  33 H :    0.147664
  34 H :    0.151095
  35 H :    0.152099
  36 H :    0.179025
  37 H :    0.155529
Sum of atomic charges:   -0.0000000

LOEWDIN ATOMIC CHARGES
----------------------
   0 C :   -0.386033
   1 C :    0.032190
   2 O :   -0.572798
   3 C :    0.367802
   4 O :   -0.425463
   5 C :   -0.206841
   6 C :   -0.198945
   7 H :    0.205110
   8 C :    0.348135
   9 O :   -0.447981
  10 O :   -0.572242
  11 C :    0.040946
  12 C :   -0.385692
  13 S :    0.208305
  14 P :    0.409793
  15 S :   -0.096450
  16 O :   -0.695052
  17 C :   -0.069897
  18 O :   -0.638638
  19 C :   -0.052850
  20 H :    0.158801
  21 H :    0.160948
  22 H :    0.166091
  23 H :    0.179811
  24 H :    0.189029
  25 H :    0.189982
  26 H :    0.201131
  27 H :    0.188768
  28 H :    0.182836
  29 H :    0.160804
  30 H :    0.161099
  31 H :    0.157877
  32 H :    0.175709
  33 H :    0.174348
  34 H :    0.164905
  35 H :    0.179401
  36 H :    0.177463
  37 H :    0.167597

  Mayer bond orders larger than 0.100000
B(  0-C ,  1-C ) :   0.9461 B(  0-C , 20-H ) :   0.9727 B(  0-C , 21-H ) :   0.9640
B(  0-C , 22-H ) :   0.9684 B(  1-C ,  2-O ) :   0.7973 B(  1-C , 23-H ) :   0.9612
B(  1-C , 24-H ) :   0.9649 B(  2-O ,  3-C ) :   1.1442 B(  3-C ,  4-O ) :   1.7639
B(  3-C ,  5-C ) :   0.9676 B(  4-O ,  8-C ) :   0.1463 B(  5-C ,  6-C ) :   0.8921
B(  5-C , 10-O ) :   0.1157 B(  5-C , 25-H ) :   0.9702 B(  5-C , 26-H ) :   0.9243
B(  6-C ,  7-H ) :   0.9100 B(  6-C ,  8-C ) :   0.8811 B(  6-C , 13-S ) :   0.9412
B(  8-C ,  9-O ) :   1.7384 B(  8-C , 10-O ) :   1.2085 B(  9-O , 14-P ) :   0.1140
B( 10-O , 11-C ) :   0.7737 B( 11-C , 12-C ) :   0.9402 B( 11-C , 27-H ) :   0.9537
B( 11-C , 28-H ) :   0.9499 B( 12-C , 29-H ) :   0.9737 B( 12-C , 30-H ) :   0.9672
B( 12-C , 31-H ) :   0.9737 B( 13-S , 14-P ) :   0.9681 B( 14-P , 15-S ) :   1.7790
B( 14-P , 16-O ) :   1.0027 B( 14-P , 18-O ) :   1.2054 B( 16-O , 17-C ) :   0.8412
B( 17-C , 32-H ) :   0.9588 B( 17-C , 33-H ) :   0.9699 B( 17-C , 34-H ) :   0.9577
B( 18-O , 19-C ) :   0.7966 B( 19-C , 35-H ) :   0.9655 B( 19-C , 36-H ) :   0.9565
B( 19-C , 37-H ) :   0.9653

Dispersion correction           -0.016980815
FINAL SINGLE POINT ENERGY     -1981.445820574922

DIPOLE MOMENT
-------------

Method             : SCF
Type of density    : Electron Density
Multiplicity       :   1
Irrep              :   0
Energy             : -1981.4667386834503304 Eh
Relativity type    :
Basis              : AO
                                X                 Y                 Z
Electronic contribution:    -16.174195231       5.752071255      -0.154936517
Nuclear contribution   :     18.153007599      -6.930062224      -0.718702112
                        -----------------------------------------
Total Dipole Moment    :      1.978812368      -1.177990969      -0.873638629
                        -----------------------------------------
Magnitude (a.u.)       :      2.463048023
Magnitude (Debye)      :      6.260570540

Rotational constants in cm-1:             0.012483             0.007049             0.005496
Rotational constants in MHz :           374.242623           211.325004           164.753707

                             ****ORCA TERMINATED NORMALLY****
TOTAL RUN TIME: 0 days 0 hours 1 minutes 15 seconds 588 msec
