                         Program Version 6.0.1  -  RELEASE   -
|  1> ! r2scan-3c def2/J RI DEFGRID2 scfconv6 printgap
|  2> %output
|  3>     printlevel normal
|  4> end
|  5> %cpcm
|  6>     smd true
|  7>     smdsolvent "water"
|  8> end
|  9> * xyz 0 1
| 10> C 3.2532398473 -3.8963694884 -0.8404932078
| 11> C 4.0110407357 -2.5822552282 -0.9400602358
| 12> O 3.2173811456 -1.5915383715 -1.6234468489
| 13> C 2.3934638408 -0.848787579 -0.9234724848
| 14> O 2.2666096896 -0.8985147755 0.2848408942
| 15> C 1.6173615395 0.11783459 -1.7932780559
| 16> C 0.3739262204 0.570690659 -1.0434036022
| 17> H -0.1169485459 1.4063828289 -1.5509639965
| 18> C 0.7023081531 1.0061210552 0.3726231223
| 19> O 0.0345359642 0.663765028 1.3310833294
| 20> O 1.6899887196 1.8577258601 0.4158802409
| 21> C 2.0615786269 2.3777322611 1.7097741434
| 22> C 3.1016574926 3.4590677373 1.4979171352
| 23> S -0.8321901113 -0.794538694 -0.9206034139
| 24> P -2.2751365763 0.1472393465 0.3168037228
| 25> S -2.4236868626 2.0959496261 0.2048987294
| 26> O -3.6007407923 -0.578429515 -0.2476650655
| 27> C -4.1061285937 -0.3027421094 -1.5562390466
| 28> O -2.3215284105 -0.45112108 1.7797752154
| 29> C -1.99580684 -1.821793438 2.0686026767
| 30> H 2.9653209631 -4.2378237915 -1.8306355041
| 31> H 3.8869328172 -4.642767196 -0.3731142445
| 32> H 2.3567178074 -3.7663692629 -0.2380699749
| 33> H 4.9074282061 -2.6841576473 -1.5516778665
| 34> H 4.2660722657 -2.2034807931 0.0536718307
| 35> H 1.3575924542 -0.3621657059 -2.7357656685
| 36> H 2.2533273498 0.9818092928 -1.9969323014
| 37> H 1.1587191493 2.7624142711 2.1950835096
| 38> H 2.4476990007 1.5441708472 2.3048151049
| 39> H 2.6921111322 4.2522680742 0.8797764951
| 40> H 3.3895902456 3.8681275279 2.4604733836
| 41> H 3.9769889379 3.043883833 1.0080917574
| 42> H -4.156059761 0.7757570118 -1.716644099
| 43> H -5.1020614764 -0.7371593867 -1.5831966301
| 44> H -3.4629545854 -0.7625872623 -2.3065727492
| 45> H -2.3185796201 -1.979633869 3.0943670725
| 46> H -0.9174301346 -1.9602152474 1.982545972
| 47> H -2.5227046898 -2.4890873813 1.387685436
| 48> *
| 49>
| 50>                          ****END OF INPUT****

CARTESIAN COORDINATES (ANGSTROEM)
---------------------------------
  C      3.253240   -3.896369   -0.840493
  C      4.011041   -2.582255   -0.940060
  O      3.217381   -1.591538   -1.623447
  C      2.393464   -0.848788   -0.923472
  O      2.266610   -0.898515    0.284841
  C      1.617362    0.117835   -1.793278
  C      0.373926    0.570691   -1.043404
  H     -0.116949    1.406383   -1.550964
  C      0.702308    1.006121    0.372623
  O      0.034536    0.663765    1.331083
  O      1.689989    1.857726    0.415880
  C      2.061579    2.377732    1.709774
  C      3.101657    3.459068    1.497917
  S     -0.832190   -0.794539   -0.920603
  P     -2.275137    0.147239    0.316804
  S     -2.423687    2.095950    0.204899
  O     -3.600741   -0.578430   -0.247665
  C     -4.106129   -0.302742   -1.556239
  O     -2.321528   -0.451121    1.779775
  C     -1.995807   -1.821793    2.068603
  H      2.965321   -4.237824   -1.830636
  H      3.886933   -4.642767   -0.373114
  H      2.356718   -3.766369   -0.238070
  H      4.907428   -2.684158   -1.551678
  H      4.266072   -2.203481    0.053672
  H      1.357592   -0.362166   -2.735766
  H      2.253327    0.981809   -1.996932
  H      1.158719    2.762414    2.195084
  H      2.447699    1.544171    2.304815
  H      2.692111    4.252268    0.879776
  H      3.389590    3.868128    2.460473
  H      3.976989    3.043884    1.008092
  H     -4.156060    0.775757   -1.716644
  H     -5.102061   -0.737159   -1.583197
  H     -3.462955   -0.762587   -2.306573
  H     -2.318580   -1.979634    3.094367
  H     -0.917430   -1.960215    1.982546
  H     -2.522705   -2.489087    1.387685

 Total Charge           Charge          ....    0
 Multiplicity           Mult            ....    1
 Number of Electrons    NEL             ....  174
 Basis Dimension        Dim             ....  510

ORBITAL ENERGIES
----------------

  NO   OCC          E(Eh)            E(eV)
   0   2.0000     -88.577095     -2410.3053
   1   2.0000     -88.521661     -2408.7969
   2   2.0000     -76.918443     -2093.0572
   3   2.0000     -19.011588      -517.3316
   4   2.0000     -19.011246      -517.3223
   5   2.0000     -18.992223      -516.8047
   6   2.0000     -18.984831      -516.6035
   7   2.0000     -18.952915      -515.7350
   8   2.0000     -18.946974      -515.5734
   9   2.0000     -10.174263      -276.8558
  10   2.0000     -10.174145      -276.8525
  11   2.0000     -10.096628      -274.7432
  12   2.0000     -10.088358      -274.5182
  13   2.0000     -10.087499      -274.4948
  14   2.0000     -10.083828      -274.3949
  15   2.0000     -10.076722      -274.2016
  16   2.0000     -10.061611      -273.7904
  17   2.0000     -10.020143      -272.6619
  18   2.0000     -10.020133      -272.6617
  19   2.0000      -7.871420      -214.1922
  20   2.0000      -7.817057      -212.7129
  21   2.0000      -6.596016      -179.4867
  22   2.0000      -5.818295      -158.3239
  23   2.0000      -5.815380      -158.2445
  24   2.0000      -5.808441      -158.0557
  25   2.0000      -5.764852      -156.8696
  26   2.0000      -5.757554      -156.6710
  27   2.0000      -5.756567      -156.6442
  28   2.0000      -4.741609      -129.0257
  29   2.0000      -4.741274      -129.0166
  30   2.0000      -4.739574      -128.9704
  31   2.0000      -1.094315       -29.7778
  32   2.0000      -1.088501       -29.6196
  33   2.0000      -1.047967       -28.5166
  34   2.0000      -1.004120       -27.3235
  35   2.0000      -1.000335       -27.2205
  36   2.0000      -0.996989       -27.1295
  37   2.0000      -0.813345       -22.1322
  38   2.0000      -0.751722       -20.4554
  39   2.0000      -0.746752       -20.3201
  40   2.0000      -0.728729       -19.8297
  41   2.0000      -0.696570       -18.9546
  42   2.0000      -0.663437       -18.0530
  43   2.0000      -0.659035       -17.9333
  44   2.0000      -0.651296       -17.7227
  45   2.0000      -0.623078       -16.9548
  46   2.0000      -0.590641       -16.0721
  47   2.0000      -0.541933       -14.7467
  48   2.0000      -0.531647       -14.4669
  49   2.0000      -0.527288       -14.3482
  50   2.0000      -0.508981       -13.8501
  51   2.0000      -0.487678       -13.2704
  52   2.0000      -0.485842       -13.2204
  53   2.0000      -0.473059       -12.8726
  54   2.0000      -0.467636       -12.7250
  55   2.0000      -0.456073       -12.4104
  56   2.0000      -0.452463       -12.3122
  57   2.0000      -0.442593       -12.0436
  58   2.0000      -0.438487       -11.9318
  59   2.0000      -0.427456       -11.6317
  60   2.0000      -0.422323       -11.4920
  61   2.0000      -0.408753       -11.1227
  62   2.0000      -0.404644       -11.0109
  63   2.0000      -0.398681       -10.8487
  64   2.0000      -0.393475       -10.7070
  65   2.0000      -0.377463       -10.2713
  66   2.0000      -0.373830       -10.1724
  67   2.0000      -0.366367        -9.9693
  68   2.0000      -0.362532        -9.8650
  69   2.0000      -0.355669        -9.6782
  70   2.0000      -0.347485        -9.4555
  71   2.0000      -0.339460        -9.2372
  72   2.0000      -0.332153        -9.0383
  73   2.0000      -0.329393        -8.9632
  74   2.0000      -0.323498        -8.8028
  75   2.0000      -0.312273        -8.4974
  76   2.0000      -0.310885        -8.4596
  77   2.0000      -0.307945        -8.3796
  78   2.0000      -0.290157        -7.8956
  79   2.0000      -0.288583        -7.8527
  80   2.0000      -0.280499        -7.6328
  81   2.0000      -0.273529        -7.4431
  82   2.0000      -0.262985        -7.1562
  83   2.0000      -0.257690        -7.0121
  84   2.0000      -0.241091        -6.5604
  85   2.0000      -0.224104        -6.0982
  86   2.0000      -0.216667        -5.8958
  87   0.0000      -0.049059        -1.3350
  88   0.0000      -0.032077        -0.8729
  89   0.0000      -0.024879        -0.6770
  90   0.0000       0.003327         0.0905
  91   0.0000       0.020685         0.5629

MULLIKEN ATOMIC CHARGES
-----------------------
   0 C :   -0.493528
   1 C :   -0.143779
   2 O :   -0.169128
   3 C :    0.418772
   4 O :   -0.450071
   5 C :   -0.449144
   6 C :   -0.002975
   7 H :    0.264830
   8 C :    0.280652
   9 O :   -0.445707
  10 O :   -0.125730
  11 C :   -0.156548
  12 C :   -0.493007
  13 S :   -0.203099
  14 P :    0.802786
  15 S :   -0.518217
  16 O :   -0.401107
  17 C :   -0.309337
  18 O :   -0.349408
  19 C :   -0.304417
  20 H :    0.167772
  21 H :    0.172738
  22 H :    0.169645
  23 H :    0.177702
  24 H :    0.175627
  25 H :    0.221172
  26 H :    0.237560
  27 H :    0.177810
  28 H :    0.178684
  29 H :    0.167297
  30 H :    0.171840
  31 H :    0.166690
  32 H :    0.175083
  33 H :    0.175686
  34 H :    0.171289
  35 H :    0.180888
  36 H :    0.180477
  37 H :    0.180201
Sum of atomic charges:   -0.0000000

LOEWDIN ATOMIC CHARGES
----------------------
   0 C :   -0.389748
   1 C :    0.038132
   2 O :   -0.570840
   3 C :    0.377400
   4 O :   -0.471574
   5 C :   -0.195445
   6 C :   -0.189585
   7 H :    0.215578
   8 C :    0.349218
   9 O :   -0.499649
  10 O :   -0.571066
  11 C :    0.043513
  12 C :   -0.386941
  13 S :    0.221829
  14 P :    0.405100
  15 S :   -0.137790
  16 O :   -0.712070
  17 C :   -0.064378
  18 O :   -0.672920
  19 C :   -0.046103
  20 H :    0.162817
  21 H :    0.169092
  22 H :    0.163103
  23 H :    0.191124
  24 H :    0.191349
  25 H :    0.203403
  26 H :    0.216776
  27 H :    0.189140
  28 H :    0.187695
  29 H :    0.163966
  30 H :    0.169732
  31 H :    0.163543
  32 H :    0.175958
  33 H :    0.186258
  34 H :    0.173769
  35 H :    0.191376
  36 H :    0.179508
  37 H :    0.178731

  Mayer bond orders larger than 0.100000
B(  0-C ,  1-C ) :   0.9389 B(  0-C , 20-H ) :   0.9696 B(  0-C , 21-H ) :   0.9589
B(  0-C , 22-H ) :   0.9680 B(  1-C ,  2-O ) :   0.7815 B(  1-C , 23-H ) :   0.9516
B(  1-C , 24-H ) :   0.9615 B(  2-O ,  3-C ) :   1.1608 B(  3-C ,  4-O ) :   1.7126
B(  3-C ,  5-C ) :   0.9525 B(  4-O ,  8-C ) :   0.1454 B(  5-C ,  6-C ) :   0.8835
B(  5-C , 10-O ) :   0.1026 B(  5-C , 25-H ) :   0.9654 B(  5-C , 26-H ) :   0.9197
B(  6-C ,  7-H ) :   0.8915 B(  6-C ,  8-C ) :   0.8793 B(  6-C , 13-S ) :   0.9249
B(  8-C ,  9-O ) :   1.7021 B(  8-C , 10-O ) :   1.2135 B(  9-O , 14-P ) :   0.1152
B( 10-O , 11-C ) :   0.7606 B( 11-C , 12-C ) :   0.9439 B( 11-C , 27-H ) :   0.9479
B( 11-C , 28-H ) :   0.9399 B( 12-C , 29-H ) :   0.9714 B( 12-C , 30-H ) :   0.9607
B( 12-C , 31-H ) :   0.9689 B( 13-S , 14-P ) :   0.9993 B( 14-P , 15-S ) :   1.7762
B( 14-P , 16-O ) :   1.0010 B( 14-P , 18-O ) :   1.1912 B( 16-O , 17-C ) :   0.8333
B( 17-C , 32-H ) :   0.9554 B( 17-C , 33-H ) :   0.9594 B( 17-C , 34-H ) :   0.9506
B( 18-O , 19-C ) :   0.7906 B( 19-C , 35-H ) :   0.9543 B( 19-C , 36-H ) :   0.9495
B( 19-C , 37-H ) :   0.9545

Dispersion correction           -0.016980815
FINAL SINGLE POINT ENERGY     -1981.462912282486

DIPOLE MOMENT
-------------

Method             : SCF
Type of density    : Electron Density
Multiplicity       :   1
Irrep              :   0
Energy             : -1981.4838303910141803 Eh
Relativity type    :
Basis              : AO
                                X                 Y                 Z
Electronic contribution:    -15.530926402       5.407305547      -1.016541087
Nuclear contribution   :     18.153007599      -6.930062224      -0.718702112
                        -----------------------------------------
Total Dipole Moment    :      2.622081197      -1.522756676      -1.735243199
                        -----------------------------------------
Magnitude (a.u.)       :      3.493589366
Magnitude (Debye)      :      8.879998465

Rotational constants in cm-1:             0.012483             0.007049             0.005496
Rotational constants in MHz :           374.242623           211.325004           164.753707

                             ****ORCA TERMINATED NORMALLY****
TOTAL RUN TIME: 0 days 0 hours 1 minutes 53 seconds 659 msec
