                         Program Version 6.0.0  -   RELEASE  -
|  1> ! pbe def2-sv(p) def2/J RI DEFGRID1 loosescf d4 GCP(DFT/SV(P)) printgap
|  2> %output
|  3>     printlevel normal
|  4> end
|  5> * xyz 0 1
|  6> C 5.34424188 -0.5996128653 -1.0943576222
|  7> C 4.3591628023 -1.2467743752 -0.1397444223
|  8> O 3.5523858892 -0.2592644472 0.5285205901
|  9> P 2.1505959646 0.2435683948 -0.0350551635
| 10> S 2.1635024684 1.0289230986 -1.8363920476
| 11> O 1.7111676877 1.1746099651 1.1645883165
| 12> C 1.8746261893 2.6039548055 1.1272421332
| 13> C 3.3362313629 2.994500477 1.1662409278
| 14> S 0.9394682713 -1.4636043404 0.2265450332
| 15> C -0.0708241834 -1.4000799647 -1.3008736941
| 16> S -1.8097188155 -1.7475547975 -0.9963262401
| 17> P -2.4130170498 0.0724691957 -0.058481839
| 18> S -1.1576720621 1.5627847134 -0.2815574794
| 19> O -2.8356798212 -0.3465117218 1.4191803107
| 20> C -1.9958474442 -1.0156561839 2.3748586404
| 21> C -1.0754467091 -0.0489569793 3.0926391492
| 22> O -3.8039625444 0.479637723 -0.6668202782
| 23> C -5.068975644 -0.1797792919 -0.4088952023
| 24> C -5.0937971942 -1.6063835363 -0.9138675509
| 25> H 5.9714928209 0.108724167 -0.5603945587
| 26> H 5.9683915413 -1.3678961607 -1.5390845174
| 27> H 4.8139066659 -0.0718447625 -1.8840187778
| 28> H 4.8745597622 -1.7675065818 0.6695744732
| 29> H 3.7065232534 -1.9498716107 -0.6662214461
| 30> H 1.3838373809 2.9854915449 0.2252714695
| 31> H 1.3317982521 2.9533813391 2.0065176552
| 32> H 3.817418351 2.5518383785 2.0343367977
| 33> H 3.8344547767 2.6368770341 0.2655541102
| 34> H 3.4202951416 4.0756093755 1.2121517712
| 35> H 0.2728071461 -2.1802534556 -1.9752766481
| 36> H 0.0455159964 -0.4097737894 -1.7485841339
| 37> H -2.7031786952 -1.4738283023 3.0688800723
| 38> H -1.4212094994 -1.7968773026 1.8666480297
| 39> H -1.6524950041 0.7488816489 3.5527269839
| 40> H -0.5217971982 -0.5836176375 3.8576748228
| 41> H -0.3670789655 0.3946604858 2.3953669637
| 42> H -5.2623705295 -0.1373178431 0.6641902101
| 43> H -5.7855105312 0.4475589392 -0.9412853097
| 44> H -4.8293851905 -1.640584504 -1.9674856485
| 45> H -4.3877900046 -2.2211261677 -0.3581855632
| 46> H -6.0929650171 -2.0101709471 -0.7826227736
| 47> *
| 48>
| 49>                          ****END OF INPUT****

CARTESIAN COORDINATES (ANGSTROEM)
---------------------------------
  C      5.344242   -0.599613   -1.094358
  C      4.359163   -1.246774   -0.139744
  O      3.552386   -0.259264    0.528521
  P      2.150596    0.243568   -0.035055
  S      2.163502    1.028923   -1.836392
  O      1.711168    1.174610    1.164588
  C      1.874626    2.603955    1.127242
  C      3.336231    2.994500    1.166241
  S      0.939468   -1.463604    0.226545
  C     -0.070824   -1.400080   -1.300874
  S     -1.809719   -1.747555   -0.996326
  P     -2.413017    0.072469   -0.058482
  S     -1.157672    1.562785   -0.281557
  O     -2.835680   -0.346512    1.419180
  C     -1.995847   -1.015656    2.374859
  C     -1.075447   -0.048957    3.092639
  O     -3.803963    0.479638   -0.666820
  C     -5.068976   -0.179779   -0.408895
  C     -5.093797   -1.606384   -0.913868
  H      5.971493    0.108724   -0.560395
  H      5.968392   -1.367896   -1.539085
  H      4.813907   -0.071845   -1.884019
  H      4.874560   -1.767507    0.669574
  H      3.706523   -1.949872   -0.666221
  H      1.383837    2.985492    0.225271
  H      1.331798    2.953381    2.006518
  H      3.817418    2.551838    2.034337
  H      3.834455    2.636877    0.265554
  H      3.420295    4.075609    1.212152
  H      0.272807   -2.180253   -1.975277
  H      0.045516   -0.409774   -1.748584
  H     -2.703179   -1.473828    3.068880
  H     -1.421209   -1.796877    1.866648
  H     -1.652495    0.748882    3.552727
  H     -0.521797   -0.583618    3.857675
  H     -0.367079    0.394660    2.395367
  H     -5.262371   -0.137318    0.664190
  H     -5.785511    0.447559   -0.941285
  H     -4.829385   -1.640585   -1.967486
  H     -4.387790   -2.221126   -0.358186
  H     -6.092965   -2.010171   -0.782623

 Total Charge           Charge          ....    0
 Multiplicity           Mult            ....    1
 Number of Electrons    NEL             ....  202
 Basis Dimension        Dim             ....  334

ORBITAL ENERGIES
----------------

  NO   OCC          E(Eh)            E(eV)
   0   2.0000     -88.045925     -2395.8514
   1   2.0000     -88.042771     -2395.7656
   2   2.0000     -87.986112     -2394.2238
   3   2.0000     -87.978153     -2394.0072
   4   2.0000     -76.425039     -2079.6310
   5   2.0000     -76.424310     -2079.6112
   6   2.0000     -18.791483      -511.3422
   7   2.0000     -18.790672      -511.3202
   8   2.0000     -18.788418      -511.2589
   9   2.0000     -18.785881      -511.1898
  10   2.0000      -9.957577      -270.9594
  11   2.0000      -9.952934      -270.8331
  12   2.0000      -9.952272      -270.8151
  13   2.0000      -9.950640      -270.7707
  14   2.0000      -9.945224      -270.6233
  15   2.0000      -9.892970      -269.2014
  16   2.0000      -9.879275      -268.8287
  17   2.0000      -9.878162      -268.7984
  18   2.0000      -9.873761      -268.6787
  19   2.0000      -7.690601      -209.2719
  20   2.0000      -7.687564      -209.1892
  21   2.0000      -7.630935      -207.6483
  22   2.0000      -7.622966      -207.4315
  23   2.0000      -6.422300      -174.7597
  24   2.0000      -6.421503      -174.7380
  25   2.0000      -5.718606      -155.6112
  26   2.0000      -5.715379      -155.5234
  27   2.0000      -5.714792      -155.5074
  28   2.0000      -5.712086      -155.4338
  29   2.0000      -5.707863      -155.3188
  30   2.0000      -5.704586      -155.2297
  31   2.0000      -5.659856      -154.0125
  32   2.0000      -5.652090      -153.8012
  33   2.0000      -5.651629      -153.7886
  34   2.0000      -5.651025      -153.7722
  35   2.0000      -5.643295      -153.5619
  36   2.0000      -5.643208      -153.5595
  37   2.0000      -4.644521      -126.3838
  38   2.0000      -4.644381      -126.3800
  39   2.0000      -4.644093      -126.3722
  40   2.0000      -4.643371      -126.3526
  41   2.0000      -4.643109      -126.3454
  42   2.0000      -4.641627      -126.3051
  43   2.0000      -0.987191       -26.8628
  44   2.0000      -0.984124       -26.7794
  45   2.0000      -0.942255       -25.6401
  46   2.0000      -0.941461       -25.6185
  47   2.0000      -0.761163       -20.7123
  48   2.0000      -0.720481       -19.6053
  49   2.0000      -0.709830       -19.3155
  50   2.0000      -0.689085       -18.7510
  51   2.0000      -0.682396       -18.5689
  52   2.0000      -0.674115       -18.3436
  53   2.0000      -0.649722       -17.6798
  54   2.0000      -0.634640       -17.2694
  55   2.0000      -0.596950       -16.2438
  56   2.0000      -0.587582       -15.9889
  57   2.0000      -0.577154       -15.7052
  58   2.0000      -0.567285       -15.4366
  59   2.0000      -0.561270       -15.2729
  60   2.0000      -0.501501       -13.6465
  61   2.0000      -0.493703       -13.4343
  62   2.0000      -0.472359       -12.8535
  63   2.0000      -0.470645       -12.8069
  64   2.0000      -0.450053       -12.2466
  65   2.0000      -0.447037       -12.1645
  66   2.0000      -0.438722       -11.9382
  67   2.0000      -0.436049       -11.8655
  68   2.0000      -0.426162       -11.5965
  69   2.0000      -0.415561       -11.3080
  70   2.0000      -0.409295       -11.1375
  71   2.0000      -0.399736       -10.8774
  72   2.0000      -0.396201       -10.7812
  73   2.0000      -0.388256       -10.5650
  74   2.0000      -0.384598       -10.4654
  75   2.0000      -0.370433       -10.0800
  76   2.0000      -0.362006        -9.8507
  77   2.0000      -0.356008        -9.6875
  78   2.0000      -0.351914        -9.5761
  79   2.0000      -0.348014        -9.4699
  80   2.0000      -0.344524        -9.3750
  81   2.0000      -0.342047        -9.3076
  82   2.0000      -0.336544        -9.1578
  83   2.0000      -0.332250        -9.0410
  84   2.0000      -0.329494        -8.9660
  85   2.0000      -0.314732        -8.5643
  86   2.0000      -0.310863        -8.4590
  87   2.0000      -0.295745        -8.0476
  88   2.0000      -0.293151        -7.9770
  89   2.0000      -0.289405        -7.8751
  90   2.0000      -0.282245        -7.6803
  91   2.0000      -0.275916        -7.5081
  92   2.0000      -0.270825        -7.3695
  93   2.0000      -0.264231        -7.1901
  94   2.0000      -0.256161        -6.9705
  95   2.0000      -0.238110        -6.4793
  96   2.0000      -0.221058        -6.0153
  97   2.0000      -0.210068        -5.7163
  98   2.0000      -0.201182        -5.4744
  99   2.0000      -0.193384        -5.2622
 100   2.0000      -0.186637        -5.0786
 101   0.0000      -0.042436        -1.1547
 102   0.0000      -0.033325        -0.9068
 103   0.0000      -0.009468        -0.2576
 104   0.0000       0.007335         0.1996
 105   0.0000       0.015631         0.4254

MULLIKEN ATOMIC CHARGES
-----------------------
   0 C :   -0.295059
   1 C :   -0.006141
   2 O :   -0.370151
   3 P :    0.623387
   4 S :   -0.316825
   5 O :   -0.356531
   6 C :   -0.006885
   7 C :   -0.302155
   8 S :   -0.114122
   9 C :   -0.325643
  10 S :   -0.135016
  11 P :    0.613926
  12 S :   -0.308726
  13 O :   -0.382531
  14 C :   -0.010698
  15 C :   -0.322998
  16 O :   -0.356660
  17 C :    0.003691
  18 C :   -0.332995
  19 H :    0.113337
  20 H :    0.105678
  21 H :    0.129132
  22 H :    0.105619
  23 H :    0.094399
  24 H :    0.124230
  25 H :    0.105523
  26 H :    0.113755
  27 H :    0.123953
  28 H :    0.111041
  29 H :    0.177771
  30 H :    0.214940
  31 H :    0.098945
  32 H :    0.107947
  33 H :    0.109213
  34 H :    0.103542
  35 H :    0.159956
  36 H :    0.111937
  37 H :    0.112442
  38 H :    0.130223
  39 H :    0.130120
  40 H :    0.118428
Sum of atomic charges:    0.0000000

LOEWDIN ATOMIC CHARGES
----------------------
   0 C :   -0.365158
   1 C :   -0.117529
   2 O :   -0.246016
   3 P :    0.573968
   4 S :   -0.301319
   5 O :   -0.229593
   6 C :   -0.116798
   7 C :   -0.365815
   8 S :    0.076958
   9 C :   -0.479440
  10 S :    0.075392
  11 P :    0.562559
  12 S :   -0.292445
  13 O :   -0.246417
  14 C :   -0.118687
  15 C :   -0.370263
  16 O :   -0.234205
  17 C :   -0.109752
  18 C :   -0.370981
  19 H :    0.125101
  20 H :    0.127781
  21 H :    0.123437
  22 H :    0.118119
  23 H :    0.102721
  24 H :    0.111066
  25 H :    0.119271
  26 H :    0.125197
  27 H :    0.121608
  28 H :    0.130287
  29 H :    0.134728
  30 H :    0.126295
  31 H :    0.115077
  32 H :    0.097382
  33 H :    0.124291
  34 H :    0.127924
  35 H :    0.125531
  36 H :    0.115241
  37 H :    0.123709
  38 H :    0.130106
  39 H :    0.116576
  40 H :    0.134093

  Mayer bond orders larger than 0.100000
B(  0-C ,  1-C ) :   1.1652 B(  0-C , 19-H ) :   0.9468 B(  0-C , 20-H ) :   0.9397
B(  0-C , 21-H ) :   0.9302 B(  1-C ,  2-O ) :   0.9124 B(  1-C , 22-H ) :   0.9368
B(  1-C , 23-H ) :   0.9133 B(  2-O ,  3-P ) :   1.1021 B(  3-P ,  4-S ) :   1.6005
B(  3-P ,  5-O ) :   1.1318 B(  3-P ,  8-S ) :   0.9568 B(  4-S ,  8-S ) :   0.1165
B(  5-O ,  6-C ) :   0.8969 B(  6-C ,  7-C ) :   1.1626 B(  6-C , 24-H ) :   0.9150
B(  6-C , 25-H ) :   0.9341 B(  7-C , 26-H ) :   0.9454 B(  7-C , 27-H ) :   0.9334
B(  7-C , 28-H ) :   0.9390 B(  8-S ,  9-C ) :   0.9820 B(  9-C , 10-S ) :   1.0148
B(  9-C , 29-H ) :   0.9083 B(  9-C , 30-H ) :   0.8451 B( 10-S , 11-P ) :   0.9259
B( 10-S , 12-S ) :   0.1114 B( 11-P , 12-S ) :   1.6739 B( 11-P , 13-O ) :   1.0724
B( 11-P , 16-O ) :   1.1430 B( 13-O , 14-C ) :   0.9122 B( 14-C , 15-C ) :   1.1674
B( 14-C , 31-H ) :   0.9347 B( 14-C , 32-H ) :   0.9064 B( 15-C , 33-H ) :   0.9451
B( 15-C , 34-H ) :   0.9385 B( 15-C , 35-H ) :   0.9200 B( 16-O , 17-C ) :   0.9006
B( 17-C , 18-C ) :   1.1690 B( 17-C , 36-H ) :   0.9263 B( 17-C , 37-H ) :   0.9336
B( 18-C , 38-H ) :   0.9432 B( 18-C , 39-H ) :   0.9314 B( 18-C , 40-H ) :   0.9355

Dispersion correction           -0.066879406
FINAL SINGLE POINT ENERGY     -2929.519008500854

DIPOLE MOMENT
-------------

Method             : SCF
Type of density    : Electron Density
Multiplicity       :   1
Irrep              :   0
Energy             : -2929.6379443846699360 Eh
Relativity type    :
Basis              : AO
                                X                 Y                 Z
Electronic contribution:     -6.518842588      -0.196398253      -8.178557893
Nuclear contribution   :      6.230624986      -0.912815504       9.018198207
                        -----------------------------------------
Total Dipole Moment    :     -0.288217602      -1.109213757       0.839640314
                        -----------------------------------------
Magnitude (a.u.)       :      1.420711231
Magnitude (Debye)      :      3.611160965

Rotational constants in cm-1:             0.014451             0.004753             0.004480
Rotational constants in MHz :           433.226108           142.502765           134.321415

                             ****ORCA TERMINATED NORMALLY****
TOTAL RUN TIME: 0 days 0 hours 0 minutes 21 seconds 228 msec
