                         Program Version 6.0.0  -   RELEASE  -
|  1> ! r2scan-3c def2/J RI DEFGRID2 scfconv6 printgap
|  2> %output
|  3>     printlevel normal
|  4> end
|  5> * xyz 0 1
|  6> C 2.4011738343 1.1051548002 -0.0014999403
|  7> C 1.1511229801 0.2817837983 0.001659059
|  8> C 1.1919759546 -1.1082428971 0.0011173543
|  9> C -0.0025404438 -1.8108608292 -0.0001458291
| 10> C -1.1926533242 -1.1072166666 -0.0010236516
| 11> C -1.1454658969 0.2858152935 -0.0007785025
| 12> N 0.0013769221 0.9512044406 0.0005628012
| 13> C -2.402050329 1.0995967087 0.0006573499
| 14> H 2.3804939692 1.8087110562 0.8270815651
| 15> H 3.2810434694 0.4738944013 0.0784644078
| 16> H 2.4563061103 1.6834805961 -0.9211247235
| 17> H 2.1384983366 -1.626133725 0.0017992935
| 18> H -0.0025217099 -2.8913732511 -0.000535733
| 19> H -2.1433781205 -1.6173231261 -0.0018767312
| 20> H -2.9721179525 0.9030036496 0.9065585133
| 21> H -2.1542856353 2.1550806837 -0.0445750493
| 22> H -3.021796802 0.8352315346 -0.8534439966
| 23> *
| 24>
| 25>                          ****END OF INPUT****

CARTESIAN COORDINATES (ANGSTROEM)
---------------------------------
  C      2.401174    1.105155   -0.001500
  C      1.151123    0.281784    0.001659
  C      1.191976   -1.108243    0.001117
  C     -0.002540   -1.810861   -0.000146
  C     -1.192653   -1.107217   -0.001024
  C     -1.145466    0.285815   -0.000779
  N      0.001377    0.951204    0.000563
  C     -2.402050    1.099597    0.000657
  H      2.380494    1.808711    0.827082
  H      3.281043    0.473894    0.078464
  H      2.456306    1.683481   -0.921125
  H      2.138498   -1.626134    0.001799
  H     -0.002522   -2.891373   -0.000536
  H     -2.143378   -1.617323   -0.001877
  H     -2.972118    0.903004    0.906559
  H     -2.154286    2.155081   -0.044575
  H     -3.021797    0.835232   -0.853444

 Total Charge           Charge          ....    0
 Multiplicity           Mult            ....    1
 Number of Electrons    NEL             ....   58
 Basis Dimension        Dim             ....  202

ORBITAL ENERGIES
----------------

  NO   OCC          E(Eh)            E(eV)
   0   2.0000     -14.142706      -384.8426
   1   2.0000     -10.070676      -274.0370
   2   2.0000     -10.069948      -274.0172
   3   2.0000     -10.047563      -273.4081
   4   2.0000     -10.034229      -273.0453
   5   2.0000     -10.033960      -273.0379
   6   2.0000     -10.022489      -272.7258
   7   2.0000     -10.021883      -272.7093
   8   2.0000      -0.911036       -24.7906
   9   2.0000      -0.767814       -20.8933
  10   2.0000      -0.762881       -20.7591
  11   2.0000      -0.689462       -18.7612
  12   2.0000      -0.652725       -17.7616
  13   2.0000      -0.576543       -15.6885
  14   2.0000      -0.565937       -15.3999
  15   2.0000      -0.472741       -12.8639
  16   2.0000      -0.459635       -12.5073
  17   2.0000      -0.413858       -11.2617
  18   2.0000      -0.409428       -11.1411
  19   2.0000      -0.385999       -10.5036
  20   2.0000      -0.383999       -10.4491
  21   2.0000      -0.377733       -10.2786
  22   2.0000      -0.349442        -9.5088
  23   2.0000      -0.342315        -9.3149
  24   2.0000      -0.335038        -9.1168
  25   2.0000      -0.322522        -8.7763
  26   2.0000      -0.263010        -7.1569
  27   2.0000      -0.227116        -6.1801
  28   2.0000      -0.217185        -5.9099
  29   0.0000      -0.045917        -1.2495
  30   0.0000      -0.031840        -0.8664
  31   0.0000       0.075902         2.0654
  32   0.0000       0.103494         2.8162
  33   0.0000       0.106760         2.9051

MULLIKEN ATOMIC CHARGES
-----------------------
   0 C :   -0.562158
   1 C :    0.230308
   2 C :   -0.211570
   3 C :   -0.178882
   4 C :   -0.194308
   5 C :    0.248482
   6 N :   -0.178555
   7 C :   -0.573957
   8 H :    0.168253
   9 H :    0.145695
  10 H :    0.168328
  11 H :    0.152117
  12 H :    0.146892
  13 H :    0.151528
  14 H :    0.155848
  15 H :    0.178975
  16 H :    0.153004
Sum of atomic charges:    0.0000000

LOEWDIN ATOMIC CHARGES
----------------------
   0 C :   -0.360865
   1 C :    0.131238
   2 C :   -0.158791
   3 C :   -0.118672
   4 C :   -0.154816
   5 C :    0.132331
   6 N :   -0.620197
   7 C :   -0.363098
   8 H :    0.172482
   9 H :    0.154872
  10 H :    0.171937
  11 H :    0.168807
  12 H :    0.168311
  13 H :    0.169979
  14 H :    0.166312
  15 H :    0.175090
  16 H :    0.165080

  Mayer bond orders larger than 0.100000
B(  0-C ,  1-C ) :   0.8567 B(  0-C ,  8-H ) :   0.9674 B(  0-C ,  9-H ) :   0.9986
B(  0-C , 10-H ) :   0.9608 B(  1-C ,  2-C ) :   1.4297 B(  1-C ,  6-N ) :   1.3318
B(  2-C ,  3-C ) :   1.4278 B(  2-C , 11-H ) :   0.9069 B(  3-C ,  4-C ) :   1.4562
B(  3-C , 12-H ) :   0.9551 B(  4-C ,  5-C ) :   1.3731 B(  4-C , 13-H ) :   0.9172
B(  5-C ,  6-N ) :   1.3836 B(  5-C ,  7-C ) :   0.8213 B(  7-C , 14-H ) :   0.9670
B(  7-C , 15-H ) :   1.0008 B(  7-C , 16-H ) :   0.9714

Dispersion correction           -0.005178420
FINAL SINGLE POINT ENERGY      -326.826932131984

DIPOLE MOMENT
-------------

Method             : SCF
Type of density    : Electron Density
Multiplicity       :   1
Irrep              :   0
Energy             :  -326.8290406808433204 Eh
Relativity type    :
Basis              : AO
                                X                 Y                 Z
Electronic contribution:      0.009189154      -2.168129051       0.005098208
Nuclear contribution   :     -0.035416132       1.623154464      -0.007176206
                        -----------------------------------------
Total Dipole Moment    :     -0.026226978      -0.544974587      -0.002077998
                        -----------------------------------------
Magnitude (a.u.)       :      0.545609268
Magnitude (Debye)      :      1.386828545

Rotational constants in cm-1:             0.118636             0.064301             0.042353
Rotational constants in MHz :          3556.622692          1927.702052          1269.699799

                             ****ORCA TERMINATED NORMALLY****
TOTAL RUN TIME: 0 days 0 hours 0 minutes 18 seconds 250 msec
