                         Program Version 6.0.0  -   RELEASE  -
|  1> ! r2scan-3c def2/J RI DEFGRID2 scfconv6 printgap
|  2> %output
|  3>     printlevel normal
|  4> end
|  5> %cpcm
|  6>     smd true
|  7>     smdsolvent "water"
|  8> end
|  9> * xyz 0 1
| 10> C 2.4011738343 1.1051548002 -0.0014999403
| 11> C 1.1511229801 0.2817837983 0.001659059
| 12> C 1.1919759546 -1.1082428971 0.0011173543
| 13> C -0.0025404438 -1.8108608292 -0.0001458291
| 14> C -1.1926533242 -1.1072166666 -0.0010236516
| 15> C -1.1454658969 0.2858152935 -0.0007785025
| 16> N 0.0013769221 0.9512044406 0.0005628012
| 17> C -2.402050329 1.0995967087 0.0006573499
| 18> H 2.3804939692 1.8087110562 0.8270815651
| 19> H 3.2810434694 0.4738944013 0.0784644078
| 20> H 2.4563061103 1.6834805961 -0.9211247235
| 21> H 2.1384983366 -1.626133725 0.0017992935
| 22> H -0.0025217099 -2.8913732511 -0.000535733
| 23> H -2.1433781205 -1.6173231261 -0.0018767312
| 24> H -2.9721179525 0.9030036496 0.9065585133
| 25> H -2.1542856353 2.1550806837 -0.0445750493
| 26> H -3.021796802 0.8352315346 -0.8534439966
| 27> *
| 28>
| 29>                          ****END OF INPUT****

CARTESIAN COORDINATES (ANGSTROEM)
---------------------------------
  C      2.401174    1.105155   -0.001500
  C      1.151123    0.281784    0.001659
  C      1.191976   -1.108243    0.001117
  C     -0.002540   -1.810861   -0.000146
  C     -1.192653   -1.107217   -0.001024
  C     -1.145466    0.285815   -0.000779
  N      0.001377    0.951204    0.000563
  C     -2.402050    1.099597    0.000657
  H      2.380494    1.808711    0.827082
  H      3.281043    0.473894    0.078464
  H      2.456306    1.683481   -0.921125
  H      2.138498   -1.626134    0.001799
  H     -0.002522   -2.891373   -0.000536
  H     -2.143378   -1.617323   -0.001877
  H     -2.972118    0.903004    0.906559
  H     -2.154286    2.155081   -0.044575
  H     -3.021797    0.835232   -0.853444

 Total Charge           Charge          ....    0
 Multiplicity           Mult            ....    1
 Number of Electrons    NEL             ....   58
 Basis Dimension        Dim             ....  202

ORBITAL ENERGIES
----------------

  NO   OCC          E(Eh)            E(eV)
   0   2.0000     -14.147755      -384.9800
   1   2.0000     -10.071620      -274.0627
   2   2.0000     -10.070805      -274.0405
   3   2.0000     -10.043953      -273.3099
   4   2.0000     -10.030742      -272.9504
   5   2.0000     -10.030534      -272.9447
   6   2.0000     -10.017247      -272.5832
   7   2.0000     -10.016668      -272.5674
   8   2.0000      -0.914723       -24.8909
   9   2.0000      -0.766738       -20.8640
  10   2.0000      -0.761824       -20.7303
  11   2.0000      -0.686018       -18.6675
  12   2.0000      -0.649340       -17.6694
  13   2.0000      -0.573674       -15.6105
  14   2.0000      -0.565021       -15.3750
  15   2.0000      -0.467640       -12.7251
  16   2.0000      -0.457950       -12.4615
  17   2.0000      -0.409207       -11.1351
  18   2.0000      -0.408190       -11.1074
  19   2.0000      -0.381458       -10.3800
  20   2.0000      -0.379685       -10.3318
  21   2.0000      -0.373219       -10.1558
  22   2.0000      -0.344689        -9.3795
  23   2.0000      -0.338856        -9.2207
  24   2.0000      -0.333631        -9.0786
  25   2.0000      -0.318887        -8.6774
  26   2.0000      -0.265753        -7.2315
  27   2.0000      -0.227054        -6.1785
  28   2.0000      -0.225009        -6.1228
  29   0.0000      -0.047417        -1.2903
  30   0.0000      -0.031916        -0.8685
  31   0.0000       0.078090         2.1249
  32   0.0000       0.108179         2.9437
  33   0.0000       0.112773         3.0687

MULLIKEN ATOMIC CHARGES
-----------------------
   0 C :   -0.609473
   1 C :    0.224101
   2 C :   -0.239728
   3 C :   -0.195018
   4 C :   -0.217774
   5 C :    0.239270
   6 N :   -0.227279
   7 C :   -0.593986
   8 H :    0.180537
   9 H :    0.172036
  10 H :    0.183684
  11 H :    0.186392
  12 H :    0.182613
  13 H :    0.184753
  14 H :    0.177576
  15 H :    0.177068
  16 H :    0.175229
Sum of atomic charges:    0.0000000

LOEWDIN ATOMIC CHARGES
----------------------
   0 C :   -0.367999
   1 C :    0.123730
   2 C :   -0.161474
   3 C :   -0.118729
   4 C :   -0.155814
   5 C :    0.126500
   6 N :   -0.661111
   7 C :   -0.367029
   8 H :    0.174785
   9 H :    0.165394
  10 H :    0.175609
  11 H :    0.181513
  12 H :    0.181178
  13 H :    0.182436
  14 H :    0.174847
  15 H :    0.172246
  16 H :    0.173918

  Mayer bond orders larger than 0.100000
B(  0-C ,  1-C ) :   0.8514 B(  0-C ,  8-H ) :   0.9659 B(  0-C ,  9-H ) :   0.9862
B(  0-C , 10-H ) :   0.9578 B(  1-C ,  2-C ) :   1.4199 B(  1-C ,  6-N ) :   1.3200
B(  2-C ,  3-C ) :   1.3953 B(  2-C , 11-H ) :   0.9161 B(  3-C ,  4-C ) :   1.4271
B(  3-C , 12-H ) :   0.9588 B(  4-C ,  5-C ) :   1.3640 B(  4-C , 13-H ) :   0.9237
B(  5-C ,  6-N ) :   1.3740 B(  5-C ,  7-C ) :   0.8333 B(  7-C , 14-H ) :   0.9562
B(  7-C , 15-H ) :   1.0029 B(  7-C , 16-H ) :   0.9601

Dispersion correction           -0.005178420
FINAL SINGLE POINT ENERGY      -326.832460366650

DIPOLE MOMENT
-------------

Method             : SCF
Type of density    : Electron Density
Multiplicity       :   1
Irrep              :   0
Energy             :  -326.8345689155093510 Eh
Relativity type    :
Basis              : AO
                                X                 Y                 Z
Electronic contribution:     -0.012278713      -2.509197253       0.003776287
Nuclear contribution   :     -0.035416132       1.623154464      -0.007176206
                        -----------------------------------------
Total Dipole Moment    :     -0.047694845      -0.886042789      -0.003399918
                        -----------------------------------------
Magnitude (a.u.)       :      0.887332058
Magnitude (Debye)      :      2.255418851

Rotational constants in cm-1:             0.118636             0.064301             0.042353
Rotational constants in MHz :          3556.622692          1927.702052          1269.699799

                             ****ORCA TERMINATED NORMALLY****
TOTAL RUN TIME: 0 days 0 hours 0 minutes 27 seconds 156 msec
