                         Program Version 6.0.0  -   RELEASE  -
|  1> ! r2scan-3c def2/J RI DEFGRID2 scfconv6 printgap
|  2> %output
|  3>     printlevel normal
|  4> end
|  5> * xyz 0 1
|  6> C -1.6926616142 -0.0519806822 -0.5298890618
|  7> C -1.0863633552 1.3052214 -0.1529720498
|  8> C 0.2778034843 1.1645757335 0.5458165804
|  9> C 1.0560775216 -0.0144148962 0.0388226592
| 10> O 2.1937382608 0.0747567559 -0.3866651247
| 11> C 0.3295534784 -1.3291969476 0.1277440464
| 12> C -1.163949187 -1.1529739517 0.3842494223
| 13> H -1.4260423132 -0.302722093 -1.5588281001
| 14> H -2.7797472671 0.0004240297 -0.4728463184
| 15> H -0.9657259541 1.9110152995 -1.051435932
| 16> H -1.75737178 1.8426936288 0.517505186
| 17> H 0.8686307768 2.0735295792 0.4300561992
| 18> H 0.1202970536 0.989810371 1.6123152576
| 19> H 0.5063910427 -1.873741378 -0.8027493082
| 20> H 0.8025134369 -1.910961918 0.9227933626
| 21> H -1.6807420166 -2.0918725011 0.1846090361
| 22> H -1.3466462059 -0.8861804215 1.4256441637
| 23> *
| 24>
| 25>                          ****END OF INPUT****

CARTESIAN COORDINATES (ANGSTROEM)
---------------------------------
  C     -1.692662   -0.051981   -0.529889
  C     -1.086363    1.305221   -0.152972
  C      0.277803    1.164576    0.545817
  C      1.056078   -0.014415    0.038823
  O      2.193738    0.074757   -0.386665
  C      0.329553   -1.329197    0.127744
  C     -1.163949   -1.152974    0.384249
  H     -1.426042   -0.302722   -1.558828
  H     -2.779747    0.000424   -0.472846
  H     -0.965726    1.911015   -1.051436
  H     -1.757372    1.842694    0.517505
  H      0.868631    2.073530    0.430056
  H      0.120297    0.989810    1.612315
  H      0.506391   -1.873741   -0.802749
  H      0.802513   -1.910962    0.922793
  H     -1.680742   -2.091873    0.184609
  H     -1.346646   -0.886180    1.425644

 Total Charge           Charge          ....    0
 Multiplicity           Mult            ....    1
 Number of Electrons    NEL             ....   54
 Basis Dimension        Dim             ....  188

ORBITAL ENERGIES
----------------

  NO   OCC          E(Eh)            E(eV)
   0   2.0000     -18.932248      -515.1727
   1   2.0000     -10.113236      -275.1951
   2   2.0000     -10.041424      -273.2410
   3   2.0000     -10.039184      -273.1801
   4   2.0000     -10.037945      -273.1464
   5   2.0000     -10.037318      -273.1293
   6   2.0000     -10.036575      -273.1091
   7   2.0000      -0.997096       -27.1324
   8   2.0000      -0.807653       -21.9774
   9   2.0000      -0.726732       -19.7754
  10   2.0000      -0.697649       -18.9840
  11   2.0000      -0.603497       -16.4220
  12   2.0000      -0.563759       -15.3407
  13   2.0000      -0.487529       -13.2663
  14   2.0000      -0.467770       -12.7287
  15   2.0000      -0.444051       -12.0832
  16   2.0000      -0.424034       -11.5385
  17   2.0000      -0.388620       -10.5749
  18   2.0000      -0.385528       -10.4907
  19   2.0000      -0.372633       -10.1399
  20   2.0000      -0.358655        -9.7595
  21   2.0000      -0.346836        -9.4379
  22   2.0000      -0.334870        -9.1123
  23   2.0000      -0.303574        -8.2607
  24   2.0000      -0.297766        -8.1026
  25   2.0000      -0.291207        -7.9241
  26   2.0000      -0.206112        -5.6086
  27   0.0000      -0.045468        -1.2373
  28   0.0000       0.077042         2.0964
  29   0.0000       0.099999         2.7211
  30   0.0000       0.113775         3.0960
  31   0.0000       0.120121         3.2687

MULLIKEN ATOMIC CHARGES
-----------------------
   0 C :   -0.244277
   1 C :   -0.389610
   2 C :   -0.232030
   3 C :    0.249668
   4 O :   -0.342855
   5 C :   -0.407226
   6 C :   -0.250472
   7 H :    0.147986
   8 H :    0.154767
   9 H :    0.162297
  10 H :    0.156013
  11 H :    0.174463
  12 H :    0.153554
  13 H :    0.183518
  14 H :    0.179896
  15 H :    0.153409
  16 H :    0.150901
Sum of atomic charges:   -0.0000000

LOEWDIN ATOMIC CHARGES
----------------------
   0 C :   -0.301065
   1 C :   -0.289702
   2 C :   -0.272986
   3 C :    0.224195
   4 O :   -0.458575
   5 C :   -0.279141
   6 C :   -0.300069
   7 H :    0.158296
   8 H :    0.158688
   9 H :    0.160856
  10 H :    0.157937
  11 H :    0.178981
  12 H :    0.176727
  13 H :    0.183848
  14 H :    0.185602
  15 H :    0.159819
  16 H :    0.156589

  Mayer bond orders larger than 0.100000
B(  0-C ,  1-C ) :   0.9006 B(  0-C ,  6-C ) :   0.8945 B(  0-C ,  7-H ) :   0.9763
B(  0-C ,  8-H ) :   0.9552 B(  1-C ,  2-C ) :   0.8674 B(  1-C ,  9-H ) :   0.9935
B(  1-C , 10-H ) :   0.9809 B(  2-C ,  3-C ) :   0.9447 B(  2-C , 11-H ) :   0.9504
B(  2-C , 12-H ) :   0.9451 B(  3-C ,  4-O ) :   1.9490 B(  3-C ,  5-C ) :   0.9124
B(  5-C ,  6-C ) :   0.8572 B(  5-C , 13-H ) :   0.9813 B(  5-C , 14-H ) :   0.9447
B(  6-C , 15-H ) :   0.9468 B(  6-C , 16-H ) :   0.9908

Dispersion correction           -0.004796492
FINAL SINGLE POINT ENERGY      -309.800623885170

DIPOLE MOMENT
-------------

Method             : SCF
Type of density    : Electron Density
Multiplicity       :   1
Irrep              :   0
Energy             :  -309.8028185097459755 Eh
Relativity type    :
Basis              : AO
                                X                 Y                 Z
Electronic contribution:      5.907466625       0.125521708      -0.720345423
Nuclear contribution   :     -7.152369637      -0.231561983       1.126693682
                        -----------------------------------------
Total Dipole Moment    :     -1.244903012      -0.106040276       0.406348259
                        -----------------------------------------
Magnitude (a.u.)       :      1.313829120
Magnitude (Debye)      :      3.339488230

Rotational constants in cm-1:             0.139252             0.084398             0.060900
Rotational constants in MHz :          4174.663032          2530.177799          1825.730096

                             ****ORCA TERMINATED NORMALLY****
TOTAL RUN TIME: 0 days 0 hours 0 minutes 25 seconds 249 msec
