                         Program Version 6.0.0  -   RELEASE  -
|  1> ! r2scan-3c def2/J RI DEFGRID2 scfconv6 printgap
|  2> %output
|  3>     printlevel normal
|  4> end
|  5> %cpcm
|  6>     smd true
|  7>     smdsolvent "water"
|  8> end
|  9> * xyz 0 1
| 10> C -1.6926616142 -0.0519806822 -0.5298890618
| 11> C -1.0863633552 1.3052214 -0.1529720498
| 12> C 0.2778034843 1.1645757335 0.5458165804
| 13> C 1.0560775216 -0.0144148962 0.0388226592
| 14> O 2.1937382608 0.0747567559 -0.3866651247
| 15> C 0.3295534784 -1.3291969476 0.1277440464
| 16> C -1.163949187 -1.1529739517 0.3842494223
| 17> H -1.4260423132 -0.302722093 -1.5588281001
| 18> H -2.7797472671 0.0004240297 -0.4728463184
| 19> H -0.9657259541 1.9110152995 -1.051435932
| 20> H -1.75737178 1.8426936288 0.517505186
| 21> H 0.8686307768 2.0735295792 0.4300561992
| 22> H 0.1202970536 0.989810371 1.6123152576
| 23> H 0.5063910427 -1.873741378 -0.8027493082
| 24> H 0.8025134369 -1.910961918 0.9227933626
| 25> H -1.6807420166 -2.0918725011 0.1846090361
| 26> H -1.3466462059 -0.8861804215 1.4256441637
| 27> *
| 28>
| 29>                          ****END OF INPUT****

CARTESIAN COORDINATES (ANGSTROEM)
---------------------------------
  C     -1.692662   -0.051981   -0.529889
  C     -1.086363    1.305221   -0.152972
  C      0.277803    1.164576    0.545817
  C      1.056078   -0.014415    0.038823
  O      2.193738    0.074757   -0.386665
  C      0.329553   -1.329197    0.127744
  C     -1.163949   -1.152974    0.384249
  H     -1.426042   -0.302722   -1.558828
  H     -2.779747    0.000424   -0.472846
  H     -0.965726    1.911015   -1.051436
  H     -1.757372    1.842694    0.517505
  H      0.868631    2.073530    0.430056
  H      0.120297    0.989810    1.612315
  H      0.506391   -1.873741   -0.802749
  H      0.802513   -1.910962    0.922793
  H     -1.680742   -2.091873    0.184609
  H     -1.346646   -0.886180    1.425644

 Total Charge           Charge          ....    0
 Multiplicity           Mult            ....    1
 Number of Electrons    NEL             ....   54
 Basis Dimension        Dim             ....  188

ORBITAL ENERGIES
----------------

  NO   OCC          E(Eh)            E(eV)
   0   2.0000     -18.943873      -515.4890
   1   2.0000     -10.121125      -275.4098
   2   2.0000     -10.028276      -272.8833
   3   2.0000     -10.028086      -272.8781
   4   2.0000     -10.026465      -272.8340
   5   2.0000     -10.022500      -272.7261
   6   2.0000     -10.019439      -272.6428
   7   2.0000      -1.011541       -27.5254
   8   2.0000      -0.795374       -21.6432
   9   2.0000      -0.714557       -19.4441
  10   2.0000      -0.687352       -18.7038
  11   2.0000      -0.591942       -16.1076
  12   2.0000      -0.551898       -15.0179
  13   2.0000      -0.477434       -12.9916
  14   2.0000      -0.456270       -12.4157
  15   2.0000      -0.444067       -12.0837
  16   2.0000      -0.419111       -11.4046
  17   2.0000      -0.382433       -10.4065
  18   2.0000      -0.376396       -10.2423
  19   2.0000      -0.371551       -10.1104
  20   2.0000      -0.345805        -9.4098
  21   2.0000      -0.339215        -9.2305
  22   2.0000      -0.327372        -8.9082
  23   2.0000      -0.291079        -7.9207
  24   2.0000      -0.286340        -7.7917
  25   2.0000      -0.280240        -7.6257
  26   2.0000      -0.217288        -5.9127
  27   0.0000      -0.048786        -1.3275
  28   0.0000       0.091153         2.4804
  29   0.0000       0.113562         3.0902
  30   0.0000       0.125769         3.4223
  31   0.0000       0.128794         3.5047

MULLIKEN ATOMIC CHARGES
-----------------------
   0 C :   -0.263887
   1 C :   -0.394175
   2 C :   -0.255500
   3 C :    0.300627
   4 O :   -0.459069
   5 C :   -0.417325
   6 C :   -0.271133
   7 H :    0.157365
   8 H :    0.164983
   9 H :    0.171170
  10 H :    0.169267
  11 H :    0.175149
  12 H :    0.188402
  13 H :    0.196787
  14 H :    0.202625
  15 H :    0.164621
  16 H :    0.170092
Sum of atomic charges:   -0.0000000

LOEWDIN ATOMIC CHARGES
----------------------
   0 C :   -0.302134
   1 C :   -0.286767
   2 C :   -0.270946
   3 C :    0.241372
   4 O :   -0.541672
   5 C :   -0.276286
   6 C :   -0.297406
   7 H :    0.160811
   8 H :    0.162080
   9 H :    0.163169
  10 H :    0.163560
  11 H :    0.178994
  12 H :    0.192603
  13 H :    0.189153
  14 H :    0.196180
  15 H :    0.164041
  16 H :    0.163247

  Mayer bond orders larger than 0.100000
B(  0-C ,  1-C ) :   0.8946 B(  0-C ,  6-C ) :   0.8929 B(  0-C ,  7-H ) :   0.9756
B(  0-C ,  8-H ) :   0.9535 B(  1-C ,  2-C ) :   0.8587 B(  1-C ,  9-H ) :   0.9952
B(  1-C , 10-H ) :   0.9752 B(  2-C ,  3-C ) :   0.9643 B(  2-C , 11-H ) :   0.9539
B(  2-C , 12-H ) :   0.9268 B(  3-C ,  4-O ) :   1.8667 B(  3-C ,  5-C ) :   0.9324
B(  5-C ,  6-C ) :   0.8547 B(  5-C , 13-H ) :   0.9768 B(  5-C , 14-H ) :   0.9284
B(  6-C , 15-H ) :   0.9452 B(  6-C , 16-H ) :   0.9904

Dispersion correction           -0.004796492
FINAL SINGLE POINT ENERGY      -309.809407361282

DIPOLE MOMENT
-------------

Method             : SCF
Type of density    : Electron Density
Multiplicity       :   1
Irrep              :   0
Energy             :  -309.8116019858575783 Eh
Relativity type    :
Basis              : AO
                                X                 Y                 Z
Electronic contribution:      5.393098294       0.065842293      -0.496686754
Nuclear contribution   :     -7.152369637      -0.231561983       1.126693682
                        -----------------------------------------
Total Dipole Moment    :     -1.759271343      -0.165719691       0.630006928
                        -----------------------------------------
Magnitude (a.u.)       :      1.876008370
Magnitude (Debye)      :      4.768434323

Rotational constants in cm-1:             0.139252             0.084398             0.060900
Rotational constants in MHz :          4174.663032          2530.177799          1825.730096

                             ****ORCA TERMINATED NORMALLY****
TOTAL RUN TIME: 0 days 0 hours 0 minutes 24 seconds 452 msec
