                         Program Version 6.0.0  -   RELEASE  -
|  1> ! pbe def2-sv(p) def2/J RI DEFGRID1 loosescf d4 GCP(DFT/SV(P)) printgap
|  2> %output
|  3>     printlevel normal
|  4> end
|  5> * xyz 0 1
|  6> C 5.4606768882 -1.5463539906 -0.1659394544
|  7> C 4.8234205102 -0.9693561776 -1.4124735132
|  8> O 3.3890395725 -1.1178275385 -1.3908451697
|  9> P 2.4749110081 -0.2799516926 -0.4106197931
| 10> S 3.1469663639 1.5162629642 0.013240881
| 11> O 2.3235454639 -1.3201731657 0.7858145777
| 12> C 1.4190863963 -1.2423656942 1.8996543177
| 13> C 1.7566253612 -0.1138922986 2.8539193528
| 14> S 0.6617912285 -0.3840314181 -1.5105073286
| 15> C 0.0530435198 1.2903836868 -1.1601483057
| 16> S -0.6856704456 1.4500145018 0.487928114
| 17> P -2.3771112894 0.2464584391 0.0992209569
| 18> S -3.1971564841 0.4008636995 -1.6790335966
| 19> O -3.3491373063 0.5156162242 1.3249886019
| 20> C -4.3496581262 1.5489959979 1.305712712
| 21> C -3.7385898374 2.9353102135 1.303018898
| 22> O -1.7808926354 -1.1757823831 0.4725708548
| 23> C -2.3541681968 -2.4007425965 -0.0277351681
| 24> C -3.7147948879 -2.6704778772 0.5790743465
| 25> H 5.1590000767 -2.5820666067 -0.0349684436
| 26> H 6.5412065348 -1.4898474657 -0.2524556412
| 27> H 5.1427935908 -0.9747966363 0.7051586093
| 28> H 5.1289170888 -1.5046153739 -2.3122706586
| 29> H 5.0624629195 0.0943885909 -1.5119535635
| 30> H 0.3963568797 -1.1411203663 1.5243995533
| 31> H 1.5327596071 -2.2146083886 2.383740463
| 32> H 2.7946755464 -0.1835784961 3.1688080481
| 33> H 1.5994034697 0.8521637539 2.3784182431
| 34> H 1.1120691443 -0.182165836 3.7243583083
| 35> H -0.7001656661 1.5106680043 -1.9159272984
| 36> H 0.8812678513 1.9979716638 -1.1998917705
| 37> H -4.9781548048 1.4051386316 0.4209595999
| 38> H -4.9315813196 1.3663321322 2.2099913623
| 39> H -3.2164479665 3.1110741763 0.3632551831
| 40> H -4.5249651356 3.6754291819 1.4113694905
| 41> H -3.0293514546 3.0379505152 2.1204802115
| 42> H -2.4191250833 -2.3311060169 -1.1184101086
| 43> H -1.625982753 -3.1645437212 0.2483387109
| 44> H -4.4239328099 -1.9131836184 0.2469264674
| 45> H -4.0653015327 -3.6463945375 0.2581547084
| 46> H -3.6540861718 -2.6438528309 1.6638346678
| 47> *
| 48>
| 49>                          ****END OF INPUT****

CARTESIAN COORDINATES (ANGSTROEM)
---------------------------------
  C      5.460677   -1.546354   -0.165939
  C      4.823421   -0.969356   -1.412474
  O      3.389040   -1.117828   -1.390845
  P      2.474911   -0.279952   -0.410620
  S      3.146966    1.516263    0.013241
  O      2.323545   -1.320173    0.785815
  C      1.419086   -1.242366    1.899654
  C      1.756625   -0.113892    2.853919
  S      0.661791   -0.384031   -1.510507
  C      0.053044    1.290384   -1.160148
  S     -0.685670    1.450015    0.487928
  P     -2.377111    0.246458    0.099221
  S     -3.197156    0.400864   -1.679034
  O     -3.349137    0.515616    1.324989
  C     -4.349658    1.548996    1.305713
  C     -3.738590    2.935310    1.303019
  O     -1.780893   -1.175782    0.472571
  C     -2.354168   -2.400743   -0.027735
  C     -3.714795   -2.670478    0.579074
  H      5.159000   -2.582067   -0.034968
  H      6.541207   -1.489847   -0.252456
  H      5.142794   -0.974797    0.705159
  H      5.128917   -1.504615   -2.312271
  H      5.062463    0.094389   -1.511954
  H      0.396357   -1.141120    1.524400
  H      1.532760   -2.214608    2.383740
  H      2.794676   -0.183578    3.168808
  H      1.599403    0.852164    2.378418
  H      1.112069   -0.182166    3.724358
  H     -0.700166    1.510668   -1.915927
  H      0.881268    1.997972   -1.199892
  H     -4.978155    1.405139    0.420960
  H     -4.931581    1.366332    2.209991
  H     -3.216448    3.111074    0.363255
  H     -4.524965    3.675429    1.411369
  H     -3.029351    3.037951    2.120480
  H     -2.419125   -2.331106   -1.118410
  H     -1.625983   -3.164544    0.248339
  H     -4.423933   -1.913184    0.246926
  H     -4.065302   -3.646395    0.258155
  H     -3.654086   -2.643853    1.663835

 Total Charge           Charge          ....    0
 Multiplicity           Mult            ....    1
 Number of Electrons    NEL             ....  202
 Basis Dimension        Dim             ....  334

ORBITAL ENERGIES
----------------

  NO   OCC          E(Eh)            E(eV)
   0   2.0000     -88.046238     -2395.8599
   1   2.0000     -88.039488     -2395.6763
   2   2.0000     -87.995279     -2394.4733
   3   2.0000     -87.989758     -2394.3230
   4   2.0000     -76.431635     -2079.8105
   5   2.0000     -76.425685     -2079.6486
   6   2.0000     -18.799948      -511.5726
   7   2.0000     -18.795521      -511.4521
   8   2.0000     -18.787781      -511.2415
   9   2.0000     -18.787675      -511.2386
  10   2.0000      -9.957827      -270.9662
  11   2.0000      -9.954100      -270.8648
  12   2.0000      -9.953106      -270.8378
  13   2.0000      -9.950324      -270.7621
  14   2.0000      -9.946297      -270.6525
  15   2.0000      -9.887870      -269.0626
  16   2.0000      -9.887215      -269.0448
  17   2.0000      -9.881904      -268.9003
  18   2.0000      -9.874538      -268.6998
  19   2.0000      -7.691118      -209.2860
  20   2.0000      -7.684721      -209.1119
  21   2.0000      -7.640117      -207.8982
  22   2.0000      -7.634630      -207.7488
  23   2.0000      -6.429301      -174.9502
  24   2.0000      -6.423191      -174.7839
  25   2.0000      -5.718890      -155.6189
  26   2.0000      -5.715752      -155.5335
  27   2.0000      -5.712634      -155.4487
  28   2.0000      -5.709361      -155.3596
  29   2.0000      -5.708068      -155.3244
  30   2.0000      -5.701500      -155.1457
  31   2.0000      -5.668867      -154.2577
  32   2.0000      -5.663427      -154.1097
  33   2.0000      -5.660771      -154.0374
  34   2.0000      -5.660461      -154.0290
  35   2.0000      -5.655502      -153.8940
  36   2.0000      -5.654669      -153.8714
  37   2.0000      -4.651715      -126.5796
  38   2.0000      -4.651028      -126.5609
  39   2.0000      -4.649901      -126.5302
  40   2.0000      -4.645541      -126.4116
  41   2.0000      -4.645002      -126.3969
  42   2.0000      -4.643848      -126.3655
  43   2.0000      -0.992955       -27.0197
  44   2.0000      -0.983369       -26.7588
  45   2.0000      -0.951957       -25.9041
  46   2.0000      -0.940757       -25.5993
  47   2.0000      -0.764933       -20.8149
  48   2.0000      -0.723155       -19.6780
  49   2.0000      -0.708367       -19.2757
  50   2.0000      -0.691021       -18.8036
  51   2.0000      -0.682403       -18.5691
  52   2.0000      -0.675165       -18.3722
  53   2.0000      -0.654016       -17.7967
  54   2.0000      -0.641745       -17.4628
  55   2.0000      -0.606625       -16.5071
  56   2.0000      -0.595415       -16.2021
  57   2.0000      -0.576692       -15.6926
  58   2.0000      -0.568730       -15.4759
  59   2.0000      -0.560256       -15.2453
  60   2.0000      -0.499760       -13.5992
  61   2.0000      -0.490567       -13.3490
  62   2.0000      -0.477596       -12.9960
  63   2.0000      -0.468153       -12.7391
  64   2.0000      -0.460295       -12.5253
  65   2.0000      -0.444709       -12.1011
  66   2.0000      -0.443403       -12.0656
  67   2.0000      -0.434678       -11.8282
  68   2.0000      -0.427955       -11.6452
  69   2.0000      -0.417114       -11.3503
  70   2.0000      -0.404848       -11.0165
  71   2.0000      -0.397377       -10.8132
  72   2.0000      -0.393362       -10.7039
  73   2.0000      -0.389736       -10.6053
  74   2.0000      -0.386003       -10.5037
  75   2.0000      -0.377349       -10.2682
  76   2.0000      -0.371764       -10.1162
  77   2.0000      -0.360429        -9.8078
  78   2.0000      -0.355560        -9.6753
  79   2.0000      -0.352368        -9.5884
  80   2.0000      -0.348177        -9.4744
  81   2.0000      -0.343261        -9.3406
  82   2.0000      -0.340317        -9.2605
  83   2.0000      -0.336990        -9.1700
  84   2.0000      -0.333130        -9.0649
  85   2.0000      -0.320632        -8.7248
  86   2.0000      -0.311109        -8.4657
  87   2.0000      -0.300422        -8.1749
  88   2.0000      -0.292787        -7.9671
  89   2.0000      -0.290339        -7.9005
  90   2.0000      -0.282230        -7.6799
  91   2.0000      -0.277648        -7.5552
  92   2.0000      -0.272361        -7.4113
  93   2.0000      -0.269322        -7.3286
  94   2.0000      -0.257624        -7.0103
  95   2.0000      -0.236670        -6.4401
  96   2.0000      -0.219232        -5.9656
  97   2.0000      -0.215991        -5.8774
  98   2.0000      -0.209148        -5.6912
  99   2.0000      -0.206891        -5.6298
 100   2.0000      -0.201057        -5.4710
 101   0.0000      -0.047680        -1.2974
 102   0.0000      -0.029474        -0.8020
 103   0.0000      -0.003169        -0.0862
 104   0.0000       0.002494         0.0679
 105   0.0000       0.012828         0.3491

MULLIKEN ATOMIC CHARGES
-----------------------
   0 C :   -0.305445
   1 C :   -0.005010
   2 O :   -0.371451
   3 P :    0.629898
   4 S :   -0.338188
   5 O :   -0.371710
   6 C :   -0.036513
   7 C :   -0.308827
   8 S :   -0.079071
   9 C :   -0.369013
  10 S :   -0.077299
  11 P :    0.613014
  12 S :   -0.330263
  13 O :   -0.369922
  14 C :   -0.006478
  15 C :   -0.316443
  16 O :   -0.356997
  17 C :   -0.000400
  18 C :   -0.307405
  19 H :    0.116483
  20 H :    0.110800
  21 H :    0.124900
  22 H :    0.106144
  23 H :    0.113335
  24 H :    0.137383
  25 H :    0.098767
  26 H :    0.111791
  27 H :    0.134820
  28 H :    0.104222
  29 H :    0.193490
  30 H :    0.196756
  31 H :    0.112677
  32 H :    0.107623
  33 H :    0.128315
  34 H :    0.115597
  35 H :    0.120427
  36 H :    0.115274
  37 H :    0.105952
  38 H :    0.122136
  39 H :    0.114159
  40 H :    0.116472
Sum of atomic charges:    0.0000000

LOEWDIN ATOMIC CHARGES
----------------------
   0 C :   -0.364065
   1 C :   -0.115571
   2 O :   -0.243930
   3 P :    0.573502
   4 S :   -0.311109
   5 O :   -0.243175
   6 C :   -0.123168
   7 C :   -0.368649
   8 S :    0.087736
   9 C :   -0.485626
  10 S :    0.103721
  11 P :    0.573682
  12 S :   -0.318616
  13 O :   -0.242097
  14 C :   -0.118520
  15 C :   -0.369308
  16 O :   -0.235650
  17 C :   -0.117020
  18 C :   -0.364564
  19 H :    0.126503
  20 H :    0.129814
  21 H :    0.123113
  22 H :    0.119381
  23 H :    0.110486
  24 H :    0.107913
  25 H :    0.116574
  26 H :    0.123685
  27 H :    0.116212
  28 H :    0.127689
  29 H :    0.129971
  30 H :    0.129025
  31 H :    0.111469
  32 H :    0.119893
  33 H :    0.121955
  34 H :    0.132417
  35 H :    0.125456
  36 H :    0.112091
  37 H :    0.118859
  38 H :    0.122297
  39 H :    0.131347
  40 H :    0.126276

  Mayer bond orders larger than 0.100000
B(  0-C ,  1-C ) :   1.1634 B(  0-C , 19-H ) :   0.9464 B(  0-C , 20-H ) :   0.9386
B(  0-C , 21-H ) :   0.9365 B(  1-C ,  2-O ) :   0.9082 B(  1-C , 22-H ) :   0.9348
B(  1-C , 23-H ) :   0.9153 B(  2-O ,  3-P ) :   1.1362 B(  3-P ,  4-S ) :   1.5971
B(  3-P ,  5-O ) :   1.1114 B(  3-P ,  8-S ) :   0.9448 B(  4-S ,  8-S ) :   0.1131
B(  5-O ,  6-C ) :   0.9083 B(  6-C ,  7-C ) :   1.1650 B(  6-C , 24-H ) :   0.8991
B(  6-C , 25-H ) :   0.9352 B(  7-C , 26-H ) :   0.9459 B(  7-C , 27-H ) :   0.9295
B(  7-C , 28-H ) :   0.9379 B(  8-S ,  9-C ) :   1.0155 B(  9-C , 10-S ) :   0.9964
B(  9-C , 29-H ) :   0.8772 B(  9-C , 30-H ) :   0.8694 B( 10-S , 11-P ) :   0.9619
B( 10-S , 12-S ) :   0.1076 B( 11-P , 12-S ) :   1.5923 B( 11-P , 13-O ) :   1.1144
B( 11-P , 16-O ) :   1.1141 B( 13-O , 14-C ) :   0.9051 B( 14-C , 15-C ) :   1.1664
B( 14-C , 31-H ) :   0.9169 B( 14-C , 32-H ) :   0.9337 B( 15-C , 33-H ) :   0.9353
B( 15-C , 34-H ) :   0.9374 B( 15-C , 35-H ) :   0.9444 B( 16-O , 17-C ) :   0.8993
B( 17-C , 18-C ) :   1.1633 B( 17-C , 36-H ) :   0.9172 B( 17-C , 37-H ) :   0.9341
B( 18-C , 38-H ) :   0.9367 B( 18-C , 39-H ) :   0.9394 B( 18-C , 40-H ) :   0.9460

Dispersion correction           -0.065832278
FINAL SINGLE POINT ENERGY     -2929.526997508460

DIPOLE MOMENT
-------------

Method             : SCF
Type of density    : Electron Density
Multiplicity       :   1
Irrep              :   0
Energy             : -2929.6463844333652560 Eh
Relativity type    :
Basis              : AO
                                X                 Y                 Z
Electronic contribution:      1.714978360       5.880885793     -13.100239490
Nuclear contribution   :     -2.157648554      -6.595175746      13.960619630
                        -----------------------------------------
Total Dipole Moment    :     -0.442670194      -0.714289953       0.860380139
                        -----------------------------------------
Magnitude (a.u.)       :      1.202672450
Magnitude (Debye)      :      3.056950428

Rotational constants in cm-1:             0.014284             0.004489             0.004320
Rotational constants in MHz :           428.208763           134.586760           129.511651

                             ****ORCA TERMINATED NORMALLY****
TOTAL RUN TIME: 0 days 0 hours 0 minutes 21 seconds 17 msec
