                         Program Version 6.0.0  -   RELEASE  -
|  1> ! r2scan-3c def2/J RI DEFGRID2 scfconv6 printgap
|  2> %output
|  3>     printlevel normal
|  4> end
|  5> * xyz 0 1
|  6> C 3.3421266144 -0.2154022291 -2.5321833283
|  7> C 1.9208783625 0.2174178963 -2.2456322933
|  8> O 1.327899053 -0.5565466619 -1.1857274843
|  9> P 1.8387449075 -0.4759069727 0.3068643617
| 10> S 2.5073359705 1.2456353207 0.9772757869
| 11> O 2.9177121805 -1.6445296954 0.3178952469
| 12> C 3.7348093126 -1.9065929733 1.4753939107
| 13> C 4.9266998944 -2.7297092478 1.0300427084
| 14> S 0.2621068607 -1.3523713781 1.3865431457
| 15> C -0.5521759917 0.1251489583 2.0840340378
| 16> S -2.2815345572 0.2566944639 1.5919489574
| 17> P -1.9512902175 0.7832234862 -0.4425287508
| 18> S -0.570788292 2.1350674278 -0.7590546958
| 19> O -3.4196692665 1.0771509263 -0.9716171204
| 20> C -4.3882590647 1.9223510418 -0.3206012409
| 21> C -3.8619181352 3.3151911048 -0.046881681
| 22> O -1.5966639981 -0.5345891285 -1.2284824362
| 23> C -2.4381376839 -1.7188515971 -1.2159813246
| 24> C -1.577881699 -2.903839694 -1.6013394675
| 25> H 3.975525155 0.0140387897 -1.6759455767
| 26> H 3.3768639163 -1.2850218668 -2.7216209177
| 27> H 3.7124768598 0.3222518796 -3.3994357065
| 28> H 1.2571577762 0.0438860461 -3.0941348911
| 29> H 1.8793653146 1.2761116805 -1.9670757411
| 30> H 4.0443256015 -0.948444173 1.9068164621
| 31> H 3.1270696961 -2.447648592 2.2058084778
| 32> H 4.586574306 -3.6501589013 0.5647788877
| 33> H 5.5220096555 -2.1714095769 0.3131016585
| 34> H 5.5375788763 -2.966624121 1.8948090192
| 35> H -0.0012122287 1.0136357085 1.761880768
| 36> H -0.5497933177 0.0318281755 3.1668650077
| 37> H -5.2227624047 1.9416561103 -1.0236449977
| 38> H -4.693638266 1.4342935828 0.6088300813
| 39> H -3.5021401157 3.7732933277 -0.9653062461
| 40> H -4.6552365663 3.9248870856 0.3731896752
| 41> H -3.0346561151 3.2727532034 0.6604508628
| 42> H -2.8576736341 -1.8405318229 -0.2127435748
| 43> H -3.2461987889 -1.5546231332 -1.9310070077
| 44> H -1.1452776058 -2.7473473681 -2.5853153054
| 45> H -0.7713573169 -3.0309527456 -0.8832109969
| 46> H -2.1913591769 -3.7988292398 -1.6136511556
| 47> *
| 48>
| 49>                          ****END OF INPUT****

CARTESIAN COORDINATES (ANGSTROEM)
---------------------------------
  C      3.342127   -0.215402   -2.532183
  C      1.920878    0.217418   -2.245632
  O      1.327899   -0.556547   -1.185727
  P      1.838745   -0.475907    0.306864
  S      2.507336    1.245635    0.977276
  O      2.917712   -1.644530    0.317895
  C      3.734809   -1.906593    1.475394
  C      4.926700   -2.729709    1.030043
  S      0.262107   -1.352371    1.386543
  C     -0.552176    0.125149    2.084034
  S     -2.281535    0.256694    1.591949
  P     -1.951290    0.783223   -0.442529
  S     -0.570788    2.135067   -0.759055
  O     -3.419669    1.077151   -0.971617
  C     -4.388259    1.922351   -0.320601
  C     -3.861918    3.315191   -0.046882
  O     -1.596664   -0.534589   -1.228482
  C     -2.438138   -1.718852   -1.215981
  C     -1.577882   -2.903840   -1.601339
  H      3.975525    0.014039   -1.675946
  H      3.376864   -1.285022   -2.721621
  H      3.712477    0.322252   -3.399436
  H      1.257158    0.043886   -3.094135
  H      1.879365    1.276112   -1.967076
  H      4.044326   -0.948444    1.906816
  H      3.127070   -2.447649    2.205808
  H      4.586574   -3.650159    0.564779
  H      5.522010   -2.171410    0.313102
  H      5.537579   -2.966624    1.894809
  H     -0.001212    1.013636    1.761881
  H     -0.549793    0.031828    3.166865
  H     -5.222762    1.941656   -1.023645
  H     -4.693638    1.434294    0.608830
  H     -3.502140    3.773293   -0.965306
  H     -4.655237    3.924887    0.373190
  H     -3.034656    3.272753    0.660451
  H     -2.857674   -1.840532   -0.212744
  H     -3.246199   -1.554623   -1.931007
  H     -1.145278   -2.747347   -2.585315
  H     -0.771357   -3.030953   -0.883211
  H     -2.191359   -3.798829   -1.613651

 Total Charge           Charge          ....    0
 Multiplicity           Mult            ....    1
 Number of Electrons    NEL             ....  202
 Basis Dimension        Dim             ....  539

ORBITAL ENERGIES
----------------

  NO   OCC          E(Eh)            E(eV)
   0   2.0000     -88.578248     -2410.3367
   1   2.0000     -88.573360     -2410.2037
   2   2.0000     -88.512719     -2408.5535
   3   2.0000     -88.510802     -2408.5014
   4   2.0000     -76.910581     -2092.8433
   5   2.0000     -76.907573     -2092.7615
   6   2.0000     -18.992644      -516.8161
   7   2.0000     -18.985969      -516.6345
   8   2.0000     -18.985688      -516.6268
   9   2.0000     -18.980223      -516.4781
  10   2.0000     -10.106704      -275.0174
  11   2.0000     -10.105130      -274.9746
  12   2.0000     -10.096959      -274.7522
  13   2.0000     -10.093192      -274.6497
  14   2.0000     -10.085028      -274.4276
  15   2.0000     -10.030190      -272.9353
  16   2.0000     -10.027427      -272.8602
  17   2.0000     -10.026791      -272.8429
  18   2.0000     -10.019955      -272.6568
  19   2.0000      -7.872834      -214.2307
  20   2.0000      -7.868028      -214.0999
  21   2.0000      -7.807422      -212.4507
  22   2.0000      -7.805640      -212.4023
  23   2.0000      -6.588904      -179.2932
  24   2.0000      -6.586081      -179.2164
  25   2.0000      -5.819618      -158.3599
  26   2.0000      -5.816398      -158.2722
  27   2.0000      -5.814827      -158.2295
  28   2.0000      -5.811847      -158.1484
  29   2.0000      -5.810274      -158.1056
  30   2.0000      -5.805180      -157.9670
  31   2.0000      -5.755103      -156.6043
  32   2.0000      -5.753548      -156.5620
  33   2.0000      -5.747891      -156.4081
  34   2.0000      -5.747217      -156.3897
  35   2.0000      -5.745827      -156.3519
  36   2.0000      -5.745486      -156.3426
  37   2.0000      -4.734695      -128.8376
  38   2.0000      -4.734250      -128.8255
  39   2.0000      -4.732002      -128.7643
  40   2.0000      -4.731377      -128.7473
  41   2.0000      -4.730969      -128.7362
  42   2.0000      -4.730032      -128.7107
  43   2.0000      -1.049157       -28.5490
  44   2.0000      -1.042955       -28.3802
  45   2.0000      -1.006991       -27.4016
  46   2.0000      -1.002722       -27.2855
  47   2.0000      -0.800395       -21.7799
  48   2.0000      -0.757064       -20.6008
  49   2.0000      -0.748300       -20.3623
  50   2.0000      -0.732915       -19.9436
  51   2.0000      -0.725994       -19.7553
  52   2.0000      -0.708854       -19.2889
  53   2.0000      -0.681977       -18.5575
  54   2.0000      -0.662144       -18.0179
  55   2.0000      -0.625542       -17.0219
  56   2.0000      -0.617712       -16.8088
  57   2.0000      -0.600984       -16.3536
  58   2.0000      -0.598233       -16.2787
  59   2.0000      -0.591216       -16.0878
  60   2.0000      -0.530444       -14.4341
  61   2.0000      -0.520537       -14.1645
  62   2.0000      -0.492797       -13.4097
  63   2.0000      -0.487473       -13.2648
  64   2.0000      -0.471513       -12.8305
  65   2.0000      -0.464302       -12.6343
  66   2.0000      -0.451229       -12.2786
  67   2.0000      -0.449851       -12.2411
  68   2.0000      -0.443942       -12.0803
  69   2.0000      -0.434873       -11.8335
  70   2.0000      -0.429174       -11.6784
  71   2.0000      -0.411396       -11.1946
  72   2.0000      -0.409086       -11.1318
  73   2.0000      -0.398415       -10.8414
  74   2.0000      -0.396053       -10.7772
  75   2.0000      -0.385540       -10.4911
  76   2.0000      -0.372065       -10.1244
  77   2.0000      -0.368440       -10.0258
  78   2.0000      -0.363313        -9.8862
  79   2.0000      -0.360965        -9.8223
  80   2.0000      -0.358474        -9.7546
  81   2.0000      -0.354365        -9.6428
  82   2.0000      -0.352495        -9.5919
  83   2.0000      -0.350924        -9.5491
  84   2.0000      -0.345001        -9.3880
  85   2.0000      -0.331535        -9.0215
  86   2.0000      -0.320334        -8.7167
  87   2.0000      -0.312028        -8.4907
  88   2.0000      -0.310982        -8.4623
  89   2.0000      -0.308905        -8.4057
  90   2.0000      -0.291046        -7.9198
  91   2.0000      -0.286997        -7.8096
  92   2.0000      -0.280504        -7.6329
  93   2.0000      -0.273845        -7.4517
  94   2.0000      -0.269680        -7.3384
  95   2.0000      -0.250272        -6.8103
  96   2.0000      -0.233563        -6.3556
  97   2.0000      -0.224728        -6.1152
  98   2.0000      -0.212473        -5.7817
  99   2.0000      -0.204135        -5.5548
 100   2.0000      -0.195294        -5.3142
 101   0.0000      -0.041933        -1.1411
 102   0.0000      -0.029945        -0.8149
 103   0.0000      -0.011084        -0.3016
 104   0.0000       0.013973         0.3802
 105   0.0000       0.020978         0.5709

MULLIKEN ATOMIC CHARGES
-----------------------
   0 C :   -0.450616
   1 C :   -0.157987
   2 O :   -0.256260
   3 P :    0.663223
   4 S :   -0.466352
   5 O :   -0.278930
   6 C :   -0.158965
   7 C :   -0.442242
   8 S :   -0.153548
   9 C :   -0.215006
  10 S :   -0.181700
  11 P :    0.662124
  12 S :   -0.398454
  13 O :   -0.311899
  14 C :   -0.164288
  15 C :   -0.427097
  16 O :   -0.253264
  17 C :   -0.111781
  18 C :   -0.456903
  19 H :    0.167513
  20 H :    0.153940
  21 H :    0.146250
  22 H :    0.156391
  23 H :    0.181562
  24 H :    0.172356
  25 H :    0.150756
  26 H :    0.152545
  27 H :    0.155013
  28 H :    0.145924
  29 H :    0.219959
  30 H :    0.197630
  31 H :    0.150001
  32 H :    0.150151
  33 H :    0.164982
  34 H :    0.146352
  35 H :    0.171446
  36 H :    0.158053
  37 H :    0.154093
  38 H :    0.153578
  39 H :    0.169071
  40 H :    0.142380
Sum of atomic charges:   -0.0000000

LOEWDIN ATOMIC CHARGES
----------------------
   0 C :   -0.401550
   1 C :    0.013875
   2 O :   -0.660481
   3 P :    0.368460
   4 S :   -0.128921
   5 O :   -0.671342
   6 C :    0.015581
   7 C :   -0.386747
   8 S :    0.164641
   9 C :   -0.412837
  10 S :    0.117022
  11 P :    0.376467
  12 S :   -0.068213
  13 O :   -0.661811
  14 C :    0.023442
  15 C :   -0.405935
  16 O :   -0.656472
  17 C :    0.020291
  18 C :   -0.389969
  19 H :    0.164778
  20 H :    0.159931
  21 H :    0.158793
  22 H :    0.182972
  23 H :    0.184990
  24 H :    0.180933
  25 H :    0.171127
  26 H :    0.159273
  27 H :    0.159940
  28 H :    0.159271
  29 H :    0.203943
  30 H :    0.180461
  31 H :    0.181473
  32 H :    0.170518
  33 H :    0.166104
  34 H :    0.157901
  35 H :    0.167744
  36 H :    0.175652
  37 H :    0.174248
  38 H :    0.161001
  39 H :    0.165840
  40 H :    0.157604

  Mayer bond orders larger than 0.100000
B(  0-C ,  1-C ) :   0.9080 B(  0-C , 19-H ) :   0.9626 B(  0-C , 20-H ) :   0.9728
B(  0-C , 21-H ) :   0.9614 B(  1-C ,  2-O ) :   0.7947 B(  1-C , 22-H ) :   0.9637
B(  1-C , 23-H ) :   0.9611 B(  2-O ,  3-P ) :   1.1818 B(  3-P ,  4-S ) :   1.7507
B(  3-P ,  5-O ) :   1.0747 B(  3-P ,  8-S ) :   1.0959 B(  5-O ,  6-C ) :   0.7882
B(  6-C ,  7-C ) :   0.9545 B(  6-C , 24-H ) :   0.9503 B(  6-C , 25-H ) :   0.9467
B(  7-C , 26-H ) :   0.9721 B(  7-C , 27-H ) :   0.9716 B(  7-C , 28-H ) :   0.9654
B(  8-S ,  9-C ) :   0.8952 B(  9-C , 10-S ) :   0.9186 B(  9-C , 29-H ) :   0.9045
B(  9-C , 30-H ) :   0.9138 B( 10-S , 11-P ) :   0.9875 B( 11-P , 12-S ) :   1.8690
B( 11-P , 13-O ) :   1.0392 B( 11-P , 16-O ) :   1.1346 B( 13-O , 14-C ) :   0.8060
B( 14-C , 15-C ) :   0.9443 B( 14-C , 31-H ) :   0.9574 B( 14-C , 32-H ) :   0.9632
B( 15-C , 33-H ) :   0.9645 B( 15-C , 34-H ) :   0.9630 B( 15-C , 35-H ) :   0.9536
B( 16-O , 17-C ) :   0.7487 B( 17-C , 18-C ) :   0.9570 B( 17-C , 36-H ) :   0.9529
B( 17-C , 37-H ) :   0.9435 B( 18-C , 38-H ) :   0.9706 B( 18-C , 39-H ) :   0.9658
B( 18-C , 40-H ) :   0.9652

Dispersion correction           -0.022127782
FINAL SINGLE POINT ENERGY     -2932.458412873040

DIPOLE MOMENT
-------------

Method             : SCF
Type of density    : Electron Density
Multiplicity       :   1
Irrep              :   0
Energy             : -2932.4828474688747519 Eh
Relativity type    :
Basis              : AO
                                X                 Y                 Z
Electronic contribution:     -5.798161786       7.956883467       8.100368506
Nuclear contribution   :      4.920916471      -9.177503369      -8.100570555
                        -----------------------------------------
Total Dipole Moment    :     -0.877245316      -1.220619902      -0.000202048
                        -----------------------------------------
Magnitude (a.u.)       :      1.503154127
Magnitude (Debye)      :      3.820714155

Rotational constants in cm-1:             0.013228             0.005108             0.005013
Rotational constants in MHz :           396.578212           153.122906           150.295873

                             ****ORCA TERMINATED NORMALLY****
TOTAL RUN TIME: 0 days 0 hours 1 minutes 25 seconds 576 msec
