                         Program Version 6.0.0  -   RELEASE  -
|  1> ! r2scan-3c def2/J RI DEFGRID2 scfconv6 printgap
|  2> %output
|  3>     printlevel normal
|  4> end
|  5> %cpcm
|  6>     smd true
|  7>     smdsolvent "water"
|  8> end
|  9> * xyz 0 1
| 10> C 3.3421266144 -0.2154022291 -2.5321833283
| 11> C 1.9208783625 0.2174178963 -2.2456322933
| 12> O 1.327899053 -0.5565466619 -1.1857274843
| 13> P 1.8387449075 -0.4759069727 0.3068643617
| 14> S 2.5073359705 1.2456353207 0.9772757869
| 15> O 2.9177121805 -1.6445296954 0.3178952469
| 16> C 3.7348093126 -1.9065929733 1.4753939107
| 17> C 4.9266998944 -2.7297092478 1.0300427084
| 18> S 0.2621068607 -1.3523713781 1.3865431457
| 19> C -0.5521759917 0.1251489583 2.0840340378
| 20> S -2.2815345572 0.2566944639 1.5919489574
| 21> P -1.9512902175 0.7832234862 -0.4425287508
| 22> S -0.570788292 2.1350674278 -0.7590546958
| 23> O -3.4196692665 1.0771509263 -0.9716171204
| 24> C -4.3882590647 1.9223510418 -0.3206012409
| 25> C -3.8619181352 3.3151911048 -0.046881681
| 26> O -1.5966639981 -0.5345891285 -1.2284824362
| 27> C -2.4381376839 -1.7188515971 -1.2159813246
| 28> C -1.577881699 -2.903839694 -1.6013394675
| 29> H 3.975525155 0.0140387897 -1.6759455767
| 30> H 3.3768639163 -1.2850218668 -2.7216209177
| 31> H 3.7124768598 0.3222518796 -3.3994357065
| 32> H 1.2571577762 0.0438860461 -3.0941348911
| 33> H 1.8793653146 1.2761116805 -1.9670757411
| 34> H 4.0443256015 -0.948444173 1.9068164621
| 35> H 3.1270696961 -2.447648592 2.2058084778
| 36> H 4.586574306 -3.6501589013 0.5647788877
| 37> H 5.5220096555 -2.1714095769 0.3131016585
| 38> H 5.5375788763 -2.966624121 1.8948090192
| 39> H -0.0012122287 1.0136357085 1.761880768
| 40> H -0.5497933177 0.0318281755 3.1668650077
| 41> H -5.2227624047 1.9416561103 -1.0236449977
| 42> H -4.693638266 1.4342935828 0.6088300813
| 43> H -3.5021401157 3.7732933277 -0.9653062461
| 44> H -4.6552365663 3.9248870856 0.3731896752
| 45> H -3.0346561151 3.2727532034 0.6604508628
| 46> H -2.8576736341 -1.8405318229 -0.2127435748
| 47> H -3.2461987889 -1.5546231332 -1.9310070077
| 48> H -1.1452776058 -2.7473473681 -2.5853153054
| 49> H -0.7713573169 -3.0309527456 -0.8832109969
| 50> H -2.1913591769 -3.7988292398 -1.6136511556
| 51> *
| 52>
| 53>                          ****END OF INPUT****

CARTESIAN COORDINATES (ANGSTROEM)
---------------------------------
  C      3.342127   -0.215402   -2.532183
  C      1.920878    0.217418   -2.245632
  O      1.327899   -0.556547   -1.185727
  P      1.838745   -0.475907    0.306864
  S      2.507336    1.245635    0.977276
  O      2.917712   -1.644530    0.317895
  C      3.734809   -1.906593    1.475394
  C      4.926700   -2.729709    1.030043
  S      0.262107   -1.352371    1.386543
  C     -0.552176    0.125149    2.084034
  S     -2.281535    0.256694    1.591949
  P     -1.951290    0.783223   -0.442529
  S     -0.570788    2.135067   -0.759055
  O     -3.419669    1.077151   -0.971617
  C     -4.388259    1.922351   -0.320601
  C     -3.861918    3.315191   -0.046882
  O     -1.596664   -0.534589   -1.228482
  C     -2.438138   -1.718852   -1.215981
  C     -1.577882   -2.903840   -1.601339
  H      3.975525    0.014039   -1.675946
  H      3.376864   -1.285022   -2.721621
  H      3.712477    0.322252   -3.399436
  H      1.257158    0.043886   -3.094135
  H      1.879365    1.276112   -1.967076
  H      4.044326   -0.948444    1.906816
  H      3.127070   -2.447649    2.205808
  H      4.586574   -3.650159    0.564779
  H      5.522010   -2.171410    0.313102
  H      5.537579   -2.966624    1.894809
  H     -0.001212    1.013636    1.761881
  H     -0.549793    0.031828    3.166865
  H     -5.222762    1.941656   -1.023645
  H     -4.693638    1.434294    0.608830
  H     -3.502140    3.773293   -0.965306
  H     -4.655237    3.924887    0.373190
  H     -3.034656    3.272753    0.660451
  H     -2.857674   -1.840532   -0.212744
  H     -3.246199   -1.554623   -1.931007
  H     -1.145278   -2.747347   -2.585315
  H     -0.771357   -3.030953   -0.883211
  H     -2.191359   -3.798829   -1.613651

 Total Charge           Charge          ....    0
 Multiplicity           Mult            ....    1
 Number of Electrons    NEL             ....  202
 Basis Dimension        Dim             ....  539

ORBITAL ENERGIES
----------------

  NO   OCC          E(Eh)            E(eV)
   0   2.0000     -88.580946     -2410.4101
   1   2.0000     -88.578439     -2410.3419
   2   2.0000     -88.524777     -2408.8816
   3   2.0000     -88.521775     -2408.8000
   4   2.0000     -76.917480     -2093.0310
   5   2.0000     -76.917319     -2093.0267
   6   2.0000     -18.994583      -516.8689
   7   2.0000     -18.992443      -516.8106
   8   2.0000     -18.991544      -516.7862
   9   2.0000     -18.990883      -516.7682
  10   2.0000     -10.105998      -274.9982
  11   2.0000     -10.093495      -274.6580
  12   2.0000     -10.089904      -274.5602
  13   2.0000     -10.088030      -274.5093
  14   2.0000     -10.086963      -274.4802
  15   2.0000     -10.019098      -272.6335
  16   2.0000     -10.018748      -272.6240
  17   2.0000     -10.018483      -272.6168
  18   2.0000     -10.017591      -272.5925
  19   2.0000      -7.875411      -214.3008
  20   2.0000      -7.873034      -214.2361
  21   2.0000      -7.819813      -212.7879
  22   2.0000      -7.816977      -212.7108
  23   2.0000      -6.595878      -179.4830
  24   2.0000      -6.595855      -179.4823
  25   2.0000      -5.822232      -158.4310
  26   2.0000      -5.819840      -158.3659
  27   2.0000      -5.819006      -158.3432
  28   2.0000      -5.816865      -158.2849
  29   2.0000      -5.812801      -158.1744
  30   2.0000      -5.810184      -158.1032
  31   2.0000      -5.767418      -156.9394
  32   2.0000      -5.764762      -156.8672
  33   2.0000      -5.760267      -156.7448
  34   2.0000      -5.759635      -156.7276
  35   2.0000      -5.757238      -156.6624
  36   2.0000      -5.756802      -156.6506
  37   2.0000      -4.741599      -129.0255
  38   2.0000      -4.741151      -129.0133
  39   2.0000      -4.741146      -129.0131
  40   2.0000      -4.740768      -129.0029
  41   2.0000      -4.739884      -128.9788
  42   2.0000      -4.739087      -128.9571
  43   2.0000      -1.052776       -28.6475
  44   2.0000      -1.051011       -28.5995
  45   2.0000      -1.011212       -27.5165
  46   2.0000      -1.009538       -27.4709
  47   2.0000      -0.802627       -21.8406
  48   2.0000      -0.756752       -20.5923
  49   2.0000      -0.746034       -20.3006
  50   2.0000      -0.725475       -19.7412
  51   2.0000      -0.723301       -19.6820
  52   2.0000      -0.710499       -19.3337
  53   2.0000      -0.688014       -18.7218
  54   2.0000      -0.670252       -18.2385
  55   2.0000      -0.628398       -17.0996
  56   2.0000      -0.615636       -16.7523
  57   2.0000      -0.598801       -16.2942
  58   2.0000      -0.595976       -16.2173
  59   2.0000      -0.590012       -16.0551
  60   2.0000      -0.528996       -14.3947
  61   2.0000      -0.521193       -14.1824
  62   2.0000      -0.492327       -13.3969
  63   2.0000      -0.488996       -13.3063
  64   2.0000      -0.471459       -12.8290
  65   2.0000      -0.467014       -12.7081
  66   2.0000      -0.448816       -12.2129
  67   2.0000      -0.444431       -12.0936
  68   2.0000      -0.443558       -12.0698
  69   2.0000      -0.435191       -11.8422
  70   2.0000      -0.429908       -11.6984
  71   2.0000      -0.410921       -11.1817
  72   2.0000      -0.408651       -11.1200
  73   2.0000      -0.398749       -10.8505
  74   2.0000      -0.395976       -10.7751
  75   2.0000      -0.387423       -10.5423
  76   2.0000      -0.370171       -10.0729
  77   2.0000      -0.361914        -9.8482
  78   2.0000      -0.360721        -9.8157
  79   2.0000      -0.356856        -9.7105
  80   2.0000      -0.353853        -9.6288
  81   2.0000      -0.351994        -9.5782
  82   2.0000      -0.349709        -9.5161
  83   2.0000      -0.347522        -9.4565
  84   2.0000      -0.344012        -9.3610
  85   2.0000      -0.328917        -8.9503
  86   2.0000      -0.321508        -8.7487
  87   2.0000      -0.312665        -8.5081
  88   2.0000      -0.310704        -8.4547
  89   2.0000      -0.307518        -8.3680
  90   2.0000      -0.295792        -8.0489
  91   2.0000      -0.288206        -7.8425
  92   2.0000      -0.284936        -7.7535
  93   2.0000      -0.277211        -7.5433
  94   2.0000      -0.272840        -7.4243
  95   2.0000      -0.253906        -6.9091
  96   2.0000      -0.240925        -6.5559
  97   2.0000      -0.236695        -6.4408
  98   2.0000      -0.223928        -6.0934
  99   2.0000      -0.214662        -5.8413
 100   2.0000      -0.207562        -5.6481
 101   0.0000      -0.046368        -1.2617
 102   0.0000      -0.036639        -0.9970
 103   0.0000      -0.015123        -0.4115
 104   0.0000       0.007605         0.2069
 105   0.0000       0.017334         0.4717

MULLIKEN ATOMIC CHARGES
-----------------------
   0 C :   -0.494021
   1 C :   -0.155828
   2 O :   -0.285012
   3 P :    0.694575
   4 S :   -0.522513
   5 O :   -0.307511
   6 C :   -0.149251
   7 C :   -0.484395
   8 S :   -0.148123
   9 C :   -0.215050
  10 S :   -0.174590
  11 P :    0.678350
  12 S :   -0.457834
  13 O :   -0.336633
  14 C :   -0.162789
  15 C :   -0.465606
  16 O :   -0.286004
  17 C :   -0.099078
  18 C :   -0.507441
  19 H :    0.169092
  20 H :    0.169810
  21 H :    0.171619
  22 H :    0.178969
  23 H :    0.180732
  24 H :    0.171959
  25 H :    0.170323
  26 H :    0.165566
  27 H :    0.165572
  28 H :    0.169174
  29 H :    0.212163
  30 H :    0.239633
  31 H :    0.177608
  32 H :    0.172493
  33 H :    0.169636
  34 H :    0.173410
  35 H :    0.164707
  36 H :    0.172881
  37 H :    0.174884
  38 H :    0.169445
  39 H :    0.168833
  40 H :    0.170245
Sum of atomic charges:    0.0000000

LOEWDIN ATOMIC CHARGES
----------------------
   0 C :   -0.403470
   1 C :    0.014288
   2 O :   -0.679884
   3 P :    0.372169
   4 S :   -0.164727
   5 O :   -0.684704
   6 C :    0.020576
   7 C :   -0.390062
   8 S :    0.170825
   9 C :   -0.407683
  10 S :    0.131607
  11 P :    0.378723
  12 S :   -0.110978
  13 O :   -0.671664
  14 C :    0.030841
  15 C :   -0.409874
  16 O :   -0.678435
  17 C :    0.027345
  18 C :   -0.394655
  19 H :    0.163129
  20 H :    0.164246
  21 H :    0.168494
  22 H :    0.190766
  23 H :    0.183675
  24 H :    0.181244
  25 H :    0.179082
  26 H :    0.162999
  27 H :    0.162218
  28 H :    0.168519
  29 H :    0.200585
  30 H :    0.197163
  31 H :    0.193233
  32 H :    0.179210
  33 H :    0.164228
  34 H :    0.168174
  35 H :    0.162018
  36 H :    0.181701
  37 H :    0.183680
  38 H :    0.163744
  39 H :    0.162733
  40 H :    0.168919

  Mayer bond orders larger than 0.100000
B(  0-C ,  1-C ) :   0.9051 B(  0-C , 19-H ) :   0.9618 B(  0-C , 20-H ) :   0.9709
B(  0-C , 21-H ) :   0.9546 B(  1-C ,  2-O ) :   0.7793 B(  1-C , 22-H ) :   0.9515
B(  1-C , 23-H ) :   0.9576 B(  2-O ,  3-P ) :   1.1785 B(  3-P ,  4-S ) :   1.6980
B(  3-P ,  5-O ) :   1.0821 B(  3-P ,  8-S ) :   1.1276 B(  5-O ,  6-C ) :   0.7809
B(  6-C ,  7-C ) :   0.9509 B(  6-C , 24-H ) :   0.9474 B(  6-C , 25-H ) :   0.9376
B(  7-C , 26-H ) :   0.9691 B(  7-C , 27-H ) :   0.9693 B(  7-C , 28-H ) :   0.9590
B(  8-S ,  9-C ) :   0.8869 B(  9-C , 10-S ) :   0.9110 B(  9-C , 29-H ) :   0.9090
B(  9-C , 30-H ) :   0.8973 B( 10-S , 11-P ) :   1.0088 B( 11-P , 12-S ) :   1.8337
B( 11-P , 13-O ) :   1.0541 B( 11-P , 16-O ) :   1.1372 B( 13-O , 14-C ) :   0.7959
B( 14-C , 15-C ) :   0.9222 B( 14-C , 31-H ) :   0.9480 B( 14-C , 32-H ) :   0.9586
B( 15-C , 33-H ) :   0.9659 B( 15-C , 34-H ) :   0.9569 B( 15-C , 35-H ) :   0.9576
B( 16-O , 17-C ) :   0.7435 B( 17-C , 18-C ) :   0.9385 B( 17-C , 36-H ) :   0.9466
B( 17-C , 37-H ) :   0.9340 B( 18-C , 38-H ) :   0.9687 B( 18-C , 39-H ) :   0.9674
B( 18-C , 40-H ) :   0.9583

Dispersion correction           -0.022127782
FINAL SINGLE POINT ENERGY     -2932.468505223140

DIPOLE MOMENT
-------------

Method             : SCF
Type of density    : Electron Density
Multiplicity       :   1
Irrep              :   0
Energy             : -2932.4929398189747189 Eh
Relativity type    :
Basis              : AO
                                X                 Y                 Z
Electronic contribution:     -6.321575177       7.415692742       8.408833564
Nuclear contribution   :      4.920916471      -9.177503369      -8.100570555
                        -----------------------------------------
Total Dipole Moment    :     -1.400658706      -1.761810627       0.308263009
                        -----------------------------------------
Magnitude (a.u.)       :      2.271749894
Magnitude (Debye)      :      5.774329336

Rotational constants in cm-1:             0.013228             0.005108             0.005013
Rotational constants in MHz :           396.578212           153.122906           150.295873

                             ****ORCA TERMINATED NORMALLY****
TOTAL RUN TIME: 0 days 0 hours 1 minutes 51 seconds 479 msec
