                         Program Version 6.0.0  -   RELEASE  -
|  1> ! pbe def2-sv(p) def2/J RI DEFGRID1 loosescf d4 GCP(DFT/SV(P)) printgap
|  2> %output
|  3>     printlevel normal
|  4> end
|  5> * xyz 0 1
|  6> C 4.6388417623 -1.4921486092 -0.7339425186
|  7> C 4.6496644008 -0.083357196 -0.1763476963
|  8> O 3.4537855302 0.2211426722 0.5613801243
|  9> P 2.0311107874 0.376364866 -0.1354377025
| 10> S 2.0875857239 1.2354494788 -1.9012468766
| 11> O 1.2115355063 1.0963595177 1.0139839212
| 12> C 1.166512632 2.5282261596 1.1564838917
| 13> C 2.5151873943 3.1116075197 1.5190606419
| 14> S 1.2425766682 -1.565791856 -0.0109041386
| 15> C 0.0789989965 -1.5617209503 -1.4181552397
| 16> S -1.6231086678 -1.8865985314 -0.9158473692
| 17> P -2.0044962015 -0.040934113 0.0703447792
| 18> S -1.4038201429 1.5296138638 -0.9347783517
| 19> O -1.4152041155 -0.0782275302 1.5282358269
| 20> C -1.8922196518 -0.9228326127 2.6109626316
| 21> C -1.1727938996 -2.255907804 2.6412087964
| 22> O -3.5669450823 -0.1198540597 0.3374740845
| 23> C -4.5131355643 -0.0364583354 -0.7491656967
| 24> C -5.8765483962 0.2539573311 -0.1559636444
| 25> H 4.4178164805 -2.208871371 0.0528170134
| 26> H 3.8813501283 -1.5777701206 -1.511726182
| 27> H 5.6103442212 -1.7138394157 -1.1638489944
| 28> H 4.7506549267 0.6473171207 -0.985420918
| 29> H 5.4483080197 0.0555493465 0.5535182264
| 30> H 0.792031164 2.9564723025 0.2202065774
| 31> H 0.4267538231 2.6848976784 1.9433851473
| 32> H 3.2074188195 2.9906174392 0.6866938503
| 33> H 2.4002717032 4.1701463728 1.7306158248
| 34> H 2.9194949008 2.606038684 2.392179846
| 35> H 0.3554566825 -2.3728138584 -2.0865171469
| 36> H 0.1402664869 -0.5937448672 -1.9232436238
| 37> H -1.6730568427 -0.335269174 3.5039753535
| 38> H -2.97021445 -1.0501954232 2.5058104286
| 39> H -0.0965472539 -2.102639928 2.6551001433
| 40> H -1.468478428 -2.791032995 3.5382171863
| 41> H -1.4270466415 -2.8561682183 1.7712999035
| 42> H -4.1919688725 0.7591585735 -1.4292778793
| 43> H -4.5016954987 -0.9903836316 -1.2825400042
| 44> H -5.8562246798 1.1968042373 0.3834936262
| 45> H -6.6054892468 0.3157270441 -0.9571525773
| 46> H -6.161284516 -0.5393257048 0.5288617952
| 47> *
| 48>
| 49>                          ****END OF INPUT****

CARTESIAN COORDINATES (ANGSTROEM)
---------------------------------
  C      4.638842   -1.492149   -0.733943
  C      4.649664   -0.083357   -0.176348
  O      3.453786    0.221143    0.561380
  P      2.031111    0.376365   -0.135438
  S      2.087586    1.235449   -1.901247
  O      1.211536    1.096360    1.013984
  C      1.166513    2.528226    1.156484
  C      2.515187    3.111608    1.519061
  S      1.242577   -1.565792   -0.010904
  C      0.078999   -1.561721   -1.418155
  S     -1.623109   -1.886599   -0.915847
  P     -2.004496   -0.040934    0.070345
  S     -1.403820    1.529614   -0.934778
  O     -1.415204   -0.078228    1.528236
  C     -1.892220   -0.922833    2.610963
  C     -1.172794   -2.255908    2.641209
  O     -3.566945   -0.119854    0.337474
  C     -4.513136   -0.036458   -0.749166
  C     -5.876548    0.253957   -0.155964
  H      4.417816   -2.208871    0.052817
  H      3.881350   -1.577770   -1.511726
  H      5.610344   -1.713839   -1.163849
  H      4.750655    0.647317   -0.985421
  H      5.448308    0.055549    0.553518
  H      0.792031    2.956472    0.220207
  H      0.426754    2.684898    1.943385
  H      3.207419    2.990617    0.686694
  H      2.400272    4.170146    1.730616
  H      2.919495    2.606039    2.392180
  H      0.355457   -2.372814   -2.086517
  H      0.140266   -0.593745   -1.923244
  H     -1.673057   -0.335269    3.503975
  H     -2.970214   -1.050195    2.505810
  H     -0.096547   -2.102640    2.655100
  H     -1.468478   -2.791033    3.538217
  H     -1.427047   -2.856168    1.771300
  H     -4.191969    0.759159   -1.429278
  H     -4.501695   -0.990384   -1.282540
  H     -5.856225    1.196804    0.383494
  H     -6.605489    0.315727   -0.957153
  H     -6.161285   -0.539326    0.528862

 Total Charge           Charge          ....    0
 Multiplicity           Mult            ....    1
 Number of Electrons    NEL             ....  202
 Basis Dimension        Dim             ....  334

ORBITAL ENERGIES
----------------

  NO   OCC          E(Eh)            E(eV)
   0   2.0000     -88.042617     -2395.7614
   1   2.0000     -88.039247     -2395.6697
   2   2.0000     -87.980827     -2394.0800
   3   2.0000     -87.978755     -2394.0236
   4   2.0000     -76.423887     -2079.5997
   5   2.0000     -76.419400     -2079.4776
   6   2.0000     -18.796485      -511.4784
   7   2.0000     -18.789796      -511.2963
   8   2.0000     -18.787040      -511.2213
   9   2.0000     -18.777196      -510.9535
  10   2.0000      -9.955488      -270.9026
  11   2.0000      -9.954565      -270.8775
  12   2.0000      -9.953740      -270.8550
  13   2.0000      -9.947445      -270.6837
  14   2.0000      -9.936815      -270.3945
  15   2.0000      -9.890919      -269.1456
  16   2.0000      -9.881256      -268.8826
  17   2.0000      -9.880243      -268.8551
  18   2.0000      -9.874685      -268.7038
  19   2.0000      -7.687824      -209.1963
  20   2.0000      -7.684436      -209.1041
  21   2.0000      -7.625710      -207.5061
  22   2.0000      -7.623717      -207.4519
  23   2.0000      -6.421422      -174.7358
  24   2.0000      -6.416921      -174.6133
  25   2.0000      -5.715572      -155.5286
  26   2.0000      -5.712302      -155.4396
  27   2.0000      -5.712237      -155.4379
  28   2.0000      -5.708967      -155.3489
  29   2.0000      -5.705001      -155.2410
  30   2.0000      -5.701284      -155.1398
  31   2.0000      -5.654562      -153.8685
  32   2.0000      -5.652696      -153.8177
  33   2.0000      -5.646554      -153.6505
  34   2.0000      -5.645744      -153.6285
  35   2.0000      -5.644340      -153.5903
  36   2.0000      -5.643778      -153.5750
  37   2.0000      -4.644416      -126.3810
  38   2.0000      -4.643184      -126.3475
  39   2.0000      -4.641451      -126.3003
  40   2.0000      -4.639197      -126.2390
  41   2.0000      -4.638521      -126.2206
  42   2.0000      -4.637820      -126.2015
  43   2.0000      -0.989103       -26.9149
  44   2.0000      -0.978380       -26.6231
  45   2.0000      -0.944617       -25.7043
  46   2.0000      -0.935702       -25.4618
  47   2.0000      -0.761178       -20.7127
  48   2.0000      -0.719919       -19.5900
  49   2.0000      -0.706258       -19.2182
  50   2.0000      -0.692092       -18.8328
  51   2.0000      -0.681288       -18.5388
  52   2.0000      -0.670818       -18.2539
  53   2.0000      -0.646555       -17.5937
  54   2.0000      -0.630230       -17.1494
  55   2.0000      -0.596910       -16.2427
  56   2.0000      -0.585804       -15.9405
  57   2.0000      -0.573864       -15.6156
  58   2.0000      -0.564661       -15.3652
  59   2.0000      -0.559767       -15.2320
  60   2.0000      -0.508757       -13.8440
  61   2.0000      -0.484914       -13.1952
  62   2.0000      -0.476620       -12.9695
  63   2.0000      -0.464065       -12.6278
  64   2.0000      -0.449222       -12.2239
  65   2.0000      -0.446001       -12.1363
  66   2.0000      -0.437570       -11.9069
  67   2.0000      -0.433276       -11.7900
  68   2.0000      -0.432639       -11.7727
  69   2.0000      -0.414409       -11.2766
  70   2.0000      -0.407959       -11.1011
  71   2.0000      -0.390259       -10.6195
  72   2.0000      -0.384576       -10.4648
  73   2.0000      -0.382542       -10.4095
  74   2.0000      -0.379370       -10.3232
  75   2.0000      -0.375141       -10.2081
  76   2.0000      -0.367265        -9.9938
  77   2.0000      -0.354650        -9.6505
  78   2.0000      -0.349398        -9.5076
  79   2.0000      -0.348539        -9.4842
  80   2.0000      -0.342958        -9.3324
  81   2.0000      -0.341423        -9.2906
  82   2.0000      -0.338975        -9.2240
  83   2.0000      -0.333556        -9.0765
  84   2.0000      -0.329885        -8.9766
  85   2.0000      -0.318397        -8.6640
  86   2.0000      -0.307226        -8.3601
  87   2.0000      -0.304091        -8.2747
  88   2.0000      -0.294389        -8.0107
  89   2.0000      -0.289609        -7.8807
  90   2.0000      -0.274281        -7.4636
  91   2.0000      -0.269452        -7.3322
  92   2.0000      -0.262815        -7.1516
  93   2.0000      -0.261701        -7.1212
  94   2.0000      -0.255677        -6.9573
  95   2.0000      -0.233905        -6.3649
  96   2.0000      -0.217593        -5.9210
  97   2.0000      -0.212756        -5.7894
  98   2.0000      -0.201052        -5.4709
  99   2.0000      -0.190228        -5.1764
 100   2.0000      -0.184037        -5.0079
 101   0.0000      -0.040369        -1.0985
 102   0.0000      -0.029213        -0.7949
 103   0.0000      -0.006160        -0.1676
 104   0.0000       0.014612         0.3976
 105   0.0000       0.020130         0.5478

MULLIKEN ATOMIC CHARGES
-----------------------
   0 C :   -0.308530
   1 C :   -0.003037
   2 O :   -0.376103
   3 P :    0.611854
   4 S :   -0.320636
   5 O :   -0.353635
   6 C :   -0.000625
   7 C :   -0.302195
   8 S :   -0.091669
   9 C :   -0.357770
  10 S :   -0.118878
  11 P :    0.612394
  12 S :   -0.301155
  13 O :   -0.344187
  14 C :   -0.012638
  15 C :   -0.306102
  16 O :   -0.388551
  17 C :   -0.012503
  18 C :   -0.281044
  19 H :    0.115962
  20 H :    0.120565
  21 H :    0.110383
  22 H :    0.108880
  23 H :    0.102591
  24 H :    0.121577
  25 H :    0.099228
  26 H :    0.119283
  27 H :    0.108436
  28 H :    0.111558
  29 H :    0.181710
  30 H :    0.213042
  31 H :    0.108721
  32 H :    0.108912
  33 H :    0.131584
  34 H :    0.106153
  35 H :    0.121934
  36 H :    0.108036
  37 H :    0.105909
  38 H :    0.122308
  39 H :    0.114067
  40 H :    0.114171
Sum of atomic charges:   -0.0000000

LOEWDIN ATOMIC CHARGES
----------------------
   0 C :   -0.369187
   1 C :   -0.120398
   2 O :   -0.246405
   3 P :    0.570452
   4 S :   -0.314133
   5 O :   -0.232254
   6 C :   -0.119052
   7 C :   -0.366037
   8 S :    0.092778
   9 C :   -0.478235
  10 S :    0.064488
  11 P :    0.562565
  12 S :   -0.291069
  13 O :   -0.226988
  14 C :   -0.108337
  15 C :   -0.369297
  16 O :   -0.250954
  17 C :   -0.120095
  18 C :   -0.350284
  19 H :    0.123148
  20 H :    0.119634
  21 H :    0.129491
  22 H :    0.109069
  23 H :    0.117303
  24 H :    0.109170
  25 H :    0.117200
  26 H :    0.120831
  27 H :    0.128640
  28 H :    0.123666
  29 H :    0.136627
  30 H :    0.127372
  31 H :    0.121665
  32 H :    0.111136
  33 H :    0.126305
  34 H :    0.127832
  35 H :    0.115956
  36 H :    0.111042
  37 H :    0.109016
  38 H :    0.129840
  39 H :    0.132051
  40 H :    0.125448

  Mayer bond orders larger than 0.100000
B(  0-C ,  1-C ) :   1.1676 B(  0-C , 19-H ) :   0.9442 B(  0-C , 20-H ) :   0.9369
B(  0-C , 21-H ) :   0.9381 B(  1-C ,  2-O ) :   0.9130 B(  1-C , 22-H ) :   0.9138
B(  1-C , 23-H ) :   0.9341 B(  2-O ,  3-P ) :   1.0939 B(  3-P ,  4-S ) :   1.5934
B(  3-P ,  5-O ) :   1.1476 B(  3-P ,  8-S ) :   0.9658 B(  4-S ,  8-S ) :   0.1147
B(  5-O ,  6-C ) :   0.9052 B(  6-C ,  7-C ) :   1.1575 B(  6-C , 24-H ) :   0.9134
B(  6-C , 25-H ) :   0.9360 B(  7-C , 26-H ) :   0.9378 B(  7-C , 27-H ) :   0.9393
B(  7-C , 28-H ) :   0.9448 B(  8-S ,  9-C ) :   0.9937 B(  9-C , 10-S ) :   1.0090
B(  9-C , 29-H ) :   0.9114 B(  9-C , 30-H ) :   0.8468 B( 10-S , 11-P ) :   0.9350
B( 10-S , 12-S ) :   0.1062 B( 11-P , 12-S ) :   1.6573 B( 11-P , 13-O ) :   1.1515
B( 11-P , 16-O ) :   1.0773 B( 13-O , 14-C ) :   0.8962 B( 14-C , 15-C ) :   1.1700
B( 14-C , 31-H ) :   0.9348 B( 14-C , 32-H ) :   0.9211 B( 15-C , 33-H ) :   0.9394
B( 15-C , 34-H ) :   0.9365 B( 15-C , 35-H ) :   0.9344 B( 16-O , 17-C ) :   0.9014
B( 17-C , 18-C ) :   1.1604 B( 17-C , 36-H ) :   0.9090 B( 17-C , 37-H ) :   0.9287
B( 18-C , 38-H ) :   0.9507 B( 18-C , 39-H ) :   0.9416 B( 18-C , 40-H ) :   0.9513

Dispersion correction           -0.067361870
FINAL SINGLE POINT ENERGY     -2929.519002946674

DIPOLE MOMENT
-------------

Method             : SCF
Type of density    : Electron Density
Multiplicity       :   1
Irrep              :   0
Energy             : -2929.6371020585993392 Eh
Relativity type    :
Basis              : AO
                                X                 Y                 Z
Electronic contribution:      0.121410688       0.127338038      -9.688926225
Nuclear contribution   :     -0.601878815      -0.966230537      10.656565204
                        -----------------------------------------
Total Dipole Moment    :     -0.480468127      -0.838892499       0.967638979
                        -----------------------------------------
Magnitude (a.u.)       :      1.367814110
Magnitude (Debye)      :      3.476707170

Rotational constants in cm-1:             0.013174             0.005172             0.004896
Rotational constants in MHz :           394.944585           155.044400           146.776461

                             ****ORCA TERMINATED NORMALLY****
TOTAL RUN TIME: 0 days 0 hours 0 minutes 21 seconds 617 msec
