                         Program Version 6.0.0  -   RELEASE  -
|  1> ! pbe def2-sv(p) def2/J RI DEFGRID1 loosescf d4 GCP(DFT/SV(P)) printgap
|  2> %output
|  3>     printlevel normal
|  4> end
|  5> * xyz 0 1
|  6> C -2.394973442 0.0294134203 -4.16135e-05
|  7> C -0.8991255158 0.0256777785 2.18639e-05
|  8> C -0.1784291187 1.2200385832 6.33972e-05
|  9> C 1.2029806219 1.1718171397 7.32994e-05
| 10> C 1.8276235118 -0.0675604937 -2.69226e-05
| 11> C 1.0272446734 -1.1970033742 2.34828e-05
| 12> N -0.2965236368 -1.1582570872 6.01351e-05
| 13> H -2.767742898 0.5448113027 -0.8827756363
| 14> H -2.7634929747 -0.9911880544 0.003324079
| 15> H -2.7679691904 0.55096814 0.8789197055
| 16> H -0.7018221378 2.1636803461 -0.0002556622
| 17> H 1.7854089881 2.0814406328 -0.0005600473
| 18> H 2.9022215663 -0.1541517488 -0.000389933
| 19> H 1.4592466021 -2.189418224 -0.0004507278
| 20> *
| 21>
| 22>                          ****END OF INPUT****

CARTESIAN COORDINATES (ANGSTROEM)
---------------------------------
  C     -2.394973    0.029413   -0.000042
  C     -0.899126    0.025678    0.000022
  C     -0.178429    1.220039    0.000063
  C      1.202981    1.171817    0.000073
  C      1.827624   -0.067560   -0.000027
  C      1.027245   -1.197003    0.000023
  N     -0.296524   -1.158257    0.000060
  H     -2.767743    0.544811   -0.882776
  H     -2.763493   -0.991188    0.003324
  H     -2.767969    0.550968    0.878920
  H     -0.701822    2.163680   -0.000256
  H      1.785409    2.081441   -0.000560
  H      2.902222   -0.154152   -0.000390
  H      1.459247   -2.189418   -0.000451

 Total Charge           Charge          ....    0
 Multiplicity           Mult            ....    1
 Number of Electrons    NEL             ....   50
 Basis Dimension        Dim             ....  112

ORBITAL ENERGIES
----------------

  NO   OCC          E(Eh)            E(eV)
   0   2.0000     -13.977888      -380.3577
   1   2.0000      -9.932366      -270.2734
   2   2.0000      -9.918162      -269.8869
   3   2.0000      -9.907848      -269.6062
   4   2.0000      -9.898348      -269.3477
   5   2.0000      -9.897633      -269.3283
   6   2.0000      -9.879110      -268.8243
   7   2.0000      -0.857255       -23.3271
   8   2.0000      -0.723157       -19.6781
   9   2.0000      -0.705263       -19.1912
  10   2.0000      -0.627676       -17.0799
  11   2.0000      -0.565975       -15.4010
  12   2.0000      -0.540290       -14.7020
  13   2.0000      -0.464724       -12.6458
  14   2.0000      -0.438948       -11.9444
  15   2.0000      -0.407153       -11.0792
  16   2.0000      -0.389654       -10.6030
  17   2.0000      -0.372850       -10.1458
  18   2.0000      -0.361423        -9.8348
  19   2.0000      -0.340031        -9.2527
  20   2.0000      -0.332254        -9.0411
  21   2.0000      -0.315846        -8.5946
  22   2.0000      -0.260518        -7.0891
  23   2.0000      -0.230647        -6.2762
  24   2.0000      -0.202076        -5.4988
  25   0.0000      -0.051203        -1.3933
  26   0.0000      -0.043166        -1.1746
  27   0.0000       0.044535         1.2119
  28   0.0000       0.064393         1.7522
  29   0.0000       0.085743         2.3332

MULLIKEN ATOMIC CHARGES
-----------------------
   0 C :   -0.204970
   1 C :   -0.088231
   2 C :   -0.087811
   3 C :   -0.006726
   4 C :   -0.077850
   5 C :   -0.053366
   6 N :   -0.060573
   7 H :    0.113799
   8 H :    0.109422
   9 H :    0.113660
  10 H :    0.047478
  11 H :    0.065246
  12 H :    0.062164
  13 H :    0.067760
Sum of atomic charges:    0.0000000

LOEWDIN ATOMIC CHARGES
----------------------
   0 C :   -0.335627
   1 C :   -0.014500
   2 C :   -0.138809
   3 C :   -0.097491
   4 C :   -0.149397
   5 C :   -0.078917
   6 N :   -0.078153
   7 H :    0.133451
   8 H :    0.132191
   9 H :    0.133355
  10 H :    0.125468
  11 H :    0.127088
  12 H :    0.127503
  13 H :    0.113839

  Mayer bond orders larger than 0.100000
B(  0-C ,  1-C ) :   1.0974 B(  0-C ,  7-H ) :   0.9359 B(  0-C ,  8-H ) :   0.9369
B(  0-C ,  9-H ) :   0.9360 B(  1-C ,  2-C ) :   1.3580 B(  1-C ,  6-N ) :   1.5758
B(  2-C ,  3-C ) :   1.4268 B(  2-C , 10-H ) :   0.9503 B(  3-C ,  4-C ) :   1.4029
B(  3-C , 11-H ) :   0.9569 B(  4-C ,  5-C ) :   1.3876 B(  4-C , 12-H ) :   0.9489
B(  5-C ,  6-N ) :   1.5291 B(  5-C , 13-H ) :   0.9521

Dispersion correction           -0.012981567
FINAL SINGLE POINT ENERGY      -286.966325185525

DIPOLE MOMENT
-------------

Method             : SCF
Type of density    : Electron Density
Multiplicity       :   1
Irrep              :   0
Energy             :  -287.0058626728977629 Eh
Relativity type    :
Basis              : AO
                                X                 Y                 Z
Electronic contribution:      2.924083506      -1.209143954       0.001398566
Nuclear contribution   :     -2.679321877       1.875731195      -0.002052602
                        -----------------------------------------
Total Dipole Moment    :      0.244761629       0.666587241      -0.000654036
                        -----------------------------------------
Magnitude (a.u.)       :      0.710103677
Magnitude (Debye)      :      1.804940107

Rotational constants in cm-1:             0.192556             0.088984             0.061555
Rotational constants in MHz :          5772.678610          2667.662254          1845.360356

                             ****ORCA TERMINATED NORMALLY****
TOTAL RUN TIME: 0 days 0 hours 0 minutes 6 seconds 261 msec
