                         Program Version 6.0.1  -  RELEASE   -
|  1> ! pbe def2-sv(p) def2/J RI DEFGRID1 loosescf d4 GCP(DFT/SV(P)) printgap
|  2> %output
|  3>     printlevel normal
|  4> end
|  5> * xyz 0 1
|  6> C 5.159427443 -3.3216043966 -0.2805620663
|  7> C 4.4734302123 -2.0171059361 0.0724726896
|  8> O 3.1694961711 -2.0203268076 -0.5451999042
|  9> C 2.4534937072 -0.9234954563 -0.4833175366
| 10> O 2.8257836784 0.1088171195 0.0425847912
| 11> C 1.0950966427 -1.0924150559 -1.1193495378
| 12> C 0.4601730764 0.2695027156 -1.3727055577
| 13> H 0.8232339932 0.7273913268 -2.2939222068
| 14> C 0.6799619295 1.2288351994 -0.2179974296
| 15> O 0.2324261922 1.0129970003 0.892767666
| 16> O 1.2634149366 2.3350255735 -0.5991112599
| 17> C 1.5032111971 3.3553495855 0.3932018844
| 18> C 0.2400418114 4.1487019331 0.6869351922
| 19> S -1.3471607989 0.1524867445 -1.5495463599
| 20> P -2.0234006642 -0.2486199578 0.440883728
| 21> S -1.1748036147 -1.6304906621 1.5447192201
| 22> O -2.3530315973 1.1247999058 1.1598596912
| 23> C -3.2681415477 2.0807739056 0.5885775216
| 24> O -3.522371251 -0.6766834757 0.0476408993
| 25> C -3.8107690944 -1.9457080784 -0.5454012094
| 26> H 5.2665571666 -3.4072832371 -1.3574733049
| 27> H 6.140645866 -3.3459354036 0.1812653599
| 28> H 4.5709234475 -4.1588973381 0.081681553
| 29> H 5.0264565535 -1.1477235617 -0.2964534317
| 30> H 4.3384237696 -1.9066213451 1.1527862548
| 31> H 0.4972813725 -1.6636840406 -0.3977117147
| 32> H 1.1688500267 -1.677464579 -2.0346117601
| 33> H 1.8815038872 2.8688248354 1.2964204542
| 34> H 2.2767725585 3.9787612734 -0.054316435
| 35> H 0.4783888509 4.9569643745 1.3702039723
| 36> H -0.1651935283 4.5618986084 -0.2327566191
| 37> H -0.5034818576 3.5039985052 1.1507535701
| 38> H -2.9777957691 2.3148901846 -0.4362733498
| 39> H -3.192294406 2.9606904112 1.2227269948
| 40> H -4.2788362434 1.6778321666 0.6045941004
| 41> H -3.5255697571 -1.9349882076 -1.5967386701
| 42> H -4.8839039831 -2.0820431576 -0.4395531715
| 43> H -3.2723168455 -2.7352544728 -0.0183768161
| 44> *
| 45>
| 46>                          ****END OF INPUT****

CARTESIAN COORDINATES (ANGSTROEM)
---------------------------------
  C      5.159427   -3.321604   -0.280562
  C      4.473430   -2.017106    0.072473
  O      3.169496   -2.020327   -0.545200
  C      2.453494   -0.923495   -0.483318
  O      2.825784    0.108817    0.042585
  C      1.095097   -1.092415   -1.119350
  C      0.460173    0.269503   -1.372706
  H      0.823234    0.727391   -2.293922
  C      0.679962    1.228835   -0.217997
  O      0.232426    1.012997    0.892768
  O      1.263415    2.335026   -0.599111
  C      1.503211    3.355350    0.393202
  C      0.240042    4.148702    0.686935
  S     -1.347161    0.152487   -1.549546
  P     -2.023401   -0.248620    0.440884
  S     -1.174804   -1.630491    1.544719
  O     -2.353032    1.124800    1.159860
  C     -3.268142    2.080774    0.588578
  O     -3.522371   -0.676683    0.047641
  C     -3.810769   -1.945708   -0.545401
  H      5.266557   -3.407283   -1.357473
  H      6.140646   -3.345935    0.181265
  H      4.570923   -4.158897    0.081682
  H      5.026457   -1.147724   -0.296453
  H      4.338424   -1.906621    1.152786
  H      0.497281   -1.663684   -0.397712
  H      1.168850   -1.677465   -2.034612
  H      1.881504    2.868825    1.296420
  H      2.276773    3.978761   -0.054316
  H      0.478389    4.956964    1.370204
  H     -0.165194    4.561899   -0.232757
  H     -0.503482    3.503999    1.150754
  H     -2.977796    2.314890   -0.436273
  H     -3.192294    2.960690    1.222727
  H     -4.278836    1.677832    0.604594
  H     -3.525570   -1.934988   -1.596739
  H     -4.883904   -2.082043   -0.439553
  H     -3.272317   -2.735254   -0.018377

 Total Charge           Charge          ....    0
 Multiplicity           Mult            ....    1
 Number of Electrons    NEL             ....  174
 Basis Dimension        Dim             ....  316

ORBITAL ENERGIES
----------------

  NO   OCC          E(Eh)            E(eV)
   0   2.0000     -88.039036     -2395.6640
   1   2.0000     -87.970670     -2393.8036
   2   2.0000     -76.420201     -2079.4994
   3   2.0000     -18.806500      -511.7509
   4   2.0000     -18.801015      -511.6016
   5   2.0000     -18.783007      -511.1116
   6   2.0000     -18.781989      -511.0839
   7   2.0000     -18.746684      -510.1232
   8   2.0000     -18.730333      -509.6783
   9   2.0000     -10.013847      -272.4906
  10   2.0000     -10.012113      -272.4434
  11   2.0000      -9.951881      -270.8044
  12   2.0000      -9.944835      -270.6127
  13   2.0000      -9.944678      -270.6084
  14   2.0000      -9.942397      -270.5464
  15   2.0000      -9.936120      -270.3756
  16   2.0000      -9.905238      -269.5352
  17   2.0000      -9.891709      -269.1671
  18   2.0000      -9.883431      -268.9418
  19   2.0000      -7.683561      -209.0803
  20   2.0000      -7.615857      -207.2380
  21   2.0000      -6.415965      -174.5873
  22   2.0000      -5.711418      -155.4156
  23   2.0000      -5.707876      -155.3192
  24   2.0000      -5.700828      -155.1274
  25   2.0000      -5.645189      -153.6134
  26   2.0000      -5.636635      -153.3806
  27   2.0000      -5.635382      -153.3465
  28   2.0000      -4.639058      -126.2352
  29   2.0000      -4.637983      -126.2059
  30   2.0000      -4.636094      -126.1545
  31   2.0000      -1.017374       -27.6842
  32   2.0000      -1.009537       -27.4709
  33   2.0000      -0.977752       -26.6060
  34   2.0000      -0.931819       -25.3561
  35   2.0000      -0.922240       -25.0954
  36   2.0000      -0.912506       -24.8305
  37   2.0000      -0.761662       -20.7259
  38   2.0000      -0.716977       -19.5099
  39   2.0000      -0.701205       -19.0808
  40   2.0000      -0.687176       -18.6990
  41   2.0000      -0.659098       -17.9350
  42   2.0000      -0.629363       -17.1258
  43   2.0000      -0.618868       -16.8402
  44   2.0000      -0.609205       -16.5773
  45   2.0000      -0.592175       -16.1139
  46   2.0000      -0.557428       -15.1684
  47   2.0000      -0.514028       -13.9874
  48   2.0000      -0.509649       -13.8683
  49   2.0000      -0.492220       -13.3940
  50   2.0000      -0.478771       -13.0280
  51   2.0000      -0.466879       -12.7044
  52   2.0000      -0.454714       -12.3734
  53   2.0000      -0.443301       -12.0628
  54   2.0000      -0.435503       -11.8506
  55   2.0000      -0.430281       -11.7086
  56   2.0000      -0.425842       -11.5878
  57   2.0000      -0.422294       -11.4912
  58   2.0000      -0.415533       -11.3072
  59   2.0000      -0.406653       -11.0656
  60   2.0000      -0.400420       -10.8960
  61   2.0000      -0.396329       -10.7847
  62   2.0000      -0.386950       -10.5294
  63   2.0000      -0.380819       -10.3626
  64   2.0000      -0.370959       -10.0943
  65   2.0000      -0.363942        -9.9034
  66   2.0000      -0.360771        -9.8171
  67   2.0000      -0.351107        -9.5541
  68   2.0000      -0.343652        -9.3512
  69   2.0000      -0.338764        -9.2182
  70   2.0000      -0.333459        -9.0739
  71   2.0000      -0.327767        -8.9190
  72   2.0000      -0.315943        -8.5972
  73   2.0000      -0.310261        -8.4426
  74   2.0000      -0.302901        -8.2424
  75   2.0000      -0.296232        -8.0609
  76   2.0000      -0.290905        -7.9159
  77   2.0000      -0.285692        -7.7741
  78   2.0000      -0.269440        -7.3318
  79   2.0000      -0.264022        -7.1844
  80   2.0000      -0.253556        -6.8996
  81   2.0000      -0.246752        -6.7145
  82   2.0000      -0.234539        -6.3821
  83   2.0000      -0.230379        -6.2689
  84   2.0000      -0.221706        -6.0329
  85   2.0000      -0.189549        -5.1579
  86   2.0000      -0.178339        -4.8529
  87   0.0000      -0.046996        -1.2788
  88   0.0000      -0.025792        -0.7018
  89   0.0000      -0.013218        -0.3597
  90   0.0000       0.017102         0.4654
  91   0.0000       0.029468         0.8019

MULLIKEN ATOMIC CHARGES
-----------------------
   0 C :   -0.273389
   1 C :   -0.031584
   2 O :   -0.225650
   3 C :    0.131021
   4 O :   -0.212226
   5 C :   -0.065892
   6 C :   -0.282740
   7 H :    0.126387
   8 C :    0.193804
   9 O :   -0.198537
  10 O :   -0.216563
  11 C :    0.000645
  12 C :   -0.330140
  13 S :   -0.102170
  14 P :    0.619058
  15 S :   -0.298296
  16 O :   -0.359843
  17 C :   -0.106161
  18 O :   -0.400219
  19 C :   -0.098796
  20 H :    0.115084
  21 H :    0.113141
  22 H :    0.120370
  23 H :    0.108432
  24 H :    0.114074
  25 H :    0.143241
  26 H :    0.114960
  27 H :    0.117099
  28 H :    0.101387
  29 H :    0.111461
  30 H :    0.108950
  31 H :    0.147741
  32 H :    0.111669
  33 H :    0.130405
  34 H :    0.127022
  35 H :    0.110878
  36 H :    0.120137
  37 H :    0.115238
Sum of atomic charges:    0.0000000

LOEWDIN ATOMIC CHARGES
----------------------
   0 C :   -0.350357
   1 C :   -0.104905
   2 O :   -0.055087
   3 C :    0.044819
   4 O :   -0.154378
   5 C :   -0.265149
   6 C :   -0.258187
   7 H :    0.139282
   8 C :    0.007039
   9 O :   -0.165800
  10 O :   -0.042938
  11 C :   -0.102802
  12 C :   -0.362258
  13 S :    0.097085
  14 P :    0.587621
  15 S :   -0.299843
  16 O :   -0.234416
  17 C :   -0.211780
  18 O :   -0.266988
  19 C :   -0.220047
  20 H :    0.126792
  21 H :    0.131656
  22 H :    0.129370
  23 H :    0.117501
  24 H :    0.121049
  25 H :    0.142239
  26 H :    0.141316
  27 H :    0.126007
  28 H :    0.117990
  29 H :    0.130383
  30 H :    0.122471
  31 H :    0.133547
  32 H :    0.106009
  33 H :    0.121986
  34 H :    0.116211
  35 H :    0.106376
  36 H :    0.119891
  37 H :    0.108292

  Mayer bond orders larger than 0.100000
B(  0-C ,  1-C ) :   1.1539 B(  0-C , 20-H ) :   0.9508 B(  0-C , 21-H ) :   0.9436
B(  0-C , 22-H ) :   0.9486 B(  1-C ,  2-O ) :   0.9000 B(  1-C , 23-H ) :   0.9295
B(  1-C , 24-H ) :   0.9336 B(  2-O ,  3-C ) :   1.2532 B(  3-C ,  4-O ) :   1.9672
B(  3-C ,  5-C ) :   1.0247 B(  4-O ,  8-C ) :   0.1213 B(  5-C ,  6-C ) :   1.0086
B(  5-C , 25-H ) :   0.8284 B(  5-C , 26-H ) :   0.9005 B(  6-C ,  7-H ) :   0.8826
B(  6-C ,  8-C ) :   0.8995 B(  6-C , 13-S ) :   1.0127 B(  8-C ,  9-O ) :   1.9397
B(  8-C , 10-O ) :   1.2629 B(  9-O , 14-P ) :   0.1102 B( 10-O , 11-C ) :   0.9123
B( 11-C , 12-C ) :   1.1706 B( 11-C , 27-H ) :   0.9180 B( 11-C , 28-H ) :   0.9395
B( 12-C , 29-H ) :   0.9422 B( 12-C , 30-H ) :   0.9472 B( 12-C , 31-H ) :   0.9337
B( 13-S , 14-P ) :   0.9393 B( 13-S , 15-S ) :   0.1150 B( 14-P , 15-S ) :   1.6162
B( 14-P , 16-O ) :   1.1074 B( 14-P , 18-O ) :   1.0350 B( 15-S , 25-H ) :   0.1154
B( 16-O , 17-C ) :   0.9219 B( 17-C , 32-H ) :   0.9372 B( 17-C , 33-H ) :   0.9531
B( 17-C , 34-H ) :   0.9479 B( 18-O , 19-C ) :   0.9376 B( 19-C , 35-H ) :   0.9488
B( 19-C , 36-H ) :   0.9588 B( 19-C , 37-H ) :   0.9288

Dispersion correction           -0.051730892
FINAL SINGLE POINT ENERGY     -1979.009496039868

DIPOLE MOMENT
-------------

Method             : SCF
Type of density    : Electron Density
Multiplicity       :   1
Irrep              :   0
Energy             : -1979.1414448184259527 Eh
Relativity type    :
Basis              : AO
                                X                 Y                 Z
Electronic contribution:    -10.526226384      -3.113627235       1.143197037
Nuclear contribution   :     10.976641872       3.568331902      -2.347058055
                        -----------------------------------------
Total Dipole Moment    :      0.450415487       0.454704667      -1.203861018
                        -----------------------------------------
Magnitude (a.u.)       :      1.363419156
Magnitude (Debye)      :      3.465536084

Rotational constants in cm-1:             0.012990             0.006971             0.005312
Rotational constants in MHz :           389.433274           208.981308           159.236025

                             ****ORCA TERMINATED NORMALLY****
TOTAL RUN TIME: 0 days 0 hours 0 minutes 43 seconds 929 msec
