                         Program Version 6.0.0  -   RELEASE  -
|  1> ! pbe def2-sv(p) def2/J RI DEFGRID1 loosescf d4 GCP(DFT/SV(P)) printgap
|  2> %output
|  3>     printlevel normal
|  4> end
|  5> * xyz 0 1
|  6> C 4.1119801518 -1.2700378077 -2.1574853734
|  7> C 4.1644266219 0.2221672845 -1.9134023482
|  8> O 3.9900590987 0.5698303126 -0.5200450153
|  9> P 2.8095992348 0.1253380715 0.4269516534
| 10> S 2.6935671321 1.2895876058 1.9956455484
| 11> O 3.1963268032 -1.3837187585 0.7530164138
| 12> C 2.6721945359 -2.0969542232 1.8842634865
| 13> C 1.2036863506 -2.4319424556 1.7186380059
| 14> S 1.0870852915 0.0615515629 -0.8479004908
| 15> C 0.0105094512 1.2051256496 0.0550191905
| 16> S -1.2814679121 0.3645951485 1.0075624168
| 17> P -2.6507931494 0.1750090997 -0.617953262
| 18> S -1.9418029241 -0.4130252389 -2.3420606546
| 19> O -3.3115532614 1.6041012799 -0.7432937169
| 20> C -4.0108191341 2.2607469504 0.3471410406
| 21> C -3.2240469208 3.4677943763 0.8185881763
| 22> O -3.8305619994 -0.6948277593 -0.0035268479
| 23> C -3.8458274883 -2.1336265901 -0.0744527386
| 24> C -2.6694983153 -2.7556332672 0.6487362633
| 25> H 4.8277663931 -1.7821204647 -1.5199834451
| 26> H 3.1133614835 -1.6484369348 -1.9447885199
| 27> H 4.3476844235 -1.4683570317 -3.198561121
| 28> H 3.3930164143 0.7366077486 -2.4927063685
| 29> H 5.1448055432 0.6374643415 -2.1518342571
| 30> H 3.2864762882 -2.9975020118 1.9308019826
| 31> H 2.8311728349 -1.491605909 2.7825739261
| 32> H 1.033951244 -2.9186609115 0.7611988068
| 33> H 0.893889345 -3.0967397036 2.5182911956
| 34> H 0.6038702317 -1.5242665624 1.7692023771
| 35> H -0.457492873 1.8587844562 -0.678600492
| 36> H 0.6173885935 1.767811832 0.7684294525
| 37> H -4.9732356425 2.5549906348 -0.0738080022
| 38> H -4.1669321533 1.5446094173 1.1561164793
| 39> H -3.8149687563 4.0115773571 1.5487337295
| 40> H -2.2885076493 3.1621327939 1.2815986047
| 41> H -3.00566804 4.1218057978 -0.0213864081
| 42> H -4.7963467551 -2.4046376634 0.3871731343
| 43> H -3.8454679332 -2.4238711529 -1.1292488429
| 44> H -2.6116457522 -2.3870413846 1.6699904158
| 45> H -2.7840461757 -3.8346202211 0.659505352
| 46> H -1.7449244782 -2.5048985931 0.1299732508
| 47> *
| 48>
| 49>                          ****END OF INPUT****

CARTESIAN COORDINATES (ANGSTROEM)
---------------------------------
  C      4.111980   -1.270038   -2.157485
  C      4.164427    0.222167   -1.913402
  O      3.990059    0.569830   -0.520045
  P      2.809599    0.125338    0.426952
  S      2.693567    1.289588    1.995646
  O      3.196327   -1.383719    0.753016
  C      2.672195   -2.096954    1.884263
  C      1.203686   -2.431942    1.718638
  S      1.087085    0.061552   -0.847900
  C      0.010509    1.205126    0.055019
  S     -1.281468    0.364595    1.007562
  P     -2.650793    0.175009   -0.617953
  S     -1.941803   -0.413025   -2.342061
  O     -3.311553    1.604101   -0.743294
  C     -4.010819    2.260747    0.347141
  C     -3.224047    3.467794    0.818588
  O     -3.830562   -0.694828   -0.003527
  C     -3.845827   -2.133627   -0.074453
  C     -2.669498   -2.755633    0.648736
  H      4.827766   -1.782120   -1.519983
  H      3.113361   -1.648437   -1.944789
  H      4.347684   -1.468357   -3.198561
  H      3.393016    0.736608   -2.492706
  H      5.144806    0.637464   -2.151834
  H      3.286476   -2.997502    1.930802
  H      2.831173   -1.491606    2.782574
  H      1.033951   -2.918661    0.761199
  H      0.893889   -3.096740    2.518291
  H      0.603870   -1.524267    1.769202
  H     -0.457493    1.858784   -0.678600
  H      0.617389    1.767812    0.768429
  H     -4.973236    2.554991   -0.073808
  H     -4.166932    1.544609    1.156116
  H     -3.814969    4.011577    1.548734
  H     -2.288508    3.162133    1.281599
  H     -3.005668    4.121806   -0.021386
  H     -4.796347   -2.404638    0.387173
  H     -3.845468   -2.423871   -1.129249
  H     -2.611646   -2.387041    1.669990
  H     -2.784046   -3.834620    0.659505
  H     -1.744924   -2.504899    0.129973

 Total Charge           Charge          ....    0
 Multiplicity           Mult            ....    1
 Number of Electrons    NEL             ....  202
 Basis Dimension        Dim             ....  334

ORBITAL ENERGIES
----------------

  NO   OCC          E(Eh)            E(eV)
   0   2.0000     -88.046657     -2395.8714
   1   2.0000     -88.041824     -2395.7398
   2   2.0000     -87.990016     -2394.3301
   3   2.0000     -87.984436     -2394.1782
   4   2.0000     -76.430142     -2079.7699
   5   2.0000     -76.422826     -2079.5708
   6   2.0000     -18.798708      -511.5389
   7   2.0000     -18.794380      -511.4211
   8   2.0000     -18.788612      -511.2641
   9   2.0000     -18.787185      -511.2253
  10   2.0000      -9.959599      -271.0145
  11   2.0000      -9.958856      -270.9943
  12   2.0000      -9.955261      -270.8964
  13   2.0000      -9.954094      -270.8647
  14   2.0000      -9.949688      -270.7448
  15   2.0000      -9.889826      -269.1159
  16   2.0000      -9.888644      -269.0837
  17   2.0000      -9.887631      -269.0561
  18   2.0000      -9.880431      -268.8602
  19   2.0000      -7.690914      -209.2804
  20   2.0000      -7.685785      -209.1408
  21   2.0000      -7.635119      -207.7622
  22   2.0000      -7.629639      -207.6130
  23   2.0000      -6.427603      -174.9040
  24   2.0000      -6.420500      -174.7107
  25   2.0000      -5.718536      -155.6093
  26   2.0000      -5.715540      -155.5278
  27   2.0000      -5.713653      -155.4764
  28   2.0000      -5.710358      -155.3867
  29   2.0000      -5.708126      -155.3260
  30   2.0000      -5.702914      -155.1842
  31   2.0000      -5.664150      -154.1294
  32   2.0000      -5.658495      -153.9755
  33   2.0000      -5.655703      -153.8995
  34   2.0000      -5.655223      -153.8864
  35   2.0000      -5.650267      -153.7516
  36   2.0000      -5.649799      -153.7388
  37   2.0000      -4.650563      -126.5482
  38   2.0000      -4.649331      -126.5147
  39   2.0000      -4.647760      -126.4720
  40   2.0000      -4.643154      -126.3466
  41   2.0000      -4.642122      -126.3186
  42   2.0000      -4.640990      -126.2878
  43   2.0000      -0.992291       -27.0016
  44   2.0000      -0.983481       -26.7619
  45   2.0000      -0.949206       -25.8292
  46   2.0000      -0.942169       -25.6377
  47   2.0000      -0.762788       -20.7565
  48   2.0000      -0.722128       -19.6501
  49   2.0000      -0.712732       -19.3944
  50   2.0000      -0.693931       -18.8828
  51   2.0000      -0.688541       -18.7362
  52   2.0000      -0.678750       -18.4697
  53   2.0000      -0.651958       -17.7407
  54   2.0000      -0.638808       -17.3828
  55   2.0000      -0.600894       -16.3512
  56   2.0000      -0.593988       -16.1632
  57   2.0000      -0.579623       -15.7723
  58   2.0000      -0.573724       -15.6118
  59   2.0000      -0.559230       -15.2174
  60   2.0000      -0.507154       -13.8004
  61   2.0000      -0.491935       -13.3862
  62   2.0000      -0.476199       -12.9580
  63   2.0000      -0.470131       -12.7929
  64   2.0000      -0.461426       -12.5560
  65   2.0000      -0.448933       -12.2161
  66   2.0000      -0.446284       -12.1440
  67   2.0000      -0.438971       -11.9450
  68   2.0000      -0.434957       -11.8358
  69   2.0000      -0.426598       -11.6083
  70   2.0000      -0.411631       -11.2010
  71   2.0000      -0.397239       -10.8094
  72   2.0000      -0.395117       -10.7517
  73   2.0000      -0.386619       -10.5204
  74   2.0000      -0.375321       -10.2130
  75   2.0000      -0.372457       -10.1351
  76   2.0000      -0.368332       -10.0228
  77   2.0000      -0.360556        -9.8112
  78   2.0000      -0.357313        -9.7230
  79   2.0000      -0.353531        -9.6201
  80   2.0000      -0.351014        -9.5516
  81   2.0000      -0.348632        -9.4868
  82   2.0000      -0.345848        -9.4110
  83   2.0000      -0.341840        -9.3019
  84   2.0000      -0.336059        -9.1446
  85   2.0000      -0.318843        -8.6762
  86   2.0000      -0.309789        -8.4298
  87   2.0000      -0.304980        -8.2989
  88   2.0000      -0.299712        -8.1556
  89   2.0000      -0.292634        -7.9630
  90   2.0000      -0.289343        -7.8734
  91   2.0000      -0.274325        -7.4648
  92   2.0000      -0.271057        -7.3758
  93   2.0000      -0.265063        -7.2127
  94   2.0000      -0.260228        -7.0812
  95   2.0000      -0.233704        -6.3594
  96   2.0000      -0.217181        -5.9098
  97   2.0000      -0.213498        -5.8096
  98   2.0000      -0.205860        -5.6017
  99   2.0000      -0.201251        -5.4763
 100   2.0000      -0.198406        -5.3989
 101   0.0000      -0.043646        -1.1877
 102   0.0000      -0.033680        -0.9165
 103   0.0000      -0.012042        -0.3277
 104   0.0000       0.004148         0.1129
 105   0.0000       0.016905         0.4600

MULLIKEN ATOMIC CHARGES
-----------------------
   0 C :   -0.317807
   1 C :   -0.003119
   2 O :   -0.360185
   3 P :    0.594575
   4 S :   -0.320109
   5 O :   -0.373396
   6 C :    0.006130
   7 C :   -0.340022
   8 S :   -0.085543
   9 C :   -0.351283
  10 S :   -0.091610
  11 P :    0.582197
  12 S :   -0.304661
  13 O :   -0.360232
  14 C :   -0.010812
  15 C :   -0.293654
  16 O :   -0.380790
  17 C :    0.005196
  18 C :   -0.341757
  19 H :    0.124925
  20 H :    0.128023
  21 H :    0.116133
  22 H :    0.114619
  23 H :    0.111649
  24 H :    0.102044
  25 H :    0.111023
  26 H :    0.123604
  27 H :    0.108506
  28 H :    0.139589
  29 H :    0.191501
  30 H :    0.192890
  31 H :    0.113116
  32 H :    0.107911
  33 H :    0.112251
  34 H :    0.123446
  35 H :    0.121155
  36 H :    0.106813
  37 H :    0.114589
  38 H :    0.121180
  39 H :    0.115699
  40 H :    0.146216
Sum of atomic charges:   -0.0000000

LOEWDIN ATOMIC CHARGES
----------------------
   0 C :   -0.367191
   1 C :   -0.114451
   2 O :   -0.237916
   3 P :    0.567151
   4 S :   -0.311578
   5 O :   -0.243592
   6 C :   -0.117581
   7 C :   -0.373217
   8 S :    0.086146
   9 C :   -0.485448
  10 S :    0.088262
  11 P :    0.568815
  12 S :   -0.308616
  13 O :   -0.242045
  14 C :   -0.112860
  15 C :   -0.359750
  16 O :   -0.248708
  17 C :   -0.113595
  18 C :   -0.374016
  19 H :    0.129918
  20 H :    0.118992
  21 H :    0.132750
  22 H :    0.111111
  23 H :    0.123250
  24 H :    0.117393
  25 H :    0.110977
  26 H :    0.125073
  27 H :    0.129051
  28 H :    0.112342
  29 H :    0.132510
  30 H :    0.125608
  31 H :    0.122713
  32 H :    0.109778
  33 H :    0.131324
  34 H :    0.122052
  35 H :    0.129073
  36 H :    0.119577
  37 H :    0.115001
  38 H :    0.123805
  39 H :    0.132621
  40 H :    0.125271

  Mayer bond orders larger than 0.100000
B(  0-C ,  1-C ) :   1.1693 B(  0-C , 19-H ) :   0.9423 B(  0-C , 20-H ) :   0.9370
B(  0-C , 21-H ) :   0.9348 B(  1-C ,  2-O ) :   0.9049 B(  1-C , 22-H ) :   0.9209
B(  1-C , 23-H ) :   0.9335 B(  2-O ,  3-P ) :   1.1442 B(  3-P ,  4-S ) :   1.6094
B(  3-P ,  5-O ) :   1.0883 B(  3-P ,  8-S ) :   0.9380 B(  4-S ,  8-S ) :   0.1105
B(  4-S , 30-H ) :   0.1215 B(  5-O ,  6-C ) :   0.9141 B(  6-C ,  7-C ) :   1.1604
B(  6-C , 24-H ) :   0.9336 B(  6-C , 25-H ) :   0.9150 B(  7-C , 26-H ) :   0.9422
B(  7-C , 27-H ) :   0.9375 B(  7-C , 28-H ) :   0.9265 B(  8-S ,  9-C ) :   1.0226
B(  9-C , 10-S ) :   0.9870 B(  9-C , 29-H ) :   0.8903 B(  9-C , 30-H ) :   0.8463
B( 10-S , 11-P ) :   0.9500 B( 10-S , 12-S ) :   0.1107 B( 11-P , 12-S ) :   1.6361
B( 11-P , 13-O ) :   1.1286 B( 11-P , 16-O ) :   1.0950 B( 13-O , 14-C ) :   0.8879
B( 14-C , 15-C ) :   1.1644 B( 14-C , 31-H ) :   0.9337 B( 14-C , 32-H ) :   0.9176
B( 15-C , 33-H ) :   0.9398 B( 15-C , 34-H ) :   0.9383 B( 15-C , 35-H ) :   0.9459
B( 16-O , 17-C ) :   0.9017 B( 17-C , 18-C ) :   1.1642 B( 17-C , 36-H ) :   0.9340
B( 17-C , 37-H ) :   0.9205 B( 18-C , 38-H ) :   0.9426 B( 18-C , 39-H ) :   0.9364
B( 18-C , 40-H ) :   0.9271

Dispersion correction           -0.064164949
FINAL SINGLE POINT ENERGY     -2929.517198537254

DIPOLE MOMENT
-------------

Method             : SCF
Type of density    : Electron Density
Multiplicity       :   1
Irrep              :   0
Energy             : -2929.6380907395637223 Eh
Relativity type    :
Basis              : AO
                                X                 Y                 Z
Electronic contribution:      3.460595750       8.981673111      -3.823570358
Nuclear contribution   :     -4.281438825      -9.767973760       4.064375784
                        -----------------------------------------
Total Dipole Moment    :     -0.820843076      -0.786300650       0.240805426
                        -----------------------------------------
Magnitude (a.u.)       :      1.161911924
Magnitude (Debye)      :      2.953345405

Rotational constants in cm-1:             0.011840             0.004519             0.004332
Rotational constants in MHz :           354.957242           135.483950           129.856765

                             ****ORCA TERMINATED NORMALLY****
TOTAL RUN TIME: 0 days 0 hours 0 minutes 20 seconds 882 msec
