                         Program Version 6.0.1  -  RELEASE   -
|  1> ! pbe def2-sv(p) def2/J RI DEFGRID1 loosescf d4 GCP(DFT/SV(P)) printgap
|  2> %output
|  3>     printlevel normal
|  4> end
|  5> * xyz 0 1
|  6> C 5.3325703886 -0.5970447741 -0.191054289
|  7> C 4.8506106632 -1.3015788554 -1.4488242625
|  8> O 3.4954088544 -1.765344898 -1.286651251
|  9> C 2.5110120953 -0.9422899853 -1.5828439619
| 10> O 2.6527479718 0.1808122068 -2.0123948641
| 11> C 1.159764533 -1.5963992748 -1.3515778228
| 12> C 0.2059766876 -0.5783963504 -0.7432409663
| 13> H 0.2509011388 0.3544739364 -1.3218442348
| 14> C 0.5406482273 -0.2227728831 0.6899873011
| 15> O -0.3268561739 -0.0222008493 1.5176251886
| 16> O 1.8234402379 -0.1532703255 0.911571512
| 17> C 2.2655064985 0.3130662644 2.2072050559
| 18> C 2.3239973147 1.8309465642 2.2312456682
| 19> S -1.5163746037 -1.1683191654 -0.7626663456
| 20> P -2.4329188221 0.5765200474 0.064110411
| 21> S -1.4954767148 2.2950634188 0.0224931391
| 22> O -3.6943951265 0.7092153435 -0.899520974
| 23> C -4.6462355991 -0.3505046999 -1.0942885216
| 24> O -3.191390721 0.1565238916 1.405085788
| 25> C -2.7639087779 0.3394879403 2.7543138358
| 26> H 5.2599446622 -1.2657206714 0.6620354687
| 27> H 6.3658983343 -0.2933742124 -0.3219879376
| 28> H 4.7243497131 0.2854618554 -0.0071261937
| 29> H 5.427596017 -2.2048417325 -1.6473174891
| 30> H 4.8876777972 -0.6269537511 -2.3087318775
| 31> H 1.2789781963 -2.4699514208 -0.7128534133
| 32> H 0.7654055385 -1.9151076527 -2.3185546292
| 33> H 1.5752810583 -0.0637896651 2.9661016155
| 34> H 3.2536783583 -0.1291146476 2.3318456188
| 35> H 2.6860049265 2.163014881 3.1983266899
| 36> H 2.9891603672 2.1953947154 1.452805059
| 37> H 1.3337001004 2.2496289147 2.0589296305
| 38> H -5.2963030957 -0.0055383012 -1.8942431684
| 39> H -5.2108579016 -0.5136056484 -0.1782921837
| 40> H -4.1302259562 -1.2664001595 -1.3852887659
| 41> H -3.6771191686 0.4435361508 3.3365226393
| 42> H -2.1508108488 1.2363128012 2.8396315561
| 43> H -2.1916897194 -0.5275516116 3.0777060351
| 44> *
| 45>
| 46>                          ****END OF INPUT****

CARTESIAN COORDINATES (ANGSTROEM)
---------------------------------
  C      5.332570   -0.597045   -0.191054
  C      4.850611   -1.301579   -1.448824
  O      3.495409   -1.765345   -1.286651
  C      2.511012   -0.942290   -1.582844
  O      2.652748    0.180812   -2.012395
  C      1.159765   -1.596399   -1.351578
  C      0.205977   -0.578396   -0.743241
  H      0.250901    0.354474   -1.321844
  C      0.540648   -0.222773    0.689987
  O     -0.326856   -0.022201    1.517625
  O      1.823440   -0.153270    0.911572
  C      2.265506    0.313066    2.207205
  C      2.323997    1.830947    2.231246
  S     -1.516375   -1.168319   -0.762666
  P     -2.432919    0.576520    0.064110
  S     -1.495477    2.295063    0.022493
  O     -3.694395    0.709215   -0.899521
  C     -4.646236   -0.350505   -1.094289
  O     -3.191391    0.156524    1.405086
  C     -2.763909    0.339488    2.754314
  H      5.259945   -1.265721    0.662035
  H      6.365898   -0.293374   -0.321988
  H      4.724350    0.285462   -0.007126
  H      5.427596   -2.204842   -1.647317
  H      4.887678   -0.626954   -2.308732
  H      1.278978   -2.469951   -0.712853
  H      0.765406   -1.915108   -2.318555
  H      1.575281   -0.063790    2.966102
  H      3.253678   -0.129115    2.331846
  H      2.686005    2.163015    3.198327
  H      2.989160    2.195395    1.452805
  H      1.333700    2.249629    2.058930
  H     -5.296303   -0.005538   -1.894243
  H     -5.210858   -0.513606   -0.178292
  H     -4.130226   -1.266400   -1.385289
  H     -3.677119    0.443536    3.336523
  H     -2.150811    1.236313    2.839632
  H     -2.191690   -0.527552    3.077706

 Total Charge           Charge          ....    0
 Multiplicity           Mult            ....    1
 Number of Electrons    NEL             ....  174
 Basis Dimension        Dim             ....  316

ORBITAL ENERGIES
----------------

  NO   OCC          E(Eh)            E(eV)
   0   2.0000     -88.031548     -2395.4602
   1   2.0000     -87.969317     -2393.7668
   2   2.0000     -76.416651     -2079.4028
   3   2.0000     -18.825648      -512.2719
   4   2.0000     -18.807789      -511.7860
   5   2.0000     -18.781790      -511.0785
   6   2.0000     -18.772992      -510.8391
   7   2.0000     -18.754920      -510.3473
   8   2.0000     -18.743025      -510.0237
   9   2.0000     -10.026603      -272.8377
  10   2.0000     -10.016324      -272.5580
  11   2.0000      -9.960381      -271.0357
  12   2.0000      -9.954027      -270.8629
  13   2.0000      -9.945854      -270.6405
  14   2.0000      -9.939039      -270.4550
  15   2.0000      -9.933939      -270.3162
  16   2.0000      -9.917994      -269.8823
  17   2.0000      -9.895065      -269.2584
  18   2.0000      -9.890484      -269.1338
  19   2.0000      -7.676611      -208.8912
  20   2.0000      -7.614650      -207.2052
  21   2.0000      -6.412678      -174.4978
  22   2.0000      -5.704471      -155.2266
  23   2.0000      -5.701517      -155.1462
  24   2.0000      -5.693219      -154.9204
  25   2.0000      -5.643999      -153.5810
  26   2.0000      -5.635397      -153.3469
  27   2.0000      -5.634194      -153.3142
  28   2.0000      -4.635517      -126.1388
  29   2.0000      -4.634555      -126.1126
  30   2.0000      -4.633150      -126.0744
  31   2.0000      -1.033892       -28.1336
  32   2.0000      -1.015574       -27.6352
  33   2.0000      -0.971524       -26.4365
  34   2.0000      -0.936449       -25.4821
  35   2.0000      -0.926101       -25.2005
  36   2.0000      -0.920758       -25.0551
  37   2.0000      -0.766623       -20.8609
  38   2.0000      -0.716250       -19.4901
  39   2.0000      -0.713478       -19.4147
  40   2.0000      -0.690249       -18.7826
  41   2.0000      -0.657968       -17.9042
  42   2.0000      -0.629104       -17.1188
  43   2.0000      -0.625677       -17.0255
  44   2.0000      -0.607398       -16.5281
  45   2.0000      -0.600644       -16.3444
  46   2.0000      -0.567957       -15.4549
  47   2.0000      -0.513083       -13.9617
  48   2.0000      -0.506111       -13.7720
  49   2.0000      -0.504546       -13.7294
  50   2.0000      -0.477278       -12.9874
  51   2.0000      -0.474676       -12.9166
  52   2.0000      -0.465968       -12.6796
  53   2.0000      -0.449413       -12.2291
  54   2.0000      -0.439082       -11.9480
  55   2.0000      -0.432629       -11.7724
  56   2.0000      -0.427960       -11.6454
  57   2.0000      -0.420417       -11.4401
  58   2.0000      -0.417834       -11.3698
  59   2.0000      -0.407433       -11.0868
  60   2.0000      -0.403144       -10.9701
  61   2.0000      -0.399288       -10.8652
  62   2.0000      -0.393630       -10.7112
  63   2.0000      -0.387961       -10.5570
  64   2.0000      -0.377224       -10.2648
  65   2.0000      -0.368276       -10.0213
  66   2.0000      -0.363872        -9.9015
  67   2.0000      -0.356632        -9.7044
  68   2.0000      -0.351274        -9.5587
  69   2.0000      -0.343782        -9.3548
  70   2.0000      -0.338531        -9.2119
  71   2.0000      -0.330074        -8.9818
  72   2.0000      -0.328734        -8.9453
  73   2.0000      -0.310349        -8.4450
  74   2.0000      -0.306133        -8.3303
  75   2.0000      -0.299145        -8.1401
  76   2.0000      -0.292088        -7.9481
  77   2.0000      -0.286267        -7.7897
  78   2.0000      -0.280984        -7.6460
  79   2.0000      -0.264781        -7.2051
  80   2.0000      -0.259316        -7.0564
  81   2.0000      -0.251424        -6.8416
  82   2.0000      -0.243057        -6.6139
  83   2.0000      -0.229852        -6.2546
  84   2.0000      -0.207944        -5.6584
  85   2.0000      -0.191766        -5.2182
  86   2.0000      -0.182349        -4.9620
  87   0.0000      -0.046807        -1.2737
  88   0.0000      -0.035316        -0.9610
  89   0.0000      -0.021794        -0.5930
  90   0.0000       0.007396         0.2012
  91   0.0000       0.026422         0.7190

MULLIKEN ATOMIC CHARGES
-----------------------
   0 C :   -0.321044
   1 C :   -0.014480
   2 O :   -0.229414
   3 C :    0.115783
   4 O :   -0.201348
   5 C :   -0.064411
   6 C :   -0.326652
   7 H :    0.180239
   8 C :    0.230694
   9 O :   -0.193329
  10 O :   -0.218427
  11 C :   -0.014999
  12 C :   -0.317273
  13 S :   -0.123490
  14 P :    0.642655
  15 S :   -0.330125
  16 O :   -0.367352
  17 C :   -0.110310
  18 O :   -0.398912
  19 C :   -0.078242
  20 H :    0.116834
  21 H :    0.115679
  22 H :    0.139017
  23 H :    0.105406
  24 H :    0.112016
  25 H :    0.107504
  26 H :    0.130361
  27 H :    0.111364
  28 H :    0.108517
  29 H :    0.114305
  30 H :    0.127722
  31 H :    0.141746
  32 H :    0.128940
  33 H :    0.118301
  34 H :    0.118100
  35 H :    0.114877
  36 H :    0.115691
  37 H :    0.114058
Sum of atomic charges:    0.0000000

LOEWDIN ATOMIC CHARGES
----------------------
   0 C :   -0.356689
   1 C :   -0.109523
   2 O :   -0.056882
   3 C :    0.030034
   4 O :   -0.165818
   5 C :   -0.246390
   6 C :   -0.272545
   7 H :    0.154345
   8 C :    0.029174
   9 O :   -0.157356
  10 O :   -0.029831
  11 C :   -0.106506
  12 C :   -0.356672
  13 S :    0.080038
  14 P :    0.587225
  15 S :   -0.325459
  16 O :   -0.253850
  17 C :   -0.213342
  18 O :   -0.253809
  19 C :   -0.205702
  20 H :    0.123291
  21 H :    0.132121
  22 H :    0.130526
  23 H :    0.118826
  24 H :    0.121839
  25 H :    0.135103
  26 H :    0.151402
  27 H :    0.121453
  28 H :    0.118273
  29 H :    0.131900
  30 H :    0.129258
  31 H :    0.135575
  32 H :    0.124619
  33 H :    0.113005
  34 H :    0.103535
  35 H :    0.115067
  36 H :    0.111609
  37 H :    0.112158

  Mayer bond orders larger than 0.100000
B(  0-C ,  1-C ) :   1.1751 B(  0-C , 20-H ) :   0.9448 B(  0-C , 21-H ) :   0.9416
B(  0-C , 22-H ) :   0.9391 B(  1-C ,  2-O ) :   0.9153 B(  1-C , 23-H ) :   0.9374
B(  1-C , 24-H ) :   0.9125 B(  2-O ,  3-C ) :   1.2406 B(  3-C ,  4-O ) :   2.0393
B(  3-C ,  5-C ) :   1.0044 B(  5-C ,  6-C ) :   1.0524 B(  5-C , 25-H ) :   0.9071
B(  5-C , 26-H ) :   0.8775 B(  6-C ,  7-H ) :   0.8317 B(  6-C ,  8-C ) :   0.9009
B(  6-C , 13-S ) :   1.0436 B(  8-C ,  9-O ) :   1.9544 B(  8-C , 10-O ) :   1.2763
B( 10-O , 11-C ) :   0.8935 B( 11-C , 12-C ) :   1.1799 B( 11-C , 27-H ) :   0.9136
B( 11-C , 28-H ) :   0.9302 B( 12-C , 29-H ) :   0.9413 B( 12-C , 30-H ) :   0.9472
B( 12-C , 31-H ) :   0.9341 B( 13-S , 14-P ) :   0.9165 B( 13-S , 15-S ) :   0.1107
B( 14-P , 15-S ) :   1.6043 B( 14-P , 16-O ) :   1.1068 B( 14-P , 18-O ) :   1.0887
B( 16-O , 17-C ) :   0.9342 B( 17-C , 32-H ) :   0.9607 B( 17-C , 33-H ) :   0.9469
B( 17-C , 34-H ) :   0.9355 B( 18-O , 19-C ) :   0.9278 B( 19-C , 35-H ) :   0.9537
B( 19-C , 36-H ) :   0.9416 B( 19-C , 37-H ) :   0.9533

Dispersion correction           -0.051484239
FINAL SINGLE POINT ENERGY     -1979.011423911830

DIPOLE MOMENT
-------------

Method             : SCF
Type of density    : Electron Density
Multiplicity       :   1
Irrep              :   0
Energy             : -1979.1441292705289925 Eh
Relativity type    :
Basis              : AO
                                X                 Y                 Z
Electronic contribution:    -18.137560369       1.251122860      -8.210935944
Nuclear contribution   :     19.292158407      -2.769560168       9.178781949
                        -----------------------------------------
Total Dipole Moment    :      1.154598038      -1.518437308       0.967846005
                        -----------------------------------------
Magnitude (a.u.)       :      2.139035852
Magnitude (Debye)      :      5.436997051

Rotational constants in cm-1:             0.017735             0.005838             0.005080
Rotational constants in MHz :           531.675060           175.009122           152.302379

                             ****ORCA TERMINATED NORMALLY****
TOTAL RUN TIME: 0 days 0 hours 0 minutes 38 seconds 761 msec
