                         Program Version 6.0.0  -   RELEASE  -
|  1> ! r2scan-3c def2/J RI DEFGRID2 scfconv6 printgap
|  2> %output
|  3>     printlevel normal
|  4> end
|  5> * xyz 0 1
|  6> C -1.8442003926 -0.8434793398 0.4577481006
|  7> S -0.9005259577 0.4171661863 -0.4695558154
|  8> S 0.8994707508 0.4148674674 0.4710722337
|  9> C 1.8462876966 -0.8397892809 -0.4608768643
| 10> H -2.8496880231 -0.8115111628 0.0545300568
| 11> H -1.8439891697 -0.5810103249 1.5099128517
| 12> H -1.400913617 -1.819979631 0.2954173625
| 13> H 2.8461344522 -0.8205242988 -0.0432702548
| 14> H 1.8630019247 -0.5624765393 -1.5091695354
| 15> H 1.3941503062 -1.8152790036 -0.3183783428
| 16> *
| 17>
| 18>                          ****END OF INPUT****

CARTESIAN COORDINATES (ANGSTROEM)
---------------------------------
  C     -1.844200   -0.843479    0.457748
  S     -0.900526    0.417166   -0.469556
  S      0.899471    0.414867    0.471072
  C      1.846288   -0.839789   -0.460877
  H     -2.849688   -0.811511    0.054530
  H     -1.843989   -0.581010    1.509913
  H     -1.400914   -1.819980    0.295417
  H      2.846134   -0.820524   -0.043270
  H      1.863002   -0.562477   -1.509170
  H      1.394150   -1.815279   -0.318378

 Total Charge           Charge          ....    0
 Multiplicity           Mult            ....    1
 Number of Electrons    NEL             ....   50
 Basis Dimension        Dim             ....  122

ORBITAL ENERGIES
----------------

  NO   OCC          E(Eh)            E(eV)
   0   2.0000     -88.576154     -2410.2797
   1   2.0000     -88.576105     -2410.2783
   2   2.0000     -10.059319      -273.7280
   3   2.0000     -10.059305      -273.7276
   4   2.0000      -7.868004      -214.0993
   5   2.0000      -7.867934      -214.0974
   6   2.0000      -5.816363      -158.2713
   7   2.0000      -5.816085      -158.2637
   8   2.0000      -5.811613      -158.1420
   9   2.0000      -5.811536      -158.1399
  10   2.0000      -5.804346      -157.9443
  11   2.0000      -5.804297      -157.9430
  12   2.0000      -0.787428       -21.4270
  13   2.0000      -0.721199       -19.6248
  14   2.0000      -0.642603       -17.4861
  15   2.0000      -0.548706       -14.9311
  16   2.0000      -0.423688       -11.5291
  17   2.0000      -0.408492       -11.1156
  18   2.0000      -0.407672       -11.0933
  19   2.0000      -0.394938       -10.7468
  20   2.0000      -0.370505       -10.0820
  21   2.0000      -0.333916        -9.0863
  22   2.0000      -0.297104        -8.0846
  23   2.0000      -0.212770        -5.7898
  24   2.0000      -0.211988        -5.7685
  25   0.0000      -0.031149        -0.8476
  26   0.0000       0.020249         0.5510
  27   0.0000       0.023312         0.6343
  28   0.0000       0.079949         2.1755
  29   0.0000       0.137012         3.7283

MULLIKEN ATOMIC CHARGES
-----------------------
   0 C :   -0.368619
   1 S :   -0.109276
   2 S :   -0.109518
   3 C :   -0.368313
   4 H :    0.151557
   5 H :    0.170411
   6 H :    0.156004
   7 H :    0.151518
   8 H :    0.170265
   9 H :    0.155971
Sum of atomic charges:   -0.0000000

LOEWDIN ATOMIC CHARGES
----------------------
   0 C :   -0.469235
   1 S :   -0.012087
   2 S :   -0.012368
   3 C :   -0.469166
   4 H :    0.164601
   5 H :    0.162025
   6 H :    0.154795
   7 H :    0.164654
   8 H :    0.161857
   9 H :    0.154924

  Mayer bond orders larger than 0.100000
B(  0-C ,  1-S ) :   0.9123 B(  0-C ,  4-H ) :   0.9462 B(  0-C ,  5-H ) :   0.9564
B(  0-C ,  6-H ) :   0.9554 B(  1-S ,  2-S ) :   1.1888 B(  2-S ,  3-C ) :   0.9122
B(  3-C ,  7-H ) :   0.9462 B(  3-C ,  8-H ) :   0.9565 B(  3-C ,  9-H ) :   0.9555

Dispersion correction           -0.002445259
FINAL SINGLE POINT ENERGY      -876.134776199606

DIPOLE MOMENT
-------------

Method             : SCF
Type of density    : Electron Density
Multiplicity       :   1
Irrep              :   0
Energy             :  -876.1424825972857207 Eh
Relativity type    :
Basis              : AO
                                X                 Y                 Z
Electronic contribution:     -0.007461421       5.216223968       0.008868132
Nuclear contribution   :      0.008188449      -6.038245904      -0.010323790
                        -----------------------------------------
Total Dipole Moment    :      0.000727028      -0.822021936      -0.001455659
                        -----------------------------------------
Magnitude (a.u.)       :      0.822023547
Magnitude (Debye)      :      2.089417807

Rotational constants in cm-1:             0.277194             0.091130             0.085260
Rotational constants in MHz :          8310.063178          2732.008659          2556.035107

                             ****ORCA TERMINATED NORMALLY****
TOTAL RUN TIME: 0 days 0 hours 0 minutes 9 seconds 864 msec
