                         Program Version 6.0.0  -   RELEASE  -
|  1> ! r2scan-3c def2/J RI DEFGRID2 scfconv6 printgap
|  2> %output
|  3>     printlevel normal
|  4> end
|  5> %cpcm
|  6>     smd true
|  7>     smdsolvent "water"
|  8> end
|  9> * xyz 0 1
| 10> C -1.8442003926 -0.8434793398 0.4577481006
| 11> S -0.9005259577 0.4171661863 -0.4695558154
| 12> S 0.8994707508 0.4148674674 0.4710722337
| 13> C 1.8462876966 -0.8397892809 -0.4608768643
| 14> H -2.8496880231 -0.8115111628 0.0545300568
| 15> H -1.8439891697 -0.5810103249 1.5099128517
| 16> H -1.400913617 -1.819979631 0.2954173625
| 17> H 2.8461344522 -0.8205242988 -0.0432702548
| 18> H 1.8630019247 -0.5624765393 -1.5091695354
| 19> H 1.3941503062 -1.8152790036 -0.3183783428
| 20> *
| 21>
| 22>                          ****END OF INPUT****

CARTESIAN COORDINATES (ANGSTROEM)
---------------------------------
  C     -1.844200   -0.843479    0.457748
  S     -0.900526    0.417166   -0.469556
  S      0.899471    0.414867    0.471072
  C      1.846288   -0.839789   -0.460877
  H     -2.849688   -0.811511    0.054530
  H     -1.843989   -0.581010    1.509913
  H     -1.400914   -1.819980    0.295417
  H      2.846134   -0.820524   -0.043270
  H      1.863002   -0.562477   -1.509170
  H      1.394150   -1.815279   -0.318378

 Total Charge           Charge          ....    0
 Multiplicity           Mult            ....    1
 Number of Electrons    NEL             ....   50
 Basis Dimension        Dim             ....  122

ORBITAL ENERGIES
----------------

  NO   OCC          E(Eh)            E(eV)
   0   2.0000     -88.574658     -2410.2390
   1   2.0000     -88.574603     -2410.2375
   2   2.0000     -10.047107      -273.3957
   3   2.0000     -10.047103      -273.3956
   4   2.0000      -7.866606      -214.0612
   5   2.0000      -7.866533      -214.0592
   6   2.0000      -5.814927      -158.2322
   7   2.0000      -5.814639      -158.2244
   8   2.0000      -5.810051      -158.0995
   9   2.0000      -5.809978      -158.0976
  10   2.0000      -5.803190      -157.9128
  11   2.0000      -5.803135      -157.9113
  12   2.0000      -0.783428       -21.3182
  13   2.0000      -0.712143       -19.3784
  14   2.0000      -0.633205       -17.2304
  15   2.0000      -0.542903       -14.7731
  16   2.0000      -0.413635       -11.2556
  17   2.0000      -0.397372       -10.8130
  18   2.0000      -0.396515       -10.7897
  19   2.0000      -0.380998       -10.3675
  20   2.0000      -0.362042        -9.8517
  21   2.0000      -0.329600        -8.9689
  22   2.0000      -0.294692        -8.0190
  23   2.0000      -0.211697        -5.7606
  24   2.0000      -0.210868        -5.7380
  25   0.0000      -0.030058        -0.8179
  26   0.0000       0.024377         0.6633
  27   0.0000       0.026762         0.7282
  28   0.0000       0.089803         2.4437
  29   0.0000       0.147890         4.0243

MULLIKEN ATOMIC CHARGES
-----------------------
   0 C :   -0.391358
   1 S :   -0.148733
   2 S :   -0.148900
   3 C :   -0.391290
   4 H :    0.175936
   5 H :    0.182978
   6 H :    0.181242
   7 H :    0.175948
   8 H :    0.182972
   9 H :    0.181204
Sum of atomic charges:   -0.0000000

LOEWDIN ATOMIC CHARGES
----------------------
   0 C :   -0.465725
   1 S :   -0.039736
   2 S :   -0.039961
   3 C :   -0.465696
   4 H :    0.174365
   5 H :    0.166719
   6 H :    0.164446
   7 H :    0.174445
   8 H :    0.166592
   9 H :    0.164552

  Mayer bond orders larger than 0.100000
B(  0-C ,  1-S ) :   0.9134 B(  0-C ,  4-H ) :   0.9366 B(  0-C ,  5-H ) :   0.9516
B(  0-C ,  6-H ) :   0.9484 B(  1-S ,  2-S ) :   1.1806 B(  2-S ,  3-C ) :   0.9133
B(  3-C ,  7-H ) :   0.9365 B(  3-C ,  8-H ) :   0.9516 B(  3-C ,  9-H ) :   0.9484

Dispersion correction           -0.002445259
FINAL SINGLE POINT ENERGY      -876.137316916930

DIPOLE MOMENT
-------------

Method             : SCF
Type of density    : Electron Density
Multiplicity       :   1
Irrep              :   0
Energy             :  -876.1450233146098299 Eh
Relativity type    :
Basis              : AO
                                X                 Y                 Z
Electronic contribution:     -0.007147376       4.884574392       0.008279597
Nuclear contribution   :      0.008188449      -6.038245904      -0.010323790
                        -----------------------------------------
Total Dipole Moment    :      0.001041073      -1.153671512      -0.002044194
                        -----------------------------------------
Magnitude (a.u.)       :      1.153673793
Magnitude (Debye)      :      2.932405740

Rotational constants in cm-1:             0.277194             0.091130             0.085260
Rotational constants in MHz :          8310.063178          2732.008659          2556.035107

                             ****ORCA TERMINATED NORMALLY****
TOTAL RUN TIME: 0 days 0 hours 0 minutes 11 seconds 740 msec
