                         Program Version 6.0.0  -   RELEASE  -
|  1> ! pbe def2-sv(p) def2/J RI DEFGRID1 loosescf d4 GCP(DFT/SV(P)) printgap
|  2> %output
|  3>     printlevel normal
|  4> end
|  5> * xyz 0 1
|  6> C 5.236829821 0.6615575208 -1.0951985243
|  7> C 4.7565649043 0.9250005062 0.318271523
|  8> O 3.794503586 -0.0627426168 0.735062682
|  9> P 2.2295488263 0.1543248165 0.5912354751
| 10> S 1.5357663595 1.8587038904 1.2672395017
| 11> O 1.6455913927 -1.0653287306 1.3993289743
| 12> C 2.214332287 -2.3967209283 1.4747750745
| 13> C 2.2233356167 -3.1047547513 0.1368034259
| 14> S 1.8174278707 -0.1398287045 -1.4817331346
| 15> C 0.0854876235 0.323360224 -1.4192894091
| 16> S -0.9305343336 -1.0226925145 -0.6947873035
| 17> P -2.5942925983 0.1837187344 -0.1842735608
| 18> S -4.2046369748 -0.7335288596 0.446049257
| 19> O -2.7821456873 1.1253844636 -1.4519259563
| 20> C -3.7321122976 0.8061334788 -2.4869043113
| 21> C -3.3008541027 -0.3887960959 -3.3145162881
| 22> O -1.9866997024 1.2922219326 0.7807335489
| 23> C -2.1231670843 1.2076484925 2.2091987696
| 24> C -1.4309662069 -0.0098047345 2.7879477432
| 25> H 4.4162330084 0.7541678803 -1.8029347258
| 26> H 6.0065076161 1.3841883534 -1.346661912
| 27> H 5.6502305385 -0.3403043133 -1.1673836263
| 28> H 4.3063800936 1.9185626205 0.4109202108
| 29> H 5.5727303584 0.8300390366 1.0369944395
| 30> H 3.2225070119 -2.3120059688 1.8837167644
| 31> H 1.5616635677 -2.9011668725 2.1889069297
| 32> H 2.5247080289 -4.1365404389 0.2884634635
| 33> H 1.2297284725 -3.0851781062 -0.3068856904
| 34> H 2.9244700843 -2.6278692556 -0.5443952058
| 35> H -0.2310412948 0.498652847 -2.4437737728
| 36> H -0.0303763494 1.2192293434 -0.8055886443
| 37> H -4.7024937994 0.6141167251 -2.0184842132
| 38> H -3.7832112473 1.7170690738 -3.0847960109
| 39> H -3.2526387774 -1.2776350111 -2.6857609987
| 40> H -4.0285077317 -0.5563026862 -4.102236492
| 41> H -2.3251997704 -0.2181644187 -3.7622411835
| 42> H -1.6687786824 2.132733041 2.5681586721
| 43> H -3.189895337 1.1919602537 2.4525925313
| 44> H -1.8860231362 -0.9191444662 2.3947246877
| 45> H -0.3735385009 -0.0044741844 2.5316344563
| 46> H -1.5342371483 -0.0002909136 3.8681396596
| 47> *
| 48>
| 49>                          ****END OF INPUT****

CARTESIAN COORDINATES (ANGSTROEM)
---------------------------------
  C      5.236830    0.661558   -1.095199
  C      4.756565    0.925001    0.318272
  O      3.794504   -0.062743    0.735063
  P      2.229549    0.154325    0.591235
  S      1.535766    1.858704    1.267240
  O      1.645591   -1.065329    1.399329
  C      2.214332   -2.396721    1.474775
  C      2.223336   -3.104755    0.136803
  S      1.817428   -0.139829   -1.481733
  C      0.085488    0.323360   -1.419289
  S     -0.930534   -1.022693   -0.694787
  P     -2.594293    0.183719   -0.184274
  S     -4.204637   -0.733529    0.446049
  O     -2.782146    1.125384   -1.451926
  C     -3.732112    0.806133   -2.486904
  C     -3.300854   -0.388796   -3.314516
  O     -1.986700    1.292222    0.780734
  C     -2.123167    1.207648    2.209199
  C     -1.430966   -0.009805    2.787948
  H      4.416233    0.754168   -1.802935
  H      6.006508    1.384188   -1.346662
  H      5.650231   -0.340304   -1.167384
  H      4.306380    1.918563    0.410920
  H      5.572730    0.830039    1.036994
  H      3.222507   -2.312006    1.883717
  H      1.561664   -2.901167    2.188907
  H      2.524708   -4.136540    0.288463
  H      1.229728   -3.085178   -0.306886
  H      2.924470   -2.627869   -0.544395
  H     -0.231041    0.498653   -2.443774
  H     -0.030376    1.219229   -0.805589
  H     -4.702494    0.614117   -2.018484
  H     -3.783211    1.717069   -3.084796
  H     -3.252639   -1.277635   -2.685761
  H     -4.028508   -0.556303   -4.102236
  H     -2.325200   -0.218164   -3.762241
  H     -1.668779    2.132733    2.568159
  H     -3.189895    1.191960    2.452593
  H     -1.886023   -0.919144    2.394725
  H     -0.373539   -0.004474    2.531634
  H     -1.534237   -0.000291    3.868140

 Total Charge           Charge          ....    0
 Multiplicity           Mult            ....    1
 Number of Electrons    NEL             ....  202
 Basis Dimension        Dim             ....  334

ORBITAL ENERGIES
----------------

  NO   OCC          E(Eh)            E(eV)
   0   2.0000     -88.052162     -2396.0211
   1   2.0000     -88.038581     -2395.6516
   2   2.0000     -87.988910     -2394.3000
   3   2.0000     -87.985334     -2394.2026
   4   2.0000     -76.433463     -2079.8603
   5   2.0000     -76.421952     -2079.5470
   6   2.0000     -18.806383      -511.7477
   7   2.0000     -18.797292      -511.5003
   8   2.0000     -18.786768      -511.2140
   9   2.0000     -18.779245      -511.0092
  10   2.0000      -9.962967      -271.1061
  11   2.0000      -9.960961      -271.0515
  12   2.0000      -9.955489      -270.9026
  13   2.0000      -9.950956      -270.7793
  14   2.0000      -9.938401      -270.4376
  15   2.0000      -9.894948      -269.2552
  16   2.0000      -9.890365      -269.1305
  17   2.0000      -9.884627      -268.9744
  18   2.0000      -9.863684      -268.4045
  19   2.0000      -7.696958      -209.4449
  20   2.0000      -7.683430      -209.0768
  21   2.0000      -7.633773      -207.7255
  22   2.0000      -7.630468      -207.6356
  23   2.0000      -6.430841      -174.9921
  24   2.0000      -6.419360      -174.6797
  25   2.0000      -5.724724      -155.7776
  26   2.0000      -5.721494      -155.6898
  27   2.0000      -5.714044      -155.4870
  28   2.0000      -5.711648      -155.4219
  29   2.0000      -5.707946      -155.3211
  30   2.0000      -5.700128      -155.1084
  31   2.0000      -5.662763      -154.0916
  32   2.0000      -5.659415      -154.0005
  33   2.0000      -5.654490      -153.8665
  34   2.0000      -5.653759      -153.8466
  35   2.0000      -5.650951      -153.7702
  36   2.0000      -5.650753      -153.7648
  37   2.0000      -4.653952      -126.6405
  38   2.0000      -4.652466      -126.6000
  39   2.0000      -4.650921      -126.5580
  40   2.0000      -4.641699      -126.3070
  41   2.0000      -4.641429      -126.2997
  42   2.0000      -4.639799      -126.2553
  43   2.0000      -0.997813       -27.1519
  44   2.0000      -0.980912       -26.6920
  45   2.0000      -0.953349       -25.9419
  46   2.0000      -0.937369       -25.5071
  47   2.0000      -0.765654       -20.8345
  48   2.0000      -0.724114       -19.7041
  49   2.0000      -0.709349       -19.3024
  50   2.0000      -0.698859       -19.0169
  51   2.0000      -0.681363       -18.5408
  52   2.0000      -0.670978       -18.2582
  53   2.0000      -0.654619       -17.8131
  54   2.0000      -0.637779       -17.3549
  55   2.0000      -0.602845       -16.4043
  56   2.0000      -0.591094       -16.0845
  57   2.0000      -0.584818       -15.9137
  58   2.0000      -0.563802       -15.3418
  59   2.0000      -0.559321       -15.2199
  60   2.0000      -0.507266       -13.8034
  61   2.0000      -0.488148       -13.2832
  62   2.0000      -0.481339       -13.0979
  63   2.0000      -0.460281       -12.5249
  64   2.0000      -0.457226       -12.4417
  65   2.0000      -0.448810       -12.2127
  66   2.0000      -0.445225       -12.1152
  67   2.0000      -0.436156       -11.8684
  68   2.0000      -0.432919       -11.7803
  69   2.0000      -0.417165       -11.3516
  70   2.0000      -0.413210       -11.2440
  71   2.0000      -0.402664       -10.9570
  72   2.0000      -0.395101       -10.7512
  73   2.0000      -0.389762       -10.6060
  74   2.0000      -0.381125       -10.3709
  75   2.0000      -0.378607       -10.3024
  76   2.0000      -0.369302       -10.0492
  77   2.0000      -0.363112        -9.8808
  78   2.0000      -0.357371        -9.7246
  79   2.0000      -0.350741        -9.5442
  80   2.0000      -0.347644        -9.4599
  81   2.0000      -0.341846        -9.3021
  82   2.0000      -0.338556        -9.2126
  83   2.0000      -0.332407        -9.0453
  84   2.0000      -0.329212        -8.9583
  85   2.0000      -0.324873        -8.8402
  86   2.0000      -0.312640        -8.5074
  87   2.0000      -0.303026        -8.2457
  88   2.0000      -0.299420        -8.1476
  89   2.0000      -0.295066        -8.0291
  90   2.0000      -0.281812        -7.6685
  91   2.0000      -0.279109        -7.5949
  92   2.0000      -0.269978        -7.3465
  93   2.0000      -0.260355        -7.0846
  94   2.0000      -0.254290        -6.9196
  95   2.0000      -0.236385        -6.4324
  96   2.0000      -0.215864        -5.8740
  97   2.0000      -0.210912        -5.7392
  98   2.0000      -0.205544        -5.5931
  99   2.0000      -0.200403        -5.4532
 100   2.0000      -0.199499        -5.4287
 101   0.0000      -0.045947        -1.2503
 102   0.0000      -0.027694        -0.7536
 103   0.0000      -0.021103        -0.5742
 104   0.0000      -0.001632        -0.0444
 105   0.0000       0.012917         0.3515

MULLIKEN ATOMIC CHARGES
-----------------------
   0 C :   -0.311121
   1 C :   -0.008584
   2 O :   -0.380668
   3 P :    0.621942
   4 S :   -0.306242
   5 O :   -0.351052
   6 C :    0.006579
   7 C :   -0.327939
   8 S :   -0.107597
   9 C :   -0.367247
  10 S :   -0.088311
  11 P :    0.585716
  12 S :   -0.316339
  13 O :   -0.373406
  14 C :   -0.002556
  15 C :   -0.320419
  16 O :   -0.363204
  17 C :    0.013321
  18 C :   -0.342569
  19 H :    0.131228
  20 H :    0.117459
  21 H :    0.117084
  22 H :    0.110304
  23 H :    0.111452
  24 H :    0.111291
  25 H :    0.114541
  26 H :    0.115327
  27 H :    0.136979
  28 H :    0.121271
  29 H :    0.186799
  30 H :    0.214673
  31 H :    0.114018
  32 H :    0.106193
  33 H :    0.130844
  34 H :    0.112929
  35 H :    0.114563
  36 H :    0.105956
  37 H :    0.105023
  38 H :    0.112623
  39 H :    0.147022
  40 H :    0.102116
Sum of atomic charges:    0.0000000

LOEWDIN ATOMIC CHARGES
----------------------
   0 C :   -0.365498
   1 C :   -0.116810
   2 O :   -0.243960
   3 P :    0.576387
   4 S :   -0.299384
   5 O :   -0.227875
   6 C :   -0.106500
   7 C :   -0.371551
   8 S :    0.089445
   9 C :   -0.480600
  10 S :    0.068570
  11 P :    0.574171
  12 S :   -0.317265
  13 O :   -0.243536
  14 C :   -0.118377
  15 C :   -0.367940
  16 O :   -0.236443
  17 C :   -0.115020
  18 C :   -0.379755
  19 H :    0.119495
  20 H :    0.134070
  21 H :    0.126117
  22 H :    0.111398
  23 H :    0.121751
  24 H :    0.115076
  25 H :    0.125040
  26 H :    0.132282
  27 H :    0.125148
  28 H :    0.116514
  29 H :    0.130278
  30 H :    0.127590
  31 H :    0.111539
  32 H :    0.118989
  33 H :    0.123382
  34 H :    0.131449
  35 H :    0.120899
  36 H :    0.119731
  37 H :    0.108011
  38 H :    0.114270
  39 H :    0.121572
  40 H :    0.127338

  Mayer bond orders larger than 0.100000
B(  0-C ,  1-C ) :   1.1674 B(  0-C , 19-H ) :   0.9325 B(  0-C , 20-H ) :   0.9392
B(  0-C , 21-H ) :   0.9475 B(  1-C ,  2-O ) :   0.8999 B(  1-C , 22-H ) :   0.9067
B(  1-C , 23-H ) :   0.9341 B(  2-O ,  3-P ) :   1.0893 B(  3-P ,  4-S ) :   1.6488
B(  3-P ,  5-O ) :   1.1349 B(  3-P ,  8-S ) :   0.9304 B(  4-S ,  8-S ) :   0.1084
B(  5-O ,  6-C ) :   0.8920 B(  6-C ,  7-C ) :   1.1703 B(  6-C , 24-H ) :   0.9283
B(  6-C , 25-H ) :   0.9331 B(  7-C , 26-H ) :   0.9347 B(  7-C , 27-H ) :   0.9369
B(  7-C , 28-H ) :   0.9394 B(  8-S ,  9-C ) :   1.0211 B(  9-C , 10-S ) :   0.9589
B(  9-C , 29-H ) :   0.8991 B(  9-C , 30-H ) :   0.8512 B( 10-S , 11-P ) :   0.9740
B( 11-P , 12-S ) :   1.6232 B( 11-P , 13-O ) :   1.0790 B( 11-P , 16-O ) :   1.1131
B( 13-O , 14-C ) :   0.9143 B( 14-C , 15-C ) :   1.1606 B( 14-C , 31-H ) :   0.9149
B( 14-C , 32-H ) :   0.9344 B( 15-C , 33-H ) :   0.9344 B( 15-C , 34-H ) :   0.9377
B( 15-C , 35-H ) :   0.9434 B( 16-O , 17-C ) :   0.9012 B( 17-C , 18-C ) :   1.1669
B( 17-C , 36-H ) :   0.9298 B( 17-C , 37-H ) :   0.9224 B( 18-C , 38-H ) :   0.9322
B( 18-C , 39-H ) :   0.9216 B( 18-C , 40-H ) :   0.9370

Dispersion correction           -0.066295303
FINAL SINGLE POINT ENERGY     -2929.517078454580

DIPOLE MOMENT
-------------

Method             : SCF
Type of density    : Electron Density
Multiplicity       :   1
Irrep              :   0
Energy             : -2929.6380551706802180 Eh
Relativity type    :
Basis              : AO
                                X                 Y                 Z
Electronic contribution:     -8.497403104       5.589609294       3.741457474
Nuclear contribution   :     10.153058977      -6.021934886      -4.500490428
                        -----------------------------------------
Total Dipole Moment    :      1.655655873      -0.432325592      -0.759032954
                        -----------------------------------------
Magnitude (a.u.)       :      1.871959618
Magnitude (Debye)      :      4.758143213

Rotational constants in cm-1:             0.013250             0.004805             0.004515
Rotational constants in MHz :           397.212797           144.053039           135.355050

                             ****ORCA TERMINATED NORMALLY****
TOTAL RUN TIME: 0 days 0 hours 0 minutes 21 seconds 433 msec
