                         Program Version 6.0.0  -   RELEASE  -
|  1> ! r2scan-3c def2/J RI DEFGRID2 scfconv6 printgap
|  2> %output
|  3>     printlevel normal
|  4> end
|  5> * xyz 0 1
|  6> C 5.2151028634 -2.3772152797 -1.6021121182
|  7> C 4.1787858074 -1.2745595761 -1.6827137206
|  8> O 3.2449472036 -1.4644821352 -0.600207555
|  9> P 2.3016438442 -0.2931452757 -0.0958270428
| 10> S 3.1949948882 1.423970067 0.2397167757
| 11> O 1.5841962242 -0.9712816305 1.1422454276
| 12> C 2.0621850422 -0.7884252537 2.4915552144
| 13> C 3.3778448179 -1.5029675956 2.7135574711
| 14> S 0.7444513756 -0.2743911515 -1.521256203
| 15> C 0.0532951053 1.3354165597 -1.0471824733
| 16> S -0.6529350961 1.3405421003 0.619699594
| 17> P -2.5563791722 0.4645900027 0.1790762052
| 18> S -3.1105955317 0.6500552255 -1.6967006804
| 19> O -3.511512413 1.1266666794 1.2486401387
| 20> C -4.1468293875 2.3984479604 1.0043685422
| 21> C -5.5959766217 2.1913010445 0.6091258435
| 22> O -2.5720598539 -0.9647644379 0.8517998903
| 23> C -1.7142847066 -2.0747145003 0.5369801273
| 24> C -1.9925102332 -2.6559384282 -0.8351820352
| 25> H 5.7615666725 -2.3120070971 -0.6655593344
| 26> H 4.7283160363 -3.346289636 -1.6594242337
| 27> H 5.9096555932 -2.2735284763 -2.4292058439
| 28> H 3.6232151108 -1.316500581 -2.6233451854
| 29> H 4.6357592569 -0.2843756617 -1.5803134117
| 30> H 2.1631473113 0.2853036822 2.6803181778
| 31> H 1.2640326595 -1.1978400119 3.112016299
| 32> H 3.285552921 -2.551736608 2.444396087
| 33> H 4.1512672587 -1.047081734 2.0964682677
| 34> H 3.6633080371 -1.4183811866 3.7573925304
| 35> H -0.7268285098 1.5646580067 -1.7748209035
| 36> H 0.8456688272 2.0827704478 -1.0543605678
| 37> H -4.0627307874 2.9441220574 1.9458391418
| 38> H -3.6048605948 2.9364784917 0.2205806806
| 39> H -6.1069748025 1.6044925195 1.3669121142
| 40> H -6.0827414265 3.1559700233 0.5085646629
| 41> H -5.6511815629 1.6637422858 -0.3407343206
| 42> H -0.6696080982 -1.7602618757 0.6236622747
| 43> H -1.9397919679 -2.7975567765 1.3237494338
| 44> H -1.7233606559 -1.9462703615 -1.6154511764
| 45> H -1.4020332101 -3.5571041304 -0.9658073541
| 46> H -3.0477870345 -2.8979178121 -0.9325662259
| 47> *
| 48>
| 49>                          ****END OF INPUT****

CARTESIAN COORDINATES (ANGSTROEM)
---------------------------------
  C      5.215103   -2.377215   -1.602112
  C      4.178786   -1.274560   -1.682714
  O      3.244947   -1.464482   -0.600208
  P      2.301644   -0.293145   -0.095827
  S      3.194995    1.423970    0.239717
  O      1.584196   -0.971282    1.142245
  C      2.062185   -0.788425    2.491555
  C      3.377845   -1.502968    2.713557
  S      0.744451   -0.274391   -1.521256
  C      0.053295    1.335417   -1.047182
  S     -0.652935    1.340542    0.619700
  P     -2.556379    0.464590    0.179076
  S     -3.110596    0.650055   -1.696701
  O     -3.511512    1.126667    1.248640
  C     -4.146829    2.398448    1.004369
  C     -5.595977    2.191301    0.609126
  O     -2.572060   -0.964764    0.851800
  C     -1.714285   -2.074715    0.536980
  C     -1.992510   -2.655938   -0.835182
  H      5.761567   -2.312007   -0.665559
  H      4.728316   -3.346290   -1.659424
  H      5.909656   -2.273528   -2.429206
  H      3.623215   -1.316501   -2.623345
  H      4.635759   -0.284376   -1.580313
  H      2.163147    0.285304    2.680318
  H      1.264033   -1.197840    3.112016
  H      3.285553   -2.551737    2.444396
  H      4.151267   -1.047082    2.096468
  H      3.663308   -1.418381    3.757393
  H     -0.726829    1.564658   -1.774821
  H      0.845669    2.082770   -1.054361
  H     -4.062731    2.944122    1.945839
  H     -3.604861    2.936478    0.220581
  H     -6.106975    1.604493    1.366912
  H     -6.082741    3.155970    0.508565
  H     -5.651182    1.663742   -0.340734
  H     -0.669608   -1.760262    0.623662
  H     -1.939792   -2.797557    1.323749
  H     -1.723361   -1.946270   -1.615451
  H     -1.402033   -3.557104   -0.965807
  H     -3.047787   -2.897918   -0.932566

 Total Charge           Charge          ....    0
 Multiplicity           Mult            ....    1
 Number of Electrons    NEL             ....  202
 Basis Dimension        Dim             ....  539

ORBITAL ENERGIES
----------------

  NO   OCC          E(Eh)            E(eV)
   0   2.0000     -88.578455     -2410.3423
   1   2.0000     -88.574699     -2410.2401
   2   2.0000     -88.525511     -2408.9016
   3   2.0000     -88.521666     -2408.7970
   4   2.0000     -76.918084     -2093.0475
   5   2.0000     -76.913851     -2092.9323
   6   2.0000     -18.998113      -516.9649
   7   2.0000     -18.995535      -516.8948
   8   2.0000     -18.988969      -516.7161
   9   2.0000     -18.988290      -516.6976
  10   2.0000     -10.103430      -274.9283
  11   2.0000     -10.103063      -274.9183
  12   2.0000     -10.100954      -274.8609
  13   2.0000     -10.097358      -274.7631
  14   2.0000     -10.093874      -274.6683
  15   2.0000     -10.037436      -273.1325
  16   2.0000     -10.032157      -272.9889
  17   2.0000     -10.024246      -272.7736
  18   2.0000     -10.019932      -272.6562
  19   2.0000      -7.872805      -214.2299
  20   2.0000      -7.868577      -214.1149
  21   2.0000      -7.820201      -212.7985
  22   2.0000      -7.816573      -212.6998
  23   2.0000      -6.596792      -179.5078
  24   2.0000      -6.592133      -179.3811
  25   2.0000      -5.819584      -158.3589
  26   2.0000      -5.816649      -158.2791
  27   2.0000      -5.815479      -158.2472
  28   2.0000      -5.812318      -158.1612
  29   2.0000      -5.810038      -158.0992
  30   2.0000      -5.805885      -157.9862
  31   2.0000      -5.767797      -156.9497
  32   2.0000      -5.764191      -156.8516
  33   2.0000      -5.760487      -156.7508
  34   2.0000      -5.760262      -156.7447
  35   2.0000      -5.756816      -156.6509
  36   2.0000      -5.756630      -156.6459
  37   2.0000      -4.742142      -129.0402
  38   2.0000      -4.741767      -129.0300
  39   2.0000      -4.740573      -128.9975
  40   2.0000      -4.737487      -128.9136
  41   2.0000      -4.737300      -128.9085
  42   2.0000      -4.735815      -128.8681
  43   2.0000      -1.055637       -28.7254
  44   2.0000      -1.050875       -28.5958
  45   2.0000      -1.016806       -27.6687
  46   2.0000      -1.007384       -27.4123
  47   2.0000      -0.801506       -21.8101
  48   2.0000      -0.761327       -20.7168
  49   2.0000      -0.751109       -20.4387
  50   2.0000      -0.736953       -20.0535
  51   2.0000      -0.723998       -19.7010
  52   2.0000      -0.711421       -19.3588
  53   2.0000      -0.686901       -18.6915
  54   2.0000      -0.670794       -18.2532
  55   2.0000      -0.633994       -17.2519
  56   2.0000      -0.625652       -17.0249
  57   2.0000      -0.604526       -16.4500
  58   2.0000      -0.596936       -16.2435
  59   2.0000      -0.595200       -16.1962
  60   2.0000      -0.534389       -14.5415
  61   2.0000      -0.522267       -14.2116
  62   2.0000      -0.501209       -13.6386
  63   2.0000      -0.488742       -13.2993
  64   2.0000      -0.477723       -12.9995
  65   2.0000      -0.462947       -12.5974
  66   2.0000      -0.458065       -12.4646
  67   2.0000      -0.454044       -12.3552
  68   2.0000      -0.441720       -12.0198
  69   2.0000      -0.432654       -11.7731
  70   2.0000      -0.426174       -11.5968
  71   2.0000      -0.420933       -11.4542
  72   2.0000      -0.412483       -11.2242
  73   2.0000      -0.400873       -10.9083
  74   2.0000      -0.397061       -10.8046
  75   2.0000      -0.391560       -10.6549
  76   2.0000      -0.383109       -10.4249
  77   2.0000      -0.377084       -10.2610
  78   2.0000      -0.373119       -10.1531
  79   2.0000      -0.366311        -9.9678
  80   2.0000      -0.363773        -9.8988
  81   2.0000      -0.361028        -9.8241
  82   2.0000      -0.353624        -9.6226
  83   2.0000      -0.347955        -9.4683
  84   2.0000      -0.347096        -9.4450
  85   2.0000      -0.335807        -9.1378
  86   2.0000      -0.326274        -8.8784
  87   2.0000      -0.319860        -8.7038
  88   2.0000      -0.309168        -8.4129
  89   2.0000      -0.306550        -8.3416
  90   2.0000      -0.302759        -8.2385
  91   2.0000      -0.293944        -7.9986
  92   2.0000      -0.282948        -7.6994
  93   2.0000      -0.281330        -7.6554
  94   2.0000      -0.271631        -7.3915
  95   2.0000      -0.251050        -6.8314
  96   2.0000      -0.232946        -6.3388
  97   2.0000      -0.229408        -6.2425
  98   2.0000      -0.219703        -5.9784
  99   2.0000      -0.218028        -5.9328
 100   2.0000      -0.214435        -5.8351
 101   0.0000      -0.049430        -1.3451
 102   0.0000      -0.028691        -0.7807
 103   0.0000      -0.006132        -0.1668
 104   0.0000      -0.001434        -0.0390
 105   0.0000       0.013944         0.3794

MULLIKEN ATOMIC CHARGES
-----------------------
   0 C :   -0.439238
   1 C :   -0.155885
   2 O :   -0.285110
   3 P :    0.686263
   4 S :   -0.479322
   5 O :   -0.275198
   6 C :   -0.147547
   7 C :   -0.441692
   8 S :   -0.147347
   9 C :   -0.236713
  10 S :   -0.132479
  11 P :    0.677633
  12 S :   -0.465542
  13 O :   -0.316592
  14 C :   -0.120149
  15 C :   -0.448799
  16 O :   -0.271792
  17 C :   -0.163094
  18 C :   -0.420579
  19 H :    0.154932
  20 H :    0.154377
  21 H :    0.148373
  22 H :    0.153250
  23 H :    0.171092
  24 H :    0.175072
  25 H :    0.152589
  26 H :    0.155357
  27 H :    0.167847
  28 H :    0.148446
  29 H :    0.214136
  30 H :    0.217174
  31 H :    0.150715
  32 H :    0.155462
  33 H :    0.152548
  34 H :    0.144349
  35 H :    0.174953
  36 H :    0.178223
  37 H :    0.146856
  38 H :    0.170415
  39 H :    0.144486
  40 H :    0.152529
Sum of atomic charges:   -0.0000000

LOEWDIN ATOMIC CHARGES
----------------------
   0 C :   -0.385061
   1 C :    0.021118
   2 O :   -0.664068
   3 P :    0.370627
   4 S :   -0.130302
   5 O :   -0.688523
   6 C :    0.019623
   7 C :   -0.398775
   8 S :    0.158188
   9 C :   -0.426390
  10 S :    0.158704
  11 P :    0.390320
  12 S :   -0.129581
  13 O :   -0.653308
  14 C :    0.022073
  15 C :   -0.397123
  16 O :   -0.644142
  17 C :    0.023590
  18 C :   -0.410303
  19 H :    0.160186
  20 H :    0.160305
  21 H :    0.160767
  22 H :    0.172667
  23 H :    0.180920
  24 H :    0.182273
  25 H :    0.180570
  26 H :    0.160629
  27 H :    0.165262
  28 H :    0.160254
  29 H :    0.194317
  30 H :    0.190545
  31 H :    0.177195
  32 H :    0.177383
  33 H :    0.159133
  34 H :    0.158179
  35 H :    0.166685
  36 H :    0.190957
  37 H :    0.179727
  38 H :    0.165644
  39 H :    0.158810
  40 H :    0.160925

  Mayer bond orders larger than 0.100000
B(  0-C ,  1-C ) :   0.9578 B(  0-C , 19-H ) :   0.9711 B(  0-C , 20-H ) :   0.9714
B(  0-C , 21-H ) :   0.9639 B(  1-C ,  2-O ) :   0.7774 B(  1-C , 22-H ) :   0.9455
B(  1-C , 23-H ) :   0.9517 B(  2-O ,  3-P ) :   1.0962 B(  3-P ,  4-S ) :   1.7491
B(  3-P ,  5-O ) :   1.1532 B(  3-P ,  8-S ) :   1.0659 B(  5-O ,  6-C ) :   0.7880
B(  6-C ,  7-C ) :   0.9268 B(  6-C , 24-H ) :   0.9632 B(  6-C , 25-H ) :   0.9605
B(  7-C , 26-H ) :   0.9712 B(  7-C , 27-H ) :   0.9597 B(  7-C , 28-H ) :   0.9621
B(  8-S ,  9-C ) :   0.9089 B(  9-C , 10-S ) :   0.9178 B(  9-C , 29-H ) :   0.8971
B(  9-C , 30-H ) :   0.9090 B( 10-S , 11-P ) :   1.0504 B( 11-P , 12-S ) :   1.7457
B( 11-P , 13-O ) :   1.1216 B( 11-P , 16-O ) :   1.1582 B( 13-O , 14-C ) :   0.7664
B( 14-C , 15-C ) :   0.9572 B( 14-C , 31-H ) :   0.9618 B( 14-C , 32-H ) :   0.9635
B( 15-C , 33-H ) :   0.9745 B( 15-C , 34-H ) :   0.9661 B( 15-C , 35-H ) :   0.9609
B( 16-O , 17-C ) :   0.8022 B( 17-C , 18-C ) :   0.9274 B( 17-C , 36-H ) :   0.9524
B( 17-C , 37-H ) :   0.9642 B( 18-C , 38-H ) :   0.9521 B( 18-C , 39-H ) :   0.9656
B( 18-C , 40-H ) :   0.9683

Dispersion correction           -0.021080667
FINAL SINGLE POINT ENERGY     -2932.466295430733

DIPOLE MOMENT
-------------

Method             : SCF
Type of density    : Electron Density
Multiplicity       :   1
Irrep              :   0
Energy             : -2932.4917234533972987 Eh
Relativity type    :
Basis              : AO
                                X                 Y                 Z
Electronic contribution:     -4.285242960      11.196524854      -3.667575264
Nuclear contribution   :      4.907546516     -11.976121663       4.196923604
                        -----------------------------------------
Total Dipole Moment    :      0.622303556      -0.779596810       0.529348340
                        -----------------------------------------
Magnitude (a.u.)       :      1.129266384
Magnitude (Debye)      :      2.870367037

Rotational constants in cm-1:             0.014544             0.004233             0.004133
Rotational constants in MHz :           436.024932           126.915774           123.904881

                             ****ORCA TERMINATED NORMALLY****
TOTAL RUN TIME: 0 days 0 hours 1 minutes 16 seconds 984 msec
