                         Program Version 6.0.0  -   RELEASE  -
|  1> ! r2scan-3c def2/J RI DEFGRID2 scfconv6 printgap
|  2> %output
|  3>     printlevel normal
|  4> end
|  5> %cpcm
|  6>     smd true
|  7>     smdsolvent "water"
|  8> end
|  9> * xyz 0 1
| 10> C 5.2151028634 -2.3772152797 -1.6021121182
| 11> C 4.1787858074 -1.2745595761 -1.6827137206
| 12> O 3.2449472036 -1.4644821352 -0.600207555
| 13> P 2.3016438442 -0.2931452757 -0.0958270428
| 14> S 3.1949948882 1.423970067 0.2397167757
| 15> O 1.5841962242 -0.9712816305 1.1422454276
| 16> C 2.0621850422 -0.7884252537 2.4915552144
| 17> C 3.3778448179 -1.5029675956 2.7135574711
| 18> S 0.7444513756 -0.2743911515 -1.521256203
| 19> C 0.0532951053 1.3354165597 -1.0471824733
| 20> S -0.6529350961 1.3405421003 0.619699594
| 21> P -2.5563791722 0.4645900027 0.1790762052
| 22> S -3.1105955317 0.6500552255 -1.6967006804
| 23> O -3.511512413 1.1266666794 1.2486401387
| 24> C -4.1468293875 2.3984479604 1.0043685422
| 25> C -5.5959766217 2.1913010445 0.6091258435
| 26> O -2.5720598539 -0.9647644379 0.8517998903
| 27> C -1.7142847066 -2.0747145003 0.5369801273
| 28> C -1.9925102332 -2.6559384282 -0.8351820352
| 29> H 5.7615666725 -2.3120070971 -0.6655593344
| 30> H 4.7283160363 -3.346289636 -1.6594242337
| 31> H 5.9096555932 -2.2735284763 -2.4292058439
| 32> H 3.6232151108 -1.316500581 -2.6233451854
| 33> H 4.6357592569 -0.2843756617 -1.5803134117
| 34> H 2.1631473113 0.2853036822 2.6803181778
| 35> H 1.2640326595 -1.1978400119 3.112016299
| 36> H 3.285552921 -2.551736608 2.444396087
| 37> H 4.1512672587 -1.047081734 2.0964682677
| 38> H 3.6633080371 -1.4183811866 3.7573925304
| 39> H -0.7268285098 1.5646580067 -1.7748209035
| 40> H 0.8456688272 2.0827704478 -1.0543605678
| 41> H -4.0627307874 2.9441220574 1.9458391418
| 42> H -3.6048605948 2.9364784917 0.2205806806
| 43> H -6.1069748025 1.6044925195 1.3669121142
| 44> H -6.0827414265 3.1559700233 0.5085646629
| 45> H -5.6511815629 1.6637422858 -0.3407343206
| 46> H -0.6696080982 -1.7602618757 0.6236622747
| 47> H -1.9397919679 -2.7975567765 1.3237494338
| 48> H -1.7233606559 -1.9462703615 -1.6154511764
| 49> H -1.4020332101 -3.5571041304 -0.9658073541
| 50> H -3.0477870345 -2.8979178121 -0.9325662259
| 51> *
| 52>
| 53>                          ****END OF INPUT****

CARTESIAN COORDINATES (ANGSTROEM)
---------------------------------
  C      5.215103   -2.377215   -1.602112
  C      4.178786   -1.274560   -1.682714
  O      3.244947   -1.464482   -0.600208
  P      2.301644   -0.293145   -0.095827
  S      3.194995    1.423970    0.239717
  O      1.584196   -0.971282    1.142245
  C      2.062185   -0.788425    2.491555
  C      3.377845   -1.502968    2.713557
  S      0.744451   -0.274391   -1.521256
  C      0.053295    1.335417   -1.047182
  S     -0.652935    1.340542    0.619700
  P     -2.556379    0.464590    0.179076
  S     -3.110596    0.650055   -1.696701
  O     -3.511512    1.126667    1.248640
  C     -4.146829    2.398448    1.004369
  C     -5.595977    2.191301    0.609126
  O     -2.572060   -0.964764    0.851800
  C     -1.714285   -2.074715    0.536980
  C     -1.992510   -2.655938   -0.835182
  H      5.761567   -2.312007   -0.665559
  H      4.728316   -3.346290   -1.659424
  H      5.909656   -2.273528   -2.429206
  H      3.623215   -1.316501   -2.623345
  H      4.635759   -0.284376   -1.580313
  H      2.163147    0.285304    2.680318
  H      1.264033   -1.197840    3.112016
  H      3.285553   -2.551737    2.444396
  H      4.151267   -1.047082    2.096468
  H      3.663308   -1.418381    3.757393
  H     -0.726829    1.564658   -1.774821
  H      0.845669    2.082770   -1.054361
  H     -4.062731    2.944122    1.945839
  H     -3.604861    2.936478    0.220581
  H     -6.106975    1.604493    1.366912
  H     -6.082741    3.155970    0.508565
  H     -5.651182    1.663742   -0.340734
  H     -0.669608   -1.760262    0.623662
  H     -1.939792   -2.797557    1.323749
  H     -1.723361   -1.946270   -1.615451
  H     -1.402033   -3.557104   -0.965807
  H     -3.047787   -2.897918   -0.932566

 Total Charge           Charge          ....    0
 Multiplicity           Mult            ....    1
 Number of Electrons    NEL             ....  202
 Basis Dimension        Dim             ....  539

ORBITAL ENERGIES
----------------

  NO   OCC          E(Eh)            E(eV)
   0   2.0000     -88.580963     -2410.4106
   1   2.0000     -88.580267     -2410.3916
   2   2.0000     -88.530709     -2409.0431
   3   2.0000     -88.530214     -2409.0296
   4   2.0000     -76.921505     -2093.1406
   5   2.0000     -76.920355     -2093.1093
   6   2.0000     -18.997246      -516.9414
   7   2.0000     -18.995861      -516.9037
   8   2.0000     -18.995364      -516.8901
   9   2.0000     -18.994761      -516.8737
  10   2.0000     -10.104096      -274.9464
  11   2.0000     -10.091237      -274.5965
  12   2.0000     -10.091046      -274.5913
  13   2.0000     -10.090226      -274.5690
  14   2.0000     -10.090000      -274.5629
  15   2.0000     -10.019991      -272.6578
  16   2.0000     -10.019030      -272.6317
  17   2.0000     -10.017476      -272.5894
  18   2.0000     -10.016250      -272.5560
  19   2.0000      -7.875349      -214.2991
  20   2.0000      -7.874168      -214.2670
  21   2.0000      -7.825838      -212.9519
  22   2.0000      -7.825187      -212.9342
  23   2.0000      -6.599886      -179.5920
  24   2.0000      -6.599090      -179.5704
  25   2.0000      -5.822114      -158.4278
  26   2.0000      -5.821074      -158.3995
  27   2.0000      -5.819195      -158.3483
  28   2.0000      -5.817902      -158.3132
  29   2.0000      -5.812591      -158.1686
  30   2.0000      -5.811486      -158.1386
  31   2.0000      -5.773415      -157.1026
  32   2.0000      -5.772719      -157.0837
  33   2.0000      -5.766028      -156.9016
  34   2.0000      -5.765947      -156.8994
  35   2.0000      -5.765466      -156.8863
  36   2.0000      -5.765268      -156.8809
  37   2.0000      -4.745227      -129.1242
  38   2.0000      -4.745042      -129.1192
  39   2.0000      -4.744387      -129.1013
  40   2.0000      -4.744056      -129.0923
  41   2.0000      -4.743595      -129.0798
  42   2.0000      -4.742970      -129.0628
  43   2.0000      -1.057734       -28.7824
  44   2.0000      -1.054533       -28.6953
  45   2.0000      -1.014964       -27.6186
  46   2.0000      -1.013339       -27.5744
  47   2.0000      -0.804013       -21.8783
  48   2.0000      -0.758094       -20.6288
  49   2.0000      -0.746615       -20.3164
  50   2.0000      -0.725060       -19.7299
  51   2.0000      -0.720105       -19.5951
  52   2.0000      -0.711534       -19.3618
  53   2.0000      -0.690556       -18.7910
  54   2.0000      -0.676179       -18.3998
  55   2.0000      -0.630018       -17.1437
  56   2.0000      -0.624903       -17.0045
  57   2.0000      -0.597894       -16.2695
  58   2.0000      -0.592981       -16.1358
  59   2.0000      -0.591787       -16.1033
  60   2.0000      -0.530424       -14.4336
  61   2.0000      -0.520392       -14.1606
  62   2.0000      -0.495938       -13.4952
  63   2.0000      -0.490007       -13.3338
  64   2.0000      -0.476787       -12.9740
  65   2.0000      -0.460077       -12.5193
  66   2.0000      -0.455033       -12.3821
  67   2.0000      -0.446746       -12.1566
  68   2.0000      -0.441106       -12.0031
  69   2.0000      -0.431994       -11.7552
  70   2.0000      -0.426262       -11.5992
  71   2.0000      -0.418599       -11.3907
  72   2.0000      -0.407961       -11.1012
  73   2.0000      -0.398160       -10.8345
  74   2.0000      -0.396140       -10.7795
  75   2.0000      -0.385500       -10.4900
  76   2.0000      -0.383546       -10.4368
  77   2.0000      -0.372504       -10.1363
  78   2.0000      -0.363493        -9.8912
  79   2.0000      -0.358199        -9.7471
  80   2.0000      -0.354204        -9.6384
  81   2.0000      -0.351159        -9.5555
  82   2.0000      -0.350305        -9.5323
  83   2.0000      -0.348732        -9.4895
  84   2.0000      -0.343554        -9.3486
  85   2.0000      -0.333033        -9.0623
  86   2.0000      -0.322854        -8.7853
  87   2.0000      -0.314055        -8.5459
  88   2.0000      -0.307326        -8.3628
  89   2.0000      -0.306058        -8.3283
  90   2.0000      -0.300034        -8.1643
  91   2.0000      -0.290228        -7.8975
  92   2.0000      -0.285246        -7.7619
  93   2.0000      -0.279983        -7.6187
  94   2.0000      -0.275796        -7.5048
  95   2.0000      -0.254149        -6.9157
  96   2.0000      -0.239045        -6.5048
  97   2.0000      -0.236279        -6.4295
  98   2.0000      -0.226242        -6.1563
  99   2.0000      -0.224969        -6.1217
 100   2.0000      -0.222003        -6.0410
 101   0.0000      -0.054771        -1.4904
 102   0.0000      -0.034607        -0.9417
 103   0.0000      -0.011662        -0.3173
 104   0.0000      -0.004871        -0.1325
 105   0.0000       0.012019         0.3270

MULLIKEN ATOMIC CHARGES
-----------------------
   0 C :   -0.482715
   1 C :   -0.147068
   2 O :   -0.309958
   3 P :    0.718818
   4 S :   -0.526981
   5 O :   -0.295584
   6 C :   -0.141182
   7 C :   -0.483804
   8 S :   -0.152296
   9 C :   -0.245694
  10 S :   -0.144547
  11 P :    0.698697
  12 S :   -0.497440
  13 O :   -0.345313
  14 C :   -0.118305
  15 C :   -0.487854
  16 O :   -0.303896
  17 C :   -0.150488
  18 C :   -0.467201
  19 H :    0.166410
  20 H :    0.166436
  21 H :    0.170034
  22 H :    0.172309
  23 H :    0.172618
  24 H :    0.176759
  25 H :    0.178577
  26 H :    0.170332
  27 H :    0.167815
  28 H :    0.172589
  29 H :    0.227337
  30 H :    0.238077
  31 H :    0.177038
  32 H :    0.166580
  33 H :    0.166169
  34 H :    0.170247
  35 H :    0.168608
  36 H :    0.176379
  37 H :    0.176211
  38 H :    0.165238
  39 H :    0.171992
  40 H :    0.165059
Sum of atomic charges:    0.0000000

LOEWDIN ATOMIC CHARGES
----------------------
   0 C :   -0.388902
   1 C :    0.025913
   2 O :   -0.675001
   3 P :    0.375462
   4 S :   -0.160328
   5 O :   -0.695977
   6 C :    0.023922
   7 C :   -0.402002
   8 S :    0.155709
   9 C :   -0.420813
  10 S :    0.154015
  11 P :    0.391353
  12 S :   -0.151632
  13 O :   -0.670879
  14 C :    0.026622
  15 C :   -0.401466
  16 O :   -0.661315
  17 C :    0.028896
  18 C :   -0.414766
  19 H :    0.162789
  20 H :    0.163546
  21 H :    0.169192
  22 H :    0.180250
  23 H :    0.181941
  24 H :    0.182509
  25 H :    0.191033
  26 H :    0.164457
  27 H :    0.162854
  28 H :    0.169170
  29 H :    0.198678
  30 H :    0.196674
  31 H :    0.188288
  32 H :    0.181351
  33 H :    0.162778
  34 H :    0.168066
  35 H :    0.161835
  36 H :    0.191184
  37 H :    0.191946
  38 H :    0.161061
  39 H :    0.168822
  40 H :    0.162768

  Mayer bond orders larger than 0.100000
B(  0-C ,  1-C ) :   0.9532 B(  0-C , 19-H ) :   0.9688 B(  0-C , 20-H ) :   0.9688
B(  0-C , 21-H ) :   0.9581 B(  1-C ,  2-O ) :   0.7703 B(  1-C , 22-H ) :   0.9370
B(  1-C , 23-H ) :   0.9485 B(  2-O ,  3-P ) :   1.1044 B(  3-P ,  4-S ) :   1.7078
B(  3-P ,  5-O ) :   1.1625 B(  3-P ,  8-S ) :   1.0769 B(  5-O ,  6-C ) :   0.7759
B(  6-C ,  7-C ) :   0.9174 B(  6-C , 24-H ) :   0.9595 B(  6-C , 25-H ) :   0.9504
B(  7-C , 26-H ) :   0.9701 B(  7-C , 27-H ) :   0.9591 B(  7-C , 28-H ) :   0.9562
B(  8-S ,  9-C ) :   0.9052 B(  9-C , 10-S ) :   0.9099 B(  9-C , 29-H ) :   0.8947
B(  9-C , 30-H ) :   0.9029 B( 10-S , 11-P ) :   1.0590 B( 11-P , 12-S ) :   1.7294
B( 11-P , 13-O ) :   1.1216 B( 11-P , 16-O ) :   1.1575 B( 13-O , 14-C ) :   0.7541
B( 14-C , 15-C ) :   0.9457 B( 14-C , 31-H ) :   0.9514 B( 14-C , 32-H ) :   0.9576
B( 15-C , 33-H ) :   0.9717 B( 15-C , 34-H ) :   0.9604 B( 15-C , 35-H ) :   0.9646
B( 16-O , 17-C ) :   0.7947 B( 17-C , 18-C ) :   0.9119 B( 17-C , 36-H ) :   0.9497
B( 17-C , 37-H ) :   0.9545 B( 18-C , 38-H ) :   0.9542 B( 18-C , 39-H ) :   0.9597
B( 18-C , 40-H ) :   0.9689

Dispersion correction           -0.021080667
FINAL SINGLE POINT ENERGY     -2932.472521397059

DIPOLE MOMENT
-------------

Method             : SCF
Type of density    : Electron Density
Multiplicity       :   1
Irrep              :   0
Energy             : -2932.4979494197236818 Eh
Relativity type    :
Basis              : AO
                                X                 Y                 Z
Electronic contribution:     -4.090980877      11.054545876      -3.548676827
Nuclear contribution   :      4.907546516     -11.976121663       4.196923604
                        -----------------------------------------
Total Dipole Moment    :      0.816565639      -0.921575787       0.648246778
                        -----------------------------------------
Magnitude (a.u.)       :      1.391511861
Magnitude (Debye)      :      3.536942066

Rotational constants in cm-1:             0.014544             0.004233             0.004133
Rotational constants in MHz :           436.024932           126.915774           123.904881

                             ****ORCA TERMINATED NORMALLY****
TOTAL RUN TIME: 0 days 0 hours 1 minutes 50 seconds 213 msec
