                         Program Version 6.0.0  -   RELEASE  -
|  1> ! pbe def2-sv(p) def2/J RI DEFGRID1 loosescf d4 GCP(DFT/SV(P)) printgap
|  2> %output
|  3>     printlevel normal
|  4> end
|  5> * xyz 0 1
|  6> C 4.679733365 0.0243371612 -2.5655585523
|  7> C 3.6450657334 -1.0346174515 -2.2364500968
|  8> O 3.3121939771 -0.9884788498 -0.8355726895
|  9> P 1.9516175726 -0.3663471953 -0.2913152451
| 10> S 1.4388849894 1.2872222896 -1.2206303194
| 11> O 2.2118668538 -0.3059333693 1.2653970155
| 12> C 2.7486723889 0.8676756744 1.9087650673
| 13> C 4.1793064989 1.1283552693 1.4922194486
| 14> S 0.7108437349 -2.0845590587 -0.3868869183
| 15> C -0.3996658333 -1.9535017641 1.0537060534
| 16> S -2.1207411376 -1.6071398544 0.6230701034
| 17> P -1.9756553476 0.5062949545 0.4465397849
| 18> S -0.7203867353 1.340011865 1.6927470801
| 19> O -3.4882044352 0.9638649105 0.6053303594
| 20> C -4.1695701332 0.8784377036 1.8747838849
| 21> C -5.4230992731 1.7243901712 1.7858561501
| 22> O -1.6907243278 0.8555151918 -1.0569924862
| 23> C -2.4834507192 0.3427184908 -2.1619663167
| 24> C -1.6559760201 -0.6273056746 -2.9802982823
| 25> H 4.9782335459 -0.0779540387 -3.6037616297
| 26> H 4.2565550828 1.0153719788 -2.4147501497
| 27> H 5.5500921878 -0.0918949835 -1.9261159644
| 28> H 4.0326657085 -2.0407627731 -2.4050862792
| 29> H 2.7391911913 -0.8858132688 -2.8304693976
| 30> H 2.1047695224 1.7203436002 1.6691008083
| 31> H 2.6638158373 0.640963979 2.9724954357
| 32> H 4.2129976734 1.3880080739 0.4350728655
| 33> H 4.5762789584 1.9551462337 2.0727384728
| 34> H 4.7845416534 0.2410220315 1.6580711945
| 35> H -0.0332233565 -1.1726688558 1.7214747362
| 36> H -0.3944333472 -2.9272148057 1.5356404351
| 37> H -4.4062509369 -0.1721553342 2.0623957669
| 38> H -3.4940452001 1.2403521449 2.6567162306
| 39> H -5.1611878821 2.7590914893 1.5828292183
| 40> H -6.0616529123 1.359771994 0.9866775856
| 41> H -5.957257989 1.6679076997 2.7285067345
| 42> H -3.3851542356 -0.1303552842 -1.7667524135
| 43> H -2.7518102987 1.2257261339 -2.7433451554
| 44> H -2.2096732471 -0.9037046721 -3.8715873175
| 45> H -0.7202526473 -0.1547519353 -3.2704540905
| 46> H -1.4305911042 -1.5248386188 -2.4078077404
| 47> *
| 48>
| 49>                          ****END OF INPUT****

CARTESIAN COORDINATES (ANGSTROEM)
---------------------------------
  C      4.679733    0.024337   -2.565559
  C      3.645066   -1.034617   -2.236450
  O      3.312194   -0.988479   -0.835573
  P      1.951618   -0.366347   -0.291315
  S      1.438885    1.287222   -1.220630
  O      2.211867   -0.305933    1.265397
  C      2.748672    0.867676    1.908765
  C      4.179306    1.128355    1.492219
  S      0.710844   -2.084559   -0.386887
  C     -0.399666   -1.953502    1.053706
  S     -2.120741   -1.607140    0.623070
  P     -1.975655    0.506295    0.446540
  S     -0.720387    1.340012    1.692747
  O     -3.488204    0.963865    0.605330
  C     -4.169570    0.878438    1.874784
  C     -5.423099    1.724390    1.785856
  O     -1.690724    0.855515   -1.056992
  C     -2.483451    0.342718   -2.161966
  C     -1.655976   -0.627306   -2.980298
  H      4.978234   -0.077954   -3.603762
  H      4.256555    1.015372   -2.414750
  H      5.550092   -0.091895   -1.926116
  H      4.032666   -2.040763   -2.405086
  H      2.739191   -0.885813   -2.830469
  H      2.104770    1.720344    1.669101
  H      2.663816    0.640964    2.972495
  H      4.212998    1.388008    0.435073
  H      4.576279    1.955146    2.072738
  H      4.784542    0.241022    1.658071
  H     -0.033223   -1.172669    1.721475
  H     -0.394433   -2.927215    1.535640
  H     -4.406251   -0.172155    2.062396
  H     -3.494045    1.240352    2.656716
  H     -5.161188    2.759091    1.582829
  H     -6.061653    1.359772    0.986678
  H     -5.957258    1.667908    2.728507
  H     -3.385154   -0.130355   -1.766752
  H     -2.751810    1.225726   -2.743345
  H     -2.209673   -0.903705   -3.871587
  H     -0.720253   -0.154752   -3.270454
  H     -1.430591   -1.524839   -2.407808

 Total Charge           Charge          ....    0
 Multiplicity           Mult            ....    1
 Number of Electrons    NEL             ....  202
 Basis Dimension        Dim             ....  334

ORBITAL ENERGIES
----------------

  NO   OCC          E(Eh)            E(eV)
   0   2.0000     -88.042049     -2395.7460
   1   2.0000     -88.034673     -2395.5452
   2   2.0000     -87.983003     -2394.1392
   3   2.0000     -87.976236     -2393.9551
   4   2.0000     -76.423272     -2079.5830
   5   2.0000     -76.419698     -2079.4857
   6   2.0000     -18.792978      -511.3829
   7   2.0000     -18.787439      -511.2322
   8   2.0000     -18.786586      -511.2090
   9   2.0000     -18.782307      -511.0926
  10   2.0000      -9.955298      -270.8974
  11   2.0000      -9.953152      -270.8390
  12   2.0000      -9.951702      -270.7996
  13   2.0000      -9.949186      -270.7311
  14   2.0000      -9.944427      -270.6016
  15   2.0000      -9.888924      -269.0913
  16   2.0000      -9.878826      -268.8165
  17   2.0000      -9.878354      -268.8037
  18   2.0000      -9.875039      -268.7135
  19   2.0000      -7.687340      -209.1831
  20   2.0000      -7.680201      -208.9889
  21   2.0000      -7.628093      -207.5710
  22   2.0000      -7.621129      -207.3815
  23   2.0000      -6.421061      -174.7259
  24   2.0000      -6.417145      -174.6194
  25   2.0000      -5.715008      -155.5133
  26   2.0000      -5.711734      -155.4242
  27   2.0000      -5.708416      -155.3339
  28   2.0000      -5.704610      -155.2303
  29   2.0000      -5.704497      -155.2273
  30   2.0000      -5.696933      -155.0214
  31   2.0000      -5.656988      -153.9345
  32   2.0000      -5.650047      -153.7456
  33   2.0000      -5.648687      -153.7086
  34   2.0000      -5.648213      -153.6957
  35   2.0000      -5.641981      -153.5261
  36   2.0000      -5.641078      -153.5015
  37   2.0000      -4.643778      -126.3636
  38   2.0000      -4.642886      -126.3393
  39   2.0000      -4.641282      -126.2957
  40   2.0000      -4.639724      -126.2533
  41   2.0000      -4.638996      -126.2335
  42   2.0000      -4.637542      -126.1939
  43   2.0000      -0.986841       -26.8533
  44   2.0000      -0.980727       -26.6869
  45   2.0000      -0.942483       -25.6463
  46   2.0000      -0.940072       -25.5807
  47   2.0000      -0.758517       -20.6403
  48   2.0000      -0.718619       -19.5546
  49   2.0000      -0.707464       -19.2511
  50   2.0000      -0.688101       -18.7242
  51   2.0000      -0.682006       -18.5583
  52   2.0000      -0.668995       -18.2043
  53   2.0000      -0.647287       -17.6136
  54   2.0000      -0.630844       -17.1661
  55   2.0000      -0.592268       -16.1164
  56   2.0000      -0.583626       -15.8813
  57   2.0000      -0.568307       -15.4644
  58   2.0000      -0.564185       -15.3522
  59   2.0000      -0.562270       -15.3001
  60   2.0000      -0.508763       -13.8441
  61   2.0000      -0.494258       -13.4494
  62   2.0000      -0.476157       -12.9569
  63   2.0000      -0.471496       -12.8301
  64   2.0000      -0.452031       -12.3004
  65   2.0000      -0.444370       -12.0919
  66   2.0000      -0.434836       -11.8325
  67   2.0000      -0.431773       -11.7492
  68   2.0000      -0.429756       -11.6943
  69   2.0000      -0.416680       -11.3384
  70   2.0000      -0.404911       -11.0182
  71   2.0000      -0.394483       -10.7344
  72   2.0000      -0.384034       -10.4501
  73   2.0000      -0.380541       -10.3551
  74   2.0000      -0.378882       -10.3099
  75   2.0000      -0.369319       -10.0497
  76   2.0000      -0.365147        -9.9362
  77   2.0000      -0.353198        -9.6110
  78   2.0000      -0.350070        -9.5259
  79   2.0000      -0.345491        -9.4013
  80   2.0000      -0.343874        -9.3573
  81   2.0000      -0.339093        -9.2272
  82   2.0000      -0.337384        -9.1807
  83   2.0000      -0.334384        -9.0991
  84   2.0000      -0.325740        -8.8638
  85   2.0000      -0.312232        -8.4963
  86   2.0000      -0.309599        -8.4246
  87   2.0000      -0.301642        -8.2081
  88   2.0000      -0.294304        -8.0084
  89   2.0000      -0.290384        -7.9018
  90   2.0000      -0.279872        -7.6157
  91   2.0000      -0.270106        -7.3500
  92   2.0000      -0.268598        -7.3089
  93   2.0000      -0.260355        -7.0846
  94   2.0000      -0.254446        -6.9238
  95   2.0000      -0.234452        -6.3798
  96   2.0000      -0.219250        -5.9661
  97   2.0000      -0.211891        -5.7659
  98   2.0000      -0.200866        -5.4658
  99   2.0000      -0.189774        -5.1640
 100   2.0000      -0.177972        -4.8429
 101   0.0000      -0.038404        -1.0450
 102   0.0000      -0.025731        -0.7002
 103   0.0000      -0.019577        -0.5327
 104   0.0000       0.005692         0.1549
 105   0.0000       0.018007         0.4900

MULLIKEN ATOMIC CHARGES
-----------------------
   0 C :   -0.292354
   1 C :   -0.007266
   2 O :   -0.376141
   3 P :    0.607193
   4 S :   -0.302259
   5 O :   -0.368450
   6 C :   -0.009284
   7 C :   -0.310696
   8 S :   -0.103897
   9 C :   -0.352727
  10 S :   -0.116424
  11 P :    0.601478
  12 S :   -0.309976
  13 O :   -0.381624
  14 C :   -0.009689
  15 C :   -0.280268
  16 O :   -0.334328
  17 C :   -0.007950
  18 C :   -0.295567
  19 H :    0.106244
  20 H :    0.127712
  21 H :    0.113705
  22 H :    0.104290
  23 H :    0.100041
  24 H :    0.129428
  25 H :    0.102648
  26 H :    0.129759
  27 H :    0.110901
  28 H :    0.115120
  29 H :    0.207467
  30 H :    0.183750
  31 H :    0.102362
  32 H :    0.104448
  33 H :    0.122870
  34 H :    0.114446
  35 H :    0.112380
  36 H :    0.098883
  37 H :    0.111119
  38 H :    0.101208
  39 H :    0.125600
  40 H :    0.125851
Sum of atomic charges:    0.0000000

LOEWDIN ATOMIC CHARGES
----------------------
   0 C :   -0.360965
   1 C :   -0.117877
   2 O :   -0.250495
   3 P :    0.563752
   4 S :   -0.301895
   5 O :   -0.234120
   6 C :   -0.118166
   7 C :   -0.366065
   8 S :    0.068509
   9 C :   -0.477170
  10 S :    0.058330
  11 P :    0.567189
  12 S :   -0.294429
  13 O :   -0.250387
  14 C :   -0.120494
  15 C :   -0.350392
  16 O :   -0.221548
  17 C :   -0.108357
  18 C :   -0.363760
  19 H :    0.127910
  20 H :    0.124998
  21 H :    0.124868
  22 H :    0.116416
  23 H :    0.106216
  24 H :    0.111796
  25 H :    0.118087
  26 H :    0.123613
  27 H :    0.130405
  28 H :    0.125485
  29 H :    0.128816
  30 H :    0.139010
  31 H :    0.107576
  32 H :    0.109130
  33 H :    0.130154
  34 H :    0.125951
  35 H :    0.131078
  36 H :    0.104920
  37 H :    0.122296
  38 H :    0.125589
  39 H :    0.127647
  40 H :    0.116379

  Mayer bond orders larger than 0.100000
B(  0-C ,  1-C ) :   1.1706 B(  0-C , 19-H ) :   0.9397 B(  0-C , 20-H ) :   0.9328
B(  0-C , 21-H ) :   0.9470 B(  1-C ,  2-O ) :   0.9091 B(  1-C , 22-H ) :   0.9337
B(  1-C , 23-H ) :   0.9112 B(  2-O ,  3-P ) :   1.0874 B(  3-P ,  4-S ) :   1.6323
B(  3-P ,  5-O ) :   1.1286 B(  3-P ,  8-S ) :   0.9505 B(  4-S ,  8-S ) :   0.1079
B(  5-O ,  6-C ) :   0.8932 B(  6-C ,  7-C ) :   1.1632 B(  6-C , 24-H ) :   0.9107
B(  6-C , 25-H ) :   0.9361 B(  7-C , 26-H ) :   0.9324 B(  7-C , 27-H ) :   0.9381
B(  7-C , 28-H ) :   0.9447 B(  8-S ,  9-C ) :   1.0011 B(  9-C , 10-S ) :   1.0079
B(  9-C , 29-H ) :   0.8562 B(  9-C , 30-H ) :   0.9103 B( 10-S , 11-P ) :   0.9381
B( 10-S , 12-S ) :   0.1080 B( 11-P , 12-S ) :   1.6343 B( 11-P , 13-O ) :   1.0908
B( 11-P , 16-O ) :   1.1700 B( 13-O , 14-C ) :   0.9034 B( 14-C , 15-C ) :   1.1599
B( 14-C , 31-H ) :   0.9279 B( 14-C , 32-H ) :   0.9103 B( 15-C , 33-H ) :   0.9506
B( 15-C , 34-H ) :   0.9511 B( 15-C , 35-H ) :   0.9419 B( 16-O , 17-C ) :   0.8845
B( 17-C , 18-C ) :   1.1674 B( 17-C , 36-H ) :   0.9184 B( 17-C , 37-H ) :   0.9333
B( 18-C , 38-H ) :   0.9372 B( 18-C , 39-H ) :   0.9393 B( 18-C , 40-H ) :   0.9329

Dispersion correction           -0.066520183
FINAL SINGLE POINT ENERGY     -2929.515988907513

DIPOLE MOMENT
-------------

Method             : SCF
Type of density    : Electron Density
Multiplicity       :   1
Irrep              :   0
Energy             : -2929.6340439134714870 Eh
Relativity type    :
Basis              : AO
                                X                 Y                 Z
Electronic contribution:     -4.156060066      -5.343870208       5.003256796
Nuclear contribution   :      3.699476749       4.727857906      -4.998996151
                        -----------------------------------------
Total Dipole Moment    :     -0.456583318      -0.616012302       0.004260645
                        -----------------------------------------
Magnitude (a.u.)       :      0.766783956
Magnitude (Debye)      :      1.949009926

Rotational constants in cm-1:             0.013397             0.005092             0.004678
Rotational constants in MHz :           401.640916           152.653367           140.256969

                             ****ORCA TERMINATED NORMALLY****
TOTAL RUN TIME: 0 days 0 hours 0 minutes 21 seconds 260 msec
