                         Program Version 6.0.1  -  RELEASE   -
|  1> ! pbe def2-sv(p) def2/J RI DEFGRID1 loosescf d4 GCP(DFT/SV(P)) printgap
|  2> %output
|  3>     printlevel normal
|  4> end
|  5> * xyz 0 1
|  6> C 4.2444868095 -3.7716358076 -1.000892352
|  7> C 2.7323030798 -3.7317958843 -0.8479189453
|  8> O 2.3034709715 -2.4814783562 -0.2733561166
|  9> C 2.1263925234 -1.4520364959 -1.0758486731
| 10> O 2.2520831546 -1.4825121009 -2.2796444738
| 11> C 1.7295188587 -0.2095794076 -0.3001075703
| 12> C 0.6654385251 0.5633429835 -1.0707207685
| 13> H 1.0081235601 0.7064889565 -2.1016559475
| 14> C 0.3512782169 1.917515862 -0.4643927461
| 15> O -0.7864901713 2.2880938435 -0.2541118689
| 16> O 1.4310340263 2.6134815267 -0.2424345923
| 17> C 1.3046453482 3.9056107792 0.3922964019
| 18> C 1.4614397648 3.7667032658 1.8972564028
| 19> S -0.888111495 -0.3741014452 -1.2329059352
| 20> P -1.8275928944 0.0415864888 0.6374811972
| 21> S -0.7322664731 0.4565493137 2.2051337317
| 22> O -3.0595975113 1.0090315179 0.446027091
| 23> C -4.0083488733 0.8656272225 -0.6271660401
| 24> O -2.6300409206 -1.3428254088 0.822368802
| 25> C -1.9479247991 -2.5599882153 1.1304136369
| 26> H 4.7225766732 -3.5847195345 -0.0432737179
| 27> H 4.5419770433 -4.7494536123 -1.3648883235
| 28> H 4.5685785686 -3.0166693398 -1.7135051137
| 29> H 2.3840281521 -4.4872615499 -0.1437493726
| 30> H 2.241436139 -3.8550173584 -1.8174907157
| 31> H 2.6126041371 0.4253179337 -0.1964333293
| 32> H 1.3833783728 -0.4923760401 0.6952879489
| 33> H 2.10696459 4.5028172173 -0.0412629654
| 34> H 0.3289437805 4.3267818447 0.1369464617
| 35> H 0.6899885633 3.110809732 2.2974726305
| 36> H 2.4328563687 3.3456725749 2.1387410334
| 37> H 1.3679409312 4.743637052 2.3593657041
| 38> H -4.7356210071 1.6571070311 -0.4661638718
| 39> H -4.4803317441 -0.1142900997 -0.5799053804
| 40> H -3.5047614399 0.9964928377 -1.584862321
| 41> H -2.723971407 -3.2728948302 1.3965272008
| 42> H -1.267256412 -2.4060565126 1.9697296188
| 43> H -1.39142465 -2.9054067428 0.2587859213
| 44> *
| 45>
| 46>                          ****END OF INPUT****

CARTESIAN COORDINATES (ANGSTROEM)
---------------------------------
  C      4.244487   -3.771636   -1.000892
  C      2.732303   -3.731796   -0.847919
  O      2.303471   -2.481478   -0.273356
  C      2.126393   -1.452036   -1.075849
  O      2.252083   -1.482512   -2.279644
  C      1.729519   -0.209579   -0.300108
  C      0.665439    0.563343   -1.070721
  H      1.008124    0.706489   -2.101656
  C      0.351278    1.917516   -0.464393
  O     -0.786490    2.288094   -0.254112
  O      1.431034    2.613482   -0.242435
  C      1.304645    3.905611    0.392296
  C      1.461440    3.766703    1.897256
  S     -0.888111   -0.374101   -1.232906
  P     -1.827593    0.041586    0.637481
  S     -0.732266    0.456549    2.205134
  O     -3.059598    1.009032    0.446027
  C     -4.008349    0.865627   -0.627166
  O     -2.630041   -1.342825    0.822369
  C     -1.947925   -2.559988    1.130414
  H      4.722577   -3.584720   -0.043274
  H      4.541977   -4.749454   -1.364888
  H      4.568579   -3.016669   -1.713505
  H      2.384028   -4.487262   -0.143749
  H      2.241436   -3.855017   -1.817491
  H      2.612604    0.425318   -0.196433
  H      1.383378   -0.492376    0.695288
  H      2.106965    4.502817   -0.041263
  H      0.328944    4.326782    0.136946
  H      0.689989    3.110810    2.297473
  H      2.432856    3.345673    2.138741
  H      1.367941    4.743637    2.359366
  H     -4.735621    1.657107   -0.466164
  H     -4.480332   -0.114290   -0.579905
  H     -3.504761    0.996493   -1.584862
  H     -2.723971   -3.272895    1.396527
  H     -1.267256   -2.406057    1.969730
  H     -1.391425   -2.905407    0.258786

 Total Charge           Charge          ....    0
 Multiplicity           Mult            ....    1
 Number of Electrons    NEL             ....  174
 Basis Dimension        Dim             ....  316

ORBITAL ENERGIES
----------------

  NO   OCC          E(Eh)            E(eV)
   0   2.0000     -88.037965     -2395.6348
   1   2.0000     -87.977651     -2393.9936
   2   2.0000     -76.421813     -2079.5433
   3   2.0000     -18.816902      -512.0339
   4   2.0000     -18.805357      -511.7198
   5   2.0000     -18.783236      -511.1178
   6   2.0000     -18.782128      -511.0877
   7   2.0000     -18.746128      -510.1081
   8   2.0000     -18.742656      -510.0136
   9   2.0000     -10.022589      -272.7285
  10   2.0000     -10.011647      -272.4308
  11   2.0000      -9.952528      -270.8220
  12   2.0000      -9.950798      -270.7750
  13   2.0000      -9.948821      -270.7212
  14   2.0000      -9.942222      -270.5416
  15   2.0000      -9.936736      -270.3923
  16   2.0000      -9.905611      -269.5454
  17   2.0000      -9.890026      -269.1213
  18   2.0000      -9.883641      -268.9476
  19   2.0000      -7.682507      -209.0516
  20   2.0000      -7.622817      -207.4274
  21   2.0000      -6.417954      -174.6414
  22   2.0000      -5.710436      -155.3889
  23   2.0000      -5.706997      -155.2953
  24   2.0000      -5.699520      -155.0918
  25   2.0000      -5.651935      -153.7970
  26   2.0000      -5.643465      -153.5665
  27   2.0000      -5.642632      -153.5438
  28   2.0000      -4.640718      -126.2803
  29   2.0000      -4.639984      -126.2604
  30   2.0000      -4.638339      -126.2156
  31   2.0000      -1.025186       -27.8967
  32   2.0000      -1.013284       -27.5729
  33   2.0000      -0.977752       -26.6060
  34   2.0000      -0.933249       -25.3950
  35   2.0000      -0.927467       -25.2377
  36   2.0000      -0.919456       -25.0197
  37   2.0000      -0.764212       -20.7953
  38   2.0000      -0.712541       -19.3892
  39   2.0000      -0.708803       -19.2875
  40   2.0000      -0.688708       -18.7407
  41   2.0000      -0.656666       -17.8688
  42   2.0000      -0.628449       -17.1010
  43   2.0000      -0.624195       -16.9852
  44   2.0000      -0.615970       -16.7614
  45   2.0000      -0.596667       -16.2361
  46   2.0000      -0.565160       -15.3788
  47   2.0000      -0.511832       -13.9276
  48   2.0000      -0.503659       -13.7052
  49   2.0000      -0.497975       -13.5506
  50   2.0000      -0.485520       -13.2117
  51   2.0000      -0.467124       -12.7111
  52   2.0000      -0.458144       -12.4667
  53   2.0000      -0.448284       -12.1984
  54   2.0000      -0.435650       -11.8546
  55   2.0000      -0.430535       -11.7154
  56   2.0000      -0.423711       -11.5298
  57   2.0000      -0.418779       -11.3956
  58   2.0000      -0.413664       -11.2564
  59   2.0000      -0.407647       -11.0926
  60   2.0000      -0.399216       -10.8632
  61   2.0000      -0.398182       -10.8351
  62   2.0000      -0.393507       -10.7079
  63   2.0000      -0.387390       -10.5414
  64   2.0000      -0.383196       -10.4273
  65   2.0000      -0.367362        -9.9964
  66   2.0000      -0.360000        -9.7961
  67   2.0000      -0.351391        -9.5618
  68   2.0000      -0.349763        -9.5175
  69   2.0000      -0.335905        -9.1405
  70   2.0000      -0.334377        -9.0989
  71   2.0000      -0.330195        -8.9851
  72   2.0000      -0.327189        -8.9033
  73   2.0000      -0.308570        -8.3966
  74   2.0000      -0.301667        -8.2088
  75   2.0000      -0.297466        -8.0945
  76   2.0000      -0.293897        -7.9974
  77   2.0000      -0.288418        -7.8483
  78   2.0000      -0.270837        -7.3699
  79   2.0000      -0.264573        -7.1994
  80   2.0000      -0.262124        -7.1328
  81   2.0000      -0.252584        -6.8732
  82   2.0000      -0.238495        -6.4898
  83   2.0000      -0.228986        -6.2310
  84   2.0000      -0.220070        -5.9884
  85   2.0000      -0.196091        -5.3359
  86   2.0000      -0.192181        -5.2295
  87   0.0000      -0.042764        -1.1637
  88   0.0000      -0.031011        -0.8439
  89   0.0000      -0.017541        -0.4773
  90   0.0000       0.003565         0.0970
  91   0.0000       0.025887         0.7044

MULLIKEN ATOMIC CHARGES
-----------------------
   0 C :   -0.307306
   1 C :   -0.012274
   2 O :   -0.221277
   3 C :    0.128894
   4 O :   -0.208918
   5 C :   -0.096377
   6 C :   -0.303112
   7 H :    0.160278
   8 C :    0.209525
   9 O :   -0.184984
  10 O :   -0.222971
  11 C :   -0.014548
  12 C :   -0.310264
  13 S :   -0.092720
  14 P :    0.616375
  15 S :   -0.320526
  16 O :   -0.352607
  17 C :   -0.102110
  18 O :   -0.393071
  19 C :   -0.100414
  20 H :    0.116001
  21 H :    0.114438
  22 H :    0.127645
  23 H :    0.103964
  24 H :    0.110694
  25 H :    0.126836
  26 H :    0.117608
  27 H :    0.105824
  28 H :    0.116868
  29 H :    0.146507
  30 H :    0.111992
  31 H :    0.112106
  32 H :    0.130070
  33 H :    0.120135
  34 H :    0.121952
  35 H :    0.120855
  36 H :    0.115174
  37 H :    0.109736
Sum of atomic charges:   -0.0000000

LOEWDIN ATOMIC CHARGES
----------------------
   0 C :   -0.356286
   1 C :   -0.110920
   2 O :   -0.053367
   3 C :    0.028377
   4 O :   -0.171447
   5 C :   -0.261372
   6 C :   -0.260456
   7 H :    0.156383
   8 C :    0.013631
   9 O :   -0.161278
  10 O :   -0.039205
  11 C :   -0.106248
  12 C :   -0.358087
  13 S :    0.105023
  14 P :    0.589237
  15 S :   -0.309697
  16 O :   -0.229974
  17 C :   -0.207900
  18 O :   -0.267146
  19 C :   -0.220955
  20 H :    0.125699
  21 H :    0.131445
  22 H :    0.130638
  23 H :    0.118496
  24 H :    0.121008
  25 H :    0.149178
  26 H :    0.130084
  27 H :    0.118851
  28 H :    0.123931
  29 H :    0.131930
  30 H :    0.124419
  31 H :    0.130987
  32 H :    0.126095
  33 H :    0.113507
  34 H :    0.112280
  35 H :    0.120210
  36 H :    0.108737
  37 H :    0.104188

  Mayer bond orders larger than 0.100000
B(  0-C ,  1-C ) :   1.1737 B(  0-C , 20-H ) :   0.9486 B(  0-C , 21-H ) :   0.9441
B(  0-C , 22-H ) :   0.9459 B(  1-C ,  2-O ) :   0.9161 B(  1-C , 23-H ) :   0.9369
B(  1-C , 24-H ) :   0.9146 B(  2-O ,  3-C ) :   1.2501 B(  3-C ,  4-O ) :   2.0300
B(  3-C ,  5-C ) :   0.9984 B(  5-C ,  6-C ) :   1.0648 B(  5-C , 25-H ) :   0.8642
B(  5-C , 26-H ) :   0.8824 B(  6-C ,  7-H ) :   0.8462 B(  6-C ,  8-C ) :   0.9091
B(  6-C , 13-S ) :   1.0167 B(  8-C ,  9-O ) :   2.0024 B(  8-C , 10-O ) :   1.2710
B( 10-O , 11-C ) :   0.8963 B( 11-C , 12-C ) :   1.1804 B( 11-C , 27-H ) :   0.9367
B( 11-C , 28-H ) :   0.9105 B( 12-C , 29-H ) :   0.9307 B( 12-C , 30-H ) :   0.9493
B( 12-C , 31-H ) :   0.9414 B( 13-S , 14-P ) :   0.9412 B( 13-S , 15-S ) :   0.1122
B( 14-P , 15-S ) :   1.5955 B( 14-P , 16-O ) :   1.1394 B( 14-P , 18-O ) :   1.0509
B( 16-O , 17-C ) :   0.9214 B( 17-C , 32-H ) :   0.9597 B( 17-C , 33-H ) :   0.9461
B( 17-C , 34-H ) :   0.9412 B( 18-O , 19-C ) :   0.9403 B( 19-C , 35-H ) :   0.9585
B( 19-C , 36-H ) :   0.9342 B( 19-C , 37-H ) :   0.9441

Dispersion correction           -0.051543237
FINAL SINGLE POINT ENERGY     -1979.020023236206

DIPOLE MOMENT
-------------

Method             : SCF
Type of density    : Electron Density
Multiplicity       :   1
Irrep              :   0
Energy             : -1979.1499125231816834 Eh
Relativity type    :
Basis              : AO
                                X                 Y                 Z
Electronic contribution:    -12.668824338       4.435355343      -0.877454917
Nuclear contribution   :     13.199024998      -4.786211946       0.501374456
                        -----------------------------------------
Total Dipole Moment    :      0.530200661      -0.350856603      -0.376080461
                        -----------------------------------------
Magnitude (a.u.)       :      0.738680993
Magnitude (Debye)      :      1.877577871

Rotational constants in cm-1:             0.011484             0.007439             0.005613
Rotational constants in MHz :           344.275710           223.013196           168.263291

                             ****ORCA TERMINATED NORMALLY****
TOTAL RUN TIME: 0 days 0 hours 0 minutes 44 seconds 331 msec
