                         Program Version 6.0.0  -   RELEASE  -
|  1> ! pbe def2-sv(p) def2/J RI DEFGRID1 loosescf d4 GCP(DFT/SV(P)) printgap
|  2> %output
|  3>     printlevel normal
|  4> end
|  5> * xyz 0 1
|  6> C 5.3809385351 0.2822854147 -1.0177415806
|  7> C 4.9471032113 -0.2829876886 0.3181884528
|  8> O 3.6322703124 -0.8781501918 0.2657697635
|  9> P 2.3182643938 -0.1224473455 -0.1898364831
| 10> S 2.0103223015 -0.0275632074 -2.1303051902
| 11> O 2.4796375375 1.242421454 0.6166505697
| 12> C 1.5359195091 2.3258645828 0.6379000496
| 13> C 1.7000163118 3.2409999635 -0.5589749072
| 14> S 0.920669162 -1.2660901869 0.9000486988
| 15> C -0.1333087553 -1.904197927 -0.4524228123
| 16> S -1.8716006856 -1.9264749773 0.0048239445
| 17> P -2.168300225 0.1828466355 0.1484345588
| 18> S -1.3994740316 1.2217586972 -1.3240401779
| 19> O -1.5814241036 0.659766209 1.5353716618
| 20> C -2.195251941 0.472117966 2.8352512372
| 21> C -2.2701027555 -0.9846281976 3.2410595389
| 22> O -3.7319781172 0.3362475933 0.3750010082
| 23> C -4.6735111767 0.4151944712 -0.7106849066
| 24> C -4.7315466285 -0.863175403 -1.5206869165
| 25> H 5.3320730863 -0.4844363286 -1.7876518381
| 26> H 4.7235060601 1.1010197676 -1.3084841431
| 27> H 6.3984504679 0.6525279823 -0.9412914856
| 28> H 4.9402409179 0.4926147053 1.0870320016
| 29> H 5.5855318232 -1.1114791281 0.6295570503
| 30> H 0.5192681659 1.9248120187 0.6819870941
| 31> H 1.7594025032 2.8488933001 1.5700308518
| 32> H 1.4410154731 2.7154027222 -1.4760857895
| 33> H 1.0323411219 4.0896737699 -0.4500107226
| 34> H 2.7257684764 3.5930130946 -0.6281100121
| 35> H 0.1423169347 -2.9354986381 -0.6577021058
| 36> H 0.0192739381 -1.2724645235 -1.3337137589
| 37> H -1.5396263666 1.0378843407 3.4989736972
| 38> H -3.1871998319 0.9264559864 2.812042455
| 39> H -1.2933102027 -1.4534408327 3.1414501402
| 40> H -2.591240067 -1.0445134168 4.2762966545
| 41> H -2.9827282888 -1.5191378735 2.6172659622
| 42> H -5.6225510713 0.6203129648 -0.2131091613
| 43> H -4.3952833032 1.2609948201 -1.3468273082
| 44> H -4.8872810365 -1.7194457295 -0.8694865625
| 45> H -5.5470046815 -0.7976387585 -2.2338927202
| 46> H -3.7990128991 -1.0023441713 -2.06548449
| 47> *
| 48>
| 49>                          ****END OF INPUT****

CARTESIAN COORDINATES (ANGSTROEM)
---------------------------------
  C      5.380939    0.282285   -1.017742
  C      4.947103   -0.282988    0.318188
  O      3.632270   -0.878150    0.265770
  P      2.318264   -0.122447   -0.189836
  S      2.010322   -0.027563   -2.130305
  O      2.479638    1.242421    0.616651
  C      1.535920    2.325865    0.637900
  C      1.700016    3.241000   -0.558975
  S      0.920669   -1.266090    0.900049
  C     -0.133309   -1.904198   -0.452423
  S     -1.871601   -1.926475    0.004824
  P     -2.168300    0.182847    0.148435
  S     -1.399474    1.221759   -1.324040
  O     -1.581424    0.659766    1.535372
  C     -2.195252    0.472118    2.835251
  C     -2.270103   -0.984628    3.241060
  O     -3.731978    0.336248    0.375001
  C     -4.673511    0.415194   -0.710685
  C     -4.731547   -0.863175   -1.520687
  H      5.332073   -0.484436   -1.787652
  H      4.723506    1.101020   -1.308484
  H      6.398450    0.652528   -0.941291
  H      4.940241    0.492615    1.087032
  H      5.585532   -1.111479    0.629557
  H      0.519268    1.924812    0.681987
  H      1.759403    2.848893    1.570031
  H      1.441015    2.715403   -1.476086
  H      1.032341    4.089674   -0.450011
  H      2.725768    3.593013   -0.628110
  H      0.142317   -2.935499   -0.657702
  H      0.019274   -1.272465   -1.333714
  H     -1.539626    1.037884    3.498974
  H     -3.187200    0.926456    2.812042
  H     -1.293310   -1.453441    3.141450
  H     -2.591240   -1.044513    4.276297
  H     -2.982728   -1.519138    2.617266
  H     -5.622551    0.620313   -0.213109
  H     -4.395283    1.260995   -1.346827
  H     -4.887281   -1.719446   -0.869487
  H     -5.547005   -0.797639   -2.233893
  H     -3.799013   -1.002344   -2.065484

 Total Charge           Charge          ....    0
 Multiplicity           Mult            ....    1
 Number of Electrons    NEL             ....  202
 Basis Dimension        Dim             ....  334

ORBITAL ENERGIES
----------------

  NO   OCC          E(Eh)            E(eV)
   0   2.0000     -88.044116     -2395.8022
   1   2.0000     -88.035411     -2395.5653
   2   2.0000     -87.983683     -2394.1577
   3   2.0000     -87.978098     -2394.0058
   4   2.0000     -76.429026     -2079.7395
   5   2.0000     -76.420123     -2079.4973
   6   2.0000     -18.800665      -511.5921
   7   2.0000     -18.792865      -511.3799
   8   2.0000     -18.785972      -511.1923
   9   2.0000     -18.780480      -511.0428
  10   2.0000      -9.958494      -270.9844
  11   2.0000      -9.958458      -270.9834
  12   2.0000      -9.949100      -270.7288
  13   2.0000      -9.948810      -270.7209
  14   2.0000      -9.939929      -270.4792
  15   2.0000      -9.887658      -269.0569
  16   2.0000      -9.887484      -269.0521
  17   2.0000      -9.877943      -268.7925
  18   2.0000      -9.868076      -268.5240
  19   2.0000      -7.688910      -209.2259
  20   2.0000      -7.680489      -208.9967
  21   2.0000      -7.628580      -207.5842
  22   2.0000      -7.623055      -207.4339
  23   2.0000      -6.426009      -174.8606
  24   2.0000      -6.417252      -174.6223
  25   2.0000      -5.716850      -155.5634
  26   2.0000      -5.713346      -155.4681
  27   2.0000      -5.708408      -155.3337
  28   2.0000      -5.705938      -155.2665
  29   2.0000      -5.705007      -155.2411
  30   2.0000      -5.697386      -155.0337
  31   2.0000      -5.657506      -153.9486
  32   2.0000      -5.651919      -153.7965
  33   2.0000      -5.649249      -153.7239
  34   2.0000      -5.648659      -153.7078
  35   2.0000      -5.643833      -153.5765
  36   2.0000      -5.643093      -153.5564
  37   2.0000      -4.649152      -126.5099
  38   2.0000      -4.647572      -126.4669
  39   2.0000      -4.646193      -126.4293
  40   2.0000      -4.640112      -126.2639
  41   2.0000      -4.638901      -126.2309
  42   2.0000      -4.637671      -126.1975
  43   2.0000      -0.992382       -27.0041
  44   2.0000      -0.979198       -26.6453
  45   2.0000      -0.948155       -25.8006
  46   2.0000      -0.934313       -25.4239
  47   2.0000      -0.759602       -20.6698
  48   2.0000      -0.720320       -19.6009
  49   2.0000      -0.707436       -19.2503
  50   2.0000      -0.694153       -18.8889
  51   2.0000      -0.678578       -18.4651
  52   2.0000      -0.672194       -18.2913
  53   2.0000      -0.650151       -17.6915
  54   2.0000      -0.630519       -17.1573
  55   2.0000      -0.598931       -16.2977
  56   2.0000      -0.584440       -15.9034
  57   2.0000      -0.582526       -15.8513
  58   2.0000      -0.568289       -15.4639
  59   2.0000      -0.555963       -15.1285
  60   2.0000      -0.500014       -13.6061
  61   2.0000      -0.490712       -13.3530
  62   2.0000      -0.473631       -12.8882
  63   2.0000      -0.462836       -12.5944
  64   2.0000      -0.453417       -12.3381
  65   2.0000      -0.446430       -12.1480
  66   2.0000      -0.444140       -12.0857
  67   2.0000      -0.430282       -11.7086
  68   2.0000      -0.420029       -11.4296
  69   2.0000      -0.416251       -11.3268
  70   2.0000      -0.408851       -11.1254
  71   2.0000      -0.405191       -11.0258
  72   2.0000      -0.396310       -10.7841
  73   2.0000      -0.384623       -10.4661
  74   2.0000      -0.378064       -10.2876
  75   2.0000      -0.369785       -10.0624
  76   2.0000      -0.359691        -9.7877
  77   2.0000      -0.356234        -9.6936
  78   2.0000      -0.353241        -9.6122
  79   2.0000      -0.346733        -9.4351
  80   2.0000      -0.342581        -9.3221
  81   2.0000      -0.342057        -9.3079
  82   2.0000      -0.337565        -9.1856
  83   2.0000      -0.332279        -9.0418
  84   2.0000      -0.323854        -8.8125
  85   2.0000      -0.319885        -8.7045
  86   2.0000      -0.310710        -8.4549
  87   2.0000      -0.299677        -8.1546
  88   2.0000      -0.296407        -8.0656
  89   2.0000      -0.285443        -7.7673
  90   2.0000      -0.284361        -7.7379
  91   2.0000      -0.275084        -7.4854
  92   2.0000      -0.265557        -7.2262
  93   2.0000      -0.263025        -7.1573
  94   2.0000      -0.253304        -6.8928
  95   2.0000      -0.232387        -6.3236
  96   2.0000      -0.218198        -5.9375
  97   2.0000      -0.210220        -5.7204
  98   2.0000      -0.200565        -5.4576
  99   2.0000      -0.189711        -5.1623
 100   2.0000      -0.183776        -5.0008
 101   0.0000      -0.041175        -1.1204
 102   0.0000      -0.029837        -0.8119
 103   0.0000      -0.009610        -0.2615
 104   0.0000       0.011190         0.3045
 105   0.0000       0.017082         0.4648

MULLIKEN ATOMIC CHARGES
-----------------------
   0 C :   -0.319776
   1 C :    0.006505
   2 O :   -0.375658
   3 P :    0.635851
   4 S :   -0.314221
   5 O :   -0.389378
   6 C :   -0.025774
   7 C :   -0.301306
   8 S :   -0.109236
   9 C :   -0.352645
  10 S :   -0.109229
  11 P :    0.610532
  12 S :   -0.302267
  13 O :   -0.354787
  14 C :    0.004973
  15 C :   -0.318633
  16 O :   -0.384724
  17 C :    0.001743
  18 C :   -0.324794
  19 H :    0.124541
  20 H :    0.131496
  21 H :    0.107318
  22 H :    0.105280
  23 H :    0.104896
  24 H :    0.132325
  25 H :    0.093842
  26 H :    0.140479
  27 H :    0.105060
  28 H :    0.104211
  29 H :    0.183199
  30 H :    0.216248
  31 H :    0.108213
  32 H :    0.109799
  33 H :    0.130494
  34 H :    0.112364
  35 H :    0.122232
  36 H :    0.105189
  37 H :    0.114431
  38 H :    0.118207
  39 H :    0.116829
  40 H :    0.136172
Sum of atomic charges:    0.0000000

LOEWDIN ATOMIC CHARGES
----------------------
   0 C :   -0.368569
   1 C :   -0.109210
   2 O :   -0.249534
   3 P :    0.565893
   4 S :   -0.293904
   5 O :   -0.247783
   6 C :   -0.120348
   7 C :   -0.365519
   8 S :    0.073404
   9 C :   -0.482094
  10 S :    0.085071
  11 P :    0.570223
  12 S :   -0.295258
  13 O :   -0.236447
  14 C :   -0.107921
  15 C :   -0.370231
  16 O :   -0.247589
  17 C :   -0.115370
  18 C :   -0.372144
  19 H :    0.129507
  20 H :    0.122642
  21 H :    0.127730
  22 H :    0.111642
  23 H :    0.119382
  24 H :    0.107944
  25 H :    0.113320
  26 H :    0.124499
  27 H :    0.128710
  28 H :    0.119220
  29 H :    0.136120
  30 H :    0.123200
  31 H :    0.121663
  32 H :    0.114128
  33 H :    0.125449
  34 H :    0.130471
  35 H :    0.117431
  36 H :    0.118735
  37 H :    0.114524
  38 H :    0.123207
  39 H :    0.133255
  40 H :    0.124552

  Mayer bond orders larger than 0.100000
B(  0-C ,  1-C ) :   1.1671 B(  0-C , 19-H ) :   0.9440 B(  0-C , 20-H ) :   0.9346
B(  0-C , 21-H ) :   0.9354 B(  1-C ,  2-O ) :   0.9133 B(  1-C , 22-H ) :   0.9294
B(  1-C , 23-H ) :   0.9355 B(  2-O ,  3-P ) :   1.1227 B(  3-P ,  4-S ) :   1.6346
B(  3-P ,  5-O ) :   1.0874 B(  3-P ,  8-S ) :   0.9627 B(  4-S ,  8-S ) :   0.1274
B(  5-O ,  6-C ) :   0.8987 B(  6-C ,  7-C ) :   1.1716 B(  6-C , 24-H ) :   0.8988
B(  6-C , 25-H ) :   0.9362 B(  7-C , 26-H ) :   0.9290 B(  7-C , 27-H ) :   0.9390
B(  7-C , 28-H ) :   0.9459 B(  8-S ,  9-C ) :   0.9938 B(  9-C , 10-S ) :   1.0087
B(  9-C , 29-H ) :   0.9097 B(  9-C , 30-H ) :   0.8377 B( 10-S , 11-P ) :   0.9362
B( 10-S , 12-S ) :   0.1082 B( 11-P , 12-S ) :   1.6470 B( 11-P , 13-O ) :   1.1160
B( 11-P , 16-O ) :   1.0806 B( 13-O , 14-C ) :   0.8988 B( 14-C , 15-C ) :   1.1711
B( 14-C , 31-H ) :   0.9342 B( 14-C , 32-H ) :   0.9272 B( 15-C , 33-H ) :   0.9391
B( 15-C , 34-H ) :   0.9353 B( 15-C , 35-H ) :   0.9396 B( 16-O , 17-C ) :   0.9013
B( 17-C , 18-C ) :   1.1672 B( 17-C , 36-H ) :   0.9342 B( 17-C , 37-H ) :   0.9184
B( 18-C , 38-H ) :   0.9434 B( 18-C , 39-H ) :   0.9363 B( 18-C , 40-H ) :   0.9331

Dispersion correction           -0.066849966
FINAL SINGLE POINT ENERGY     -2929.516169732916

DIPOLE MOMENT
-------------

Method             : SCF
Type of density    : Electron Density
Multiplicity       :   1
Irrep              :   0
Energy             : -2929.6349375048484944 Eh
Relativity type    :
Basis              : AO
                                X                 Y                 Z
Electronic contribution:      0.545857090      -7.367859490      -3.498313479
Nuclear contribution   :     -1.262567767       7.457354832       4.845627476
                        -----------------------------------------
Total Dipole Moment    :     -0.716710677       0.089495343       1.347313998
                        -----------------------------------------
Magnitude (a.u.)       :      1.528704883
Magnitude (Debye)      :      3.885659014

Rotational constants in cm-1:             0.013854             0.004865             0.004708
Rotational constants in MHz :           415.320486           145.857121           141.133916

                             ****ORCA TERMINATED NORMALLY****
TOTAL RUN TIME: 0 days 0 hours 0 minutes 21 seconds 428 msec
