                         Program Version 6.0.0  -   RELEASE  -
|  1> ! wb97x-v def2-tzvp def2/J RIJCOSX DEFGRID2 scfconv7 GCP(DFT/TZ) printgap
|  2> %output
|  3>     printlevel normal
|  4> end
|  5> %cpcm
|  6>     smd true
|  7>     smdsolvent "water"
|  8> end
|  9> * xyz 0 1
| 10> C -1.6901704038060925 0.41390623208446786 -0.01999984763269519
| 11> C -0.6187306326042022 -0.6587476752681539 0.07262492628303494
| 12> S 1.0513269132378922 0.14382465626530566 -0.02977346526203572
| 13> H -2.6778487629963443 -0.05445423322191692 0.039215494664443
| 14> H -1.6085110500930384 1.1344632831726824 0.7998500270615437
| 15> H -1.6311719790402874 0.958927256652784 -0.9673106250379366
| 16> H -0.7109134436403602 -1.3739961046675566 -0.7484693977636097
| 17> H -0.6874973494643962 -1.1980170605370681 1.0205883148786896
| 18> H 1.7813688289695944 -0.9817741590023402 0.08003338492204973
| 19> *
| 20>
| 21>                          ****END OF INPUT****

CARTESIAN COORDINATES (ANGSTROEM)
---------------------------------
  C     -1.690170    0.413906   -0.020000
  C     -0.618731   -0.658748    0.072625
  S      1.051327    0.143825   -0.029773
  H     -2.677849   -0.054454    0.039215
  H     -1.608511    1.134463    0.799850
  H     -1.631172    0.958927   -0.967311
  H     -0.710913   -1.373996   -0.748469
  H     -0.687497   -1.198017    1.020588
  H      1.781369   -0.981774    0.080033

 Total Charge           Charge          ....    0
 Multiplicity           Mult            ....    1
 Number of Electrons    NEL             ....   34
 Basis Dimension        Dim             ....  135

ORBITAL ENERGIES
----------------

  NO   OCC          E(Eh)            E(eV)
   0   2.0000     -94.116043     -2561.0277
   1   2.0000     -12.072125      -328.4992
   2   2.0000     -12.035276      -327.4965
   3   2.0000      -9.627501      -261.9776
   4   2.0000      -7.605067      -206.9444
   5   2.0000      -7.604031      -206.9162
   6   2.0000      -7.603751      -206.9086
   7   2.0000      -1.289276       -35.0830
   8   2.0000      -1.192031       -32.4368
   9   2.0000      -1.069299       -29.0971
  10   2.0000      -0.875461       -23.8225
  11   2.0000      -0.872926       -23.7535
  12   2.0000      -0.823809       -22.4170
  13   2.0000      -0.789288       -21.4776
  14   2.0000      -0.778136       -21.1742
  15   2.0000      -0.739297       -20.1173
  16   2.0000      -0.639770       -17.4090
  17   0.0000      -0.191605        -5.2138
  18   0.0000      -0.099842        -2.7168
  19   0.0000      -0.005053        -0.1375
  20   0.0000       0.014760         0.4016
  21   0.0000       0.035264         0.9596

MULLIKEN ATOMIC CHARGES
-----------------------
   0 C :   -0.365566
   1 C :   -0.170200
   2 S :   -0.297227
   3 H :    0.134534
   4 H :    0.128411
   5 H :    0.128367
   6 H :    0.137007
   7 H :    0.137087
   8 H :    0.167587
Sum of atomic charges:   -0.0000000

LOEWDIN ATOMIC CHARGES
----------------------
   0 C :   -0.343014
   1 C :   -0.478286
   2 S :    0.166900
   3 H :    0.126283
   4 H :    0.119779
   5 H :    0.119780
   6 H :    0.123433
   7 H :    0.123448
   8 H :    0.041678

  Mayer bond orders larger than 0.100000
B(  0-C ,  1-C ) :   0.9932 B(  0-C ,  3-H ) :   0.9681 B(  0-C ,  4-H ) :   0.9723
B(  0-C ,  5-H ) :   0.9722 B(  1-C ,  2-S ) :   1.0457 B(  1-C ,  6-H ) :   0.9663
B(  1-C ,  7-H ) :   0.9664 B(  2-S ,  8-H ) :   0.9692

FINAL SINGLE POINT ENERGY      -477.966960232831

DIPOLE MOMENT
-------------

Method             : SCF
Type of density    : Electron Density
Multiplicity       :   1
Irrep              :   0
Energy             :  -477.9730180894312070 Eh
Relativity type    :
Basis              : AO
                                X                 Y                 Z
Electronic contribution:      4.671503582       0.741879659      -0.140340841
Nuclear contribution   :     -5.258398318      -1.438273734       0.219647781
                        -----------------------------------------
Total Dipole Moment    :     -0.586894736      -0.696394075       0.079306940
                        -----------------------------------------
Magnitude (a.u.)       :      0.914166139
Magnitude (Debye)      :      2.323625664

Rotational constants in cm-1:             0.950689             0.178795             0.159560
Rotational constants in MHz :         28500.936065          5360.142703          4783.486839

                             ****ORCA TERMINATED NORMALLY****
TOTAL RUN TIME: 0 days 0 hours 1 minutes 14 seconds 130 msec
