                         Program Version 6.0.0  -   RELEASE  -
|  1> ! pbe def2-sv(p) def2/J RI DEFGRID1 loosescf d4 GCP(DFT/SV(P)) printgap
|  2> %output
|  3>     printlevel normal
|  4> end
|  5> * xyz 0 1
|  6> C 5.7282845358 -1.1844345939 -0.1796051547
|  7> C 4.524545808 -1.416221219 0.7131369482
|  8> O 3.69383382 -0.237834004 0.76682027
|  9> P 2.4095522054 -0.0601539087 -0.1569491691
| 10> S 2.6880895968 -0.3640045426 -2.0782331935
| 11> O 1.9446240593 1.3884494392 0.2749789978
| 12> C 2.3433578107 2.580590128 -0.4408518762
| 13> C 1.2360582961 3.0402571342 -1.3675747413
| 14> S 0.971236079 -1.2781898649 0.7837364179
| 15> C -0.191995272 -1.3446156161 -0.6062767799
| 16> S -1.0242321353 0.2353661468 -0.9360556493
| 17> P -2.6500978666 -0.0168317769 0.4164177308
| 18> S -3.9706829342 1.4262664634 0.4770515956
| 19> O -1.9629852361 -0.4174448905 1.7908423154
| 20> C -1.7569041885 0.5408448791 2.8433485848
| 21> C -0.7848569715 1.6353262967 2.4499487538
| 22> O -3.2172053169 -1.4634778342 0.0750052991
| 23> C -4.3060179668 -1.6430123099 -0.8482788671
| 24> C -3.8947679591 -1.3659698075 -2.2810433867
| 25> H 6.2870774299 -0.3188001525 0.1648327259
| 26> H 6.3683922718 -2.0602793934 -0.1515621781
| 27> H 5.4087660392 -1.0117902113 -1.2050402408
| 28> H 4.8236243678 -1.5913566686 1.7481157204
| 29> H 3.9301123985 -2.262408551 0.3573869787
| 30> H 2.5459108005 3.3164291939 0.3386058266
| 31> H 3.2591010715 2.3751495479 -1.0016212398
| 32> H 0.31505111 3.1912600248 -0.8112688108
| 33> H 1.5287796956 3.9727760822 -1.8390166654
| 34> H 1.0540923093 2.2929802279 -2.1373060577
| 35> H -0.9304660608 -2.10352238 -0.3603163087
| 36> H 0.3583335897 -1.5940478621 -1.5137914416
| 37> H -2.7260517744 0.9740172801 3.1099521733
| 38> H -1.3751433905 -0.0591778429 3.670420602
| 39> H -1.1921730049 2.2065675834 1.6152463182
| 40> H -0.6362948823 2.303052377 3.2925708079
| 41> H 0.1737793316 1.2153289557 2.1545399879
| 42> H -4.6013632787 -2.6836247837 -0.7065273799
| 43> H -5.1255264495 -0.9810351256 -0.5511203168
| 44> H -4.7272490334 -1.589643107 -2.9405346463
| 45> H -3.6275533662 -0.3157800779 -2.3953159656
| 46> H -3.0416749907 -1.9787673024 -2.5614749198
| 47> *
| 48>
| 49>                          ****END OF INPUT****

CARTESIAN COORDINATES (ANGSTROEM)
---------------------------------
  C      5.728285   -1.184435   -0.179605
  C      4.524546   -1.416221    0.713137
  O      3.693834   -0.237834    0.766820
  P      2.409552   -0.060154   -0.156949
  S      2.688090   -0.364005   -2.078233
  O      1.944624    1.388449    0.274979
  C      2.343358    2.580590   -0.440852
  C      1.236058    3.040257   -1.367575
  S      0.971236   -1.278190    0.783736
  C     -0.191995   -1.344616   -0.606277
  S     -1.024232    0.235366   -0.936056
  P     -2.650098   -0.016832    0.416418
  S     -3.970683    1.426266    0.477052
  O     -1.962985   -0.417445    1.790842
  C     -1.756904    0.540845    2.843349
  C     -0.784857    1.635326    2.449949
  O     -3.217205   -1.463478    0.075005
  C     -4.306018   -1.643012   -0.848279
  C     -3.894768   -1.365970   -2.281043
  H      6.287077   -0.318800    0.164833
  H      6.368392   -2.060279   -0.151562
  H      5.408766   -1.011790   -1.205040
  H      4.823624   -1.591357    1.748116
  H      3.930112   -2.262409    0.357387
  H      2.545911    3.316429    0.338606
  H      3.259101    2.375150   -1.001621
  H      0.315051    3.191260   -0.811269
  H      1.528780    3.972776   -1.839017
  H      1.054092    2.292980   -2.137306
  H     -0.930466   -2.103522   -0.360316
  H      0.358334   -1.594048   -1.513791
  H     -2.726052    0.974017    3.109952
  H     -1.375143   -0.059178    3.670421
  H     -1.192173    2.206568    1.615246
  H     -0.636295    2.303052    3.292571
  H      0.173779    1.215329    2.154540
  H     -4.601363   -2.683625   -0.706527
  H     -5.125526   -0.981035   -0.551120
  H     -4.727249   -1.589643   -2.940535
  H     -3.627553   -0.315780   -2.395316
  H     -3.041675   -1.978767   -2.561475

 Total Charge           Charge          ....    0
 Multiplicity           Mult            ....    1
 Number of Electrons    NEL             ....  202
 Basis Dimension        Dim             ....  334

ORBITAL ENERGIES
----------------

  NO   OCC          E(Eh)            E(eV)
   0   2.0000     -88.047178     -2395.8855
   1   2.0000     -88.042782     -2395.7659
   2   2.0000     -87.994325     -2394.4473
   3   2.0000     -87.990500     -2394.3432
   4   2.0000     -76.431354     -2079.8029
   5   2.0000     -76.427399     -2079.6953
   6   2.0000     -18.796160      -511.4695
   7   2.0000     -18.794223      -511.4168
   8   2.0000     -18.792982      -511.3830
   9   2.0000     -18.788157      -511.2517
  10   2.0000      -9.957842      -270.9667
  11   2.0000      -9.957744      -270.9640
  12   2.0000      -9.954661      -270.8801
  13   2.0000      -9.953496      -270.8484
  14   2.0000      -9.948100      -270.7016
  15   2.0000      -9.884770      -268.9783
  16   2.0000      -9.884448      -268.9695
  17   2.0000      -9.879314      -268.8298
  18   2.0000      -9.873610      -268.6746
  19   2.0000      -7.692459      -209.3225
  20   2.0000      -7.687453      -209.1862
  21   2.0000      -7.639204      -207.8733
  22   2.0000      -7.635624      -207.7759
  23   2.0000      -6.429001      -174.9420
  24   2.0000      -6.424815      -174.8281
  25   2.0000      -5.720191      -155.6543
  26   2.0000      -5.717004      -155.5676
  27   2.0000      -5.715559      -155.5283
  28   2.0000      -5.711873      -155.4280
  29   2.0000      -5.709471      -155.3626
  30   2.0000      -5.704343      -155.2231
  31   2.0000      -5.667986      -154.2337
  32   2.0000      -5.664614      -154.1420
  33   2.0000      -5.659901      -154.0137
  34   2.0000      -5.659448      -154.0014
  35   2.0000      -5.656090      -153.9100
  36   2.0000      -5.655890      -153.9046
  37   2.0000      -4.651468      -126.5729
  38   2.0000      -4.650741      -126.5531
  39   2.0000      -4.649578      -126.5214
  40   2.0000      -4.647124      -126.4547
  41   2.0000      -4.646977      -126.4507
  42   2.0000      -4.645170      -126.4015
  43   2.0000      -0.990131       -26.9428
  44   2.0000      -0.988023       -26.8855
  45   2.0000      -0.948192       -25.8016
  46   2.0000      -0.944748       -25.7079
  47   2.0000      -0.766253       -20.8508
  48   2.0000      -0.722962       -19.6728
  49   2.0000      -0.709295       -19.3009
  50   2.0000      -0.687166       -18.6987
  51   2.0000      -0.681235       -18.5373
  52   2.0000      -0.676496       -18.4084
  53   2.0000      -0.657529       -17.8923
  54   2.0000      -0.642368       -17.4797
  55   2.0000      -0.599877       -16.3235
  56   2.0000      -0.593981       -16.1630
  57   2.0000      -0.575525       -15.6608
  58   2.0000      -0.568133       -15.4597
  59   2.0000      -0.561089       -15.2680
  60   2.0000      -0.507099       -13.7989
  61   2.0000      -0.493893       -13.4395
  62   2.0000      -0.479019       -13.0348
  63   2.0000      -0.464553       -12.6411
  64   2.0000      -0.462916       -12.5966
  65   2.0000      -0.444862       -12.1053
  66   2.0000      -0.443079       -12.0568
  67   2.0000      -0.435956       -11.8630
  68   2.0000      -0.422685       -11.5019
  69   2.0000      -0.420723       -11.4484
  70   2.0000      -0.407232       -11.0813
  71   2.0000      -0.401622       -10.9287
  72   2.0000      -0.397024       -10.8036
  73   2.0000      -0.390431       -10.6242
  74   2.0000      -0.384631       -10.4663
  75   2.0000      -0.372780       -10.1439
  76   2.0000      -0.370830       -10.0908
  77   2.0000      -0.356208        -9.6929
  78   2.0000      -0.351993        -9.5782
  79   2.0000      -0.349969        -9.5231
  80   2.0000      -0.346344        -9.4245
  81   2.0000      -0.343453        -9.3458
  82   2.0000      -0.340329        -9.2608
  83   2.0000      -0.334922        -9.1137
  84   2.0000      -0.331425        -9.0185
  85   2.0000      -0.320718        -8.7272
  86   2.0000      -0.312578        -8.5057
  87   2.0000      -0.302451        -8.2301
  88   2.0000      -0.299914        -8.1611
  89   2.0000      -0.291973        -7.9450
  90   2.0000      -0.286748        -7.8028
  91   2.0000      -0.280708        -7.6385
  92   2.0000      -0.270215        -7.3529
  93   2.0000      -0.266466        -7.2509
  94   2.0000      -0.256752        -6.9866
  95   2.0000      -0.233487        -6.3535
  96   2.0000      -0.220284        -5.9942
  97   2.0000      -0.211937        -5.7671
  98   2.0000      -0.209158        -5.6915
  99   2.0000      -0.208600        -5.6763
 100   2.0000      -0.206709        -5.6248
 101   0.0000      -0.044234        -1.2037
 102   0.0000      -0.029038        -0.7902
 103   0.0000      -0.013767        -0.3746
 104   0.0000       0.001174         0.0319
 105   0.0000       0.005423         0.1476

MULLIKEN ATOMIC CHARGES
-----------------------
   0 C :   -0.291259
   1 C :   -0.008231
   2 O :   -0.372980
   3 P :    0.605993
   4 S :   -0.334770
   5 O :   -0.356698
   6 C :   -0.002594
   7 C :   -0.297483
   8 S :   -0.066290
   9 C :   -0.376089
  10 S :   -0.061518
  11 P :    0.576919
  12 S :   -0.314591
  13 O :   -0.368014
  14 C :    0.008523
  15 C :   -0.344606
  16 O :   -0.368700
  17 C :   -0.004397
  18 C :   -0.312836
  19 H :    0.112853
  20 H :    0.108888
  21 H :    0.128196
  22 H :    0.108564
  23 H :    0.101539
  24 H :    0.108345
  25 H :    0.104351
  26 H :    0.128241
  27 H :    0.107801
  28 H :    0.126776
  29 H :    0.192956
  30 H :    0.196972
  31 H :    0.108785
  32 H :    0.103930
  33 H :    0.125828
  34 H :    0.105266
  35 H :    0.142518
  36 H :    0.106732
  37 H :    0.114389
  38 H :    0.113367
  39 H :    0.129160
  40 H :    0.114163
Sum of atomic charges:    0.0000000

LOEWDIN ATOMIC CHARGES
----------------------
   0 C :   -0.362190
   1 C :   -0.115887
   2 O :   -0.249224
   3 P :    0.567966
   4 S :   -0.319601
   5 O :   -0.234250
   6 C :   -0.111053
   7 C :   -0.361866
   8 S :    0.099298
   9 C :   -0.485484
  10 S :    0.097161
  11 P :    0.572726
  12 S :   -0.315220
  13 O :   -0.242035
  14 C :   -0.115404
  15 C :   -0.377675
  16 O :   -0.242318
  17 C :   -0.118913
  18 C :   -0.367682
  19 H :    0.125502
  20 H :    0.129400
  21 H :    0.124850
  22 H :    0.119330
  23 H :    0.107618
  24 H :    0.119822
  25 H :    0.109402
  26 H :    0.126748
  27 H :    0.128621
  28 H :    0.122883
  29 H :    0.133990
  30 H :    0.130475
  31 H :    0.109927
  32 H :    0.119122
  33 H :    0.118042
  34 H :    0.128189
  35 H :    0.120271
  36 H :    0.118999
  37 H :    0.111468
  38 H :    0.131191
  39 H :    0.122487
  40 H :    0.123318

  Mayer bond orders larger than 0.100000
B(  0-C ,  1-C ) :   1.1673 B(  0-C , 19-H ) :   0.9475 B(  0-C , 20-H ) :   0.9397
B(  0-C , 21-H ) :   0.9340 B(  1-C ,  2-O ) :   0.9016 B(  1-C , 22-H ) :   0.9355
B(  1-C , 23-H ) :   0.9147 B(  2-O ,  3-P ) :   1.1166 B(  3-P ,  4-S ) :   1.5851
B(  3-P ,  5-O ) :   1.1378 B(  3-P ,  8-S ) :   0.9756 B(  4-S ,  8-S ) :   0.1112
B(  5-O ,  6-C ) :   0.8852 B(  6-C ,  7-C ) :   1.1724 B(  6-C , 24-H ) :   0.9328
B(  6-C , 25-H ) :   0.9140 B(  7-C , 26-H ) :   0.9427 B(  7-C , 27-H ) :   0.9384
B(  7-C , 28-H ) :   0.9372 B(  8-S ,  9-C ) :   0.9993 B(  9-C , 10-S ) :   0.9845
B(  9-C , 29-H ) :   0.8855 B(  9-C , 30-H ) :   0.8739 B( 10-S , 11-P ) :   0.9734
B( 11-P , 12-S ) :   1.6318 B( 11-P , 13-O ) :   1.1107 B( 11-P , 16-O ) :   1.0862
B( 13-O , 14-C ) :   0.9019 B( 14-C , 15-C ) :   1.1616 B( 14-C , 31-H ) :   0.9213
B( 14-C , 32-H ) :   0.9336 B( 15-C , 33-H ) :   0.9313 B( 15-C , 34-H ) :   0.9365
B( 15-C , 35-H ) :   0.9273 B( 16-O , 17-C ) :   0.9082 B( 17-C , 18-C ) :   1.1624
B( 17-C , 36-H ) :   0.9346 B( 17-C , 37-H ) :   0.9150 B( 18-C , 38-H ) :   0.9382
B( 18-C , 39-H ) :   0.9356 B( 18-C , 40-H ) :   0.9470

Dispersion correction           -0.065640560
FINAL SINGLE POINT ENERGY     -2929.525288224133

DIPOLE MOMENT
-------------

Method             : SCF
Type of density    : Electron Density
Multiplicity       :   1
Irrep              :   0
Energy             : -2929.6449445327725698 Eh
Relativity type    :
Basis              : AO
                                X                 Y                 Z
Electronic contribution:     -7.086180990      -3.657254615       2.142288280
Nuclear contribution   :      7.830977465       3.150868477      -1.754695793
                        -----------------------------------------
Total Dipole Moment    :      0.744796475      -0.506386138       0.387592487
                        -----------------------------------------
Magnitude (a.u.)       :      0.980498162
Magnitude (Debye)      :      2.492228268

Rotational constants in cm-1:             0.013597             0.004534             0.004377
Rotational constants in MHz :           407.621365           135.919674           131.228220

                             ****ORCA TERMINATED NORMALLY****
TOTAL RUN TIME: 0 days 0 hours 0 minutes 21 seconds 45 msec
