                         Program Version 6.0.0  -   RELEASE  -
|  1> ! pbe def2-sv(p) def2/J RI DEFGRID1 loosescf d4 GCP(DFT/SV(P)) printgap
|  2> %output
|  3>     printlevel normal
|  4> end
|  5> * xyz 0 1
|  6> C 4.1471955645 -1.7813612606 -1.7862460634
|  7> C 4.6175356247 -1.1121762543 -0.5106200659
|  8> O 3.5385985395 -0.8659325523 0.4066383702
|  9> P 2.3929231632 0.1959332459 0.1123158488
| 10> S 3.0035277074 1.840736387 -0.7561180897
| 11> O 1.8091736017 0.4925034471 1.5458788679
| 12> C 0.9991835902 -0.3886553757 2.3608156224
| 13> C 1.649193135 -1.7337704809 2.6016920376
| 14> S 0.8907209668 -0.9098070921 -0.9289424891
| 15> C 0.0694043693 0.5204905592 -1.6605285551
| 16> S -0.8022793049 1.5366058034 -0.438969673
| 17> P -2.5315389759 0.3237570089 -0.3155179193
| 18> S -3.1922920394 -0.4896913968 -1.9645691861
| 19> O -3.6356915614 1.2790538668 0.3010771467
| 20> C -3.4203023478 2.3210051395 1.2805480426
| 21> C -2.8612434415 1.7915623255 2.5844841649
| 22> O -2.1137016597 -0.7167909967 0.8263340023
| 23> C -2.6343233826 -2.0628975353 0.8903086453
| 24> C -1.6590801393 -3.0524304848 0.2863702666
| 25> H 3.5341045156 -1.0924952181 -2.3652250163
| 26> H 5.0098927445 -2.0648358176 -2.3806020204
| 27> H 3.5602317742 -2.6670109261 -1.5568769836
| 28> H 5.1062902655 -0.1587189902 -0.7345863183
| 29> H 5.2964177405 -1.7534341472 0.0532036535
| 30> H 0.8802474369 0.1738736106 3.2883904579
| 31> H 0.0268622308 -0.5073632544 1.8747300793
| 32> H 2.640919805 -1.6016913704 3.0261393044
| 33> H 1.035814506 -2.3050128052 3.2920868742
| 34> H 1.7405056546 -2.2818637226 1.6657949491
| 35> H -0.6452455444 0.1458869298 -2.3947265006
| 36> H 0.8164192469 1.1683450851 -2.1202766614
| 37> H -2.7516539596 3.0680495507 0.8446116233
| 38> H -4.415405254 2.7492376204 1.4121327522
| 39> H -2.812799508 2.6037813362 3.3031907958
| 40> H -3.4992936163 1.0037296858 2.9761331149
| 41> H -1.8593273115 1.3962660647 2.4307664326
| 42> H -2.785321194 -2.2489713027 1.9548313779
| 43> H -3.5947642516 -2.0999731442 0.3685568238
| 44> H -2.0563813731 -4.0556340451 0.4009912303
| 45> H -1.5216704063 -2.844454719 -0.7726892716
| 46> H -0.6948749927 -2.9868494801 0.7811956008
| 47> *
| 48>
| 49>                          ****END OF INPUT****

CARTESIAN COORDINATES (ANGSTROEM)
---------------------------------
  C      4.147196   -1.781361   -1.786246
  C      4.617536   -1.112176   -0.510620
  O      3.538599   -0.865933    0.406638
  P      2.392923    0.195933    0.112316
  S      3.003528    1.840736   -0.756118
  O      1.809174    0.492503    1.545879
  C      0.999184   -0.388655    2.360816
  C      1.649193   -1.733770    2.601692
  S      0.890721   -0.909807   -0.928942
  C      0.069404    0.520491   -1.660529
  S     -0.802279    1.536606   -0.438970
  P     -2.531539    0.323757   -0.315518
  S     -3.192292   -0.489691   -1.964569
  O     -3.635692    1.279054    0.301077
  C     -3.420302    2.321005    1.280548
  C     -2.861243    1.791562    2.584484
  O     -2.113702   -0.716791    0.826334
  C     -2.634323   -2.062898    0.890309
  C     -1.659080   -3.052430    0.286370
  H      3.534105   -1.092495   -2.365225
  H      5.009893   -2.064836   -2.380602
  H      3.560232   -2.667011   -1.556877
  H      5.106290   -0.158719   -0.734586
  H      5.296418   -1.753434    0.053204
  H      0.880247    0.173874    3.288390
  H      0.026862   -0.507363    1.874730
  H      2.640920   -1.601691    3.026139
  H      1.035815   -2.305013    3.292087
  H      1.740506   -2.281864    1.665795
  H     -0.645246    0.145887   -2.394727
  H      0.816419    1.168345   -2.120277
  H     -2.751654    3.068050    0.844612
  H     -4.415405    2.749238    1.412133
  H     -2.812800    2.603781    3.303191
  H     -3.499294    1.003730    2.976133
  H     -1.859327    1.396266    2.430766
  H     -2.785321   -2.248971    1.954831
  H     -3.594764   -2.099973    0.368557
  H     -2.056381   -4.055634    0.400991
  H     -1.521670   -2.844455   -0.772689
  H     -0.694875   -2.986849    0.781196

 Total Charge           Charge          ....    0
 Multiplicity           Mult            ....    1
 Number of Electrons    NEL             ....  202
 Basis Dimension        Dim             ....  334

ORBITAL ENERGIES
----------------

  NO   OCC          E(Eh)            E(eV)
   0   2.0000     -88.046882     -2395.8775
   1   2.0000     -88.045571     -2395.8418
   2   2.0000     -87.988311     -2394.2837
   3   2.0000     -87.986392     -2394.2315
   4   2.0000     -76.429320     -2079.7475
   5   2.0000     -76.428404     -2079.7226
   6   2.0000     -18.796137      -511.4689
   7   2.0000     -18.795731      -511.4578
   8   2.0000     -18.795503      -511.4516
   9   2.0000     -18.790856      -511.3252
  10   2.0000      -9.963622      -271.1239
  11   2.0000      -9.956596      -270.9327
  12   2.0000      -9.955194      -270.8946
  13   2.0000      -9.954588      -270.8781
  14   2.0000      -9.954263      -270.8693
  15   2.0000      -9.894974      -269.2559
  16   2.0000      -9.890335      -269.1297
  17   2.0000      -9.885636      -269.0018
  18   2.0000      -9.884433      -268.9691
  19   2.0000      -7.691862      -209.3062
  20   2.0000      -7.690114      -209.2586
  21   2.0000      -7.633581      -207.7203
  22   2.0000      -7.631634      -207.6673
  23   2.0000      -6.427232      -174.8939
  24   2.0000      -6.425662      -174.8512
  25   2.0000      -5.719641      -155.6393
  26   2.0000      -5.717814      -155.5896
  27   2.0000      -5.716526      -155.5546
  28   2.0000      -5.714700      -155.5049
  29   2.0000      -5.708793      -155.3442
  30   2.0000      -5.707237      -155.3018
  31   2.0000      -5.662619      -154.0877
  32   2.0000      -5.660584      -154.0323
  33   2.0000      -5.654509      -153.8670
  34   2.0000      -5.653240      -153.8325
  35   2.0000      -5.652191      -153.8039
  36   2.0000      -5.651787      -153.7930
  37   2.0000      -4.650074      -126.5350
  38   2.0000      -4.648776      -126.4996
  39   2.0000      -4.648427      -126.4901
  40   2.0000      -4.647632      -126.4685
  41   2.0000      -4.647483      -126.4644
  42   2.0000      -4.645948      -126.4227
  43   2.0000      -0.988237       -26.8913
  44   2.0000      -0.987069       -26.8595
  45   2.0000      -0.948795       -25.8180
  46   2.0000      -0.946714       -25.7614
  47   2.0000      -0.767976       -20.8977
  48   2.0000      -0.724889       -19.7252
  49   2.0000      -0.714139       -19.4327
  50   2.0000      -0.696878       -18.9630
  51   2.0000      -0.692175       -18.8350
  52   2.0000      -0.678934       -18.4747
  53   2.0000      -0.653128       -17.7725
  54   2.0000      -0.640739       -17.4354
  55   2.0000      -0.601830       -16.3766
  56   2.0000      -0.596133       -16.2216
  57   2.0000      -0.583365       -15.8742
  58   2.0000      -0.577700       -15.7200
  59   2.0000      -0.562173       -15.2975
  60   2.0000      -0.505357       -13.7515
  61   2.0000      -0.492882       -13.4120
  62   2.0000      -0.481903       -13.1132
  63   2.0000      -0.473057       -12.8725
  64   2.0000      -0.463696       -12.6178
  65   2.0000      -0.449450       -12.2302
  66   2.0000      -0.445531       -12.1235
  67   2.0000      -0.440384       -11.9835
  68   2.0000      -0.435973       -11.8634
  69   2.0000      -0.421598       -11.4723
  70   2.0000      -0.409735       -11.1494
  71   2.0000      -0.401100       -10.9145
  72   2.0000      -0.399359       -10.8671
  73   2.0000      -0.389130       -10.5888
  74   2.0000      -0.381987       -10.3944
  75   2.0000      -0.373607       -10.1664
  76   2.0000      -0.371545       -10.1103
  77   2.0000      -0.366414        -9.9706
  78   2.0000      -0.358468        -9.7544
  79   2.0000      -0.355774        -9.6811
  80   2.0000      -0.352128        -9.5819
  81   2.0000      -0.350628        -9.5411
  82   2.0000      -0.347880        -9.4663
  83   2.0000      -0.343263        -9.3407
  84   2.0000      -0.338849        -9.2205
  85   2.0000      -0.321124        -8.7382
  86   2.0000      -0.313074        -8.5192
  87   2.0000      -0.308967        -8.4074
  88   2.0000      -0.295365        -8.0373
  89   2.0000      -0.293165        -7.9774
  90   2.0000      -0.286777        -7.8036
  91   2.0000      -0.281349        -7.6559
  92   2.0000      -0.271110        -7.3773
  93   2.0000      -0.268478        -7.3057
  94   2.0000      -0.263376        -7.1668
  95   2.0000      -0.235520        -6.4088
  96   2.0000      -0.219917        -5.9842
  97   2.0000      -0.213546        -5.8109
  98   2.0000      -0.203984        -5.5507
  99   2.0000      -0.202897        -5.5211
 100   2.0000      -0.201475        -5.4824
 101   0.0000      -0.048019        -1.3067
 102   0.0000      -0.029500        -0.8027
 103   0.0000      -0.008650        -0.2354
 104   0.0000       0.000503         0.0137
 105   0.0000       0.008970         0.2441

MULLIKEN ATOMIC CHARGES
-----------------------
   0 C :   -0.314591
   1 C :   -0.003483
   2 O :   -0.375094
   3 P :    0.604395
   4 S :   -0.316605
   5 O :   -0.354246
   6 C :   -0.065020
   7 C :   -0.304547
   8 S :   -0.103990
   9 C :   -0.356579
  10 S :   -0.090309
  11 P :    0.615872
  12 S :   -0.312028
  13 O :   -0.368353
  14 C :   -0.020308
  15 C :   -0.321163
  16 O :   -0.383262
  17 C :   -0.008996
  18 C :   -0.298134
  19 H :    0.127381
  20 H :    0.114252
  21 H :    0.115428
  22 H :    0.115181
  23 H :    0.105034
  24 H :    0.109061
  25 H :    0.160451
  26 H :    0.122055
  27 H :    0.111142
  28 H :    0.126973
  29 H :    0.192723
  30 H :    0.197519
  31 H :    0.124574
  32 H :    0.116685
  33 H :    0.117694
  34 H :    0.117338
  35 H :    0.137677
  36 H :    0.100194
  37 H :    0.111732
  38 H :    0.108610
  39 H :    0.123935
  40 H :    0.120800
Sum of atomic charges:    0.0000000

LOEWDIN ATOMIC CHARGES
----------------------
   0 C :   -0.369954
   1 C :   -0.118122
   2 O :   -0.242090
   3 P :    0.573023
   4 S :   -0.311817
   5 O :   -0.232587
   6 C :   -0.124701
   7 C :   -0.366247
   8 S :    0.086413
   9 C :   -0.485440
  10 S :    0.092133
  11 P :    0.573019
  12 S :   -0.307756
  13 O :   -0.243829
  14 C :   -0.114672
  15 C :   -0.367536
  16 O :   -0.253296
  17 C :   -0.117458
  18 C :   -0.363616
  19 H :    0.121536
  20 H :    0.131655
  21 H :    0.122967
  22 H :    0.113133
  23 H :    0.118720
  24 H :    0.121195
  25 H :    0.110379
  26 H :    0.128868
  27 H :    0.129667
  28 H :    0.117425
  29 H :    0.129086
  30 H :    0.130255
  31 H :    0.112633
  32 H :    0.125323
  33 H :    0.133614
  34 H :    0.127053
  35 H :    0.123713
  36 H :    0.114778
  37 H :    0.111206
  38 H :    0.129310
  39 H :    0.121918
  40 H :    0.120095

  Mayer bond orders larger than 0.100000
B(  0-C ,  1-C ) :   1.1653 B(  0-C , 19-H ) :   0.9352 B(  0-C , 20-H ) :   0.9375
B(  0-C , 21-H ) :   0.9452 B(  1-C ,  2-O ) :   0.9056 B(  1-C , 22-H ) :   0.9157
B(  1-C , 23-H ) :   0.9339 B(  2-O ,  3-P ) :   1.0918 B(  3-P ,  4-S ) :   1.6212
B(  3-P ,  5-O ) :   1.1522 B(  3-P ,  8-S ) :   0.9349 B(  4-S ,  8-S ) :   0.1079
B(  5-O ,  6-C ) :   0.8961 B(  6-C ,  7-C ) :   1.1722 B(  6-C , 24-H ) :   0.9324
B(  6-C , 25-H ) :   0.8878 B(  7-C , 26-H ) :   0.9411 B(  7-C , 27-H ) :   0.9358
B(  7-C , 28-H ) :   0.9279 B(  8-S ,  9-C ) :   1.0091 B(  9-C , 10-S ) :   1.0089
B(  9-C , 29-H ) :   0.8656 B(  9-C , 30-H ) :   0.8710 B( 10-S , 11-P ) :   0.9652
B( 11-P , 12-S ) :   1.6202 B( 11-P , 13-O ) :   1.1320 B( 11-P , 16-O ) :   1.0674
B( 13-O , 14-C ) :   0.9081 B( 14-C , 15-C ) :   1.1642 B( 14-C , 31-H ) :   0.9199
B( 14-C , 32-H ) :   0.9346 B( 15-C , 33-H ) :   0.9355 B( 15-C , 34-H ) :   0.9451
B( 15-C , 35-H ) :   0.9354 B( 16-O , 17-C ) :   0.8873 B( 17-C , 18-C ) :   1.1733
B( 17-C , 36-H ) :   0.9329 B( 17-C , 37-H ) :   0.9105 B( 18-C , 38-H ) :   0.9373
B( 18-C , 39-H ) :   0.9338 B( 18-C , 40-H ) :   0.9414

Dispersion correction           -0.067230531
FINAL SINGLE POINT ENERGY     -2929.518518489082

DIPOLE MOMENT
-------------

Method             : SCF
Type of density    : Electron Density
Multiplicity       :   1
Irrep              :   0
Energy             : -2929.6383090448916846 Eh
Relativity type    :
Basis              : AO
                                X                 Y                 Z
Electronic contribution:     -2.919225963      14.841589358     -13.195113948
Nuclear contribution   :      2.945615648     -15.866485333      14.744377317
                        -----------------------------------------
Total Dipole Moment    :      0.026389685      -1.024895975       1.549263370
                        -----------------------------------------
Magnitude (a.u.)       :      1.857774250
Magnitude (Debye)      :      4.722086872

Rotational constants in cm-1:             0.012305             0.005090             0.004991
Rotational constants in MHz :           368.902161           152.586317           149.618778

                             ****ORCA TERMINATED NORMALLY****
TOTAL RUN TIME: 0 days 0 hours 0 minutes 22 seconds 65 msec
