                         Program Version 6.0.0  -   RELEASE  -
|  1> ! pbe def2-sv(p) def2/J RI DEFGRID1 loosescf d4 GCP(DFT/SV(P)) printgap
|  2> %output
|  3>     printlevel normal
|  4> end
|  5> * xyz 0 1
|  6> C 2.3349102907 -0.7008823916 -2.9703467948
|  7> C 3.4563855805 -0.3406461729 -2.0173115857
|  8> O 3.2550308088 -0.9190236165 -0.7188187988
|  9> P 2.1730055965 -0.3790025898 0.3124200248
| 10> S 2.0599237518 1.5838506524 0.3923567768
| 11> O 2.5987871654 -1.0765928669 1.6693820629
| 12> C 3.497678674 -0.4477627552 2.6056987436
| 13> C 4.9127594126 -0.3920227595 2.0705991121
| 14> S 0.5032180705 -1.6029238643 -0.1059185264
| 15> C -0.4756599145 -1.3222115752 1.3961612292
| 16> S -1.0715663057 0.386336595 1.6021659966
| 17> P -1.9941238957 0.6599402914 -0.2933334672
| 18> S -0.8821553791 1.1821588177 -1.8161701825
| 19> O -3.0629742916 1.7924532117 -0.0099075643
| 20> C -4.3764720684 1.6061354617 0.5739834667
| 21> C -4.3392127383 1.0088601413 1.964234417
| 22> O -2.7923028304 -0.7114067115 -0.4495706831
| 23> C -2.8156629482 -1.4700976736 -1.6747158885
| 24> C -3.8807603358 -0.9388814757 -2.6122671419
| 25> H 2.1831287923 -1.777193247 -2.9833356068
| 26> H 1.4081501907 -0.2169755622 -2.6602083708
| 27> H 2.5841166552 -0.357346167 -3.9690382159
| 28> H 3.5355066883 0.7464993431 -1.9086313332
| 29> H 4.4118269721 -0.7533702872 -2.3444948999
| 30> H 3.1255459167 0.5593657092 2.8201552267
| 31> H 3.4257570575 -1.0719029085 3.4973927331
| 32> H 5.2383811292 -1.3831943488 1.7663991383
| 33> H 4.9544436918 0.2723922854 1.2084857188
| 34> H 5.5753198414 -0.0117981165 2.8417540442
| 35> H 0.1266816926 -1.5399783148 2.2748475088
| 36> H -1.3263036909 -1.9957478151 1.3261966193
| 37> H -4.784794398 2.6180470431 0.5823575389
| 38> H -4.9593739398 0.9779202684 -0.1028892894
| 39> H -3.6768953033 1.5835281009 2.6073188014
| 40> H -5.3426060369 1.0253115323 2.3787539122
| 41> H -3.9869325899 -0.0192404207 1.9263099587
| 42> H -1.8282483433 -1.4195542802 -2.1425649178
| 43> H -3.0241198972 -2.4926735336 -1.3582633144
| 44> H -3.6535221139 0.0935929797 -2.8759907352
| 45> H -3.8934980688 -1.5376545683 -3.5171813993
| 46> H -4.859255428 -0.979875597 -2.1410681906
| 47> *
| 48>
| 49>                          ****END OF INPUT****

CARTESIAN COORDINATES (ANGSTROEM)
---------------------------------
  C      2.334910   -0.700882   -2.970347
  C      3.456386   -0.340646   -2.017312
  O      3.255031   -0.919024   -0.718819
  P      2.173006   -0.379003    0.312420
  S      2.059924    1.583851    0.392357
  O      2.598787   -1.076593    1.669382
  C      3.497679   -0.447763    2.605699
  C      4.912759   -0.392023    2.070599
  S      0.503218   -1.602924   -0.105919
  C     -0.475660   -1.322212    1.396161
  S     -1.071566    0.386337    1.602166
  P     -1.994124    0.659940   -0.293333
  S     -0.882155    1.182159   -1.816170
  O     -3.062974    1.792453   -0.009908
  C     -4.376472    1.606135    0.573983
  C     -4.339213    1.008860    1.964234
  O     -2.792303   -0.711407   -0.449571
  C     -2.815663   -1.470098   -1.674716
  C     -3.880760   -0.938881   -2.612267
  H      2.183129   -1.777193   -2.983336
  H      1.408150   -0.216976   -2.660208
  H      2.584117   -0.357346   -3.969038
  H      3.535507    0.746499   -1.908631
  H      4.411827   -0.753370   -2.344495
  H      3.125546    0.559366    2.820155
  H      3.425757   -1.071903    3.497393
  H      5.238381   -1.383194    1.766399
  H      4.954444    0.272392    1.208486
  H      5.575320   -0.011798    2.841754
  H      0.126682   -1.539978    2.274848
  H     -1.326304   -1.995748    1.326197
  H     -4.784794    2.618047    0.582358
  H     -4.959374    0.977920   -0.102889
  H     -3.676895    1.583528    2.607319
  H     -5.342606    1.025312    2.378754
  H     -3.986933   -0.019240    1.926310
  H     -1.828248   -1.419554   -2.142565
  H     -3.024120   -2.492674   -1.358263
  H     -3.653522    0.093593   -2.875991
  H     -3.893498   -1.537655   -3.517181
  H     -4.859255   -0.979876   -2.141068

 Total Charge           Charge          ....    0
 Multiplicity           Mult            ....    1
 Number of Electrons    NEL             ....  202
 Basis Dimension        Dim             ....  334

ORBITAL ENERGIES
----------------

  NO   OCC          E(Eh)            E(eV)
   0   2.0000     -88.039144     -2395.6669
   1   2.0000     -88.034922     -2395.5520
   2   2.0000     -87.976413     -2393.9599
   3   2.0000     -87.974424     -2393.9058
   4   2.0000     -76.422972     -2079.5748
   5   2.0000     -76.420186     -2079.4990
   6   2.0000     -18.796439      -511.4771
   7   2.0000     -18.789311      -511.2832
   8   2.0000     -18.787647      -511.2379
   9   2.0000     -18.787084      -511.2225
  10   2.0000      -9.957834      -270.9664
  11   2.0000      -9.957491      -270.9571
  12   2.0000      -9.953245      -270.8416
  13   2.0000      -9.948134      -270.7025
  14   2.0000      -9.945275      -270.6247
  15   2.0000      -9.886866      -269.0353
  16   2.0000      -9.885898      -269.0090
  17   2.0000      -9.880397      -268.8593
  18   2.0000      -9.875257      -268.7194
  19   2.0000      -7.684140      -209.0961
  20   2.0000      -7.679972      -208.9827
  21   2.0000      -7.621187      -207.3830
  22   2.0000      -7.619446      -207.3357
  23   2.0000      -6.420071      -174.6990
  24   2.0000      -6.417716      -174.6349
  25   2.0000      -5.712157      -155.4357
  26   2.0000      -5.708730      -155.3424
  27   2.0000      -5.708099      -155.3253
  28   2.0000      -5.704494      -155.2272
  29   2.0000      -5.700844      -155.1279
  30   2.0000      -5.696622      -155.0130
  31   2.0000      -5.650101      -153.7471
  32   2.0000      -5.648458      -153.7023
  33   2.0000      -5.641662      -153.5174
  34   2.0000      -5.641564      -153.5148
  35   2.0000      -5.639933      -153.4704
  36   2.0000      -5.639578      -153.4607
  37   2.0000      -4.643468      -126.3552
  38   2.0000      -4.641449      -126.3002
  39   2.0000      -4.640300      -126.2690
  40   2.0000      -4.640198      -126.2662
  41   2.0000      -4.639525      -126.2479
  42   2.0000      -4.638087      -126.2088
  43   2.0000      -0.984989       -26.8029
  44   2.0000      -0.982431       -26.7333
  45   2.0000      -0.944628       -25.7046
  46   2.0000      -0.942837       -25.6559
  47   2.0000      -0.760266       -20.6879
  48   2.0000      -0.718475       -19.5507
  49   2.0000      -0.705659       -19.2020
  50   2.0000      -0.692962       -18.8565
  51   2.0000      -0.681853       -18.5542
  52   2.0000      -0.667382       -18.1604
  53   2.0000      -0.648444       -17.6451
  54   2.0000      -0.631470       -17.1832
  55   2.0000      -0.594829       -16.1861
  56   2.0000      -0.587764       -15.9939
  57   2.0000      -0.579473       -15.7683
  58   2.0000      -0.568074       -15.4581
  59   2.0000      -0.560174       -15.2431
  60   2.0000      -0.497524       -13.5383
  61   2.0000      -0.488426       -13.2907
  62   2.0000      -0.477560       -12.9951
  63   2.0000      -0.469916       -12.7871
  64   2.0000      -0.455950       -12.4070
  65   2.0000      -0.445098       -12.1117
  66   2.0000      -0.439541       -11.9605
  67   2.0000      -0.432674       -11.7737
  68   2.0000      -0.422978       -11.5098
  69   2.0000      -0.413513       -11.2523
  70   2.0000      -0.407691       -11.0938
  71   2.0000      -0.395686       -10.7672
  72   2.0000      -0.390070       -10.6144
  73   2.0000      -0.384152       -10.4533
  74   2.0000      -0.382774       -10.4158
  75   2.0000      -0.373990       -10.1768
  76   2.0000      -0.366179        -9.9643
  77   2.0000      -0.356856        -9.7106
  78   2.0000      -0.350875        -9.5478
  79   2.0000      -0.349624        -9.5137
  80   2.0000      -0.347695        -9.4613
  81   2.0000      -0.343913        -9.3583
  82   2.0000      -0.342740        -9.3264
  83   2.0000      -0.335172        -9.1205
  84   2.0000      -0.329579        -8.9683
  85   2.0000      -0.317922        -8.6511
  86   2.0000      -0.305792        -8.3210
  87   2.0000      -0.302219        -8.2238
  88   2.0000      -0.289849        -7.8872
  89   2.0000      -0.287218        -7.8156
  90   2.0000      -0.278434        -7.5766
  91   2.0000      -0.271109        -7.3772
  92   2.0000      -0.268535        -7.3072
  93   2.0000      -0.259211        -7.0535
  94   2.0000      -0.257353        -7.0029
  95   2.0000      -0.244147        -6.6436
  96   2.0000      -0.216709        -5.8969
  97   2.0000      -0.202235        -5.5031
  98   2.0000      -0.186909        -5.0861
  99   2.0000      -0.184095        -5.0095
 100   2.0000      -0.179288        -4.8787
 101   0.0000      -0.046178        -1.2566
 102   0.0000      -0.020780        -0.5655
 103   0.0000      -0.007901        -0.2150
 104   0.0000      -0.001294        -0.0352
 105   0.0000       0.021045         0.5727

MULLIKEN ATOMIC CHARGES
-----------------------
   0 C :   -0.345669
   1 C :   -0.001153
   2 O :   -0.372853
   3 P :    0.618642
   4 S :   -0.296390
   5 O :   -0.377651
   6 C :   -0.004569
   7 C :   -0.303650
   8 S :   -0.100355
   9 C :   -0.343042
  10 S :   -0.087326
  11 P :    0.625676
  12 S :   -0.286223
  13 O :   -0.367811
  14 C :   -0.003273
  15 C :   -0.319182
  16 O :   -0.399775
  17 C :   -0.015785
  18 C :   -0.302492
  19 H :    0.112361
  20 H :    0.160192
  21 H :    0.111418
  22 H :    0.110746
  23 H :    0.101638
  24 H :    0.111140
  25 H :    0.100124
  26 H :    0.115934
  27 H :    0.122957
  28 H :    0.110643
  29 H :    0.186617
  30 H :    0.183489
  31 H :    0.112220
  32 H :    0.105258
  33 H :    0.127660
  34 H :    0.111416
  35 H :    0.125150
  36 H :    0.122262
  37 H :    0.099486
  38 H :    0.126662
  39 H :    0.112766
  40 H :    0.112741
Sum of atomic charges:   -0.0000000

LOEWDIN ATOMIC CHARGES
----------------------
   0 C :   -0.375259
   1 C :   -0.119949
   2 O :   -0.243018
   3 P :    0.567893
   4 S :   -0.300252
   5 O :   -0.245607
   6 C :   -0.120077
   7 C :   -0.364053
   8 S :    0.089290
   9 C :   -0.474159
  10 S :    0.086371
  11 P :    0.569361
  12 S :   -0.290050
  13 O :   -0.244986
  14 C :   -0.108331
  15 C :   -0.372378
  16 O :   -0.255302
  17 C :   -0.123625
  18 C :   -0.363337
  19 H :    0.122181
  20 H :    0.121615
  21 H :    0.131368
  22 H :    0.110238
  23 H :    0.116646
  24 H :    0.110451
  25 H :    0.115793
  26 H :    0.126179
  27 H :    0.123619
  28 H :    0.129684
  29 H :    0.134099
  30 H :    0.131327
  31 H :    0.123429
  32 H :    0.111451
  33 H :    0.126625
  34 H :    0.130095
  35 H :    0.119880
  36 H :    0.109914
  37 H :    0.114493
  38 H :    0.126091
  39 H :    0.131726
  40 H :    0.120565

  Mayer bond orders larger than 0.100000
B(  0-C ,  1-C ) :   1.1658 B(  0-C , 19-H ) :   0.9447 B(  0-C , 20-H ) :   0.9191
B(  0-C , 21-H ) :   0.9380 B(  1-C ,  2-O ) :   0.9075 B(  1-C , 22-H ) :   0.9107
B(  1-C , 23-H ) :   0.9333 B(  2-O ,  3-P ) :   1.1053 B(  3-P ,  4-S ) :   1.6491
B(  3-P ,  5-O ) :   1.1013 B(  3-P ,  8-S ) :   0.9439 B(  4-S ,  8-S ) :   0.1160
B(  5-O ,  6-C ) :   0.9054 B(  6-C ,  7-C ) :   1.1670 B(  6-C , 24-H ) :   0.9124
B(  6-C , 25-H ) :   0.9340 B(  7-C , 26-H ) :   0.9463 B(  7-C , 27-H ) :   0.9363
B(  7-C , 28-H ) :   0.9393 B(  8-S ,  9-C ) :   1.0056 B(  9-C , 10-S ) :   0.9979
B(  9-C , 29-H ) :   0.9017 B(  9-C , 30-H ) :   0.9062 B( 10-S , 11-P ) :   0.9626
B( 10-S , 12-S ) :   0.1050 B( 11-P , 12-S ) :   1.6590 B( 11-P , 13-O ) :   1.1281
B( 11-P , 16-O ) :   1.0435 B( 13-O , 14-C ) :   0.9031 B( 14-C , 15-C ) :   1.1701
B( 14-C , 31-H ) :   0.9351 B( 14-C , 32-H ) :   0.9278 B( 15-C , 33-H ) :   0.9408
B( 15-C , 34-H ) :   0.9336 B( 15-C , 35-H ) :   0.9383 B( 16-O , 17-C ) :   0.8978
B( 17-C , 18-C ) :   1.1664 B( 17-C , 36-H ) :   0.9049 B( 17-C , 37-H ) :   0.9326
B( 18-C , 38-H ) :   0.9360 B( 18-C , 39-H ) :   0.9393 B( 18-C , 40-H ) :   0.9432

Dispersion correction           -0.067655700
FINAL SINGLE POINT ENERGY     -2929.511026980748

DIPOLE MOMENT
-------------

Method             : SCF
Type of density    : Electron Density
Multiplicity       :   1
Irrep              :   0
Energy             : -2929.6281808287749300 Eh
Relativity type    :
Basis              : AO
                                X                 Y                 Z
Electronic contribution:      3.862093475       6.177841574       3.112709115
Nuclear contribution   :     -4.649469619      -7.514432411      -2.614080195
                        -----------------------------------------
Total Dipole Moment    :     -0.787376145      -1.336590837       0.498628920
                        -----------------------------------------
Magnitude (a.u.)       :      1.629437651
Magnitude (Debye)      :      4.141701363

Rotational constants in cm-1:             0.013336             0.005244             0.004612
Rotational constants in MHz :           399.790907           157.210232           138.272530

                             ****ORCA TERMINATED NORMALLY****
TOTAL RUN TIME: 0 days 0 hours 0 minutes 21 seconds 254 msec
