                         Program Version 6.0.0  -   RELEASE  -
|  1> ! pbe def2-sv(p) def2/J RI DEFGRID1 loosescf d4 GCP(DFT/SV(P)) printgap
|  2> %output
|  3>     printlevel normal
|  4> end
|  5> * xyz 0 1
|  6> C 1.6387793962 -1.739262056 3.2350091076
|  7> C 0.6426580151 -1.025901058 2.3425074531
|  8> O 1.3201684002 -0.1519641332 1.4263100774
|  9> P 1.8632213278 -0.6269545173 0.0047904582
| 10> S 1.3513556052 -2.4191651683 -0.5883494355
| 11> O 3.4452196641 -0.5308276849 0.1266365105
| 12> C 4.1583392217 0.4158062562 0.9534665031
| 13> C 3.8578367814 1.8537721946 0.5880957746
| 14> S 1.3933223349 0.9579886558 -1.3293503355
| 15> C 0.2067686877 0.1367561744 -2.4238584458
| 16> S -1.4792983692 0.8278836424 -2.383529269
| 17> P -2.0200095013 0.4602372198 -0.3639784208
| 18> S -3.8986115112 0.8602237011 0.0063516745
| 19> O -0.9650410388 1.2203750627 0.5373601352
| 20> C -1.0307206075 2.6468248717 0.7408491421
| 21> C -0.5526842137 2.9426420774 2.1483111593
| 22> O -1.4785004768 -0.9982814901 -0.0474460378
| 23> C -2.2329480431 -2.1558126468 -0.4681082758
| 24> C -3.0908179431 -2.6747643634 0.6678384907
| 25> H 1.1043848786 -2.3784899729 3.9306811907
| 26> H 2.301790173 -2.3548548555 2.627516508
| 27> H 2.2322566822 -1.0208130322 3.7942803155
| 28> H -0.0238657408 -0.3739376665 2.9090484473
| 29> H 0.0486531658 -1.7462561136 1.773611444
| 30> H 3.9032879666 0.2202728553 1.9976682616
| 31> H 5.2047888586 0.1637706939 0.7754561251
| 32> H 4.0742566475 2.0346291246 -0.4616514215
| 33> H 2.8065227405 2.0730436575 0.7696447752
| 34> H 4.467527144 2.5120915048 1.1992476244
| 35> H 0.1849579768 -0.9279661323 -2.1770854971
| 36> H 0.537938053 0.2915926002 -3.4477519383
| 37> H -0.3844736321 3.1164050961 -0.0065769979
| 38> H -2.0633693667 2.9808913787 0.5910871565
| 39> H -1.2334367962 2.5065555378 2.8744708526
| 40> H 0.4384768136 2.5219372368 2.2950126106
| 41> H -0.5142687782 4.0171431579 2.2933125822
| 42> H -2.8501469493 -1.8906212219 -1.3328563117
| 43> H -1.4782357825 -2.8883211256 -0.7668880646
| 44> H -2.4702326615 -2.9203893829 1.525024719
| 45> H -3.8179705491 -1.9205584842 0.9615111663
| 46> H -3.6153050449 -3.5654684933 0.3374536448
| 47> *
| 48>
| 49>                          ****END OF INPUT****

CARTESIAN COORDINATES (ANGSTROEM)
---------------------------------
  C      1.638779   -1.739262    3.235009
  C      0.642658   -1.025901    2.342507
  O      1.320168   -0.151964    1.426310
  P      1.863221   -0.626955    0.004790
  S      1.351356   -2.419165   -0.588349
  O      3.445220   -0.530828    0.126637
  C      4.158339    0.415806    0.953467
  C      3.857837    1.853772    0.588096
  S      1.393322    0.957989   -1.329350
  C      0.206769    0.136756   -2.423858
  S     -1.479298    0.827884   -2.383529
  P     -2.020010    0.460237   -0.363978
  S     -3.898612    0.860224    0.006352
  O     -0.965041    1.220375    0.537360
  C     -1.030721    2.646825    0.740849
  C     -0.552684    2.942642    2.148311
  O     -1.478500   -0.998281   -0.047446
  C     -2.232948   -2.155813   -0.468108
  C     -3.090818   -2.674764    0.667838
  H      1.104385   -2.378490    3.930681
  H      2.301790   -2.354855    2.627517
  H      2.232257   -1.020813    3.794280
  H     -0.023866   -0.373938    2.909048
  H      0.048653   -1.746256    1.773611
  H      3.903288    0.220273    1.997668
  H      5.204789    0.163771    0.775456
  H      4.074257    2.034629   -0.461651
  H      2.806523    2.073044    0.769645
  H      4.467527    2.512092    1.199248
  H      0.184958   -0.927966   -2.177085
  H      0.537938    0.291593   -3.447752
  H     -0.384474    3.116405   -0.006577
  H     -2.063369    2.980891    0.591087
  H     -1.233437    2.506556    2.874471
  H      0.438477    2.521937    2.295013
  H     -0.514269    4.017143    2.293313
  H     -2.850147   -1.890621   -1.332856
  H     -1.478236   -2.888321   -0.766888
  H     -2.470233   -2.920389    1.525025
  H     -3.817971   -1.920558    0.961511
  H     -3.615305   -3.565468    0.337454

 Total Charge           Charge          ....    0
 Multiplicity           Mult            ....    1
 Number of Electrons    NEL             ....  202
 Basis Dimension        Dim             ....  334

ORBITAL ENERGIES
----------------

  NO   OCC          E(Eh)            E(eV)
   0   2.0000     -88.044966     -2395.8253
   1   2.0000     -88.040137     -2395.6939
   2   2.0000     -87.991826     -2394.3793
   3   2.0000     -87.985251     -2394.2004
   4   2.0000     -76.431197     -2079.7986
   5   2.0000     -76.426300     -2079.6653
   6   2.0000     -18.796765      -511.4860
   7   2.0000     -18.795318      -511.4466
   8   2.0000     -18.792313      -511.3648
   9   2.0000     -18.791065      -511.3309
  10   2.0000      -9.962822      -271.1022
  11   2.0000      -9.954842      -270.8850
  12   2.0000      -9.951555      -270.7956
  13   2.0000      -9.951397      -270.7913
  14   2.0000      -9.949913      -270.7509
  15   2.0000      -9.897796      -269.3327
  16   2.0000      -9.889188      -269.0985
  17   2.0000      -9.889050      -269.0947
  18   2.0000      -9.880683      -268.8671
  19   2.0000      -7.689700      -209.2474
  20   2.0000      -7.685577      -209.1352
  21   2.0000      -7.636894      -207.8105
  22   2.0000      -7.630664      -207.6409
  23   2.0000      -6.428803      -174.9366
  24   2.0000      -6.423821      -174.8011
  25   2.0000      -5.717670      -155.5857
  26   2.0000      -5.714344      -155.4952
  27   2.0000      -5.713664      -155.4767
  28   2.0000      -5.709577      -155.3655
  29   2.0000      -5.706441      -155.2802
  30   2.0000      -5.702845      -155.1823
  31   2.0000      -5.665901      -154.1770
  32   2.0000      -5.659603      -154.0056
  33   2.0000      -5.657609      -153.9514
  34   2.0000      -5.656762      -153.9283
  35   2.0000      -5.651321      -153.7803
  36   2.0000      -5.650706      -153.7635
  37   2.0000      -4.651673      -126.5785
  38   2.0000      -4.649982      -126.5324
  39   2.0000      -4.649597      -126.5220
  40   2.0000      -4.646227      -126.4303
  41   2.0000      -4.646109      -126.4271
  42   2.0000      -4.643930      -126.3678
  43   2.0000      -0.991551       -26.9815
  44   2.0000      -0.987877       -26.8815
  45   2.0000      -0.946786       -25.7634
  46   2.0000      -0.945716       -25.7342
  47   2.0000      -0.761182       -20.7128
  48   2.0000      -0.724422       -19.7125
  49   2.0000      -0.713382       -19.4121
  50   2.0000      -0.696593       -18.9553
  51   2.0000      -0.683962       -18.6116
  52   2.0000      -0.678977       -18.4759
  53   2.0000      -0.655569       -17.8389
  54   2.0000      -0.638694       -17.3797
  55   2.0000      -0.601789       -16.3755
  56   2.0000      -0.593924       -16.1615
  57   2.0000      -0.582990       -15.8640
  58   2.0000      -0.564204       -15.3528
  59   2.0000      -0.559136       -15.2149
  60   2.0000      -0.508056       -13.8249
  61   2.0000      -0.497707       -13.5433
  62   2.0000      -0.482460       -13.1284
  63   2.0000      -0.477820       -13.0022
  64   2.0000      -0.452592       -12.3156
  65   2.0000      -0.449892       -12.2422
  66   2.0000      -0.443406       -12.0657
  67   2.0000      -0.439747       -11.9661
  68   2.0000      -0.431565       -11.7435
  69   2.0000      -0.423476       -11.5234
  70   2.0000      -0.412051       -11.2125
  71   2.0000      -0.399097       -10.8600
  72   2.0000      -0.393597       -10.7103
  73   2.0000      -0.391229       -10.6459
  74   2.0000      -0.379368       -10.3231
  75   2.0000      -0.376837       -10.2543
  76   2.0000      -0.363921        -9.9028
  77   2.0000      -0.361786        -9.8447
  78   2.0000      -0.359683        -9.7875
  79   2.0000      -0.355894        -9.6844
  80   2.0000      -0.354288        -9.6407
  81   2.0000      -0.348538        -9.4842
  82   2.0000      -0.343641        -9.3509
  83   2.0000      -0.338862        -9.2209
  84   2.0000      -0.330492        -8.9931
  85   2.0000      -0.324125        -8.8199
  86   2.0000      -0.315167        -8.5761
  87   2.0000      -0.307408        -8.3650
  88   2.0000      -0.301172        -8.1953
  89   2.0000      -0.296292        -8.0625
  90   2.0000      -0.286904        -7.8070
  91   2.0000      -0.277124        -7.5409
  92   2.0000      -0.267514        -7.2794
  93   2.0000      -0.263957        -7.1826
  94   2.0000      -0.257366        -7.0033
  95   2.0000      -0.234310        -6.3759
  96   2.0000      -0.221677        -6.0321
  97   2.0000      -0.212939        -5.7944
  98   2.0000      -0.205976        -5.6049
  99   2.0000      -0.201345        -5.4789
 100   2.0000      -0.200509        -5.4561
 101   0.0000      -0.040187        -1.0935
 102   0.0000      -0.028634        -0.7792
 103   0.0000      -0.016970        -0.4618
 104   0.0000      -0.002238        -0.0609
 105   0.0000       0.008184         0.2227

MULLIKEN ATOMIC CHARGES
-----------------------
   0 C :   -0.301860
   1 C :   -0.030629
   2 O :   -0.384539
   3 P :    0.645115
   4 S :   -0.314438
   5 O :   -0.369812
   6 C :   -0.001081
   7 C :   -0.353911
   8 S :   -0.110891
   9 C :   -0.342762
  10 S :   -0.094136
  11 P :    0.581660
  12 S :   -0.315080
  13 O :   -0.356669
  14 C :   -0.002190
  15 C :   -0.303531
  16 O :   -0.367056
  17 C :   -0.016996
  18 C :   -0.287594
  19 H :    0.112904
  20 H :    0.122576
  21 H :    0.113714
  22 H :    0.105713
  23 H :    0.137916
  24 H :    0.107125
  25 H :    0.113160
  26 H :    0.133513
  27 H :    0.146848
  28 H :    0.118931
  29 H :    0.200383
  30 H :    0.182796
  31 H :    0.100625
  32 H :    0.105214
  33 H :    0.118549
  34 H :    0.129897
  35 H :    0.110548
  36 H :    0.103824
  37 H :    0.115979
  38 H :    0.112666
  39 H :    0.125116
  40 H :    0.108400
Sum of atomic charges:    0.0000000

LOEWDIN ATOMIC CHARGES
----------------------
   0 C :   -0.361705
   1 C :   -0.121828
   2 O :   -0.242222
   3 P :    0.583981
   4 S :   -0.287701
   5 O :   -0.246494
   6 C :   -0.111354
   7 C :   -0.375412
   8 S :    0.093077
   9 C :   -0.484452
  10 S :    0.065931
  11 P :    0.555641
  12 S :   -0.318944
  13 O :   -0.234164
  14 C :   -0.120714
  15 C :   -0.353630
  16 O :   -0.235181
  17 C :   -0.123240
  18 C :   -0.360333
  19 H :    0.131414
  20 H :    0.125106
  21 H :    0.120294
  22 H :    0.116390
  23 H :    0.111086
  24 H :    0.111073
  25 H :    0.124091
  26 H :    0.129235
  27 H :    0.119444
  28 H :    0.134287
  29 H :    0.122943
  30 H :    0.139823
  31 H :    0.105811
  32 H :    0.107814
  33 H :    0.126986
  34 H :    0.124915
  35 H :    0.129954
  36 H :    0.108841
  37 H :    0.112628
  38 H :    0.122661
  39 H :    0.124069
  40 H :    0.129879

  Mayer bond orders larger than 0.100000
B(  0-C ,  1-C ) :   1.1560 B(  0-C , 19-H ) :   0.9404 B(  0-C , 20-H ) :   0.9412
B(  0-C , 21-H ) :   0.9421 B(  1-C ,  2-O ) :   0.8960 B(  1-C , 22-H ) :   0.9306
B(  1-C , 23-H ) :   0.9024 B(  2-O ,  3-P ) :   1.0813 B(  3-P ,  4-S ) :   1.6096
B(  3-P ,  5-O ) :   1.1161 B(  3-P ,  8-S ) :   0.9601 B(  4-S ,  8-S ) :   0.1104
B(  4-S , 29-H ) :   0.1112 B(  5-O ,  6-C ) :   0.9105 B(  6-C ,  7-C ) :   1.1686
B(  6-C , 24-H ) :   0.9248 B(  6-C , 25-H ) :   0.9330 B(  7-C , 26-H ) :   0.9385
B(  7-C , 27-H ) :   0.9270 B(  7-C , 28-H ) :   0.9345 B(  8-S ,  9-C ) :   1.0119
B(  9-C , 10-S ) :   0.9708 B(  9-C , 29-H ) :   0.8504 B(  9-C , 30-H ) :   0.9104
B( 10-S , 11-P ) :   0.9773 B( 11-P , 12-S ) :   1.6586 B( 11-P , 13-O ) :   1.1071
B( 11-P , 16-O ) :   1.0887 B( 13-O , 14-C ) :   0.9063 B( 14-C , 15-C ) :   1.1660
B( 14-C , 31-H ) :   0.9218 B( 14-C , 32-H ) :   0.9064 B( 15-C , 33-H ) :   0.9474
B( 15-C , 34-H ) :   0.9422 B( 15-C , 35-H ) :   0.9409 B( 16-O , 17-C ) :   0.8900
B( 17-C , 18-C ) :   1.1713 B( 17-C , 36-H ) :   0.9118 B( 17-C , 37-H ) :   0.9162
B( 18-C , 38-H ) :   0.9486 B( 18-C , 39-H ) :   0.9324 B( 18-C , 40-H ) :   0.9397

Dispersion correction           -0.069048226
FINAL SINGLE POINT ENERGY     -2929.517994088272

DIPOLE MOMENT
-------------

Method             : SCF
Type of density    : Electron Density
Multiplicity       :   1
Irrep              :   0
Energy             : -2929.6385057792404041 Eh
Relativity type    :
Basis              : AO
                                X                 Y                 Z
Electronic contribution:     -7.309296750      -0.106898506     -20.605360780
Nuclear contribution   :      8.556840325       0.558363912      21.548935027
                        -----------------------------------------
Total Dipole Moment    :      1.247543575       0.451465406       0.943574247
                        -----------------------------------------
Magnitude (a.u.)       :      1.628041260
Magnitude (Debye)      :      4.138152018

Rotational constants in cm-1:             0.010849             0.006280             0.005905
Rotational constants in MHz :           325.241704           188.284566           177.028852

                             ****ORCA TERMINATED NORMALLY****
TOTAL RUN TIME: 0 days 0 hours 0 minutes 24 seconds 714 msec
