                         Program Version 6.0.0  -   RELEASE  -
|  1> ! pbe def2-sv(p) def2/J RI DEFGRID1 loosescf d4 GCP(DFT/SV(P)) printgap
|  2> %output
|  3>     printlevel normal
|  4> end
|  5> * xyz 0 1
|  6> C 4.2883834772 0.7561706314 -2.2629353256
|  7> C 4.5855144598 0.1641500332 -0.9015076525
|  8> O 3.6162704617 0.5401853012 0.0946535201
|  9> P 2.0441946559 0.3385709197 -0.0217766637
| 10> S 1.0248506079 1.6142049384 -1.1063819051
| 11> O 1.6139877734 0.4523263977 1.4904945131
| 12> C 2.2351340369 -0.3400053081 2.5408327945
| 13> C 1.1647079661 -0.7793395654 3.5182308465
| 14> S 1.8757347571 -1.7101156722 -0.5743519223
| 15> C 0.1247117507 -1.7017866499 -1.0017311168
| 16> S -0.944352373 -1.4008930434 0.4423114811
| 17> P -2.1696844227 0.1760599907 -0.2959268366
| 18> S -2.1997373336 0.4340726648 -2.2324059727
| 19> O -1.7693559178 1.458873552 0.5275256376
| 20> C -1.8435291838 1.4933063581 1.9762393494
| 21> C -0.9391200049 2.6060202479 2.4615479435
| 22> O -3.5872794521 -0.1559568657 0.356458652
| 23> C -4.5664553563 -0.994576185 -0.2821905505
| 24> C -4.0987522132 -2.4278633139 -0.4307144377
| 25> H 5.0889597078 0.5031293544 -2.9504483435
| 26> H 3.3500333529 0.3600753872 -2.649372029
| 27> H 4.1982415868 1.8379460658 -2.1956757269
| 28> H 5.5260253499 0.543487681 -0.4981938275
| 29> H 4.6146106947 -0.9276962127 -0.952792563
| 30> H 2.7334267083 -1.2008263539 2.0863839473
| 31> H 2.9790347283 0.3007879015 3.0166541048
| 32> H 0.4355529249 -1.4127759899 3.0185524376
| 33> H 1.6317490088 -1.339726163 4.3216541206
| 34> H 0.6577527736 0.0871522852 3.932910758
| 35> H -0.093373819 -2.6922044041 -1.393297646
| 36> H -0.0776876592 -0.9271756465 -1.7469604126
| 37> H -2.8861518913 1.6685804412 2.248671473
| 38> H -1.525844667 0.5201116742 2.3633228724
| 39> H 0.0867435857 2.4082128706 2.1598040034
| 40> H -1.2488027618 3.5523848402 2.0270488335
| 41> H -0.9958613021 2.6677549735 3.5435916856
| 42> H -5.4348992128 -0.9194515657 0.3737818668
| 43> H -4.7991247049 -0.5642830221 -1.2609881122
| 44> H -4.9226329587 -3.0346890182 -0.7922188263
| 45> H -3.2840078193 -2.4774906768 -1.1516978966
| 46> H -3.7537538381 -2.8166078941 0.5240083358
| 47> *
| 48>
| 49>                          ****END OF INPUT****

CARTESIAN COORDINATES (ANGSTROEM)
---------------------------------
  C      4.288383    0.756171   -2.262935
  C      4.585514    0.164150   -0.901508
  O      3.616270    0.540185    0.094654
  P      2.044195    0.338571   -0.021777
  S      1.024851    1.614205   -1.106382
  O      1.613988    0.452326    1.490495
  C      2.235134   -0.340005    2.540833
  C      1.164708   -0.779340    3.518231
  S      1.875735   -1.710116   -0.574352
  C      0.124712   -1.701787   -1.001731
  S     -0.944352   -1.400893    0.442311
  P     -2.169684    0.176060   -0.295927
  S     -2.199737    0.434073   -2.232406
  O     -1.769356    1.458874    0.527526
  C     -1.843529    1.493306    1.976239
  C     -0.939120    2.606020    2.461548
  O     -3.587279   -0.155957    0.356459
  C     -4.566455   -0.994576   -0.282191
  C     -4.098752   -2.427863   -0.430714
  H      5.088960    0.503129   -2.950448
  H      3.350033    0.360075   -2.649372
  H      4.198242    1.837946   -2.195676
  H      5.526025    0.543488   -0.498194
  H      4.614611   -0.927696   -0.952793
  H      2.733427   -1.200826    2.086384
  H      2.979035    0.300788    3.016654
  H      0.435553   -1.412776    3.018552
  H      1.631749   -1.339726    4.321654
  H      0.657753    0.087152    3.932911
  H     -0.093374   -2.692204   -1.393298
  H     -0.077688   -0.927176   -1.746960
  H     -2.886152    1.668580    2.248671
  H     -1.525845    0.520112    2.363323
  H      0.086744    2.408213    2.159804
  H     -1.248803    3.552385    2.027049
  H     -0.995861    2.667755    3.543592
  H     -5.434899   -0.919452    0.373782
  H     -4.799125   -0.564283   -1.260988
  H     -4.922633   -3.034689   -0.792219
  H     -3.284008   -2.477491   -1.151698
  H     -3.753754   -2.816608    0.524008

 Total Charge           Charge          ....    0
 Multiplicity           Mult            ....    1
 Number of Electrons    NEL             ....  202
 Basis Dimension        Dim             ....  334

ORBITAL ENERGIES
----------------

  NO   OCC          E(Eh)            E(eV)
   0   2.0000     -88.046940     -2395.8790
   1   2.0000     -88.039484     -2395.6762
   2   2.0000     -87.981021     -2394.0853
   3   2.0000     -87.977710     -2393.9952
   4   2.0000     -76.423498     -2079.5891
   5   2.0000     -76.420293     -2079.5019
   6   2.0000     -18.793111      -511.3866
   7   2.0000     -18.790337      -511.3111
   8   2.0000     -18.785854      -511.1891
   9   2.0000     -18.781028      -511.0577
  10   2.0000      -9.959216      -271.0040
  11   2.0000      -9.956701      -270.9356
  12   2.0000      -9.954635      -270.8794
  13   2.0000      -9.948891      -270.7231
  14   2.0000      -9.947860      -270.6950
  15   2.0000      -9.889792      -269.1149
  16   2.0000      -9.882080      -268.9051
  17   2.0000      -9.881452      -268.8880
  18   2.0000      -9.875538      -268.7271
  19   2.0000      -7.691894      -209.3071
  20   2.0000      -7.683981      -209.0918
  21   2.0000      -7.626206      -207.5196
  22   2.0000      -7.622538      -207.4198
  23   2.0000      -6.420691      -174.7159
  24   2.0000      -6.417648      -174.6331
  25   2.0000      -5.719650      -155.6396
  26   2.0000      -5.716131      -155.5438
  27   2.0000      -5.711861      -155.4276
  28   2.0000      -5.709307      -155.3581
  29   2.0000      -5.708480      -155.3357
  30   2.0000      -5.700985      -155.1317
  31   2.0000      -5.655262      -153.8875
  32   2.0000      -5.651736      -153.7916
  33   2.0000      -5.646703      -153.6546
  34   2.0000      -5.646312      -153.6440
  35   2.0000      -5.642997      -153.5538
  36   2.0000      -5.642624      -153.5436
  37   2.0000      -4.643501      -126.3561
  38   2.0000      -4.642816      -126.3374
  39   2.0000      -4.640609      -126.2774
  40   2.0000      -4.640407      -126.2719
  41   2.0000      -4.639251      -126.2404
  42   2.0000      -4.638148      -126.2104
  43   2.0000      -0.988320       -26.8936
  44   2.0000      -0.980726       -26.6869
  45   2.0000      -0.943934       -25.6857
  46   2.0000      -0.935428       -25.4543
  47   2.0000      -0.762269       -20.7424
  48   2.0000      -0.719051       -19.5664
  49   2.0000      -0.709392       -19.3036
  50   2.0000      -0.690840       -18.7987
  51   2.0000      -0.683504       -18.5991
  52   2.0000      -0.675953       -18.3936
  53   2.0000      -0.648031       -17.6338
  54   2.0000      -0.632140       -17.2014
  55   2.0000      -0.591757       -16.1025
  56   2.0000      -0.585339       -15.9279
  57   2.0000      -0.573452       -15.6044
  58   2.0000      -0.564568       -15.3627
  59   2.0000      -0.563078       -15.3221
  60   2.0000      -0.508563       -13.8387
  61   2.0000      -0.498455       -13.5637
  62   2.0000      -0.474231       -12.9045
  63   2.0000      -0.467319       -12.7164
  64   2.0000      -0.453589       -12.3428
  65   2.0000      -0.449199       -12.2233
  66   2.0000      -0.437374       -11.9016
  67   2.0000      -0.433748       -11.8029
  68   2.0000      -0.430596       -11.7171
  69   2.0000      -0.420965       -11.4550
  70   2.0000      -0.413714       -11.2577
  71   2.0000      -0.395866       -10.7721
  72   2.0000      -0.388946       -10.5838
  73   2.0000      -0.384726       -10.4689
  74   2.0000      -0.384106       -10.4521
  75   2.0000      -0.361213        -9.8291
  76   2.0000      -0.358780        -9.7629
  77   2.0000      -0.353796        -9.6273
  78   2.0000      -0.350784        -9.5453
  79   2.0000      -0.347824        -9.4648
  80   2.0000      -0.346071        -9.4171
  81   2.0000      -0.343828        -9.3560
  82   2.0000      -0.340196        -9.2572
  83   2.0000      -0.334928        -9.1139
  84   2.0000      -0.328430        -8.9370
  85   2.0000      -0.318502        -8.6669
  86   2.0000      -0.306770        -8.3476
  87   2.0000      -0.298439        -8.1209
  88   2.0000      -0.295707        -8.0466
  89   2.0000      -0.293344        -7.9823
  90   2.0000      -0.290467        -7.9040
  91   2.0000      -0.277756        -7.5581
  92   2.0000      -0.263368        -7.1666
  93   2.0000      -0.260333        -7.0840
  94   2.0000      -0.255141        -6.9427
  95   2.0000      -0.236593        -6.4380
  96   2.0000      -0.218214        -5.9379
  97   2.0000      -0.211068        -5.7435
  98   2.0000      -0.197966        -5.3869
  99   2.0000      -0.189930        -5.1683
 100   2.0000      -0.182661        -4.9705
 101   0.0000      -0.041404        -1.1267
 102   0.0000      -0.032223        -0.8768
 103   0.0000      -0.010863        -0.2956
 104   0.0000       0.008790         0.2392
 105   0.0000       0.019604         0.5335

MULLIKEN ATOMIC CHARGES
-----------------------
   0 C :   -0.309026
   1 C :   -0.010850
   2 O :   -0.380914
   3 P :    0.578412
   4 S :   -0.269558
   5 O :   -0.352004
   6 C :   -0.005988
   7 C :   -0.299824
   8 S :   -0.123569
   9 C :   -0.341241
  10 S :   -0.126686
  11 P :    0.613681
  12 S :   -0.290895
  13 O :   -0.346847
  14 C :   -0.019444
  15 C :   -0.289565
  16 O :   -0.389686
  17 C :    0.002775
  18 C :   -0.311023
  19 H :    0.110491
  20 H :    0.128422
  21 H :    0.127997
  22 H :    0.108593
  23 H :    0.111133
  24 H :    0.098445
  25 H :    0.109836
  26 H :    0.132709
  27 H :    0.109663
  28 H :    0.123462
  29 H :    0.179738
  30 H :    0.209539
  31 H :    0.104965
  32 H :    0.101433
  33 H :    0.139073
  34 H :    0.119133
  35 H :    0.099967
  36 H :    0.101639
  37 H :    0.110975
  38 H :    0.110742
  39 H :    0.118550
  40 H :    0.115750
Sum of atomic charges:   -0.0000000

LOEWDIN ATOMIC CHARGES
----------------------
   0 C :   -0.368963
   1 C :   -0.114846
   2 O :   -0.248960
   3 P :    0.556101
   4 S :   -0.278326
   5 O :   -0.233873
   6 C :   -0.114218
   7 C :   -0.357385
   8 S :    0.060415
   9 C :   -0.479028
  10 S :    0.067447
  11 P :    0.574651
  12 S :   -0.292522
  13 O :   -0.229048
  14 C :   -0.112047
  15 C :   -0.356806
  16 O :   -0.253990
  17 C :   -0.116599
  18 C :   -0.371046
  19 H :    0.129661
  20 H :    0.122547
  21 H :    0.131313
  22 H :    0.120990
  23 H :    0.106972
  24 H :    0.102611
  25 H :    0.117571
  26 H :    0.122147
  27 H :    0.129800
  28 H :    0.127069
  29 H :    0.134593
  30 H :    0.125845
  31 H :    0.113083
  32 H :    0.101439
  33 H :    0.130177
  34 H :    0.129947
  35 H :    0.124170
  36 H :    0.117146
  37 H :    0.111847
  38 H :    0.129451
  39 H :    0.118651
  40 H :    0.122014

  Mayer bond orders larger than 0.100000
B(  0-C ,  1-C ) :   1.1660 B(  0-C , 19-H ) :   0.9348 B(  0-C , 20-H ) :   0.9323
B(  0-C , 21-H ) :   0.9431 B(  1-C ,  2-O ) :   0.9154 B(  1-C , 22-H ) :   0.9336
B(  1-C , 23-H ) :   0.9268 B(  2-O ,  3-P ) :   1.0809 B(  3-P ,  4-S ) :   1.6834
B(  3-P ,  5-O ) :   1.1146 B(  3-P ,  8-S ) :   0.9264 B(  4-S ,  8-S ) :   0.1082
B(  5-O ,  6-C ) :   0.8831 B(  6-C ,  7-C ) :   1.1680 B(  6-C , 24-H ) :   0.9105
B(  6-C , 25-H ) :   0.9341 B(  7-C , 26-H ) :   0.9361 B(  7-C , 27-H ) :   0.9386
B(  7-C , 28-H ) :   0.9434 B(  8-S ,  9-C ) :   1.0030 B(  9-C , 10-S ) :   0.9971
B(  9-C , 29-H ) :   0.9096 B(  9-C , 30-H ) :   0.8440 B( 10-S , 11-P ) :   0.9415
B( 10-S , 12-S ) :   0.1128 B( 11-P , 12-S ) :   1.6320 B( 11-P , 13-O ) :   1.1431
B( 11-P , 16-O ) :   1.0697 B( 13-O , 14-C ) :   0.8950 B( 14-C , 15-C ) :   1.1678
B( 14-C , 31-H ) :   0.9303 B( 14-C , 32-H ) :   0.9109 B( 15-C , 33-H ) :   0.9320
B( 15-C , 34-H ) :   0.9467 B( 15-C , 35-H ) :   0.9379 B( 16-O , 17-C ) :   0.9156
B( 17-C , 18-C ) :   1.1661 B( 17-C , 36-H ) :   0.9347 B( 17-C , 37-H ) :   0.9184
B( 18-C , 38-H ) :   0.9372 B( 18-C , 39-H ) :   0.9369 B( 18-C , 40-H ) :   0.9424

Dispersion correction           -0.068061955
FINAL SINGLE POINT ENERGY     -2929.516102098653

DIPOLE MOMENT
-------------

Method             : SCF
Type of density    : Electron Density
Multiplicity       :   1
Irrep              :   0
Energy             : -2929.6341625958243640 Eh
Relativity type    :
Basis              : AO
                                X                 Y                 Z
Electronic contribution:     -1.610081648       2.777243619     -12.141791044
Nuclear contribution   :      2.256325080      -4.019508967      13.578523658
                        -----------------------------------------
Total Dipole Moment    :      0.646243433      -1.242265348       1.436732614
                        -----------------------------------------
Magnitude (a.u.)       :      2.006253815
Magnitude (Debye)      :      5.099491936

Rotational constants in cm-1:             0.011979             0.005608             0.005195
Rotational constants in MHz :           359.128067           168.126043           155.730813

                             ****ORCA TERMINATED NORMALLY****
TOTAL RUN TIME: 0 days 0 hours 0 minutes 21 seconds 432 msec
