                         Program Version 6.0.0  -   RELEASE  -
|  1> ! wb97x-v def2-tzvp def2/J RIJCOSX DEFGRID2 scfconv7 GCP(DFT/TZ) printgap
|  2> %output
|  3>     printlevel normal
|  4> end
|  5> * xyz 0 1
|  6> C -1.275867732207561 0.6939448080973176 -0.006526109734103488
|  7> C -6.954778506232435e-06 -0.09308578772586566 6.482628132704717e-05
|  8> O 0.0001373739018118863 -1.3216056402760648 0.00011694137841083238
|  9> C 1.2757139125051637 0.6941984804178893 0.006525255159380598
| 10> H -1.4064713835522424 1.142548201154037 0.9865988503693292
| 11> H -1.2125035802467048 1.5235421362308095 -0.717964308538358
| 12> H -2.1324447095507595 0.05629458057238149 -0.23008927695515066
| 13> H 1.4070183333007356 1.1410805247437488 -0.9872944387885937
| 14> H 2.1322158561800544 0.05699977681463439 0.23167741349078907
| 15> H 1.2117728338935285 1.524968119465823 0.7165163646050607
| 16> *
| 17>
| 18>                          ****END OF INPUT****

CARTESIAN COORDINATES (ANGSTROEM)
---------------------------------
  C     -1.275868    0.693945   -0.006526
  C     -0.000007   -0.093086    0.000065
  O      0.000137   -1.321606    0.000117
  C      1.275714    0.694198    0.006525
  H     -1.406471    1.142548    0.986599
  H     -1.212504    1.523542   -0.717964
  H     -2.132445    0.056295   -0.230089
  H      1.407018    1.141081   -0.987294
  H      2.132216    0.057000    0.231677
  H      1.211773    1.524968    0.716516

 Total Charge           Charge          ....    0
 Multiplicity           Mult            ....    1
 Number of Electrons    NEL             ....   32
 Basis Dimension        Dim             ....  160

ORBITAL ENERGIES
----------------

  NO   OCC          E(Eh)            E(eV)
   0   2.0000     -21.658612      -589.3608
   1   2.0000     -12.141442      -330.3854
   2   2.0000     -12.055046      -328.0345
   3   2.0000     -12.054557      -328.0212
   4   2.0000      -1.701148       -46.2906
   5   2.0000      -1.294580       -35.2273
   6   2.0000      -1.216170       -33.0937
   7   2.0000      -1.080504       -29.4020
   8   2.0000      -0.965800       -26.2808
   9   2.0000      -0.962742       -26.1975
  10   2.0000      -0.914389       -24.8818
  11   2.0000      -0.848537       -23.0899
  12   2.0000      -0.832422       -22.6514
  13   2.0000      -0.832159       -22.6442
  14   2.0000      -0.830970       -22.6118
  15   2.0000      -0.794956       -21.6319
  16   0.0000      -0.306724        -8.3464
  17   0.0000      -0.045205        -1.2301
  18   0.0000      -0.020477        -0.5572
  19   0.0000      -0.003748        -0.1020
  20   0.0000       0.013273         0.3612

MULLIKEN ATOMIC CHARGES
-----------------------
   0 C :   -0.326988
   1 C :    0.205016
   2 O :   -0.319737
   3 C :   -0.326991
   4 H :    0.129198
   5 H :    0.119735
   6 H :    0.135412
   7 H :    0.129217
   8 H :    0.135427
   9 H :    0.119712
Sum of atomic charges:    0.0000000

LOEWDIN ATOMIC CHARGES
----------------------
   0 C :   -0.263108
   1 C :   -0.370757
   2 O :    0.098834
   3 C :   -0.263108
   4 H :    0.137747
   5 H :    0.130390
   6 H :    0.130932
   7 H :    0.137773
   8 H :    0.130942
   9 H :    0.130354

  Mayer bond orders larger than 0.100000
B(  0-C ,  1-C ) :   0.9700 B(  0-C ,  4-H ) :   0.9493 B(  0-C ,  5-H ) :   0.9569
B(  0-C ,  6-H ) :   0.9736 B(  1-C ,  2-O ) :   2.1342 B(  1-C ,  3-C ) :   0.9699
B(  3-C ,  7-H ) :   0.9492 B(  3-C ,  8-H ) :   0.9736 B(  3-C ,  9-H ) :   0.9570

FINAL SINGLE POINT ENERGY      -193.163306081704

DIPOLE MOMENT
-------------

Method             : SCF
Type of density    : Electron Density
Multiplicity       :   1
Irrep              :   0
Energy             :  -193.1695467895039542 Eh
Relativity type    :
Basis              : AO
                                X                 Y                 Z
Electronic contribution:      0.000269558      -3.854753316       0.000557111
Nuclear contribution   :     -0.000370612       5.098991271      -0.000721400
                        -----------------------------------------
Total Dipole Moment    :     -0.000101054       1.244237955      -0.000164289
                        -----------------------------------------
Magnitude (a.u.)       :      1.244237970
Magnitude (Debye)      :      3.162601583

Rotational constants in cm-1:             0.336828             0.289022             0.165017
Rotational constants in MHz :         10097.844557          8664.658531          4947.086219

                             ****ORCA TERMINATED NORMALLY****
TOTAL RUN TIME: 0 days 0 hours 0 minutes 34 seconds 794 msec
