                         Program Version 6.0.0  -   RELEASE  -
|  1> ! wb97x-v def2-tzvp def2/J RIJCOSX DEFGRID2 scfconv7 GCP(DFT/TZ) printgap
|  2> %output
|  3>     printlevel normal
|  4> end
|  5> %cpcm
|  6>     smd true
|  7>     smdsolvent "water"
|  8> end
|  9> * xyz 0 1
| 10> C -1.275867732207561 0.6939448080973176 -0.006526109734103488
| 11> C -6.954778506232435e-06 -0.09308578772586566 6.482628132704717e-05
| 12> O 0.0001373739018118863 -1.3216056402760648 0.00011694137841083238
| 13> C 1.2757139125051637 0.6941984804178893 0.006525255159380598
| 14> H -1.4064713835522424 1.142548201154037 0.9865988503693292
| 15> H -1.2125035802467048 1.5235421362308095 -0.717964308538358
| 16> H -2.1324447095507595 0.05629458057238149 -0.23008927695515066
| 17> H 1.4070183333007356 1.1410805247437488 -0.9872944387885937
| 18> H 2.1322158561800544 0.05699977681463439 0.23167741349078907
| 19> H 1.2117728338935285 1.524968119465823 0.7165163646050607
| 20> *
| 21>
| 22>                          ****END OF INPUT****

CARTESIAN COORDINATES (ANGSTROEM)
---------------------------------
  C     -1.275868    0.693945   -0.006526
  C     -0.000007   -0.093086    0.000065
  O      0.000137   -1.321606    0.000117
  C      1.275714    0.694198    0.006525
  H     -1.406471    1.142548    0.986599
  H     -1.212504    1.523542   -0.717964
  H     -2.132445    0.056295   -0.230089
  H      1.407018    1.141081   -0.987294
  H      2.132216    0.057000    0.231677
  H      1.211773    1.524968    0.716516

 Total Charge           Charge          ....    0
 Multiplicity           Mult            ....    1
 Number of Electrons    NEL             ....   32
 Basis Dimension        Dim             ....  160

ORBITAL ENERGIES
----------------

  NO   OCC          E(Eh)            E(eV)
   0   2.0000     -21.667597      -589.6053
   1   2.0000     -12.146683      -330.5280
   2   2.0000     -12.039849      -327.6210
   3   2.0000     -12.039381      -327.6082
   4   2.0000      -1.713931       -46.6384
   5   2.0000      -1.285587       -34.9826
   6   2.0000      -1.203744       -32.7556
   7   2.0000      -1.090922       -29.6855
   8   2.0000      -0.967010       -26.3137
   9   2.0000      -0.958216       -26.0744
  10   2.0000      -0.923083       -25.1184
  11   2.0000      -0.834338       -22.7035
  12   2.0000      -0.825951       -22.4753
  13   2.0000      -0.820068       -22.3152
  14   2.0000      -0.814415       -22.1614
  15   2.0000      -0.792149       -21.5555
  16   0.0000      -0.301587        -8.2066
  17   0.0000      -0.036367        -0.9896
  18   0.0000      -0.004333        -0.1179
  19   0.0000       0.011228         0.3055
  20   0.0000       0.028977         0.7885

MULLIKEN ATOMIC CHARGES
-----------------------
   0 C :   -0.369695
   1 C :    0.292578
   2 O :   -0.465478
   3 C :   -0.369710
   4 H :    0.163176
   5 H :    0.154505
   6 H :    0.138465
   7 H :    0.163185
   8 H :    0.138495
   9 H :    0.154479
Sum of atomic charges:    0.0000000

LOEWDIN ATOMIC CHARGES
----------------------
   0 C :   -0.256530
   1 C :   -0.347735
   2 O :    0.013518
   3 C :   -0.256529
   4 H :    0.150130
   5 H :    0.143020
   6 H :    0.130489
   7 H :    0.150151
   8 H :    0.130504
   9 H :    0.142982

  Mayer bond orders larger than 0.100000
B(  0-C ,  1-C ) :   0.9933 B(  0-C ,  4-H ) :   0.9371 B(  0-C ,  5-H ) :   0.9479
B(  0-C ,  6-H ) :   0.9673 B(  1-C ,  2-O ) :   1.9703 B(  1-C ,  3-C ) :   0.9933
B(  3-C ,  7-H ) :   0.9370 B(  3-C ,  8-H ) :   0.9673 B(  3-C ,  9-H ) :   0.9479

FINAL SINGLE POINT ENERGY      -193.171632615236

DIPOLE MOMENT
-------------

Method             : SCF
Type of density    : Electron Density
Multiplicity       :   1
Irrep              :   0
Energy             :  -193.1778733230360388 Eh
Relativity type    :
Basis              : AO
                                X                 Y                 Z
Electronic contribution:      0.000232387      -3.293487919       0.000455936
Nuclear contribution   :     -0.000370612       5.098991271      -0.000721400
                        -----------------------------------------
Total Dipole Moment    :     -0.000138224       1.805503352      -0.000265464
                        -----------------------------------------
Magnitude (a.u.)       :      1.805503376
Magnitude (Debye)      :      4.589224871

Rotational constants in cm-1:             0.336828             0.289022             0.165017
Rotational constants in MHz :         10097.844557          8664.658531          4947.086219

                             ****ORCA TERMINATED NORMALLY****
TOTAL RUN TIME: 0 days 0 hours 0 minutes 34 seconds 352 msec
