                         Program Version 6.0.1  -  RELEASE   -
|  1> ! pbe def2-sv(p) def2/J RI DEFGRID1 loosescf d4 GCP(DFT/SV(P)) printgap
|  2> %output
|  3>     printlevel normal
|  4> end
|  5> * xyz 0 1
|  6> C 4.0403055086 -3.6984004269 0.3899585508
|  7> C 3.0299165241 -2.6176770047 0.7186479243
|  8> O 2.9412573667 -1.7332041917 -0.4181943216
|  9> C 1.9267382885 -0.913719722 -0.4945010274
| 10> O 1.0567202704 -0.8377118129 0.3605141858
| 11> C 1.9316328914 -0.0804868813 -1.7481606148
| 12> C 0.7690982004 0.8966631812 -1.7503551918
| 13> H 0.7176400052 1.443254948 -2.6952443225
| 14> C 0.8226158255 1.902736328 -0.6118027902
| 15> O 1.7099313693 1.932009672 0.2133332268
| 16> O -0.1854712034 2.7390365469 -0.6794479395
| 17> C -0.3423370738 3.7494951818 0.3352139453
| 18> C -1.8236474564 3.9146651143 0.6188643328
| 19> S -0.8559619283 0.0427130058 -1.7150702791
| 20> P -1.3361738372 -0.4385524015 0.3104246712
| 21> S -1.3226953811 -2.3100215294 0.9215298296
| 22> O -0.8583939038 0.7132260664 1.2989577774
| 23> C -0.0914508739 0.4854340559 2.4804883183
| 24> O -2.8644587348 0.0810631804 0.27504124
| 25> C -3.85351931 -0.5859469923 -0.5067552153
| 26> H 5.0043393499 -3.2499917114 0.1704015958
| 27> H 4.1381543404 -4.3645992156 1.2404186504
| 28> H 3.7107839893 -4.26832037 -0.473469305
| 29> H 3.3390034851 -2.024298487 1.5843707703
| 30> H 2.0352041167 -3.0300645502 0.917708263
| 31> H 1.8667134112 -0.7453493505 -2.6110040243
| 32> H 2.8806862044 0.4572367107 -1.7944839332
| 33> H 0.2128803023 3.4394139367 1.224848388
| 34> H 0.0936624935 4.6706019975 -0.0613620889
| 35> H -2.2428390172 2.9716785094 0.9626102652
| 36> H -1.9613653775 4.66983686 1.3854551314
| 37> H -2.3430513024 4.2168661382 -0.2854692175
| 38> H -0.5761612362 1.0461615161 3.2771747941
| 39> H 0.9243085598 0.8456079089 2.3125872635
| 40> H -0.0698141922 -0.5783365102 2.7227850593
| 41> H -4.8029373011 -0.1393862773 -0.2225311441
| 42> H -3.8511895719 -1.6543974409 -0.2805511221
| 43> H -3.6597418032 -0.4339442124 -1.5697757341
| 44> *
| 45>
| 46>                          ****END OF INPUT****

CARTESIAN COORDINATES (ANGSTROEM)
---------------------------------
  C      4.040306   -3.698400    0.389959
  C      3.029917   -2.617677    0.718648
  O      2.941257   -1.733204   -0.418194
  C      1.926738   -0.913720   -0.494501
  O      1.056720   -0.837712    0.360514
  C      1.931633   -0.080487   -1.748161
  C      0.769098    0.896663   -1.750355
  H      0.717640    1.443255   -2.695244
  C      0.822616    1.902736   -0.611803
  O      1.709931    1.932010    0.213333
  O     -0.185471    2.739037   -0.679448
  C     -0.342337    3.749495    0.335214
  C     -1.823647    3.914665    0.618864
  S     -0.855962    0.042713   -1.715070
  P     -1.336174   -0.438552    0.310425
  S     -1.322695   -2.310022    0.921530
  O     -0.858394    0.713226    1.298958
  C     -0.091451    0.485434    2.480488
  O     -2.864459    0.081063    0.275041
  C     -3.853519   -0.585947   -0.506755
  H      5.004339   -3.249992    0.170402
  H      4.138154   -4.364599    1.240419
  H      3.710784   -4.268320   -0.473469
  H      3.339003   -2.024298    1.584371
  H      2.035204   -3.030065    0.917708
  H      1.866713   -0.745349   -2.611004
  H      2.880686    0.457237   -1.794484
  H      0.212880    3.439414    1.224848
  H      0.093662    4.670602   -0.061362
  H     -2.242839    2.971679    0.962610
  H     -1.961365    4.669837    1.385455
  H     -2.343051    4.216866   -0.285469
  H     -0.576161    1.046162    3.277175
  H      0.924309    0.845608    2.312587
  H     -0.069814   -0.578337    2.722785
  H     -4.802937   -0.139386   -0.222531
  H     -3.851190   -1.654397   -0.280551
  H     -3.659742   -0.433944   -1.569776

 Total Charge           Charge          ....    0
 Multiplicity           Mult            ....    1
 Number of Electrons    NEL             ....  174
 Basis Dimension        Dim             ....  316

ORBITAL ENERGIES
----------------

  NO   OCC          E(Eh)            E(eV)
   0   2.0000     -88.031612     -2395.4619
   1   2.0000     -87.964330     -2393.6311
   2   2.0000     -76.417077     -2079.4144
   3   2.0000     -18.814443      -511.9670
   4   2.0000     -18.805508      -511.7239
   5   2.0000     -18.784182      -511.1436
   6   2.0000     -18.766265      -510.6560
   7   2.0000     -18.755942      -510.3751
   8   2.0000     -18.743232      -510.0293
   9   2.0000     -10.023731      -272.7596
  10   2.0000     -10.020427      -272.6697
  11   2.0000      -9.954234      -270.8685
  12   2.0000      -9.951947      -270.8062
  13   2.0000      -9.946870      -270.6681
  14   2.0000      -9.928897      -270.1790
  15   2.0000      -9.927603      -270.1438
  16   2.0000      -9.920160      -269.9413
  17   2.0000      -9.892006      -269.1752
  18   2.0000      -9.879954      -268.8472
  19   2.0000      -7.676466      -208.8873
  20   2.0000      -7.609675      -207.0698
  21   2.0000      -6.412454      -174.4917
  22   2.0000      -5.705058      -155.2425
  23   2.0000      -5.700896      -155.1293
  24   2.0000      -5.692804      -154.9091
  25   2.0000      -5.638949      -153.4436
  26   2.0000      -5.630601      -153.2164
  27   2.0000      -5.629115      -153.1760
  28   2.0000      -4.635198      -126.1301
  29   2.0000      -4.634719      -126.1171
  30   2.0000      -4.632709      -126.0624
  31   2.0000      -1.025382       -27.9021
  32   2.0000      -1.015116       -27.6227
  33   2.0000      -0.971105       -26.4251
  34   2.0000      -0.931946       -25.3595
  35   2.0000      -0.923798       -25.1378
  36   2.0000      -0.920747       -25.0548
  37   2.0000      -0.765744       -20.8370
  38   2.0000      -0.721538       -19.6340
  39   2.0000      -0.702226       -19.1085
  40   2.0000      -0.688237       -18.7279
  41   2.0000      -0.655980       -17.8501
  42   2.0000      -0.621702       -16.9174
  43   2.0000      -0.611283       -16.6339
  44   2.0000      -0.606068       -16.4919
  45   2.0000      -0.594756       -16.1841
  46   2.0000      -0.559021       -15.2117
  47   2.0000      -0.517527       -14.0826
  48   2.0000      -0.508949       -13.8492
  49   2.0000      -0.499893       -13.6028
  50   2.0000      -0.486927       -13.2500
  51   2.0000      -0.468006       -12.7351
  52   2.0000      -0.461281       -12.5521
  53   2.0000      -0.453693       -12.3456
  54   2.0000      -0.448053       -12.1921
  55   2.0000      -0.429347       -11.6831
  56   2.0000      -0.420806       -11.4507
  57   2.0000      -0.410257       -11.1637
  58   2.0000      -0.408975       -11.1288
  59   2.0000      -0.408750       -11.1226
  60   2.0000      -0.399709       -10.8766
  61   2.0000      -0.393543       -10.7089
  62   2.0000      -0.389254       -10.5921
  63   2.0000      -0.380268       -10.3476
  64   2.0000      -0.367897       -10.0110
  65   2.0000      -0.362969        -9.8769
  66   2.0000      -0.361017        -9.8238
  67   2.0000      -0.355471        -9.6729
  68   2.0000      -0.349438        -9.5087
  69   2.0000      -0.347993        -9.4694
  70   2.0000      -0.332308        -9.0425
  71   2.0000      -0.324461        -8.8290
  72   2.0000      -0.318650        -8.6709
  73   2.0000      -0.311817        -8.4850
  74   2.0000      -0.306577        -8.3424
  75   2.0000      -0.296159        -8.0589
  76   2.0000      -0.290199        -7.8967
  77   2.0000      -0.281309        -7.6548
  78   2.0000      -0.269301        -7.3280
  79   2.0000      -0.263078        -7.1587
  80   2.0000      -0.258094        -7.0231
  81   2.0000      -0.245285        -6.6746
  82   2.0000      -0.240370        -6.5408
  83   2.0000      -0.228648        -6.2218
  84   2.0000      -0.211544        -5.7564
  85   2.0000      -0.185377        -5.0444
  86   2.0000      -0.173259        -4.7146
  87   0.0000      -0.047509        -1.2928
  88   0.0000      -0.043049        -1.1714
  89   0.0000      -0.021661        -0.5894
  90   0.0000      -0.006232        -0.1696
  91   0.0000       0.035376         0.9626

MULLIKEN ATOMIC CHARGES
-----------------------
   0 C :   -0.276400
   1 C :   -0.041447
   2 O :   -0.222087
   3 C :    0.155118
   4 O :   -0.216632
   5 C :   -0.045957
   6 C :   -0.304494
   7 H :    0.149499
   8 C :    0.193016
   9 O :   -0.194553
  10 O :   -0.220776
  11 C :   -0.023304
  12 C :   -0.294614
  13 S :   -0.107158
  14 P :    0.638764
  15 S :   -0.333682
  16 O :   -0.382354
  17 C :   -0.103217
  18 O :   -0.380945
  19 C :   -0.107922
  20 H :    0.115054
  21 H :    0.115660
  22 H :    0.118693
  23 H :    0.108458
  24 H :    0.131687
  25 H :    0.125568
  26 H :    0.128577
  27 H :    0.114401
  28 H :    0.101839
  29 H :    0.139210
  30 H :    0.105157
  31 H :    0.110396
  32 H :    0.113526
  33 H :    0.130981
  34 H :    0.120022
  35 H :    0.118736
  36 H :    0.111380
  37 H :    0.109800
Sum of atomic charges:   -0.0000000

LOEWDIN ATOMIC CHARGES
----------------------
   0 C :   -0.350063
   1 C :   -0.106352
   2 O :   -0.045337
   3 C :    0.054636
   4 O :   -0.157715
   5 C :   -0.251004
   6 C :   -0.259718
   7 H :    0.151656
   8 C :    0.009421
   9 O :   -0.159072
  10 O :   -0.048214
  11 C :   -0.105570
  12 C :   -0.355144
  13 S :    0.092217
  14 P :    0.592748
  15 S :   -0.336571
  16 O :   -0.231926
  17 C :   -0.219507
  18 O :   -0.266536
  19 C :   -0.224891
  20 H :    0.126450
  21 H :    0.133116
  22 H :    0.128493
  23 H :    0.118863
  24 H :    0.125431
  25 H :    0.148495
  26 H :    0.151994
  27 H :    0.119179
  28 H :    0.115058
  29 H :    0.132639
  30 H :    0.127183
  31 H :    0.124949
  32 H :    0.114587
  33 H :    0.113941
  34 H :    0.109894
  35 H :    0.119145
  36 H :    0.105517
  37 H :    0.102008

  Mayer bond orders larger than 0.100000
B(  0-C ,  1-C ) :   1.1568 B(  0-C , 20-H ) :   0.9485 B(  0-C , 21-H ) :   0.9434
B(  0-C , 22-H ) :   0.9511 B(  1-C ,  2-O ) :   0.8900 B(  1-C , 23-H ) :   0.9337
B(  1-C , 24-H ) :   0.9198 B(  2-O ,  3-C ) :   1.2731 B(  3-C ,  4-O ) :   1.8674
B(  3-C ,  5-C ) :   1.0215 B(  4-O , 14-P ) :   0.1370 B(  5-C ,  6-C ) :   1.0258
B(  5-C , 25-H ) :   0.8835 B(  5-C , 26-H ) :   0.8752 B(  6-C ,  7-H ) :   0.8764
B(  6-C ,  8-C ) :   0.8951 B(  6-C , 13-S ) :   1.0278 B(  8-C ,  9-O ) :   2.0435
B(  8-C , 10-O ) :   1.2589 B(  9-O , 10-O ) :   0.1010 B( 10-O , 11-C ) :   0.8984
B( 11-C , 12-C ) :   1.1671 B( 11-C , 27-H ) :   0.9144 B( 11-C , 28-H ) :   0.9360
B( 12-C , 29-H ) :   0.9374 B( 12-C , 30-H ) :   0.9431 B( 12-C , 31-H ) :   0.9478
B( 13-S , 14-P ) :   0.9322 B( 14-P , 15-S ) :   1.5949 B( 14-P , 16-O ) :   1.0768
B( 14-P , 18-O ) :   1.0421 B( 16-O , 17-C ) :   0.9205 B( 17-C , 32-H ) :   0.9526
B( 17-C , 33-H ) :   0.9386 B( 17-C , 34-H ) :   0.9280 B( 18-O , 19-C ) :   0.9545
B( 19-C , 35-H ) :   0.9601 B( 19-C , 36-H ) :   0.9305 B( 19-C , 37-H ) :   0.9418

Dispersion correction           -0.055063834
FINAL SINGLE POINT ENERGY     -1979.004495878789

DIPOLE MOMENT
-------------

Method             : SCF
Type of density    : Electron Density
Multiplicity       :   1
Irrep              :   0
Energy             : -1979.1364430869075477 Eh
Relativity type    :
Basis              : AO
                                X                 Y                 Z
Electronic contribution:     -5.413718536      -2.890134169      -5.640552097
Nuclear contribution   :      6.364996694       3.570020738       5.206745794
                        -----------------------------------------
Total Dipole Moment    :      0.951278158       0.679886569      -0.433806303
                        -----------------------------------------
Magnitude (a.u.)       :      1.247142249
Magnitude (Debye)      :      3.169983674

Rotational constants in cm-1:             0.013245             0.008423             0.006667
Rotational constants in MHz :           397.069311           252.520726           199.861524

                             ****ORCA TERMINATED NORMALLY****
TOTAL RUN TIME: 0 days 0 hours 0 minutes 45 seconds 535 msec
