                         Program Version 6.0.1  -  RELEASE   -
|  1> ! pbe def2-sv(p) def2/J RI DEFGRID1 loosescf d4 GCP(DFT/SV(P)) printgap
|  2> %output
|  3>     printlevel normal
|  4> end
|  5> * xyz 0 1
|  6> C 5.3103900241 -1.1592667007 -2.0604604893
|  7> C 4.6208402821 -0.8367700293 -0.7482768817
|  8> O 3.2071477022 -1.0647780222 -0.9098713122
|  9> C 2.4934812101 -1.3821554093 0.1509509958
| 10> O 2.943981938 -1.5223401934 1.2654191512
| 11> C 1.0295569775 -1.578883432 -0.203566156
| 12> C 0.4860903307 -0.3583418378 -0.9469956163
| 13> H 1.0695483717 -0.1922096174 -1.8569202045
| 14> C 0.5377097511 0.8878138677 -0.0870057957
| 15> O -0.4545864721 1.5367199873 0.1799493119
| 16> O 1.7462045938 1.153778356 0.3246859491
| 17> C 1.937712136 2.2821154119 1.2081235365
| 18> C 2.0996766919 3.569990979 0.4187798976
| 19> S -1.2264860191 -0.5912628536 -1.5036668878
| 20> P -2.3389566498 -0.1861915409 0.279258683
| 21> S -1.5851985311 -0.4014414645 2.0787740112
| 22> O -3.2581717408 1.0892312009 -0.0062640001
| 23> C -3.0375456554 2.4510873161 0.3550331322
| 24> O -3.4548612326 -1.3146110323 0.1386833312
| 25> C -4.2970199979 -1.4624136069 -1.0169123874
| 26> H 4.9094561262 -0.5371736831 -2.8547148372
| 27> H 6.3742047891 -0.9713147587 -1.9606983459
| 28> H 5.1557717672 -2.2024880323 -2.3198786716
| 29> H 4.7545220099 0.2134187197 -0.4733642035
| 30> H 4.9831895563 -1.4638939023 0.0717020801
| 31> H 0.4725211934 -1.7560759301 0.7193798425
| 32> H 0.9402352454 -2.4522713101 -0.8515858871
| 33> H 1.0818875574 2.3361861575 1.886554422
| 34> H 2.8403156446 2.0312657798 1.7659121796
| 35> H 2.9231506784 3.4797832218 -0.2840391947
| 36> H 1.1867800522 3.7938146053 -0.1278276384
| 37> H 2.3049245916 4.3824449804 1.1077802421
| 38> H -4.0279522817 2.8980660085 0.4113345555
| 39> H -2.433049712 2.9409444423 -0.4058001809
| 40> H -2.5343521208 2.5120616305 1.319437289
| 41> H -4.9409659687 -0.5912991643 -1.1209940734
| 42> H -4.8845447701 -2.3569726626 -0.8266413029
| 43> H -3.6857141672 -1.5866488714 -1.9111931106
| 44> *
| 45>
| 46>                          ****END OF INPUT****

CARTESIAN COORDINATES (ANGSTROEM)
---------------------------------
  C      5.310390   -1.159267   -2.060460
  C      4.620840   -0.836770   -0.748277
  O      3.207148   -1.064778   -0.909871
  C      2.493481   -1.382155    0.150951
  O      2.943982   -1.522340    1.265419
  C      1.029557   -1.578883   -0.203566
  C      0.486090   -0.358342   -0.946996
  H      1.069548   -0.192210   -1.856920
  C      0.537710    0.887814   -0.087006
  O     -0.454586    1.536720    0.179949
  O      1.746205    1.153778    0.324686
  C      1.937712    2.282115    1.208124
  C      2.099677    3.569991    0.418780
  S     -1.226486   -0.591263   -1.503667
  P     -2.338957   -0.186192    0.279259
  S     -1.585199   -0.401441    2.078774
  O     -3.258172    1.089231   -0.006264
  C     -3.037546    2.451087    0.355033
  O     -3.454861   -1.314611    0.138683
  C     -4.297020   -1.462414   -1.016912
  H      4.909456   -0.537174   -2.854715
  H      6.374205   -0.971315   -1.960698
  H      5.155772   -2.202488   -2.319879
  H      4.754522    0.213419   -0.473364
  H      4.983190   -1.463894    0.071702
  H      0.472521   -1.756076    0.719380
  H      0.940235   -2.452271   -0.851586
  H      1.081888    2.336186    1.886554
  H      2.840316    2.031266    1.765912
  H      2.923151    3.479783   -0.284039
  H      1.186780    3.793815   -0.127828
  H      2.304925    4.382445    1.107780
  H     -4.027952    2.898066    0.411335
  H     -2.433050    2.940944   -0.405800
  H     -2.534352    2.512062    1.319437
  H     -4.940966   -0.591299   -1.120994
  H     -4.884545   -2.356973   -0.826641
  H     -3.685714   -1.586649   -1.911193

 Total Charge           Charge          ....    0
 Multiplicity           Mult            ....    1
 Number of Electrons    NEL             ....  174
 Basis Dimension        Dim             ....  316

ORBITAL ENERGIES
----------------

  NO   OCC          E(Eh)            E(eV)
   0   2.0000     -88.033179     -2395.5046
   1   2.0000     -87.968872     -2393.7547
   2   2.0000     -76.418655     -2079.4573
   3   2.0000     -18.828209      -512.3416
   4   2.0000     -18.803279      -511.6632
   5   2.0000     -18.782297      -511.0923
   6   2.0000     -18.772751      -510.8325
   7   2.0000     -18.761174      -510.5175
   8   2.0000     -18.734868      -509.8017
   9   2.0000     -10.032288      -272.9924
  10   2.0000     -10.008136      -272.3352
  11   2.0000      -9.960455      -271.0377
  12   2.0000      -9.953802      -270.8567
  13   2.0000      -9.951441      -270.7925
  14   2.0000      -9.938524      -270.4410
  15   2.0000      -9.935739      -270.3652
  16   2.0000      -9.905339      -269.5380
  17   2.0000      -9.898960      -269.3644
  18   2.0000      -9.893920      -269.2272
  19   2.0000      -7.678344      -208.9384
  20   2.0000      -7.614115      -207.1906
  21   2.0000      -6.414283      -174.5415
  22   2.0000      -5.706391      -155.2788
  23   2.0000      -5.702964      -155.1855
  24   2.0000      -5.694963      -154.9678
  25   2.0000      -5.643578      -153.5696
  26   2.0000      -5.634942      -153.3346
  27   2.0000      -5.633489      -153.2950
  28   2.0000      -4.637171      -126.1838
  29   2.0000      -4.636214      -126.1578
  30   2.0000      -4.634757      -126.1182
  31   2.0000      -1.037095       -28.2208
  32   2.0000      -1.010451       -27.4958
  33   2.0000      -0.971877       -26.4461
  34   2.0000      -0.941769       -25.6268
  35   2.0000      -0.926189       -25.2029
  36   2.0000      -0.912453       -24.8291
  37   2.0000      -0.769061       -20.9272
  38   2.0000      -0.717504       -19.5243
  39   2.0000      -0.714172       -19.4336
  40   2.0000      -0.689068       -18.7505
  41   2.0000      -0.656495       -17.8641
  42   2.0000      -0.629843       -17.1389
  43   2.0000      -0.629313       -17.1245
  44   2.0000      -0.606467       -16.5028
  45   2.0000      -0.591376       -16.0922
  46   2.0000      -0.570164       -15.5150
  47   2.0000      -0.516007       -14.0413
  48   2.0000      -0.513494       -13.9729
  49   2.0000      -0.505425       -13.7533
  50   2.0000      -0.488412       -13.2904
  51   2.0000      -0.468996       -12.7620
  52   2.0000      -0.459950       -12.5159
  53   2.0000      -0.453628       -12.3438
  54   2.0000      -0.443822       -12.0770
  55   2.0000      -0.431466       -11.7408
  56   2.0000      -0.427890       -11.6435
  57   2.0000      -0.420863       -11.4523
  58   2.0000      -0.414374       -11.2757
  59   2.0000      -0.406388       -11.0584
  60   2.0000      -0.400794       -10.9062
  61   2.0000      -0.398164       -10.8346
  62   2.0000      -0.390415       -10.6237
  63   2.0000      -0.383837       -10.4447
  64   2.0000      -0.378613       -10.3026
  65   2.0000      -0.368310       -10.0222
  66   2.0000      -0.364652        -9.9227
  67   2.0000      -0.354585        -9.6488
  68   2.0000      -0.353637        -9.6229
  69   2.0000      -0.347969        -9.4687
  70   2.0000      -0.335333        -9.1249
  71   2.0000      -0.333652        -9.0791
  72   2.0000      -0.325993        -8.8707
  73   2.0000      -0.311092        -8.4652
  74   2.0000      -0.308967        -8.4074
  75   2.0000      -0.299476        -8.1492
  76   2.0000      -0.291434        -7.9303
  77   2.0000      -0.287810        -7.8317
  78   2.0000      -0.283495        -7.7143
  79   2.0000      -0.260889        -7.0992
  80   2.0000      -0.260358        -7.0847
  81   2.0000      -0.251359        -6.8398
  82   2.0000      -0.247558        -6.7364
  83   2.0000      -0.223883        -6.0922
  84   2.0000      -0.207333        -5.6418
  85   2.0000      -0.189250        -5.1498
  86   2.0000      -0.180660        -4.9160
  87   0.0000      -0.048340        -1.3154
  88   0.0000      -0.038816        -1.0562
  89   0.0000      -0.018509        -0.5036
  90   0.0000       0.003497         0.0952
  91   0.0000       0.022613         0.6153

MULLIKEN ATOMIC CHARGES
-----------------------
   0 C :   -0.280180
   1 C :   -0.026006
   2 O :   -0.247505
   3 C :    0.102218
   4 O :   -0.190606
   5 C :   -0.043438
   6 C :   -0.311450
   7 H :    0.155881
   8 C :    0.218759
   9 O :   -0.194781
  10 O :   -0.218445
  11 C :   -0.009051
  12 C :   -0.310350
  13 S :   -0.114374
  14 P :    0.634571
  15 S :   -0.323232
  16 O :   -0.399060
  17 C :   -0.077062
  18 O :   -0.369456
  19 C :   -0.112048
  20 H :    0.112542
  21 H :    0.112837
  22 H :    0.116879
  23 H :    0.098149
  24 H :    0.116446
  25 H :    0.124546
  26 H :    0.120332
  27 H :    0.125107
  28 H :    0.116923
  29 H :    0.115291
  30 H :    0.126624
  31 H :    0.121064
  32 H :    0.115957
  33 H :    0.111011
  34 H :    0.116055
  35 H :    0.117933
  36 H :    0.128321
  37 H :    0.119600
Sum of atomic charges:   -0.0000000

LOEWDIN ATOMIC CHARGES
----------------------
   0 C :   -0.350827
   1 C :   -0.108253
   2 O :   -0.068666
   3 C :    0.019717
   4 O :   -0.158372
   5 C :   -0.248691
   6 C :   -0.267283
   7 H :    0.150003
   8 C :    0.028616
   9 O :   -0.153524
  10 O :   -0.025619
  11 C :   -0.103738
  12 C :   -0.355891
  13 S :    0.087043
  14 P :    0.584543
  15 S :   -0.322636
  16 O :   -0.253952
  17 C :   -0.205171
  18 O :   -0.254254
  19 C :   -0.214388
  20 H :    0.124932
  21 H :    0.130888
  22 H :    0.127521
  23 H :    0.113089
  24 H :    0.120810
  25 H :    0.137629
  26 H :    0.144042
  27 H :    0.127984
  28 H :    0.124964
  29 H :    0.125307
  30 H :    0.129662
  31 H :    0.135077
  32 H :    0.115847
  33 H :    0.110613
  34 H :    0.112273
  35 H :    0.112625
  36 H :    0.124373
  37 H :    0.103709

  Mayer bond orders larger than 0.100000
B(  0-C ,  1-C ) :   1.1578 B(  0-C , 20-H ) :   0.9489 B(  0-C , 21-H ) :   0.9444
B(  0-C , 22-H ) :   0.9520 B(  1-C ,  2-O ) :   0.9102 B(  1-C , 23-H ) :   0.9335
B(  1-C , 24-H ) :   0.9179 B(  2-O ,  3-C ) :   1.1857 B(  3-C ,  4-O ) :   2.0876
B(  3-C ,  5-C ) :   1.0184 B(  5-C ,  6-C ) :   1.0264 B(  5-C , 25-H ) :   0.8781
B(  5-C , 26-H ) :   0.8845 B(  6-C ,  7-H ) :   0.8640 B(  6-C ,  8-C ) :   0.9017
B(  6-C , 13-S ) :   1.0453 B(  8-C ,  9-O ) :   1.9313 B(  8-C , 10-O ) :   1.2729
B(  9-O , 14-P ) :   0.1043 B( 10-O , 11-C ) :   0.8901 B( 11-C , 12-C ) :   1.1721
B( 11-C , 27-H ) :   0.9156 B( 11-C , 28-H ) :   0.9341 B( 12-C , 29-H ) :   0.9479
B( 12-C , 30-H ) :   0.9453 B( 12-C , 31-H ) :   0.9436 B( 13-S , 14-P ) :   0.9148
B( 13-S , 15-S ) :   0.1113 B( 14-P , 15-S ) :   1.5875 B( 14-P , 16-O ) :   1.0855
B( 14-P , 18-O ) :   1.1023 B( 16-O , 17-C ) :   0.9303 B( 17-C , 32-H ) :   0.9539
B( 17-C , 33-H ) :   0.9534 B( 17-C , 34-H ) :   0.9433 B( 18-O , 19-C ) :   0.9342
B( 19-C , 35-H ) :   0.9462 B( 19-C , 36-H ) :   0.9607 B( 19-C , 37-H ) :   0.9363

Dispersion correction           -0.051524052
FINAL SINGLE POINT ENERGY     -1979.006523552152

DIPOLE MOMENT
-------------

Method             : SCF
Type of density    : Electron Density
Multiplicity       :   1
Irrep              :   0
Energy             : -1979.1385821049252627 Eh
Relativity type    :
Basis              : AO
                                X                 Y                 Z
Electronic contribution:    -16.696603885      -8.729607870       5.859531703
Nuclear contribution   :     17.652452790      10.023113264      -7.486229358
                        -----------------------------------------
Total Dipole Moment    :      0.955848905       1.293505393      -1.626697655
                        -----------------------------------------
Magnitude (a.u.)       :      2.287563899
Magnitude (Debye)      :      5.814525343

Rotational constants in cm-1:             0.015883             0.006149             0.005362
Rotational constants in MHz :           476.146761           184.345923           160.735978

                             ****ORCA TERMINATED NORMALLY****
TOTAL RUN TIME: 0 days 0 hours 0 minutes 37 seconds 671 msec
