                         Program Version 6.0.0  -   RELEASE  -
|  1> ! wb97x-v def2-tzvp def2/J RIJCOSX DEFGRID2 scfconv7 GCP(DFT/TZ) printgap
|  2> %output
|  3>     printlevel normal
|  4> end
|  5> * xyz 0 1
|  6> C -0.6922858616557422 -0.5991624425878944 -0.3000111107242148
|  7> C 0.6843176482221783 -0.5942305175201642 0.3286418797230093
|  8> O 1.4919610731355466 0.5052136624910496 -0.13161331742603904
|  9> O -1.4841391923874043 0.5318601143550309 0.10807672091540749
| 10> H -1.2322608316328783 -1.4926939680249554 0.03083366237908865
| 11> H -0.6075828805261193 -0.6291037010907432 -1.3947851761442829
| 12> H 1.211531694192097 -1.5096887609228675 0.03982626413688196
| 13> H 0.5996774386073066 -0.5720017295962723 1.423599774318099
| 14> H 1.1476073233203479 1.309955962540347 0.2767459265298075
| 15> H -1.1291116841223015 1.3115781863839515 -0.33793861650321005
| 16> *
| 17>
| 18>                          ****END OF INPUT****

CARTESIAN COORDINATES (ANGSTROEM)
---------------------------------
  C     -0.692286   -0.599162   -0.300011
  C      0.684318   -0.594231    0.328642
  O      1.491961    0.505214   -0.131613
  O     -1.484139    0.531860    0.108077
  H     -1.232261   -1.492694    0.030834
  H     -0.607583   -0.629104   -1.394785
  H      1.211532   -1.509689    0.039826
  H      0.599677   -0.572002    1.423600
  H      1.147607    1.309956    0.276746
  H     -1.129112    1.311578   -0.337939

 Total Charge           Charge          ....    0
 Multiplicity           Mult            ....    1
 Number of Electrons    NEL             ....   34
 Basis Dimension        Dim             ....  160

ORBITAL ENERGIES
----------------

  NO   OCC          E(Eh)            E(eV)
   0   2.0000     -21.679775      -589.9367
   1   2.0000     -21.679750      -589.9360
   2   2.0000     -12.097898      -329.2005
   3   2.0000     -12.096635      -329.1662
   4   2.0000      -1.681794       -45.7640
   5   2.0000      -1.673970       -45.5510
   6   2.0000      -1.277534       -34.7635
   7   2.0000      -1.161308       -31.6008
   8   2.0000      -1.052334       -28.6355
   9   2.0000      -1.022711       -27.8294
  10   2.0000      -0.977316       -26.5941
  11   2.0000      -0.946858       -25.7653
  12   2.0000      -0.941712       -25.6253
  13   2.0000      -0.899673       -24.4814
  14   2.0000      -0.840443       -22.8696
  15   2.0000      -0.816982       -22.2312
  16   2.0000      -0.789746       -21.4901
  17   0.0000      -0.173658        -4.7255
  18   0.0000      -0.119552        -3.2532
  19   0.0000      -0.078120        -2.1258
  20   0.0000      -0.014328        -0.3899
  21   0.0000       0.001679         0.0457

MULLIKEN ATOMIC CHARGES
-----------------------
   0 C :   -0.028327
   1 C :   -0.028261
   2 O :   -0.465386
   3 O :   -0.465409
   4 H :    0.097336
   5 H :    0.100705
   6 H :    0.097355
   7 H :    0.100702
   8 H :    0.295627
   9 H :    0.295659
Sum of atomic charges:   -0.0000000

LOEWDIN ATOMIC CHARGES
----------------------
   0 C :   -0.345196
   1 C :   -0.345163
   2 O :   -0.063069
   3 O :   -0.063034
   4 H :    0.127981
   5 H :    0.117121
   6 H :    0.127989
   7 H :    0.117116
   8 H :    0.163123
   9 H :    0.163131

  Mayer bond orders larger than 0.100000
B(  0-C ,  1-C ) :   0.9743 B(  0-C ,  3-O ) :   0.9918 B(  0-C ,  4-H ) :   0.9606
B(  0-C ,  5-H ) :   0.9761 B(  1-C ,  2-O ) :   0.9917 B(  1-C ,  6-H ) :   0.9606
B(  1-C ,  7-H ) :   0.9761 B(  2-O ,  8-H ) :   0.9048 B(  3-O ,  9-H ) :   0.9048

FINAL SINGLE POINT ENERGY      -230.267633552771

DIPOLE MOMENT
-------------

Method             : SCF
Type of density    : Electron Density
Multiplicity       :   1
Irrep              :   0
Energy             :  -230.2746046848713490 Eh
Relativity type    :
Basis              : AO
                                X                 Y                 Z
Electronic contribution:      0.010980428       1.558680871      -0.036115482
Nuclear contribution   :     -0.011148326      -1.529321952       0.035028197
                        -----------------------------------------
Total Dipole Moment    :     -0.000167898       0.029358919      -0.001087285
                        -----------------------------------------
Magnitude (a.u.)       :      0.029379525
Magnitude (Debye)      :      0.074676817

Rotational constants in cm-1:             0.512633             0.176289             0.147179
Rotational constants in MHz :         15368.354655          5285.010491          4412.307578

                             ****ORCA TERMINATED NORMALLY****
TOTAL RUN TIME: 0 days 0 hours 0 minutes 34 seconds 142 msec
