                         Program Version 6.0.0  -   RELEASE  -
|  1> ! wb97x-v def2-tzvp def2/J RIJCOSX DEFGRID2 scfconv7 GCP(DFT/TZ) printgap
|  2> %output
|  3>     printlevel normal
|  4> end
|  5> %cpcm
|  6>     smd true
|  7>     smdsolvent "water"
|  8> end
|  9> * xyz 0 1
| 10> C -0.6922858616557422 -0.5991624425878944 -0.3000111107242148
| 11> C 0.6843176482221783 -0.5942305175201642 0.3286418797230093
| 12> O 1.4919610731355466 0.5052136624910496 -0.13161331742603904
| 13> O -1.4841391923874043 0.5318601143550309 0.10807672091540749
| 14> H -1.2322608316328783 -1.4926939680249554 0.03083366237908865
| 15> H -0.6075828805261193 -0.6291037010907432 -1.3947851761442829
| 16> H 1.211531694192097 -1.5096887609228675 0.03982626413688196
| 17> H 0.5996774386073066 -0.5720017295962723 1.423599774318099
| 18> H 1.1476073233203479 1.309955962540347 0.2767459265298075
| 19> H -1.1291116841223015 1.3115781863839515 -0.33793861650321005
| 20> *
| 21>
| 22>                          ****END OF INPUT****

CARTESIAN COORDINATES (ANGSTROEM)
---------------------------------
  C     -0.692286   -0.599162   -0.300011
  C      0.684318   -0.594231    0.328642
  O      1.491961    0.505214   -0.131613
  O     -1.484139    0.531860    0.108077
  H     -1.232261   -1.492694    0.030834
  H     -0.607583   -0.629104   -1.394785
  H      1.211532   -1.509689    0.039826
  H      0.599677   -0.572002    1.423600
  H      1.147607    1.309956    0.276746
  H     -1.129112    1.311578   -0.337939

 Total Charge           Charge          ....    0
 Multiplicity           Mult            ....    1
 Number of Electrons    NEL             ....   34
 Basis Dimension        Dim             ....  160

ORBITAL ENERGIES
----------------

  NO   OCC          E(Eh)            E(eV)
   0   2.0000     -21.675041      -589.8078
   1   2.0000     -21.675005      -589.8069
   2   2.0000     -12.086610      -328.8934
   3   2.0000     -12.085343      -328.8589
   4   2.0000      -1.677044       -45.6347
   5   2.0000      -1.669608       -45.4323
   6   2.0000      -1.267597       -34.4931
   7   2.0000      -1.154193       -31.4072
   8   2.0000      -1.047436       -28.5022
   9   2.0000      -1.017489       -27.6873
  10   2.0000      -0.974137       -26.5076
  11   2.0000      -0.942726       -25.6529
  12   2.0000      -0.939305       -25.5598
  13   2.0000      -0.895278       -24.3617
  14   2.0000      -0.830214       -22.5913
  15   2.0000      -0.808938       -22.0123
  16   2.0000      -0.779617       -21.2145
  17   0.0000      -0.162293        -4.4162
  18   0.0000      -0.109482        -2.9792
  19   0.0000      -0.045079        -1.2267
  20   0.0000       0.004802         0.1307
  21   0.0000       0.020250         0.5510

MULLIKEN ATOMIC CHARGES
-----------------------
   0 C :   -0.032936
   1 C :   -0.033015
   2 O :   -0.567224
   3 O :   -0.567117
   4 H :    0.123091
   5 H :    0.116421
   6 H :    0.123130
   7 H :    0.116444
   8 H :    0.360628
   9 H :    0.360576
Sum of atomic charges:   -0.0000000

LOEWDIN ATOMIC CHARGES
----------------------
   0 C :   -0.341927
   1 C :   -0.341935
   2 O :   -0.102017
   3 O :   -0.101945
   4 H :    0.133920
   5 H :    0.122649
   6 H :    0.133928
   7 H :    0.122640
   8 H :    0.187345
   9 H :    0.187342

  Mayer bond orders larger than 0.100000
B(  0-C ,  1-C ) :   0.9850 B(  0-C ,  3-O ) :   0.9662 B(  0-C ,  4-H ) :   0.9600
B(  0-C ,  5-H ) :   0.9751 B(  1-C ,  2-O ) :   0.9661 B(  1-C ,  6-H ) :   0.9600
B(  1-C ,  7-H ) :   0.9751 B(  2-O ,  8-H ) :   0.8656 B(  3-O ,  9-H ) :   0.8657

FINAL SINGLE POINT ENERGY      -230.284970199827

DIPOLE MOMENT
-------------

Method             : SCF
Type of density    : Electron Density
Multiplicity       :   1
Irrep              :   0
Energy             :  -230.2919413319274042 Eh
Relativity type    :
Basis              : AO
                                X                 Y                 Z
Electronic contribution:      0.010771136       1.581291023      -0.036968863
Nuclear contribution   :     -0.011148326      -1.529321952       0.035028197
                        -----------------------------------------
Total Dipole Moment    :     -0.000377190       0.051969071      -0.001940666
                        -----------------------------------------
Magnitude (a.u.)       :      0.052006661
Magnitude (Debye)      :      0.132190426

Rotational constants in cm-1:             0.512633             0.176289             0.147179
Rotational constants in MHz :         15368.354655          5285.010491          4412.307578

                             ****ORCA TERMINATED NORMALLY****
TOTAL RUN TIME: 0 days 0 hours 0 minutes 42 seconds 142 msec
