                         Program Version 6.0.0  -   RELEASE  -
|  1> ! pbe def2-sv(p) def2/J RI DEFGRID1 loosescf d4 GCP(DFT/SV(P)) printgap
|  2> %output
|  3>     printlevel normal
|  4> end
|  5> * xyz 0 1
|  6> C 4.4305664308 -1.8343042711 -0.7364400927
|  7> C 4.6250752876 -0.3524240973 -0.4869365661
|  8> O 3.5732408164 0.2089350106 0.3154277034
|  9> P 2.0741018461 0.3374095332 -0.2022940068
| 10> S 1.9102236356 0.8080658557 -2.1009398022
| 11> O 1.4839080138 1.3443021274 0.8723411556
| 12> C 1.4999613211 2.7719013874 0.6804395001
| 13> C 2.9067018498 3.326739303 0.6192775301
| 14> S 1.1806806649 -1.4587485417 0.4514310423
| 15> C -0.0170698299 -1.7549819315 -0.9027324987
| 16> S -1.6761387039 -2.1365942142 -0.2974964052
| 17> P -2.3481952321 -0.1897211741 0.2404889663
| 18> S -1.3978058402 1.308115609 -0.6098065052
| 19> O -2.4101157937 -0.1719543696 1.8223588042
| 20> C -1.2374284757 -0.1561726357 2.657698424
| 21> C -1.6682006876 0.2740917386 4.0452194579
| 22> O -3.9103713018 -0.2233739446 0.0298508511
| 23> C -4.5222100215 0.1521174325 -1.2178751293
| 24> C -4.2133461357 -0.8322866311 -2.328056739
| 25> H 4.2744519552 -2.3592177376 0.2026500552
| 26> H 3.563645443 -1.9912166363 -1.3770290747
| 27> H 5.3100600462 -2.2325902934 -1.2321337693
| 28> H 4.6632310397 0.1927598634 -1.4356103546
| 29> H 5.5282425722 -0.1560953925 0.0923546446
| 30> H 0.9450495667 2.9999469657 -0.2361301955
| 31> H 0.9489558192 3.1560875778 1.5403926533
| 32> H 2.8618305757 4.4107313591 0.5837135173
| 33> H 3.4711177001 3.0128455921 1.4935306358
| 34> H 3.4097919012 2.964385271 -0.2765008651
| 35> H 0.3033960992 -2.63350902 -1.4561073
| 36> H -0.0402635031 -0.868767694 -1.5422883411
| 37> H -0.8055233146 -1.1619928585 2.6699582726
| 38> H -0.5029289222 0.5383851284 2.2346957509
| 39> H -2.4149393938 -0.4152678498 4.4278246959
| 40> H -0.8045587606 0.2739348792 4.7019794578
| 41> H -2.0964320354 1.2718748882 4.010588898
| 42> H -5.5878532343 0.1759394651 -0.9860024851
| 43> H -4.1787804296 1.1564895814 -1.486498456
| 44> H -4.8064746393 -0.583795802 -3.2024179097
| 45> H -3.1580538059 -0.7782129235 -2.5927824674
| 46> H -4.4446494743 -1.8453249905 -2.009030868
| 47> *
| 48>
| 49>                          ****END OF INPUT****

CARTESIAN COORDINATES (ANGSTROEM)
---------------------------------
  C      4.430566   -1.834304   -0.736440
  C      4.625075   -0.352424   -0.486937
  O      3.573241    0.208935    0.315428
  P      2.074102    0.337410   -0.202294
  S      1.910224    0.808066   -2.100940
  O      1.483908    1.344302    0.872341
  C      1.499961    2.771901    0.680440
  C      2.906702    3.326739    0.619278
  S      1.180681   -1.458749    0.451431
  C     -0.017070   -1.754982   -0.902732
  S     -1.676139   -2.136594   -0.297496
  P     -2.348195   -0.189721    0.240489
  S     -1.397806    1.308116   -0.609807
  O     -2.410116   -0.171954    1.822359
  C     -1.237428   -0.156173    2.657698
  C     -1.668201    0.274092    4.045219
  O     -3.910371   -0.223374    0.029851
  C     -4.522210    0.152117   -1.217875
  C     -4.213346   -0.832287   -2.328057
  H      4.274452   -2.359218    0.202650
  H      3.563645   -1.991217   -1.377029
  H      5.310060   -2.232590   -1.232134
  H      4.663231    0.192760   -1.435610
  H      5.528243   -0.156095    0.092355
  H      0.945050    2.999947   -0.236130
  H      0.948956    3.156088    1.540393
  H      2.861831    4.410731    0.583714
  H      3.471118    3.012846    1.493531
  H      3.409792    2.964385   -0.276501
  H      0.303396   -2.633509   -1.456107
  H     -0.040264   -0.868768   -1.542288
  H     -0.805523   -1.161993    2.669958
  H     -0.502929    0.538385    2.234696
  H     -2.414939   -0.415268    4.427825
  H     -0.804559    0.273935    4.701979
  H     -2.096432    1.271875    4.010589
  H     -5.587853    0.175939   -0.986002
  H     -4.178780    1.156490   -1.486498
  H     -4.806475   -0.583796   -3.202418
  H     -3.158054   -0.778213   -2.592782
  H     -4.444649   -1.845325   -2.009031

 Total Charge           Charge          ....    0
 Multiplicity           Mult            ....    1
 Number of Electrons    NEL             ....  202
 Basis Dimension        Dim             ....  334

ORBITAL ENERGIES
----------------

  NO   OCC          E(Eh)            E(eV)
   0   2.0000     -88.044912     -2395.8239
   1   2.0000     -88.042554     -2395.7597
   2   2.0000     -87.988656     -2394.2930
   3   2.0000     -87.985730     -2394.2134
   4   2.0000     -76.426413     -2079.6684
   5   2.0000     -76.424503     -2079.6165
   6   2.0000     -18.791414      -511.3404
   7   2.0000     -18.790513      -511.3159
   8   2.0000     -18.788026      -511.2482
   9   2.0000     -18.784434      -511.1504
  10   2.0000      -9.955678      -270.9078
  11   2.0000      -9.951917      -270.8054
  12   2.0000      -9.951832      -270.8031
  13   2.0000      -9.947240      -270.6782
  14   2.0000      -9.943461      -270.5753
  15   2.0000      -9.884115      -268.9604
  16   2.0000      -9.883034      -268.9310
  17   2.0000      -9.881658      -268.8936
  18   2.0000      -9.881141      -268.8795
  19   2.0000      -7.690006      -209.2557
  20   2.0000      -7.687517      -209.1880
  21   2.0000      -7.633538      -207.7191
  22   2.0000      -7.630325      -207.6317
  23   2.0000      -6.423787      -174.8001
  24   2.0000      -6.421902      -174.7488
  25   2.0000      -5.717965      -155.5937
  26   2.0000      -5.715381      -155.5234
  27   2.0000      -5.714257      -155.4928
  28   2.0000      -5.712143      -155.4353
  29   2.0000      -5.707169      -155.3000
  30   2.0000      -5.704340      -155.2230
  31   2.0000      -5.662394      -154.0816
  32   2.0000      -5.659135      -153.9929
  33   2.0000      -5.654346      -153.8626
  34   2.0000      -5.653590      -153.8420
  35   2.0000      -5.650887      -153.7684
  36   2.0000      -5.650709      -153.7636
  37   2.0000      -4.646026      -126.4248
  38   2.0000      -4.645468      -126.4096
  39   2.0000      -4.644664      -126.3877
  40   2.0000      -4.644174      -126.3744
  41   2.0000      -4.643904      -126.3671
  42   2.0000      -4.642356      -126.3249
  43   2.0000      -0.987005       -26.8578
  44   2.0000      -0.985532       -26.8177
  45   2.0000      -0.943479       -25.6734
  46   2.0000      -0.941583       -25.6218
  47   2.0000      -0.761214       -20.7137
  48   2.0000      -0.720472       -19.6050
  49   2.0000      -0.709025       -19.2935
  50   2.0000      -0.686150       -18.6711
  51   2.0000      -0.682034       -18.5591
  52   2.0000      -0.675182       -18.3726
  53   2.0000      -0.651186       -17.7197
  54   2.0000      -0.634977       -17.2786
  55   2.0000      -0.603833       -16.4311
  56   2.0000      -0.594138       -16.1673
  57   2.0000      -0.570899       -15.5349
  58   2.0000      -0.563841       -15.3429
  59   2.0000      -0.556956       -15.1556
  60   2.0000      -0.500350       -13.6152
  61   2.0000      -0.489787       -13.3278
  62   2.0000      -0.470688       -12.8081
  63   2.0000      -0.467603       -12.7241
  64   2.0000      -0.451285       -12.2801
  65   2.0000      -0.446679       -12.1548
  66   2.0000      -0.439180       -11.9507
  67   2.0000      -0.435891       -11.8612
  68   2.0000      -0.425989       -11.5918
  69   2.0000      -0.418423       -11.3859
  70   2.0000      -0.412611       -11.2277
  71   2.0000      -0.395369       -10.7585
  72   2.0000      -0.391018       -10.6401
  73   2.0000      -0.386085       -10.5059
  74   2.0000      -0.381365       -10.3775
  75   2.0000      -0.375400       -10.2151
  76   2.0000      -0.371435       -10.1073
  77   2.0000      -0.353380        -9.6160
  78   2.0000      -0.351513        -9.5652
  79   2.0000      -0.347516        -9.4564
  80   2.0000      -0.346762        -9.4359
  81   2.0000      -0.341367        -9.2891
  82   2.0000      -0.338885        -9.2215
  83   2.0000      -0.336891        -9.1673
  84   2.0000      -0.334043        -9.0898
  85   2.0000      -0.313032        -8.5180
  86   2.0000      -0.309627        -8.4254
  87   2.0000      -0.299301        -8.1444
  88   2.0000      -0.293955        -7.9989
  89   2.0000      -0.289873        -7.8878
  90   2.0000      -0.281449        -7.6586
  91   2.0000      -0.270598        -7.3634
  92   2.0000      -0.266781        -7.2595
  93   2.0000      -0.264956        -7.2098
  94   2.0000      -0.255154        -6.9431
  95   2.0000      -0.236531        -6.4363
  96   2.0000      -0.219133        -5.9629
  97   2.0000      -0.217621        -5.9218
  98   2.0000      -0.205292        -5.5863
  99   2.0000      -0.200766        -5.4631
 100   2.0000      -0.191835        -5.2201
 101   0.0000      -0.042561        -1.1581
 102   0.0000      -0.035411        -0.9636
 103   0.0000      -0.015634        -0.4254
 104   0.0000       0.013696         0.3727
 105   0.0000       0.016989         0.4623

MULLIKEN ATOMIC CHARGES
-----------------------
   0 C :   -0.309727
   1 C :   -0.003144
   2 O :   -0.372838
   3 P :    0.617962
   4 S :   -0.316766
   5 O :   -0.360733
   6 C :   -0.002899
   7 C :   -0.303740
   8 S :   -0.100177
   9 C :   -0.351838
  10 S :   -0.106097
  11 P :    0.596539
  12 S :   -0.324990
  13 O :   -0.357816
  14 C :   -0.045014
  15 C :   -0.268743
  16 O :   -0.356272
  17 C :   -0.000839
  18 C :   -0.316921
  19 H :    0.118661
  20 H :    0.119251
  21 H :    0.112078
  22 H :    0.109422
  23 H :    0.104476
  24 H :    0.121771
  25 H :    0.102880
  26 H :    0.111543
  27 H :    0.114883
  28 H :    0.122182
  29 H :    0.182085
  30 H :    0.212120
  31 H :    0.105386
  32 H :    0.129338
  33 H :    0.114158
  34 H :    0.108925
  35 H :    0.114863
  36 H :    0.107505
  37 H :    0.113415
  38 H :    0.113243
  39 H :    0.127278
  40 H :    0.118592
Sum of atomic charges:   -0.0000000

LOEWDIN ATOMIC CHARGES
----------------------
   0 C :   -0.368958
   1 C :   -0.119659
   2 O :   -0.245224
   3 P :    0.575023
   4 S :   -0.307591
   5 O :   -0.236423
   6 C :   -0.117191
   7 C :   -0.366521
   8 S :    0.086973
   9 C :   -0.478412
  10 S :    0.075980
  11 P :    0.565550
  12 S :   -0.301671
  13 O :   -0.237967
  14 C :   -0.127321
  15 C :   -0.349802
  16 O :   -0.232539
  17 C :   -0.116397
  18 C :   -0.369459
  19 H :    0.124274
  20 H :    0.119052
  21 H :    0.130188
  22 H :    0.109479
  23 H :    0.118358
  24 H :    0.110549
  25 H :    0.117592
  26 H :    0.130454
  27 H :    0.125412
  28 H :    0.121388
  29 H :    0.135331
  30 H :    0.124845
  31 H :    0.103739
  32 H :    0.110096
  33 H :    0.126029
  34 H :    0.129368
  35 H :    0.126492
  36 H :    0.120066
  37 H :    0.111986
  38 H :    0.131022
  39 H :    0.121326
  40 H :    0.124560

  Mayer bond orders larger than 0.100000
B(  0-C ,  1-C ) :   1.1669 B(  0-C , 19-H ) :   0.9434 B(  0-C , 20-H ) :   0.9375
B(  0-C , 21-H ) :   0.9379 B(  1-C ,  2-O ) :   0.9131 B(  1-C , 22-H ) :   0.9154
B(  1-C , 23-H ) :   0.9340 B(  2-O ,  3-P ) :   1.0995 B(  3-P ,  4-S ) :   1.5933
B(  3-P ,  5-O ) :   1.1242 B(  3-P ,  8-S ) :   0.9625 B(  4-S ,  8-S ) :   0.1161
B(  5-O ,  6-C ) :   0.9008 B(  6-C ,  7-C ) :   1.1629 B(  6-C , 24-H ) :   0.9168
B(  6-C , 25-H ) :   0.9349 B(  7-C , 26-H ) :   0.9384 B(  7-C , 27-H ) :   0.9445
B(  7-C , 28-H ) :   0.9353 B(  8-S ,  9-C ) :   0.9859 B(  9-C , 10-S ) :   1.0137
B(  9-C , 29-H ) :   0.9082 B(  9-C , 30-H ) :   0.8481 B( 10-S , 11-P ) :   0.9262
B( 10-S , 12-S ) :   0.1186 B( 11-P , 12-S ) :   1.6217 B( 11-P , 13-O ) :   1.1322
B( 11-P , 16-O ) :   1.1367 B( 13-O , 14-C ) :   0.9053 B( 14-C , 15-C ) :   1.1564
B( 14-C , 31-H ) :   0.9214 B( 14-C , 32-H ) :   0.9053 B( 15-C , 33-H ) :   0.9499
B( 15-C , 34-H ) :   0.9428 B( 15-C , 35-H ) :   0.9508 B( 16-O , 17-C ) :   0.9088
B( 17-C , 18-C ) :   1.1649 B( 17-C , 36-H ) :   0.9343 B( 17-C , 37-H ) :   0.9167
B( 18-C , 38-H ) :   0.9377 B( 18-C , 39-H ) :   0.9370 B( 18-C , 40-H ) :   0.9441

Dispersion correction           -0.066567703
FINAL SINGLE POINT ENERGY     -2929.523485584094

DIPOLE MOMENT
-------------

Method             : SCF
Type of density    : Electron Density
Multiplicity       :   1
Irrep              :   0
Energy             : -2929.6417175590572697 Eh
Relativity type    :
Basis              : AO
                                X                 Y                 Z
Electronic contribution:     -5.888127180      -4.965732772      -3.596810096
Nuclear contribution   :      6.266886589       4.738378278       3.955013373
                        -----------------------------------------
Total Dipole Moment    :      0.378759409      -0.227354494       0.358203277
                        -----------------------------------------
Magnitude (a.u.)       :      0.568733984
Magnitude (Debye)      :      1.445606902

Rotational constants in cm-1:             0.011796             0.005185             0.004922
Rotational constants in MHz :           353.631913           155.428246           147.563604

                             ****ORCA TERMINATED NORMALLY****
TOTAL RUN TIME: 0 days 0 hours 0 minutes 21 seconds 334 msec
