                         Program Version 6.0.0  -   RELEASE  -
|  1> ! pbe def2-sv(p) def2/J RI DEFGRID1 loosescf d4 GCP(DFT/SV(P)) printgap
|  2> %output
|  3>     printlevel normal
|  4> end
|  5> * xyz 0 1
|  6> C 2.3132637961 2.3544731306 -0.9208599809
|  7> C 2.1371424434 0.9548990197 -1.4728564197
|  8> O 2.8753173342 -0.0307036181 -0.7359734241
|  9> P 2.6261643634 -0.4821225078 0.7703661603
| 10> S 3.0510822275 0.7818770897 2.2035607982
| 11> O 3.5756354974 -1.7325491515 0.8653281969
| 12> C 3.826723146 -2.6962740261 -0.18702906
| 13> C 2.5770761258 -3.4399934965 -0.6076292487
| 14> S 0.6270935059 -1.249019502 0.851065172
| 15> C -0.1397045712 0.0179514006 1.8806177799
| 16> S -0.7845362368 1.4415353014 0.9498732942
| 17> P -2.0996805823 0.4141400297 -0.364352445
| 18> S -1.3594416296 -0.4111304384 -1.987428192
| 19> O -3.2041196958 1.5145492497 -0.6652319816
| 20> C -2.974800444 2.5750223387 -1.6143236368
| 21> C -4.3173260204 3.1816702008 -1.9688107039
| 22> O -2.8315838578 -0.5488966822 0.6507406992
| 23> C -3.4856854782 -1.7578470998 0.2059968707
| 24> C -4.7394519214 -1.4480691494 -0.5831524837
| 25> H 1.8390926249 3.0631152188 -1.5922709489
| 26> H 1.8553938984 2.4417792791 0.0629436901
| 27> H 3.3704892101 2.5921339837 -0.8330515762
| 28> H 2.5422264954 0.8741270756 -2.4835115662
| 29> H 1.0809969517 0.6670964437 -1.4914131138
| 30> H 4.2730854524 -2.169817603 -1.0324442696
| 31> H 4.5596901602 -3.3668612742 0.2640572201
| 32> H 2.1000555575 -3.9001089338 0.254231164
| 33> H 1.8669485873 -2.7618214386 -1.0793982123
| 34> H 2.8472043798 -4.2120951413 -1.321464456
| 35> H 0.6094925492 0.4245308465 2.5647393086
| 36> H -0.9573760478 -0.4538631893 2.4181925986
| 37> H -2.31387561 3.3114404163 -1.1486595634
| 38> H -2.47823413 2.1534000724 -2.4950726438
| 39> H -4.1643190564 4.0049387074 -2.6587506901
| 40> H -4.9548576308 2.4364035349 -2.4357076516
| 41> H -4.8049715216 3.5497963097 -1.0709480275
| 42> H -2.7768843141 -2.3343422466 -0.3970863418
| 43> H -3.7070235235 -2.292042896 1.1306799756
| 44> H -5.3992597202 -0.8075226747 -0.0040671138
| 45> H -4.4741967519 -0.9363918673 -1.5075366519
| 46> H -5.251726688 -2.3737294439 -0.8258758304
| 47> *
| 48>
| 49>                          ****END OF INPUT****

CARTESIAN COORDINATES (ANGSTROEM)
---------------------------------
  C      2.313264    2.354473   -0.920860
  C      2.137142    0.954899   -1.472856
  O      2.875317   -0.030704   -0.735973
  P      2.626164   -0.482123    0.770366
  S      3.051082    0.781877    2.203561
  O      3.575635   -1.732549    0.865328
  C      3.826723   -2.696274   -0.187029
  C      2.577076   -3.439993   -0.607629
  S      0.627094   -1.249020    0.851065
  C     -0.139705    0.017951    1.880618
  S     -0.784536    1.441535    0.949873
  P     -2.099681    0.414140   -0.364352
  S     -1.359442   -0.411130   -1.987428
  O     -3.204120    1.514549   -0.665232
  C     -2.974800    2.575022   -1.614324
  C     -4.317326    3.181670   -1.968811
  O     -2.831584   -0.548897    0.650741
  C     -3.485685   -1.757847    0.205997
  C     -4.739452   -1.448069   -0.583152
  H      1.839093    3.063115   -1.592271
  H      1.855394    2.441779    0.062944
  H      3.370489    2.592134   -0.833052
  H      2.542226    0.874127   -2.483512
  H      1.080997    0.667096   -1.491413
  H      4.273085   -2.169818   -1.032444
  H      4.559690   -3.366861    0.264057
  H      2.100056   -3.900109    0.254231
  H      1.866949   -2.761821   -1.079398
  H      2.847204   -4.212095   -1.321464
  H      0.609493    0.424531    2.564739
  H     -0.957376   -0.453863    2.418193
  H     -2.313876    3.311440   -1.148660
  H     -2.478234    2.153400   -2.495073
  H     -4.164319    4.004939   -2.658751
  H     -4.954858    2.436404   -2.435708
  H     -4.804972    3.549796   -1.070948
  H     -2.776884   -2.334342   -0.397086
  H     -3.707024   -2.292043    1.130680
  H     -5.399260   -0.807523   -0.004067
  H     -4.474197   -0.936392   -1.507537
  H     -5.251727   -2.373729   -0.825876

 Total Charge           Charge          ....    0
 Multiplicity           Mult            ....    1
 Number of Electrons    NEL             ....  202
 Basis Dimension        Dim             ....  334

ORBITAL ENERGIES
----------------

  NO   OCC          E(Eh)            E(eV)
   0   2.0000     -88.042419     -2395.7560
   1   2.0000     -88.039354     -2395.6726
   2   2.0000     -87.991907     -2394.3815
   3   2.0000     -87.980778     -2394.0787
   4   2.0000     -76.432097     -2079.8231
   5   2.0000     -76.423903     -2079.6001
   6   2.0000     -18.802608      -511.6450
   7   2.0000     -18.796721      -511.4848
   8   2.0000     -18.788472      -511.2603
   9   2.0000     -18.788335      -511.2566
  10   2.0000      -9.959262      -271.0053
  11   2.0000      -9.958940      -270.9965
  12   2.0000      -9.955288      -270.8972
  13   2.0000      -9.952510      -270.8216
  14   2.0000      -9.941993      -270.5354
  15   2.0000      -9.893009      -269.2025
  16   2.0000      -9.889444      -269.1055
  17   2.0000      -9.888891      -269.0904
  18   2.0000      -9.870869      -268.6000
  19   2.0000      -7.687482      -209.1870
  20   2.0000      -7.683927      -209.0903
  21   2.0000      -7.636479      -207.7992
  22   2.0000      -7.626013      -207.5144
  23   2.0000      -6.429673      -174.9603
  24   2.0000      -6.421016      -174.7247
  25   2.0000      -5.715451      -155.5253
  26   2.0000      -5.712094      -155.4340
  27   2.0000      -5.711892      -155.4285
  28   2.0000      -5.708361      -155.3324
  29   2.0000      -5.704258      -155.2208
  30   2.0000      -5.700985      -155.1317
  31   2.0000      -5.665249      -154.1593
  32   2.0000      -5.657157      -153.9391
  33   2.0000      -5.656777      -153.9287
  34   2.0000      -5.655018      -153.8809
  35   2.0000      -5.646546      -153.6503
  36   2.0000      -5.646112      -153.6385
  37   2.0000      -4.652319      -126.5960
  38   2.0000      -4.651489      -126.5734
  39   2.0000      -4.649981      -126.5324
  40   2.0000      -4.643868      -126.3661
  41   2.0000      -4.642814      -126.3374
  42   2.0000      -4.641272      -126.2954
  43   2.0000      -0.995134       -27.0790
  44   2.0000      -0.984539       -26.7907
  45   2.0000      -0.954926       -25.9849
  46   2.0000      -0.939071       -25.5534
  47   2.0000      -0.761883       -20.7319
  48   2.0000      -0.724100       -19.7038
  49   2.0000      -0.711524       -19.3616
  50   2.0000      -0.695164       -18.9164
  51   2.0000      -0.685273       -18.6472
  52   2.0000      -0.672240       -18.2926
  53   2.0000      -0.653608       -17.7856
  54   2.0000      -0.637417       -17.3450
  55   2.0000      -0.602256       -16.3882
  56   2.0000      -0.589911       -16.0523
  57   2.0000      -0.575470       -15.6593
  58   2.0000      -0.571707       -15.5570
  59   2.0000      -0.562372       -15.3029
  60   2.0000      -0.509832       -13.8732
  61   2.0000      -0.492244       -13.3946
  62   2.0000      -0.486085       -13.2271
  63   2.0000      -0.468180       -12.7398
  64   2.0000      -0.459380       -12.5004
  65   2.0000      -0.446756       -12.1568
  66   2.0000      -0.442716       -12.0469
  67   2.0000      -0.438549       -11.9335
  68   2.0000      -0.421469       -11.4688
  69   2.0000      -0.419733       -11.4215
  70   2.0000      -0.411449       -11.1961
  71   2.0000      -0.403163       -10.9706
  72   2.0000      -0.397780       -10.8241
  73   2.0000      -0.387014       -10.5312
  74   2.0000      -0.380922       -10.3654
  75   2.0000      -0.378537       -10.3005
  76   2.0000      -0.363751        -9.8982
  77   2.0000      -0.361392        -9.8340
  78   2.0000      -0.353887        -9.6298
  79   2.0000      -0.353620        -9.6225
  80   2.0000      -0.349328        -9.5057
  81   2.0000      -0.347516        -9.4564
  82   2.0000      -0.341824        -9.3015
  83   2.0000      -0.335753        -9.1363
  84   2.0000      -0.329706        -8.9718
  85   2.0000      -0.322729        -8.7819
  86   2.0000      -0.310714        -8.4549
  87   2.0000      -0.305110        -8.3025
  88   2.0000      -0.294548        -8.0151
  89   2.0000      -0.292087        -7.9481
  90   2.0000      -0.286156        -7.7867
  91   2.0000      -0.281476        -7.6593
  92   2.0000      -0.272942        -7.4271
  93   2.0000      -0.266334        -7.2473
  94   2.0000      -0.255482        -6.9520
  95   2.0000      -0.242656        -6.6030
  96   2.0000      -0.220717        -6.0060
  97   2.0000      -0.205775        -5.5994
  98   2.0000      -0.201808        -5.4915
  99   2.0000      -0.200172        -5.4470
 100   2.0000      -0.191501        -5.2110
 101   0.0000      -0.049404        -1.3444
 102   0.0000      -0.023096        -0.6285
 103   0.0000      -0.018152        -0.4940
 104   0.0000       0.000026         0.0007
 105   0.0000       0.010524         0.2864

MULLIKEN ATOMIC CHARGES
-----------------------
   0 C :   -0.305570
   1 C :   -0.026258
   2 O :   -0.381936
   3 P :    0.623484
   4 S :   -0.312900
   5 O :   -0.361561
   6 C :    0.007528
   7 C :   -0.339541
   8 S :   -0.117934
   9 C :   -0.336058
  10 S :   -0.102548
  11 P :    0.617136
  12 S :   -0.316940
  13 O :   -0.371858
  14 C :   -0.016301
  15 C :   -0.281073
  16 O :   -0.369979
  17 C :   -0.008751
  18 C :   -0.306742
  19 H :    0.101457
  20 H :    0.130549
  21 H :    0.113270
  22 H :    0.097636
  23 H :    0.126783
  24 H :    0.112196
  25 H :    0.110558
  26 H :    0.127804
  27 H :    0.139724
  28 H :    0.117719
  29 H :    0.193621
  30 H :    0.188561
  31 H :    0.105602
  32 H :    0.105054
  33 H :    0.113533
  34 H :    0.120240
  35 H :    0.120188
  36 H :    0.116951
  37 H :    0.107774
  38 H :    0.119390
  39 H :    0.124262
  40 H :    0.114930
Sum of atomic charges:   -0.0000000

LOEWDIN ATOMIC CHARGES
----------------------
   0 C :   -0.369521
   1 C :   -0.123705
   2 O :   -0.243196
   3 P :    0.571972
   4 S :   -0.300741
   5 O :   -0.235870
   6 C :   -0.108386
   7 C :   -0.373336
   8 S :    0.076686
   9 C :   -0.483163
  10 S :    0.078938
  11 P :    0.570728
  12 S :   -0.310842
  13 O :   -0.246587
  14 C :   -0.121327
  15 C :   -0.349840
  16 O :   -0.236344
  17 C :   -0.117139
  18 C :   -0.364587
  19 H :    0.126377
  20 H :    0.113680
  21 H :    0.124726
  22 H :    0.116690
  23 H :    0.098185
  24 H :    0.115942
  25 H :    0.122773
  26 H :    0.127855
  27 H :    0.122154
  28 H :    0.133905
  29 H :    0.127658
  30 H :    0.133856
  31 H :    0.111129
  32 H :    0.107160
  33 H :    0.131804
  34 H :    0.128495
  35 H :    0.128659
  36 H :    0.112798
  37 H :    0.119728
  38 H :    0.127835
  39 H :    0.122687
  40 H :    0.132162

  Mayer bond orders larger than 0.100000
B(  0-C ,  1-C ) :   1.1662 B(  0-C , 19-H ) :   0.9383 B(  0-C , 20-H ) :   0.9274
B(  0-C , 21-H ) :   0.9440 B(  1-C ,  2-O ) :   0.9041 B(  1-C , 22-H ) :   0.9351
B(  1-C , 23-H ) :   0.8948 B(  2-O ,  3-P ) :   1.0832 B(  3-P ,  4-S ) :   1.6440
B(  3-P ,  5-O ) :   1.1457 B(  3-P ,  8-S ) :   0.9292 B(  4-S ,  8-S ) :   0.1139
B(  4-S , 29-H ) :   0.1173 B(  5-O ,  6-C ) :   0.8995 B(  6-C ,  7-C ) :   1.1699
B(  6-C , 24-H ) :   0.9271 B(  6-C , 25-H ) :   0.9338 B(  7-C , 26-H ) :   0.9417
B(  7-C , 27-H ) :   0.9310 B(  7-C , 28-H ) :   0.9352 B(  8-S ,  9-C ) :   1.0238
B(  9-C , 10-S ) :   0.9930 B(  9-C , 29-H ) :   0.8533 B(  9-C , 30-H ) :   0.8986
B( 10-S , 11-P ) :   0.9681 B( 10-S , 12-S ) :   0.1065 B( 11-P , 12-S ) :   1.6068
B( 11-P , 13-O ) :   1.1060 B( 11-P , 16-O ) :   1.1242 B( 13-O , 14-C ) :   0.9058
B( 14-C , 15-C ) :   1.1628 B( 14-C , 31-H ) :   0.9284 B( 14-C , 32-H ) :   0.9074
B( 15-C , 33-H ) :   0.9412 B( 15-C , 34-H ) :   0.9517 B( 15-C , 35-H ) :   0.9503
B( 16-O , 17-C ) :   0.8944 B( 17-C , 18-C ) :   1.1665 B( 17-C , 36-H ) :   0.9150
B( 17-C , 37-H ) :   0.9333 B( 18-C , 38-H ) :   0.9457 B( 18-C , 39-H ) :   0.9340
B( 18-C , 40-H ) :   0.9383

Dispersion correction           -0.064918001
FINAL SINGLE POINT ENERGY     -2929.518115222510

DIPOLE MOMENT
-------------

Method             : SCF
Type of density    : Electron Density
Multiplicity       :   1
Irrep              :   0
Energy             : -2929.6380298967092131 Eh
Relativity type    :
Basis              : AO
                                X                 Y                 Z
Electronic contribution:     12.675262192      -0.427688281      14.120519580
Nuclear contribution   :    -13.960230183      -0.051655325     -15.132262202
                        -----------------------------------------
Total Dipole Moment    :     -1.284967992      -0.479343606      -1.011742621
                        -----------------------------------------
Magnitude (a.u.)       :      1.704269980
Magnitude (Debye)      :      4.331910026

Rotational constants in cm-1:             0.012609             0.004842             0.004399
Rotational constants in MHz :           377.995028           145.153683           131.887380

                             ****ORCA TERMINATED NORMALLY****
TOTAL RUN TIME: 0 days 0 hours 0 minutes 20 seconds 992 msec
