                         Program Version 6.0.0  -   RELEASE  -
|  1> ! r2scan-3c def2/J RI DEFGRID2 scfconv6 printgap
|  2> %output
|  3>     printlevel normal
|  4> end
|  5> * xyz 0 1
|  6> C 2.5947393278 -2.9647472199 -1.4172375642
|  7> C 3.4282178328 -1.7782179323 -1.8540541722
|  8> O 3.5870850563 -0.7931843479 -0.8073853002
|  9> P 2.4249881433 0.0160074035 -0.0894380636
| 10> S 3.1727388742 1.5976658524 0.7788985537
| 11> O 1.6776278887 -1.0108286674 0.8820966292
| 12> C 1.9629452924 -1.1200171027 2.2909943705
| 13> C 0.9471396816 -0.3533402112 3.1141910411
| 14> S 0.9766066526 0.2810626269 -1.6042225134
| 15> C 0.2524448419 1.8133693312 -0.9665729547
| 16> S -0.5905189957 1.6099102614 0.6237142547
| 17> P -2.0312304313 0.2105643932 -0.0327442621
| 18> S -2.7463075721 0.4422448372 -1.8474549134
| 19> O -3.1167863551 0.1993751352 1.1279382006
| 20> C -4.2649448803 1.0645207693 1.122470971
| 21> C -3.8875664891 2.5165662402 1.3345208445
| 22> O -1.255736126 -1.1389981116 0.2595485576
| 23> C -1.5597502077 -2.3669149745 -0.430152392
| 24> C -2.9286954196 -2.8971762607 -0.0590520796
| 25> H 3.0276094961 -3.4260151622 -0.5332023463
| 26> H 1.5802174338 -2.6428597396 -1.1900508419
| 27> H 2.5631576023 -3.6915840022 -2.2228604256
| 28> H 2.9794837131 -1.2863433291 -2.7211336063
| 29> H 4.455159058 -2.067434925 -2.0833392467
| 30> H 1.9144178754 -2.1905381332 2.4986296395
| 31> H 2.9751411796 -0.7517900548 2.4836064471
| 32> H 1.05840315 0.7162472572 2.9487739496
| 33> H -0.0608547127 -0.6469839672 2.8308034557
| 34> H 1.1045849442 -0.5683921715 4.1662089698
| 35> H -0.4589569956 2.145623174 -1.7220671265
| 36> H 1.0389206966 2.5499349377 -0.8048566497
| 37> H -4.787584917 0.9392463669 0.1686321501
| 38> H -4.8826566816 0.6857754741 1.9378860091
| 39> H -3.3264744497 2.8858270993 0.4770713544
| 40> H -4.7894297122 3.1099008785 1.4463349058
| 41> H -3.2725068854 2.6214488408 2.2248273289
| 42> H -1.4925478173 -2.1847700175 -1.5079124826
| 43> H -0.7647242027 -3.0458237454 -0.1176100862
| 44> H -3.079489929 -3.8647892664 -0.5273098705
| 45> H -3.0142026336 -2.9976330184 1.0197512608
| 46> H -3.6976953751 -2.2102136925 -0.4108546161
| 47> *
| 48>
| 49>                          ****END OF INPUT****

CARTESIAN COORDINATES (ANGSTROEM)
---------------------------------
  C      2.594739   -2.964747   -1.417238
  C      3.428218   -1.778218   -1.854054
  O      3.587085   -0.793184   -0.807385
  P      2.424988    0.016007   -0.089438
  S      3.172739    1.597666    0.778899
  O      1.677628   -1.010829    0.882097
  C      1.962945   -1.120017    2.290994
  C      0.947140   -0.353340    3.114191
  S      0.976607    0.281063   -1.604223
  C      0.252445    1.813369   -0.966573
  S     -0.590519    1.609910    0.623714
  P     -2.031230    0.210564   -0.032744
  S     -2.746308    0.442245   -1.847455
  O     -3.116786    0.199375    1.127938
  C     -4.264945    1.064521    1.122471
  C     -3.887566    2.516566    1.334521
  O     -1.255736   -1.138998    0.259549
  C     -1.559750   -2.366915   -0.430152
  C     -2.928695   -2.897176   -0.059052
  H      3.027609   -3.426015   -0.533202
  H      1.580217   -2.642860   -1.190051
  H      2.563158   -3.691584   -2.222860
  H      2.979484   -1.286343   -2.721134
  H      4.455159   -2.067435   -2.083339
  H      1.914418   -2.190538    2.498630
  H      2.975141   -0.751790    2.483606
  H      1.058403    0.716247    2.948774
  H     -0.060855   -0.646984    2.830803
  H      1.104585   -0.568392    4.166209
  H     -0.458957    2.145623   -1.722067
  H      1.038921    2.549935   -0.804857
  H     -4.787585    0.939246    0.168632
  H     -4.882657    0.685775    1.937886
  H     -3.326474    2.885827    0.477071
  H     -4.789430    3.109901    1.446335
  H     -3.272507    2.621449    2.224827
  H     -1.492548   -2.184770   -1.507912
  H     -0.764724   -3.045824   -0.117610
  H     -3.079490   -3.864789   -0.527310
  H     -3.014203   -2.997633    1.019751
  H     -3.697695   -2.210214   -0.410855

 Total Charge           Charge          ....    0
 Multiplicity           Mult            ....    1
 Number of Electrons    NEL             ....  202
 Basis Dimension        Dim             ....  539

ORBITAL ENERGIES
----------------

  NO   OCC          E(Eh)            E(eV)
   0   2.0000     -88.576654     -2410.2933
   1   2.0000     -88.575090     -2410.2507
   2   2.0000     -88.523914     -2408.8582
   3   2.0000     -88.515824     -2408.6380
   4   2.0000     -76.915336     -2092.9727
   5   2.0000     -76.912134     -2092.8856
   6   2.0000     -18.995338      -516.8894
   7   2.0000     -18.988726      -516.7095
   8   2.0000     -18.988725      -516.7095
   9   2.0000     -18.982971      -516.5529
  10   2.0000     -10.107837      -275.0482
  11   2.0000     -10.105764      -274.9918
  12   2.0000     -10.100908      -274.8597
  13   2.0000     -10.099027      -274.8085
  14   2.0000     -10.093680      -274.6630
  15   2.0000     -10.037324      -273.1295
  16   2.0000     -10.030419      -272.9416
  17   2.0000     -10.030245      -272.9368
  18   2.0000     -10.018490      -272.6170
  19   2.0000      -7.871217      -214.1867
  20   2.0000      -7.869555      -214.1415
  21   2.0000      -7.818649      -212.7562
  22   2.0000      -7.810751      -212.5413
  23   2.0000      -6.593938      -179.4302
  24   2.0000      -6.590272      -179.3304
  25   2.0000      -5.818142      -158.3197
  26   2.0000      -5.816472      -158.2743
  27   2.0000      -5.815069      -158.2361
  28   2.0000      -5.813471      -158.1926
  29   2.0000      -5.808222      -158.0498
  30   2.0000      -5.806530      -158.0037
  31   2.0000      -5.766253      -156.9077
  32   2.0000      -5.758928      -156.7084
  33   2.0000      -5.758703      -156.7023
  34   2.0000      -5.758548      -156.6981
  35   2.0000      -5.751289      -156.5005
  36   2.0000      -5.750312      -156.4740
  37   2.0000      -4.739296      -128.9628
  38   2.0000      -4.738804      -128.9494
  39   2.0000      -4.737849      -128.9234
  40   2.0000      -4.736075      -128.8752
  41   2.0000      -4.735004      -128.8460
  42   2.0000      -4.733966      -128.8178
  43   2.0000      -1.051634       -28.6164
  44   2.0000      -1.041736       -28.3471
  45   2.0000      -1.012485       -27.5511
  46   2.0000      -1.004736       -27.3403
  47   2.0000      -0.804206       -21.8836
  48   2.0000      -0.759133       -20.6571
  49   2.0000      -0.750819       -20.4308
  50   2.0000      -0.733685       -19.9646
  51   2.0000      -0.731934       -19.9169
  52   2.0000      -0.710641       -19.3375
  53   2.0000      -0.686641       -18.6844
  54   2.0000      -0.671081       -18.2611
  55   2.0000      -0.635102       -17.2820
  56   2.0000      -0.622274       -16.9329
  57   2.0000      -0.610451       -16.6112
  58   2.0000      -0.607031       -16.5181
  59   2.0000      -0.589662       -16.0455
  60   2.0000      -0.524398       -14.2696
  61   2.0000      -0.517650       -14.0860
  62   2.0000      -0.494900       -13.4669
  63   2.0000      -0.493061       -13.4169
  64   2.0000      -0.475949       -12.9512
  65   2.0000      -0.465294       -12.6613
  66   2.0000      -0.460474       -12.5301
  67   2.0000      -0.453748       -12.3471
  68   2.0000      -0.447154       -12.1677
  69   2.0000      -0.431694       -11.7470
  70   2.0000      -0.423855       -11.5337
  71   2.0000      -0.414560       -11.2807
  72   2.0000      -0.413108       -11.2412
  73   2.0000      -0.405832       -11.0432
  74   2.0000      -0.397809       -10.8249
  75   2.0000      -0.387601       -10.5472
  76   2.0000      -0.383468       -10.4347
  77   2.0000      -0.374685       -10.1957
  78   2.0000      -0.370118       -10.0714
  79   2.0000      -0.369157       -10.0453
  80   2.0000      -0.363140        -9.8815
  81   2.0000      -0.360910        -9.8209
  82   2.0000      -0.359953        -9.7948
  83   2.0000      -0.353846        -9.6286
  84   2.0000      -0.349786        -9.5182
  85   2.0000      -0.333665        -9.0795
  86   2.0000      -0.322662        -8.7801
  87   2.0000      -0.315394        -8.5823
  88   2.0000      -0.311660        -8.4807
  89   2.0000      -0.301118        -8.1938
  90   2.0000      -0.293050        -7.9743
  91   2.0000      -0.292324        -7.9546
  92   2.0000      -0.286799        -7.8042
  93   2.0000      -0.280881        -7.6431
  94   2.0000      -0.272867        -7.4251
  95   2.0000      -0.242895        -6.6095
  96   2.0000      -0.229777        -6.2525
  97   2.0000      -0.228163        -6.2086
  98   2.0000      -0.221005        -6.0138
  99   2.0000      -0.213182        -5.8010
 100   2.0000      -0.209090        -5.6896
 101   0.0000      -0.048419        -1.3175
 102   0.0000      -0.026888        -0.7317
 103   0.0000      -0.001949        -0.0530
 104   0.0000       0.006469         0.1760
 105   0.0000       0.007883         0.2145

MULLIKEN ATOMIC CHARGES
-----------------------
   0 C :   -0.427008
   1 C :   -0.172642
   2 O :   -0.261883
   3 P :    0.646075
   4 S :   -0.457064
   5 O :   -0.239519
   6 C :   -0.134571
   7 C :   -0.466743
   8 S :   -0.160336
   9 C :   -0.247575
  10 S :   -0.107499
  11 P :    0.684017
  12 S :   -0.485151
  13 O :   -0.303551
  14 C :   -0.152411
  15 C :   -0.449847
  16 O :   -0.250869
  17 C :   -0.166691
  18 C :   -0.451100
  19 H :    0.155980
  20 H :    0.160766
  21 H :    0.152394
  22 H :    0.164679
  23 H :    0.156043
  24 H :    0.143593
  25 H :    0.161076
  26 H :    0.180200
  27 H :    0.162165
  28 H :    0.139294
  29 H :    0.211128
  30 H :    0.211875
  31 H :    0.171558
  32 H :    0.148730
  33 H :    0.176197
  34 H :    0.148584
  35 H :    0.156422
  36 H :    0.177343
  37 H :    0.153269
  38 H :    0.146851
  39 H :    0.156185
  40 H :    0.170036
Sum of atomic charges:    0.0000000

LOEWDIN ATOMIC CHARGES
----------------------
   0 C :   -0.401053
   1 C :    0.020671
   2 O :   -0.662625
   3 P :    0.387604
   4 S :   -0.102855
   5 O :   -0.684908
   6 C :    0.022596
   7 C :   -0.407109
   8 S :    0.166798
   9 C :   -0.417540
  10 S :    0.180551
  11 P :    0.378832
  12 S :   -0.130527
  13 O :   -0.661172
  14 C :    0.019795
  15 C :   -0.406490
  16 O :   -0.674742
  17 C :    0.013953
  18 C :   -0.399651
  19 H :    0.161661
  20 H :    0.165238
  21 H :    0.160208
  22 H :    0.174879
  23 H :    0.183820
  24 H :    0.174734
  25 H :    0.178141
  26 H :    0.167147
  27 H :    0.163450
  28 H :    0.155177
  29 H :    0.189808
  30 H :    0.192508
  31 H :    0.179473
  32 H :    0.179645
  33 H :    0.165362
  34 H :    0.159526
  35 H :    0.160766
  36 H :    0.180957
  37 H :    0.179917
  38 H :    0.159266
  39 H :    0.160648
  40 H :    0.165541

  Mayer bond orders larger than 0.100000
B(  0-C ,  1-C ) :   0.9266 B(  0-C , 19-H ) :   0.9703 B(  0-C , 20-H ) :   0.9566
B(  0-C , 21-H ) :   0.9632 B(  1-C ,  2-O ) :   0.8038 B(  1-C , 22-H ) :   0.9689
B(  1-C , 23-H ) :   0.9557 B(  2-O ,  3-P ) :   1.1390 B(  3-P ,  4-S ) :   1.8294
B(  3-P ,  5-O ) :   1.0639 B(  3-P ,  8-S ) :   1.0414 B(  5-O ,  6-C ) :   0.7768
B(  6-C ,  7-C ) :   0.9434 B(  6-C , 24-H ) :   0.9644 B(  6-C , 25-H ) :   0.9633
B(  7-C , 26-H ) :   0.9621 B(  7-C , 27-H ) :   0.9691 B(  7-C , 28-H ) :   0.9620
B(  8-S ,  9-C ) :   0.9032 B(  9-C , 10-S ) :   0.9001 B(  9-C , 29-H ) :   0.9133
B(  9-C , 30-H ) :   0.9099 B( 10-S , 11-P ) :   1.0930 B( 11-P , 12-S ) :   1.7432
B( 11-P , 13-O ) :   1.0616 B( 11-P , 16-O ) :   1.1394 B( 13-O , 14-C ) :   0.8128
B( 14-C , 15-C ) :   0.9236 B( 14-C , 31-H ) :   0.9671 B( 14-C , 32-H ) :   0.9580
B( 15-C , 33-H ) :   0.9627 B( 15-C , 34-H ) :   0.9588 B( 15-C , 35-H ) :   0.9683
B( 16-O , 17-C ) :   0.7871 B( 17-C , 18-C ) :   0.9239 B( 17-C , 36-H ) :   0.9627
B( 17-C , 37-H ) :   0.9603 B( 18-C , 38-H ) :   0.9618 B( 18-C , 39-H ) :   0.9729
B( 18-C , 40-H ) :   0.9601

Dispersion correction           -0.022508691
FINAL SINGLE POINT ENERGY     -2932.459218189132

DIPOLE MOMENT
-------------

Method             : SCF
Type of density    : Electron Density
Multiplicity       :   1
Irrep              :   0
Energy             : -2932.4831580844866039 Eh
Relativity type    :
Basis              : AO
                                X                 Y                 Z
Electronic contribution:      9.837643692      13.849566934      -7.689204229
Nuclear contribution   :    -10.616376378     -15.293655203       8.034503003
                        -----------------------------------------
Total Dipole Moment    :     -0.778732685      -1.444088269       0.345298774
                        -----------------------------------------
Magnitude (a.u.)       :      1.676617657
Magnitude (Debye)      :      4.261623407

Rotational constants in cm-1:             0.011932             0.005706             0.005199
Rotational constants in MHz :           357.716231           171.075438           155.855003

                             ****ORCA TERMINATED NORMALLY****
TOTAL RUN TIME: 0 days 0 hours 1 minutes 27 seconds 994 msec
