                         Program Version 6.0.0  -   RELEASE  -
|  1> ! r2scan-3c def2/J RI DEFGRID2 scfconv6 printgap
|  2> %output
|  3>     printlevel normal
|  4> end
|  5> %cpcm
|  6>     smd true
|  7>     smdsolvent "water"
|  8> end
|  9> * xyz 0 1
| 10> C 2.5947393278 -2.9647472199 -1.4172375642
| 11> C 3.4282178328 -1.7782179323 -1.8540541722
| 12> O 3.5870850563 -0.7931843479 -0.8073853002
| 13> P 2.4249881433 0.0160074035 -0.0894380636
| 14> S 3.1727388742 1.5976658524 0.7788985537
| 15> O 1.6776278887 -1.0108286674 0.8820966292
| 16> C 1.9629452924 -1.1200171027 2.2909943705
| 17> C 0.9471396816 -0.3533402112 3.1141910411
| 18> S 0.9766066526 0.2810626269 -1.6042225134
| 19> C 0.2524448419 1.8133693312 -0.9665729547
| 20> S -0.5905189957 1.6099102614 0.6237142547
| 21> P -2.0312304313 0.2105643932 -0.0327442621
| 22> S -2.7463075721 0.4422448372 -1.8474549134
| 23> O -3.1167863551 0.1993751352 1.1279382006
| 24> C -4.2649448803 1.0645207693 1.122470971
| 25> C -3.8875664891 2.5165662402 1.3345208445
| 26> O -1.255736126 -1.1389981116 0.2595485576
| 27> C -1.5597502077 -2.3669149745 -0.430152392
| 28> C -2.9286954196 -2.8971762607 -0.0590520796
| 29> H 3.0276094961 -3.4260151622 -0.5332023463
| 30> H 1.5802174338 -2.6428597396 -1.1900508419
| 31> H 2.5631576023 -3.6915840022 -2.2228604256
| 32> H 2.9794837131 -1.2863433291 -2.7211336063
| 33> H 4.455159058 -2.067434925 -2.0833392467
| 34> H 1.9144178754 -2.1905381332 2.4986296395
| 35> H 2.9751411796 -0.7517900548 2.4836064471
| 36> H 1.05840315 0.7162472572 2.9487739496
| 37> H -0.0608547127 -0.6469839672 2.8308034557
| 38> H 1.1045849442 -0.5683921715 4.1662089698
| 39> H -0.4589569956 2.145623174 -1.7220671265
| 40> H 1.0389206966 2.5499349377 -0.8048566497
| 41> H -4.787584917 0.9392463669 0.1686321501
| 42> H -4.8826566816 0.6857754741 1.9378860091
| 43> H -3.3264744497 2.8858270993 0.4770713544
| 44> H -4.7894297122 3.1099008785 1.4463349058
| 45> H -3.2725068854 2.6214488408 2.2248273289
| 46> H -1.4925478173 -2.1847700175 -1.5079124826
| 47> H -0.7647242027 -3.0458237454 -0.1176100862
| 48> H -3.079489929 -3.8647892664 -0.5273098705
| 49> H -3.0142026336 -2.9976330184 1.0197512608
| 50> H -3.6976953751 -2.2102136925 -0.4108546161
| 51> *
| 52>
| 53>                          ****END OF INPUT****

CARTESIAN COORDINATES (ANGSTROEM)
---------------------------------
  C      2.594739   -2.964747   -1.417238
  C      3.428218   -1.778218   -1.854054
  O      3.587085   -0.793184   -0.807385
  P      2.424988    0.016007   -0.089438
  S      3.172739    1.597666    0.778899
  O      1.677628   -1.010829    0.882097
  C      1.962945   -1.120017    2.290994
  C      0.947140   -0.353340    3.114191
  S      0.976607    0.281063   -1.604223
  C      0.252445    1.813369   -0.966573
  S     -0.590519    1.609910    0.623714
  P     -2.031230    0.210564   -0.032744
  S     -2.746308    0.442245   -1.847455
  O     -3.116786    0.199375    1.127938
  C     -4.264945    1.064521    1.122471
  C     -3.887566    2.516566    1.334521
  O     -1.255736   -1.138998    0.259549
  C     -1.559750   -2.366915   -0.430152
  C     -2.928695   -2.897176   -0.059052
  H      3.027609   -3.426015   -0.533202
  H      1.580217   -2.642860   -1.190051
  H      2.563158   -3.691584   -2.222860
  H      2.979484   -1.286343   -2.721134
  H      4.455159   -2.067435   -2.083339
  H      1.914418   -2.190538    2.498630
  H      2.975141   -0.751790    2.483606
  H      1.058403    0.716247    2.948774
  H     -0.060855   -0.646984    2.830803
  H      1.104585   -0.568392    4.166209
  H     -0.458957    2.145623   -1.722067
  H      1.038921    2.549935   -0.804857
  H     -4.787585    0.939246    0.168632
  H     -4.882657    0.685775    1.937886
  H     -3.326474    2.885827    0.477071
  H     -4.789430    3.109901    1.446335
  H     -3.272507    2.621449    2.224827
  H     -1.492548   -2.184770   -1.507912
  H     -0.764724   -3.045824   -0.117610
  H     -3.079490   -3.864789   -0.527310
  H     -3.014203   -2.997633    1.019751
  H     -3.697695   -2.210214   -0.410855

 Total Charge           Charge          ....    0
 Multiplicity           Mult            ....    1
 Number of Electrons    NEL             ....  202
 Basis Dimension        Dim             ....  539

ORBITAL ENERGIES
----------------

  NO   OCC          E(Eh)            E(eV)
   0   2.0000     -88.580584     -2410.4002
   1   2.0000     -88.577393     -2410.3134
   2   2.0000     -88.528614     -2408.9860
   3   2.0000     -88.527233     -2408.9485
   4   2.0000     -76.919588     -2093.0884
   5   2.0000     -76.918491     -2093.0586
   6   2.0000     -18.995710      -516.8996
   7   2.0000     -18.992633      -516.8158
   8   2.0000     -18.990569      -516.7596
   9   2.0000     -18.987643      -516.6800
  10   2.0000     -10.106549      -275.0132
  11   2.0000     -10.093664      -274.6626
  12   2.0000     -10.089725      -274.5554
  13   2.0000     -10.088768      -274.5293
  14   2.0000     -10.087605      -274.4977
  15   2.0000     -10.020900      -272.6826
  16   2.0000     -10.018517      -272.6177
  17   2.0000     -10.018250      -272.6104
  18   2.0000     -10.014090      -272.4972
  19   2.0000      -7.875101      -214.2924
  20   2.0000      -7.871905      -214.2054
  21   2.0000      -7.823621      -212.8916
  22   2.0000      -7.822526      -212.8618
  23   2.0000      -6.597763      -179.5343
  24   2.0000      -6.597127      -179.5170
  25   2.0000      -5.822028      -158.4254
  26   2.0000      -5.818928      -158.3411
  27   2.0000      -5.818808      -158.3378
  28   2.0000      -5.815818      -158.2564
  29   2.0000      -5.812139      -158.1564
  30   2.0000      -5.808900      -158.0682
  31   2.0000      -5.771182      -157.0418
  32   2.0000      -5.770209      -157.0154
  33   2.0000      -5.763882      -156.8432
  34   2.0000      -5.763688      -156.8379
  35   2.0000      -5.762996      -156.8191
  36   2.0000      -5.762200      -156.7974
  37   2.0000      -4.743511      -129.0775
  38   2.0000      -4.742471      -129.0492
  39   2.0000      -4.742442      -129.0484
  40   2.0000      -4.742003      -129.0365
  41   2.0000      -4.741577      -129.0249
  42   2.0000      -4.741096      -129.0118
  43   2.0000      -1.052325       -28.6352
  44   2.0000      -1.045486       -28.4491
  45   2.0000      -1.012665       -27.5560
  46   2.0000      -1.008068       -27.4309
  47   2.0000      -0.805794       -21.9268
  48   2.0000      -0.755902       -20.5691
  49   2.0000      -0.743619       -20.2349
  50   2.0000      -0.726333       -19.7645
  51   2.0000      -0.722862       -19.6701
  52   2.0000      -0.709278       -19.3004
  53   2.0000      -0.689298       -18.7568
  54   2.0000      -0.676228       -18.4011
  55   2.0000      -0.632944       -17.2233
  56   2.0000      -0.619797       -16.8655
  57   2.0000      -0.604954       -16.4616
  58   2.0000      -0.598818       -16.2947
  59   2.0000      -0.587694       -15.9920
  60   2.0000      -0.521233       -14.1835
  61   2.0000      -0.513119       -13.9627
  62   2.0000      -0.491665       -13.3789
  63   2.0000      -0.488403       -13.2901
  64   2.0000      -0.474597       -12.9144
  65   2.0000      -0.460760       -12.5379
  66   2.0000      -0.454567       -12.3694
  67   2.0000      -0.449245       -12.2246
  68   2.0000      -0.442372       -12.0375
  69   2.0000      -0.427311       -11.6277
  70   2.0000      -0.420668       -11.4470
  71   2.0000      -0.410841       -11.1796
  72   2.0000      -0.407120       -11.0783
  73   2.0000      -0.403565       -10.9816
  74   2.0000      -0.394364       -10.7312
  75   2.0000      -0.385540       -10.4911
  76   2.0000      -0.384007       -10.4494
  77   2.0000      -0.370933       -10.0936
  78   2.0000      -0.364470        -9.9177
  79   2.0000      -0.358579        -9.7574
  80   2.0000      -0.354225        -9.6390
  81   2.0000      -0.353378        -9.6159
  82   2.0000      -0.352007        -9.5786
  83   2.0000      -0.347269        -9.4497
  84   2.0000      -0.346623        -9.4321
  85   2.0000      -0.329942        -8.9782
  86   2.0000      -0.317172        -8.6307
  87   2.0000      -0.313534        -8.5317
  88   2.0000      -0.304651        -8.2900
  89   2.0000      -0.299361        -8.1460
  90   2.0000      -0.295013        -8.0277
  91   2.0000      -0.290190        -7.8965
  92   2.0000      -0.285441        -7.7673
  93   2.0000      -0.279443        -7.6040
  94   2.0000      -0.274612        -7.4726
  95   2.0000      -0.245621        -6.6837
  96   2.0000      -0.237169        -6.4537
  97   2.0000      -0.233991        -6.3672
  98   2.0000      -0.227531        -6.1914
  99   2.0000      -0.221768        -6.0346
 100   2.0000      -0.219326        -5.9682
 101   0.0000      -0.052391        -1.4256
 102   0.0000      -0.032433        -0.8826
 103   0.0000      -0.004514        -0.1228
 104   0.0000       0.001994         0.0543
 105   0.0000       0.007810         0.2125

MULLIKEN ATOMIC CHARGES
-----------------------
   0 C :   -0.460605
   1 C :   -0.166199
   2 O :   -0.299457
   3 P :    0.659203
   4 S :   -0.514351
   5 O :   -0.261297
   6 C :   -0.130018
   7 C :   -0.491296
   8 S :   -0.165325
   9 C :   -0.259741
  10 S :   -0.118480
  11 P :    0.724102
  12 S :   -0.527771
  13 O :   -0.330997
  14 C :   -0.153070
  15 C :   -0.486346
  16 O :   -0.286124
  17 C :   -0.154724
  18 C :   -0.492215
  19 H :    0.171522
  20 H :    0.162002
  21 H :    0.177371
  22 H :    0.176524
  23 H :    0.179655
  24 H :    0.174286
  25 H :    0.167247
  26 H :    0.171854
  27 H :    0.163747
  28 H :    0.164942
  29 H :    0.235142
  30 H :    0.231427
  31 H :    0.177937
  32 H :    0.175497
  33 H :    0.172638
  34 H :    0.172917
  35 H :    0.169171
  36 H :    0.179656
  37 H :    0.179767
  38 H :    0.172204
  39 H :    0.170038
  40 H :    0.169168
Sum of atomic charges:    0.0000000

LOEWDIN ATOMIC CHARGES
----------------------
   0 C :   -0.400935
   1 C :    0.027061
   2 O :   -0.683363
   3 P :    0.389248
   4 S :   -0.144727
   5 O :   -0.694770
   6 C :    0.027727
   7 C :   -0.409660
   8 S :    0.167292
   9 C :   -0.412056
  10 S :    0.174757
  11 P :    0.384254
  12 S :   -0.155735
  13 O :   -0.672390
  14 C :    0.025442
  15 C :   -0.409897
  16 O :   -0.691668
  17 C :    0.019640
  18 C :   -0.403047
  19 H :    0.165567
  20 H :    0.164256
  21 H :    0.170505
  22 H :    0.180280
  23 H :    0.194066
  24 H :    0.187596
  25 H :    0.180563
  26 H :    0.162121
  27 H :    0.163000
  28 H :    0.164329
  29 H :    0.197424
  30 H :    0.198125
  31 H :    0.181568
  32 H :    0.190996
  33 H :    0.161491
  34 H :    0.168340
  35 H :    0.163601
  36 H :    0.182342
  37 H :    0.191010
  38 H :    0.168695
  39 H :    0.164126
  40 H :    0.162823

  Mayer bond orders larger than 0.100000
B(  0-C ,  1-C ) :   0.9156 B(  0-C , 19-H ) :   0.9693 B(  0-C , 20-H ) :   0.9535
B(  0-C , 21-H ) :   0.9567 B(  1-C ,  2-O ) :   0.7918 B(  1-C , 22-H ) :   0.9590
B(  1-C , 23-H ) :   0.9454 B(  2-O ,  3-P ) :   1.1473 B(  3-P ,  4-S ) :   1.8023
B(  3-P ,  5-O ) :   1.0690 B(  3-P ,  8-S ) :   1.0624 B(  5-O ,  6-C ) :   0.7639
B(  6-C ,  7-C ) :   0.9329 B(  6-C , 24-H ) :   0.9547 B(  6-C , 25-H ) :   0.9613
B(  7-C , 26-H ) :   0.9645 B(  7-C , 27-H ) :   0.9670 B(  7-C , 28-H ) :   0.9583
B(  8-S ,  9-C ) :   0.8895 B(  9-C , 10-S ) :   0.8911 B(  9-C , 29-H ) :   0.9066
B(  9-C , 30-H ) :   0.9048 B( 10-S , 11-P ) :   1.1007 B( 11-P , 12-S ) :   1.7046
B( 11-P , 13-O ) :   1.0700 B( 11-P , 16-O ) :   1.1448 B( 13-O , 14-C ) :   0.8010
B( 14-C , 15-C ) :   0.9102 B( 14-C , 31-H ) :   0.9657 B( 14-C , 32-H ) :   0.9483
B( 15-C , 33-H ) :   0.9637 B( 15-C , 34-H ) :   0.9535 B( 15-C , 35-H ) :   0.9658
B( 16-O , 17-C ) :   0.7772 B( 17-C , 18-C ) :   0.9113 B( 17-C , 36-H ) :   0.9586
B( 17-C , 37-H ) :   0.9496 B( 18-C , 38-H ) :   0.9560 B( 18-C , 39-H ) :   0.9714
B( 18-C , 40-H ) :   0.9599

Dispersion correction           -0.022508691
FINAL SINGLE POINT ENERGY     -2932.469387164034

DIPOLE MOMENT
-------------

Method             : SCF
Type of density    : Electron Density
Multiplicity       :   1
Irrep              :   0
Energy             : -2932.4933270593887755 Eh
Relativity type    :
Basis              : AO
                                X                 Y                 Z
Electronic contribution:      9.547367864      13.323054762      -7.663047068
Nuclear contribution   :    -10.616376378     -15.293655203       8.034503003
                        -----------------------------------------
Total Dipole Moment    :     -1.069008514      -1.970600441       0.371455935
                        -----------------------------------------
Magnitude (a.u.)       :      2.272449078
Magnitude (Debye)      :      5.776106521

Rotational constants in cm-1:             0.011932             0.005706             0.005199
Rotational constants in MHz :           357.716231           171.075438           155.855003

                             ****ORCA TERMINATED NORMALLY****
TOTAL RUN TIME: 0 days 0 hours 1 minutes 55 seconds 422 msec
