                         Program Version 6.0.0  -   RELEASE  -
|  1> ! pbe def2-sv(p) def2/J RI DEFGRID1 loosescf d4 GCP(DFT/SV(P)) printgap
|  2> %output
|  3>     printlevel normal
|  4> end
|  5> * xyz 0 1
|  6> C 4.6627601864 0.2792571917 -1.8627473309
|  7> C 4.4482772174 0.8269358187 -0.4671019795
|  8> O 3.411035961 0.120854953 0.2365407282
|  9> P 1.8841929759 0.2138107582 -0.1938226122
| 10> S 1.3345701498 2.0115009451 -0.7258741382
| 11> O 1.1239593565 -0.3331705066 1.0807545904
| 12> C 1.6718151546 -1.4019567688 1.9003830964
| 13> C 2.3440444789 -0.8276178359 3.1286015845
| 14> S 1.7172024495 -1.3651126278 -1.6214433962
| 15> C -0.0592752095 -1.7258201186 -1.5085180804
| 16> S -1.1338714872 -0.270652339 -1.6349280596
| 17> P -1.9304577431 -0.2052397739 0.3471352472
| 18> S -1.7354949885 -1.8544596604 1.3769447539
| 19> O -3.4418427656 0.2007309076 0.0533201602
| 20> C -4.3547435499 -0.7323522981 -0.5604311543
| 21> C -5.7544791156 -0.1681194881 -0.4289290442
| 22> O -1.415673366 1.0736957794 1.1007451078
| 23> C -1.7776518646 2.4301050915 0.7267784945
| 24> C -1.1200368726 3.3609871633 1.7217203864
| 25> H 3.7849004888 0.4745152218 -2.4777120805
| 26> H 5.5217632296 0.7672691133 -2.3117591099
| 27> H 4.8324127378 -0.7939076122 -1.8282195146
| 28> H 4.1796845912 1.8874177989 -0.505712264
| 29> H 5.3295018267 0.6883910743 0.1606705015
| 30> H 0.8086240849 -2.0142295597 2.1710104308
| 31> H 2.3704447057 -1.9881228651 1.2989431342
| 32> H 3.194805356 -0.2141237634 2.8434337699
| 33> H 1.6375117171 -0.2161017783 3.6836502854
| 34> H 2.682787792 -1.6444325626 3.7581574462
| 35> H -0.282248095 -2.2350618192 -0.5660490726
| 36> H -0.2747086668 -2.3680577773 -2.3591998978
| 37> H -4.0676390048 -0.8518144809 -1.6088097421
| 38> H -4.2600660298 -1.696466742 -0.0500954969
| 39> H -5.8158879081 0.7950520584 -0.9271450221
| 40> H -6.4577610321 -0.8554780753 -0.887140699
| 41> H -6.0086182075 -0.0405545418 0.619586315
| 42> H -1.4158705143 2.6161165304 -0.2880542303
| 43> H -2.8652986579 2.511394447 0.7516145242
| 44> H -0.0390798405 3.2727077675 1.6495059476
| 45> H -1.4089119748 4.3818355119 1.4942249853
| 46> H -1.4304719331 3.1093094543 2.7317842004
| 47> *
| 48>
| 49>                          ****END OF INPUT****

CARTESIAN COORDINATES (ANGSTROEM)
---------------------------------
  C      4.662760    0.279257   -1.862747
  C      4.448277    0.826936   -0.467102
  O      3.411036    0.120855    0.236541
  P      1.884193    0.213811   -0.193823
  S      1.334570    2.011501   -0.725874
  O      1.123959   -0.333171    1.080755
  C      1.671815   -1.401957    1.900383
  C      2.344044   -0.827618    3.128602
  S      1.717202   -1.365113   -1.621443
  C     -0.059275   -1.725820   -1.508518
  S     -1.133871   -0.270652   -1.634928
  P     -1.930458   -0.205240    0.347135
  S     -1.735495   -1.854460    1.376945
  O     -3.441843    0.200731    0.053320
  C     -4.354744   -0.732352   -0.560431
  C     -5.754479   -0.168119   -0.428929
  O     -1.415673    1.073696    1.100745
  C     -1.777652    2.430105    0.726778
  C     -1.120037    3.360987    1.721720
  H      3.784900    0.474515   -2.477712
  H      5.521763    0.767269   -2.311759
  H      4.832413   -0.793908   -1.828220
  H      4.179685    1.887418   -0.505712
  H      5.329502    0.688391    0.160671
  H      0.808624   -2.014230    2.171010
  H      2.370445   -1.988123    1.298943
  H      3.194805   -0.214124    2.843434
  H      1.637512   -0.216102    3.683650
  H      2.682788   -1.644433    3.758157
  H     -0.282248   -2.235062   -0.566049
  H     -0.274709   -2.368058   -2.359200
  H     -4.067639   -0.851814   -1.608810
  H     -4.260066   -1.696467   -0.050095
  H     -5.815888    0.795052   -0.927145
  H     -6.457761   -0.855478   -0.887141
  H     -6.008618   -0.040555    0.619586
  H     -1.415871    2.616117   -0.288054
  H     -2.865299    2.511394    0.751615
  H     -0.039080    3.272708    1.649506
  H     -1.408912    4.381836    1.494225
  H     -1.430472    3.109309    2.731784

 Total Charge           Charge          ....    0
 Multiplicity           Mult            ....    1
 Number of Electrons    NEL             ....  202
 Basis Dimension        Dim             ....  334

ORBITAL ENERGIES
----------------

  NO   OCC          E(Eh)            E(eV)
   0   2.0000     -88.040442     -2395.7022
   1   2.0000     -88.037849     -2395.6317
   2   2.0000     -87.985898     -2394.2180
   3   2.0000     -87.983106     -2394.1420
   4   2.0000     -76.425131     -2079.6335
   5   2.0000     -76.423581     -2079.5914
   6   2.0000     -18.794224      -511.4168
   7   2.0000     -18.791281      -511.3368
   8   2.0000     -18.788022      -511.2481
   9   2.0000     -18.785276      -511.1733
  10   2.0000      -9.953971      -270.8613
  11   2.0000      -9.952930      -270.8330
  12   2.0000      -9.950781      -270.7745
  13   2.0000      -9.944845      -270.6130
  14   2.0000      -9.943651      -270.5805
  15   2.0000      -9.888036      -269.0671
  16   2.0000      -9.886297      -269.0198
  17   2.0000      -9.878587      -268.8100
  18   2.0000      -9.875402      -268.7234
  19   2.0000      -7.685019      -209.1200
  20   2.0000      -7.683022      -209.0657
  21   2.0000      -7.631015      -207.6505
  22   2.0000      -7.628171      -207.5731
  23   2.0000      -6.422513      -174.7655
  24   2.0000      -6.421050      -174.7256
  25   2.0000      -5.712823      -155.4538
  26   2.0000      -5.710973      -155.4035
  27   2.0000      -5.709538      -155.3644
  28   2.0000      -5.707466      -155.3080
  29   2.0000      -5.702105      -155.1622
  30   2.0000      -5.700007      -155.1051
  31   2.0000      -5.659881      -154.0132
  32   2.0000      -5.657166      -153.9393
  33   2.0000      -5.651593      -153.7877
  34   2.0000      -5.651165      -153.7760
  35   2.0000      -5.648720      -153.7095
  36   2.0000      -5.648254      -153.6968
  37   2.0000      -4.645725      -126.4166
  38   2.0000      -4.644236      -126.3761
  39   2.0000      -4.643853      -126.3657
  40   2.0000      -4.642635      -126.3325
  41   2.0000      -4.642471      -126.3281
  42   2.0000      -4.641488      -126.3013
  43   2.0000      -0.987769       -26.8786
  44   2.0000      -0.984949       -26.8018
  45   2.0000      -0.943392       -25.6710
  46   2.0000      -0.939001       -25.5515
  47   2.0000      -0.758179       -20.6311
  48   2.0000      -0.718252       -19.5446
  49   2.0000      -0.707159       -19.2428
  50   2.0000      -0.688806       -18.7434
  51   2.0000      -0.687395       -18.7050
  52   2.0000      -0.670679       -18.2501
  53   2.0000      -0.648454       -17.6453
  54   2.0000      -0.636478       -17.3195
  55   2.0000      -0.593802       -16.1582
  56   2.0000      -0.581286       -15.8176
  57   2.0000      -0.569336       -15.4924
  58   2.0000      -0.564215       -15.3531
  59   2.0000      -0.560585       -15.2543
  60   2.0000      -0.508424       -13.8349
  61   2.0000      -0.497598       -13.5403
  62   2.0000      -0.478332       -13.0161
  63   2.0000      -0.472990       -12.8707
  64   2.0000      -0.451349       -12.2818
  65   2.0000      -0.449883       -12.2419
  66   2.0000      -0.436197       -11.8695
  67   2.0000      -0.432885       -11.7794
  68   2.0000      -0.421201       -11.4615
  69   2.0000      -0.419537       -11.4162
  70   2.0000      -0.407847       -11.0981
  71   2.0000      -0.396454       -10.7881
  72   2.0000      -0.388071       -10.5599
  73   2.0000      -0.380734       -10.3603
  74   2.0000      -0.372907       -10.1473
  75   2.0000      -0.365671        -9.9504
  76   2.0000      -0.362904        -9.8751
  77   2.0000      -0.357336        -9.7236
  78   2.0000      -0.351539        -9.5659
  79   2.0000      -0.350119        -9.5272
  80   2.0000      -0.344744        -9.3810
  81   2.0000      -0.341546        -9.2939
  82   2.0000      -0.338230        -9.2037
  83   2.0000      -0.332821        -9.0565
  84   2.0000      -0.327998        -8.9253
  85   2.0000      -0.316989        -8.6257
  86   2.0000      -0.310973        -8.4620
  87   2.0000      -0.303935        -8.2705
  88   2.0000      -0.294867        -8.0238
  89   2.0000      -0.293638        -7.9903
  90   2.0000      -0.289794        -7.8857
  91   2.0000      -0.265188        -7.2161
  92   2.0000      -0.264054        -7.1853
  93   2.0000      -0.258786        -7.0419
  94   2.0000      -0.255524        -6.9532
  95   2.0000      -0.239986        -6.5304
  96   2.0000      -0.224359        -6.1051
  97   2.0000      -0.207567        -5.6482
  98   2.0000      -0.204262        -5.5582
  99   2.0000      -0.193806        -5.2737
 100   2.0000      -0.188179        -5.1206
 101   0.0000      -0.045352        -1.2341
 102   0.0000      -0.030838        -0.8391
 103   0.0000      -0.013193        -0.3590
 104   0.0000       0.006872         0.1870
 105   0.0000       0.020417         0.5556

MULLIKEN ATOMIC CHARGES
-----------------------
   0 C :   -0.328003
   1 C :   -0.001102
   2 O :   -0.380170
   3 P :    0.602641
   4 S :   -0.302835
   5 O :   -0.356008
   6 C :   -0.019525
   7 C :   -0.286287
   8 S :   -0.112218
   9 C :   -0.338982
  10 S :   -0.107200
  11 P :    0.639414
  12 S :   -0.321490
  13 O :   -0.391481
  14 C :   -0.008056
  15 C :   -0.280629
  16 O :   -0.353356
  17 C :   -0.015754
  18 C :   -0.282436
  19 H :    0.133632
  20 H :    0.116951
  21 H :    0.121460
  22 H :    0.112900
  23 H :    0.104949
  24 H :    0.122866
  25 H :    0.098016
  26 H :    0.113876
  27 H :    0.122244
  28 H :    0.107190
  29 H :    0.194046
  30 H :    0.178767
  31 H :    0.099885
  32 H :    0.103884
  33 H :    0.115367
  34 H :    0.111805
  35 H :    0.120195
  36 H :    0.114027
  37 H :    0.106830
  38 H :    0.127234
  39 H :    0.104394
  40 H :    0.112962
Sum of atomic charges:   -0.0000000

LOEWDIN ATOMIC CHARGES
----------------------
   0 C :   -0.372770
   1 C :   -0.119511
   2 O :   -0.244326
   3 P :    0.569127
   4 S :   -0.297299
   5 O :   -0.233076
   6 C :   -0.123442
   7 C :   -0.356251
   8 S :    0.057822
   9 C :   -0.483579
  10 S :    0.075508
  11 P :    0.577703
  12 S :   -0.293411
  13 O :   -0.251182
  14 C :   -0.123021
  15 C :   -0.350598
  16 O :   -0.224796
  17 C :   -0.116673
  18 C :   -0.353192
  19 H :    0.123089
  20 H :    0.133393
  21 H :    0.124932
  22 H :    0.111288
  23 H :    0.118475
  24 H :    0.110989
  25 H :    0.104981
  26 H :    0.122407
  27 H :    0.130055
  28 H :    0.129000
  29 H :    0.119228
  30 H :    0.137724
  31 H :    0.105469
  32 H :    0.108081
  33 H :    0.126017
  34 H :    0.130896
  35 H :    0.128561
  36 H :    0.107849
  37 H :    0.110074
  38 H :    0.126220
  39 H :    0.128294
  40 H :    0.125944

  Mayer bond orders larger than 0.100000
B(  0-C ,  1-C ) :   1.1657 B(  0-C , 19-H ) :   0.9315 B(  0-C , 20-H ) :   0.9376
B(  0-C , 21-H ) :   0.9430 B(  1-C ,  2-O ) :   0.9076 B(  1-C , 22-H ) :   0.9137
B(  1-C , 23-H ) :   0.9325 B(  2-O ,  3-P ) :   1.0682 B(  3-P ,  4-S ) :   1.6429
B(  3-P ,  5-O ) :   1.1265 B(  3-P ,  8-S ) :   0.9579 B(  4-S ,  8-S ) :   0.1080
B(  5-O ,  6-C ) :   0.8839 B(  6-C ,  7-C ) :   1.1708 B(  6-C , 24-H ) :   0.9046
B(  6-C , 25-H ) :   0.9141 B(  7-C , 26-H ) :   0.9456 B(  7-C , 27-H ) :   0.9465
B(  7-C , 28-H ) :   0.9402 B(  8-S ,  9-C ) :   0.9806 B(  9-C , 10-S ) :   1.0174
B(  9-C , 29-H ) :   0.8484 B(  9-C , 30-H ) :   0.9122 B( 10-S , 11-P ) :   0.9502
B( 10-S , 12-S ) :   0.1180 B( 11-P , 12-S ) :   1.6055 B( 11-P , 13-O ) :   1.0705
B( 11-P , 16-O ) :   1.1624 B( 12-S , 29-H ) :   0.1237 B( 13-O , 14-C ) :   0.9076
B( 14-C , 15-C ) :   1.1594 B( 14-C , 31-H ) :   0.9225 B( 14-C , 32-H ) :   0.9120
B( 15-C , 33-H ) :   0.9512 B( 15-C , 34-H ) :   0.9421 B( 15-C , 35-H ) :   0.9511
B( 16-O , 17-C ) :   0.8804 B( 17-C , 18-C ) :   1.1702 B( 17-C , 36-H ) :   0.9117
B( 17-C , 37-H ) :   0.9250 B( 18-C , 38-H ) :   0.9396 B( 18-C , 39-H ) :   0.9404
B( 18-C , 40-H ) :   0.9494

Dispersion correction           -0.067348255
FINAL SINGLE POINT ENERGY     -2929.516763119331

DIPOLE MOMENT
-------------

Method             : SCF
Type of density    : Electron Density
Multiplicity       :   1
Irrep              :   0
Energy             : -2929.6363410181365907 Eh
Relativity type    :
Basis              : AO
                                X                 Y                 Z
Electronic contribution:      0.055916343      -5.407831541      -7.108777444
Nuclear contribution   :      0.046174300       5.291183122       6.873113026
                        -----------------------------------------
Total Dipole Moment    :      0.102090643      -0.116648418      -0.235664418
                        -----------------------------------------
Magnitude (a.u.)       :      0.282076357
Magnitude (Debye)      :      0.716981119

Rotational constants in cm-1:             0.012564             0.005336             0.005179
Rotational constants in MHz :           376.659791           159.959108           155.259151

                             ****ORCA TERMINATED NORMALLY****
TOTAL RUN TIME: 0 days 0 hours 0 minutes 21 seconds 368 msec
