                         Program Version 6.0.0  -   RELEASE  -
|  1> ! pbe def2-sv(p) def2/J RI DEFGRID1 loosescf d4 GCP(DFT/SV(P)) printgap
|  2> %output
|  3>     printlevel normal
|  4> end
|  5> * xyz 0 1
|  6> C 3.4540451273 -2.1713392078 -1.7649170876
|  7> C 4.0144580869 -0.8441374857 -1.293907165
|  8> O 3.4051092009 -0.4040336703 -0.0712402736
|  9> P 1.9237745679 0.1822558497 0.0441756847
| 10> S 1.2828268183 0.9173293511 -1.6587532194
| 11> O 2.0664286566 1.175196164 1.2675093616
| 12> C 2.2771076238 2.5888958844 1.0998009804
| 13> C 3.6482916616 2.8926844861 0.5322785926
| 14> S 0.9120416759 -1.2881317868 1.1903951251
| 15> C 0.1346460621 -2.3625510429 -0.0529312208
| 16> S -1.0296411948 -1.5219952335 -1.1766073571
| 17> P -1.9858615286 -0.1914664624 0.1531694981
| 18> S -1.1732771481 1.4783013291 0.814712607
| 19> O -2.3934729008 -1.2377380496 1.2664442209
| 20> C -2.7516508885 -0.8459925855 2.60705857
| 21> C -4.0986852926 -0.1557722956 2.6440512579
| 22> O -3.3612074342 0.0783016074 -0.5987377083
| 23> C -3.538968375 1.1682218298 -1.5170181304
| 24> C -2.7115224912 0.987942657 -2.7736340642
| 25> H 2.4240697951 -2.0370912189 -2.0947741747
| 26> H 4.0414365217 -2.5316289235 -2.6034780645
| 27> H 3.4912807226 -2.9018085368 -0.9602994419
| 28> H 3.8634416905 -0.0754363481 -2.0583155495
| 29> H 5.0735046066 -0.9197109695 -1.0441536228
| 30> H 1.485185293 2.9818414375 0.4529780251
| 31> H 2.1529744587 2.9915928753 2.1061565314
| 32> H 3.7213657405 2.5090503699 -0.4849112038
| 33> H 3.7993897573 3.9673990957 0.5160392966
| 34> H 4.4168033891 2.4255201353 1.1427114786
| 35> H -0.4072950002 -3.1098971397 0.5228926618
| 36> H 0.8844691077 -2.8299156814 -0.6871128512
| 37> H -2.7594497225 -1.785593475 3.1606900879
| 38> H -1.9669687556 -0.1903256541 2.9988334961
| 39> H -4.8526671049 -0.7799847007 2.1720227726
| 40> H -4.3779671568 0.0360916183 3.6752357958
| 41> H -4.04202583 0.7918457822 2.1096463366
| 42> H -4.6082984973 1.1598378976 -1.7317960324
| 43> H -3.2662272495 2.0990265426 -1.0081523624
| 44> H -2.916630504 0.021344927 -3.2270443419
| 45> H -2.946574506 1.7775108912 -3.480014443
| 46> H -1.6482616301 1.0405987863 -2.53378378
| 47> *
| 48>
| 49>                          ****END OF INPUT****

CARTESIAN COORDINATES (ANGSTROEM)
---------------------------------
  C      3.454045   -2.171339   -1.764917
  C      4.014458   -0.844137   -1.293907
  O      3.405109   -0.404034   -0.071240
  P      1.923775    0.182256    0.044176
  S      1.282827    0.917329   -1.658753
  O      2.066429    1.175196    1.267509
  C      2.277108    2.588896    1.099801
  C      3.648292    2.892684    0.532279
  S      0.912042   -1.288132    1.190395
  C      0.134646   -2.362551   -0.052931
  S     -1.029641   -1.521995   -1.176607
  P     -1.985862   -0.191466    0.153169
  S     -1.173277    1.478301    0.814713
  O     -2.393473   -1.237738    1.266444
  C     -2.751651   -0.845993    2.607059
  C     -4.098685   -0.155772    2.644051
  O     -3.361207    0.078302   -0.598738
  C     -3.538968    1.168222   -1.517018
  C     -2.711522    0.987943   -2.773634
  H      2.424070   -2.037091   -2.094774
  H      4.041437   -2.531629   -2.603478
  H      3.491281   -2.901809   -0.960299
  H      3.863442   -0.075436   -2.058316
  H      5.073505   -0.919711   -1.044154
  H      1.485185    2.981841    0.452978
  H      2.152974    2.991593    2.106157
  H      3.721366    2.509050   -0.484911
  H      3.799390    3.967399    0.516039
  H      4.416803    2.425520    1.142711
  H     -0.407295   -3.109897    0.522893
  H      0.884469   -2.829916   -0.687113
  H     -2.759450   -1.785593    3.160690
  H     -1.966969   -0.190326    2.998833
  H     -4.852667   -0.779985    2.172023
  H     -4.377967    0.036092    3.675236
  H     -4.042026    0.791846    2.109646
  H     -4.608298    1.159838   -1.731796
  H     -3.266227    2.099027   -1.008152
  H     -2.916631    0.021345   -3.227044
  H     -2.946575    1.777511   -3.480014
  H     -1.648262    1.040599   -2.533784

 Total Charge           Charge          ....    0
 Multiplicity           Mult            ....    1
 Number of Electrons    NEL             ....  202
 Basis Dimension        Dim             ....  334

ORBITAL ENERGIES
----------------

  NO   OCC          E(Eh)            E(eV)
   0   2.0000     -88.039423     -2395.6745
   1   2.0000     -88.035447     -2395.5663
   2   2.0000     -87.984289     -2394.1742
   3   2.0000     -87.977924     -2394.0010
   4   2.0000     -76.422414     -2079.5596
   5   2.0000     -76.420773     -2079.5149
   6   2.0000     -18.786712      -511.2124
   7   2.0000     -18.784719      -511.1582
   8   2.0000     -18.783168      -511.1160
   9   2.0000     -18.781870      -511.0807
  10   2.0000      -9.959567      -271.0136
  11   2.0000      -9.949492      -270.7395
  12   2.0000      -9.946602      -270.6608
  13   2.0000      -9.945231      -270.6235
  14   2.0000      -9.945189      -270.6223
  15   2.0000      -9.887548      -269.0539
  16   2.0000      -9.879297      -268.8293
  17   2.0000      -9.878794      -268.8157
  18   2.0000      -9.877099      -268.7695
  19   2.0000      -7.684332      -209.1013
  20   2.0000      -7.680697      -209.0024
  21   2.0000      -7.628866      -207.5920
  22   2.0000      -7.622486      -207.4184
  23   2.0000      -6.419401      -174.6808
  24   2.0000      -6.417933      -174.6408
  25   2.0000      -5.712383      -155.4418
  26   2.0000      -5.709039      -155.3508
  27   2.0000      -5.708930      -155.3479
  28   2.0000      -5.705254      -155.2479
  29   2.0000      -5.700875      -155.1287
  30   2.0000      -5.697188      -155.0284
  31   2.0000      -5.657818      -153.9570
  32   2.0000      -5.651358      -153.7813
  33   2.0000      -5.649841      -153.7400
  34   2.0000      -5.648676      -153.7083
  35   2.0000      -5.643126      -153.5573
  36   2.0000      -5.642734      -153.5466
  37   2.0000      -4.641736      -126.3080
  38   2.0000      -4.641185      -126.2931
  39   2.0000      -4.640563      -126.2761
  40   2.0000      -4.640161      -126.2652
  41   2.0000      -4.639819      -126.2559
  42   2.0000      -4.638289      -126.2143
  43   2.0000      -0.981123       -26.6977
  44   2.0000      -0.978499       -26.6263
  45   2.0000      -0.941441       -25.6179
  46   2.0000      -0.937865       -25.5206
  47   2.0000      -0.759747       -20.6738
  48   2.0000      -0.715633       -19.4734
  49   2.0000      -0.703802       -19.1514
  50   2.0000      -0.684053       -18.6140
  51   2.0000      -0.681129       -18.5345
  52   2.0000      -0.664899       -18.0928
  53   2.0000      -0.651748       -17.7350
  54   2.0000      -0.634733       -17.2720
  55   2.0000      -0.599414       -16.3109
  56   2.0000      -0.588710       -16.0196
  57   2.0000      -0.571401       -15.5486
  58   2.0000      -0.567542       -15.4436
  59   2.0000      -0.560102       -15.2411
  60   2.0000      -0.492193       -13.3932
  61   2.0000      -0.485623       -13.2145
  62   2.0000      -0.468788       -12.7564
  63   2.0000      -0.467196       -12.7130
  64   2.0000      -0.452934       -12.3250
  65   2.0000      -0.435930       -11.8623
  66   2.0000      -0.435563       -11.8523
  67   2.0000      -0.432326       -11.7642
  68   2.0000      -0.423406       -11.5215
  69   2.0000      -0.412248       -11.2178
  70   2.0000      -0.404990       -11.0203
  71   2.0000      -0.392001       -10.6669
  72   2.0000      -0.388733       -10.5780
  73   2.0000      -0.384787       -10.4706
  74   2.0000      -0.383683       -10.4406
  75   2.0000      -0.372328       -10.1316
  76   2.0000      -0.369998       -10.0682
  77   2.0000      -0.355981        -9.6867
  78   2.0000      -0.351017        -9.5517
  79   2.0000      -0.346353        -9.4247
  80   2.0000      -0.344870        -9.3844
  81   2.0000      -0.342533        -9.3208
  82   2.0000      -0.338700        -9.2165
  83   2.0000      -0.335696        -9.1348
  84   2.0000      -0.325998        -8.8709
  85   2.0000      -0.317192        -8.6312
  86   2.0000      -0.304060        -8.2739
  87   2.0000      -0.291385        -7.9290
  88   2.0000      -0.289061        -7.8658
  89   2.0000      -0.278628        -7.5818
  90   2.0000      -0.277547        -7.5524
  91   2.0000      -0.270148        -7.3511
  92   2.0000      -0.266721        -7.2578
  93   2.0000      -0.260251        -7.0818
  94   2.0000      -0.255977        -6.9655
  95   2.0000      -0.239811        -6.5256
  96   2.0000      -0.216372        -5.8878
  97   2.0000      -0.213656        -5.8139
  98   2.0000      -0.188023        -5.1164
  99   2.0000      -0.185614        -5.0508
 100   2.0000      -0.180182        -4.9030
 101   0.0000      -0.051414        -1.3990
 102   0.0000      -0.031681        -0.8621
 103   0.0000      -0.011386        -0.3098
 104   0.0000       0.008405         0.2287
 105   0.0000       0.023293         0.6338

MULLIKEN ATOMIC CHARGES
-----------------------
   0 C :   -0.325140
   1 C :   -0.001557
   2 O :   -0.373350
   3 P :    0.631409
   4 S :   -0.303702
   5 O :   -0.374608
   6 C :   -0.000591
   7 C :   -0.306871
   8 S :   -0.095235
   9 C :   -0.327408
  10 S :   -0.095679
  11 P :    0.616643
  12 S :   -0.321426
  13 O :   -0.373325
  14 C :   -0.002280
  15 C :   -0.303887
  16 O :   -0.370130
  17 C :    0.000460
  18 C :   -0.342858
  19 H :    0.126379
  20 H :    0.113085
  21 H :    0.120860
  22 H :    0.110316
  23 H :    0.103026
  24 H :    0.120458
  25 H :    0.104642
  26 H :    0.121252
  27 H :    0.110042
  28 H :    0.114908
  29 H :    0.187306
  30 H :    0.181351
  31 H :    0.099624
  32 H :    0.114477
  33 H :    0.115281
  34 H :    0.109744
  35 H :    0.122487
  36 H :    0.102056
  37 H :    0.108325
  38 H :    0.118498
  39 H :    0.112420
  40 H :    0.152998
Sum of atomic charges:    0.0000000

LOEWDIN ATOMIC CHARGES
----------------------
   0 C :   -0.368147
   1 C :   -0.121194
   2 O :   -0.252390
   3 P :    0.569306
   4 S :   -0.297524
   5 O :   -0.239287
   6 C :   -0.114379
   7 C :   -0.365736
   8 S :    0.095403
   9 C :   -0.469631
  10 S :    0.087265
  11 P :    0.568515
  12 S :   -0.311881
  13 O :   -0.242674
  14 C :   -0.118531
  15 C :   -0.364285
  16 O :   -0.244720
  17 C :   -0.121431
  18 C :   -0.374528
  19 H :    0.119438
  20 H :    0.132082
  21 H :    0.124789
  22 H :    0.107177
  23 H :    0.118394
  24 H :    0.112053
  25 H :    0.119630
  26 H :    0.120645
  27 H :    0.129564
  28 H :    0.125558
  29 H :    0.136890
  30 H :    0.128596
  31 H :    0.116059
  32 H :    0.111500
  33 H :    0.125920
  34 H :    0.129246
  35 H :    0.123107
  36 H :    0.117147
  37 H :    0.108478
  38 H :    0.123586
  39 H :    0.131428
  40 H :    0.124561

  Mayer bond orders larger than 0.100000
B(  0-C ,  1-C ) :   1.1636 B(  0-C , 19-H ) :   0.9227 B(  0-C , 20-H ) :   0.9359
B(  0-C , 21-H ) :   0.9423 B(  1-C ,  2-O ) :   0.9224 B(  1-C , 22-H ) :   0.9099
B(  1-C , 23-H ) :   0.9327 B(  2-O ,  3-P ) :   1.0863 B(  3-P ,  4-S ) :   1.6004
B(  3-P ,  5-O ) :   1.1253 B(  3-P ,  8-S ) :   0.9301 B(  4-S ,  8-S ) :   0.1189
B(  5-O ,  6-C ) :   0.9049 B(  6-C ,  7-C ) :   1.1615 B(  6-C , 24-H ) :   0.9164
B(  6-C , 25-H ) :   0.9357 B(  7-C , 26-H ) :   0.9355 B(  7-C , 27-H ) :   0.9393
B(  7-C , 28-H ) :   0.9457 B(  8-S ,  9-C ) :   1.0136 B(  9-C , 10-S ) :   0.9925
B(  9-C , 29-H ) :   0.9084 B(  9-C , 30-H ) :   0.8942 B( 10-S , 11-P ) :   0.9688
B( 10-S , 12-S ) :   0.1162 B( 11-P , 12-S ) :   1.5875 B( 11-P , 13-O ) :   1.1141
B( 11-P , 16-O ) :   1.1040 B( 13-O , 14-C ) :   0.9031 B( 14-C , 15-C ) :   1.1659
B( 14-C , 31-H ) :   0.9347 B( 14-C , 32-H ) :   0.9137 B( 15-C , 33-H ) :   0.9462
B( 15-C , 34-H ) :   0.9396 B( 15-C , 35-H ) :   0.9361 B( 16-O , 17-C ) :   0.9104
B( 17-C , 18-C ) :   1.1651 B( 17-C , 36-H ) :   0.9328 B( 17-C , 37-H ) :   0.9120
B( 18-C , 38-H ) :   0.9430 B( 18-C , 39-H ) :   0.9377 B( 18-C , 40-H ) :   0.9252

Dispersion correction           -0.069916811
FINAL SINGLE POINT ENERGY     -2929.511583592576

DIPOLE MOMENT
-------------

Method             : SCF
Type of density    : Electron Density
Multiplicity       :   1
Irrep              :   0
Energy             : -2929.6256903786447765 Eh
Relativity type    :
Basis              : AO
                                X                 Y                 Z
Electronic contribution:     -1.329706116      -4.806878213       3.037772861
Nuclear contribution   :      1.516521626       4.367846252      -2.992333132
                        -----------------------------------------
Total Dipole Moment    :      0.186815509      -0.439031962       0.045439729
                        -----------------------------------------
Magnitude (a.u.)       :      0.479284745
Magnitude (Debye)      :      1.218245007

Rotational constants in cm-1:             0.011917             0.005698             0.005534
Rotational constants in MHz :           357.275495           170.832647           165.917217

                             ****ORCA TERMINATED NORMALLY****
TOTAL RUN TIME: 0 days 0 hours 0 minutes 21 seconds 566 msec
