                         Program Version 6.0.0  -   RELEASE  -
|  1> ! pbe def2-sv(p) def2/J RI DEFGRID1 loosescf d4 GCP(DFT/SV(P)) printgap
|  2> %output
|  3>     printlevel normal
|  4> end
|  5> * xyz 0 1
|  6> C -2.2191355052 1.9031e-06 1.23823e-05
|  7> C -1.5289140383 -1.2029662795 2.84199e-05
|  8> C -0.147179665 -1.2115980123 -3.19689e-05
|  9> C 0.5470669236 -2.3359e-06 -6.8967e-05
| 10> C -0.147176794 1.2115964161 -2.31422e-05
| 11> C -1.528912121 1.2029688156 3.69949e-05
| 12> C 1.9577297159 -5.4071e-06 -1.94874e-05
| 13> N 3.1066836932 3.9142e-06 6.29874e-05
| 14> H -3.2979478421 2.8046e-06 3.64308e-05
| 15> H -2.0687436535 -2.1369449172 8.62524e-05
| 16> H 0.4024314629 -2.1406715344 -9.17135e-05
| 17> H 0.4024357506 2.1406689863 -0.0001256777
| 18> H -2.0687408389 2.1369486584 3.1161e-06
| 19> *
| 20>
| 21>                          ****END OF INPUT****

CARTESIAN COORDINATES (ANGSTROEM)
---------------------------------
  C     -2.219136    0.000002    0.000012
  C     -1.528914   -1.202966    0.000028
  C     -0.147180   -1.211598   -0.000032
  C      0.547067   -0.000002   -0.000069
  C     -0.147177    1.211596   -0.000023
  C     -1.528912    1.202969    0.000037
  C      1.957730   -0.000005   -0.000019
  N      3.106684    0.000004    0.000063
  H     -3.297948    0.000003    0.000036
  H     -2.068744   -2.136945    0.000086
  H      0.402431   -2.140672   -0.000092
  H      0.402436    2.140669   -0.000126
  H     -2.068741    2.136949    0.000003

 Total Charge           Charge          ....    0
 Multiplicity           Mult            ....    1
 Number of Electrons    NEL             ....   54
 Basis Dimension        Dim             ....  122

ORBITAL ENERGIES
----------------

  NO   OCC          E(Eh)            E(eV)
   0   2.0000     -13.983944      -380.5225
   1   2.0000      -9.945161      -270.6216
   2   2.0000      -9.927997      -270.1545
   3   2.0000      -9.924045      -270.0470
   4   2.0000      -9.924025      -270.0465
   5   2.0000      -9.921951      -269.9900
   6   2.0000      -9.919686      -269.9284
   7   2.0000      -9.919676      -269.9281
   8   2.0000      -0.823622       -22.4119
   9   2.0000      -0.800555       -21.7842
  10   2.0000      -0.713908       -19.4264
  11   2.0000      -0.699585       -19.0367
  12   2.0000      -0.594347       -16.1730
  13   2.0000      -0.571691       -15.5565
  14   2.0000      -0.517528       -14.0826
  15   2.0000      -0.455779       -12.4024
  16   2.0000      -0.438639       -11.9360
  17   2.0000      -0.413023       -11.2389
  18   2.0000      -0.403349       -10.9757
  19   2.0000      -0.374272       -10.1845
  20   2.0000      -0.341529        -9.2935
  21   2.0000      -0.334783        -9.1099
  22   2.0000      -0.318931        -8.6786
  23   2.0000      -0.299317        -8.1448
  24   2.0000      -0.296933        -8.0799
  25   2.0000      -0.258022        -7.0211
  26   2.0000      -0.246712        -6.7134
  27   0.0000      -0.084549        -2.3007
  28   0.0000      -0.061164        -1.6644
  29   0.0000       0.003881         0.1056
  30   0.0000       0.024904         0.6777
  31   0.0000       0.038356         1.0437

MULLIKEN ATOMIC CHARGES
-----------------------
   0 C :   -0.040978
   1 C :   -0.044549
   2 C :   -0.050301
   3 C :   -0.050494
   4 C :   -0.050299
   5 C :   -0.044551
   6 C :   -0.121998
   7 N :    0.064527
   8 H :    0.068808
   9 H :    0.068356
  10 H :    0.066561
  11 H :    0.066561
  12 H :    0.068356
Sum of atomic charges:   -0.0000000

LOEWDIN ATOMIC CHARGES
----------------------
   0 C :   -0.105369
   1 C :   -0.113331
   2 C :   -0.087216
   3 C :   -0.075447
   4 C :   -0.087216
   5 C :   -0.113331
   6 C :   -0.036130
   7 N :   -0.052822
   8 H :    0.130647
   9 H :    0.131834
  10 H :    0.138274
  11 H :    0.138274
  12 H :    0.131834

  Mayer bond orders larger than 0.100000
B(  0-C ,  1-C ) :   1.3727 B(  0-C ,  5-C ) :   1.3727 B(  0-C ,  8-H ) :   0.9646
B(  1-C ,  2-C ) :   1.3679 B(  1-C ,  9-H ) :   0.9625 B(  2-C ,  3-C ) :   1.3595
B(  2-C , 10-H ) :   0.9651 B(  3-C ,  4-C ) :   1.3595 B(  3-C ,  6-C ) :   1.1037
B(  4-C ,  5-C ) :   1.3679 B(  4-C , 11-H ) :   0.9651 B(  5-C , 12-H ) :   0.9625
B(  6-C ,  7-N ) :   2.9929

Dispersion correction           -0.013439040
FINAL SINGLE POINT ENERGY      -323.801545748779

DIPOLE MOMENT
-------------

Method             : SCF
Type of density    : Electron Density
Multiplicity       :   1
Irrep              :   0
Energy             :  -323.8314515548416921 Eh
Relativity type    :
Basis              : AO
                                X                 Y                 Z
Electronic contribution:      4.521658487      -0.000006157       0.000013020
Nuclear contribution   :     -6.203519610       0.000003772      -0.000085582
                        -----------------------------------------
Total Dipole Moment    :     -1.681861123      -0.000002385      -0.000072562
                        -----------------------------------------
Magnitude (a.u.)       :      1.681861124
Magnitude (Debye)      :      4.274951242

Rotational constants in cm-1:             0.190545             0.052588             0.041214
Rotational constants in MHz :          5712.380417          1576.561889          1235.559412

                             ****ORCA TERMINATED NORMALLY****
TOTAL RUN TIME: 0 days 0 hours 0 minutes 6 seconds 441 msec
