                         Program Version 6.0.1  -  RELEASE   -
|  1> ! pbe def2-sv(p) def2/J RI DEFGRID1 loosescf d4 GCP(DFT/SV(P)) printgap
|  2> %output
|  3>     printlevel normal
|  4> end
|  5> * xyz 0 1
|  6> C 4.0420648927 -3.7912780523 -2.3047451498
|  7> C 3.4080402537 -3.9254258619 -0.9293512242
|  8> O 3.3141667589 -2.6438182525 -0.2770834917
|  9> C 2.2539110516 -1.8954582096 -0.5108763694
| 10> O 1.3239788393 -2.2176216157 -1.2169338618
| 11> C 2.3437204804 -0.5778907142 0.2328122315
| 12> C 1.043583257 0.197336563 0.1095175734
| 13> H 0.691366459 0.1484742159 -0.9326224737
| 14> C 1.1892799104 1.6703789788 0.4411097301
| 15> O 2.2063333539 2.2924340758 0.2415370893
| 16> O 0.0743180269 2.1689019335 0.932614176
| 17> C 0.0036989266 3.582528202 1.2114665461
| 18> C -0.6855787782 4.3120256625 0.0717566812
| 19> S -0.2662420106 -0.5697181609 1.118532311
| 20> P -1.929193212 0.2818142584 0.1028328195
| 21> S -1.6209163654 1.0049610336 -1.6894321751
| 22> O -2.9935844584 -0.9180559972 0.1511537204
| 23> C -2.8039742273 -2.0929804986 -0.6418264858
| 24> O -2.626630316 1.3175924201 1.06748311
| 25> C -2.9964880655 0.9781825507 2.4185361854
| 26> H 4.1622793419 -4.7767971265 -2.7421666839
| 27> H 3.4065294797 -3.1928395345 -2.9537853299
| 28> H 5.0145478888 -3.3135469433 -2.2238968276
| 29> H 4.0277565287 -4.524502453 -0.2623458609
| 30> H 2.4040588198 -4.352020277 -1.0056637599
| 31> H 3.1531794515 0.0175214993 -0.1974787198
| 32> H 2.5912679523 -0.7776549899 1.2759636565
| 33> H -0.5720063927 3.6566217336 2.1346112314
| 34> H 1.0220426115 3.9515002026 1.3604291225
| 35> H -0.1005940646 4.2254673348 -0.8413633593
| 36> H -1.6672941797 3.8793547668 -0.1073071971
| 37> H -0.7940622088 5.3603804218 0.3281188849
| 38> H -3.6859259383 -2.705457539 -0.4746727378
| 39> H -1.9026174934 -2.6202148373 -0.3268085495
| 40> H -2.7167760883 -1.8245431839 -1.6957261358
| 41> H -3.7867854186 0.23022229 2.4093343288
| 42> H -3.3491595664 1.9072570983 2.8585892821
| 43> H -2.1281319144 0.5975616095 2.9565281463
| 44> *
| 45>
| 46>                          ****END OF INPUT****

CARTESIAN COORDINATES (ANGSTROEM)
---------------------------------
  C      4.042065   -3.791278   -2.304745
  C      3.408040   -3.925426   -0.929351
  O      3.314167   -2.643818   -0.277083
  C      2.253911   -1.895458   -0.510876
  O      1.323979   -2.217622   -1.216934
  C      2.343720   -0.577891    0.232812
  C      1.043583    0.197337    0.109518
  H      0.691366    0.148474   -0.932622
  C      1.189280    1.670379    0.441110
  O      2.206333    2.292434    0.241537
  O      0.074318    2.168902    0.932614
  C      0.003699    3.582528    1.211467
  C     -0.685579    4.312026    0.071757
  S     -0.266242   -0.569718    1.118532
  P     -1.929193    0.281814    0.102833
  S     -1.620916    1.004961   -1.689432
  O     -2.993584   -0.918056    0.151154
  C     -2.803974   -2.092980   -0.641826
  O     -2.626630    1.317592    1.067483
  C     -2.996488    0.978183    2.418536
  H      4.162279   -4.776797   -2.742167
  H      3.406529   -3.192840   -2.953785
  H      5.014548   -3.313547   -2.223897
  H      4.027757   -4.524502   -0.262346
  H      2.404059   -4.352020   -1.005664
  H      3.153179    0.017521   -0.197479
  H      2.591268   -0.777655    1.275964
  H     -0.572006    3.656622    2.134611
  H      1.022043    3.951500    1.360429
  H     -0.100594    4.225467   -0.841363
  H     -1.667294    3.879355   -0.107307
  H     -0.794062    5.360380    0.328119
  H     -3.685926   -2.705458   -0.474673
  H     -1.902617   -2.620215   -0.326809
  H     -2.716776   -1.824543   -1.695726
  H     -3.786785    0.230222    2.409334
  H     -3.349160    1.907257    2.858589
  H     -2.128132    0.597562    2.956528

 Total Charge           Charge          ....    0
 Multiplicity           Mult            ....    1
 Number of Electrons    NEL             ....  174
 Basis Dimension        Dim             ....  316

ORBITAL ENERGIES
----------------

  NO   OCC          E(Eh)            E(eV)
   0   2.0000     -88.037795     -2395.6302
   1   2.0000     -87.982517     -2394.1260
   2   2.0000     -76.423778     -2079.5967
   3   2.0000     -18.807291      -511.7724
   4   2.0000     -18.804990      -511.7098
   5   2.0000     -18.794734      -511.4307
   6   2.0000     -18.788941      -511.2731
   7   2.0000     -18.743723      -510.0426
   8   2.0000     -18.739152      -509.9183
   9   2.0000     -10.014231      -272.5011
  10   2.0000     -10.013940      -272.4931
  11   2.0000      -9.951880      -270.8044
  12   2.0000      -9.951412      -270.7917
  13   2.0000      -9.945980      -270.6439
  14   2.0000      -9.939735      -270.4739
  15   2.0000      -9.938417      -270.4381
  16   2.0000      -9.913305      -269.7547
  17   2.0000      -9.889693      -269.1122
  18   2.0000      -9.877567      -268.7823
  19   2.0000      -7.682486      -209.0511
  20   2.0000      -7.627611      -207.5579
  21   2.0000      -6.420951      -174.7229
  22   2.0000      -5.710186      -155.3821
  23   2.0000      -5.707295      -155.3034
  24   2.0000      -5.699412      -155.0889
  25   2.0000      -5.656724      -153.9273
  26   2.0000      -5.648147      -153.6939
  27   2.0000      -5.647615      -153.6794
  28   2.0000      -4.643656      -126.3603
  29   2.0000      -4.642802      -126.3371
  30   2.0000      -4.641287      -126.2958
  31   2.0000      -1.014538       -27.6070
  32   2.0000      -1.013614       -27.5819
  33   2.0000      -0.986249       -26.8372
  34   2.0000      -0.941551       -25.6209
  35   2.0000      -0.920489       -25.0478
  36   2.0000      -0.919641       -25.0247
  37   2.0000      -0.763707       -20.7815
  38   2.0000      -0.716046       -19.4846
  39   2.0000      -0.700003       -19.0481
  40   2.0000      -0.693725       -18.8772
  41   2.0000      -0.659014       -17.9327
  42   2.0000      -0.634281       -17.2597
  43   2.0000      -0.621312       -16.9068
  44   2.0000      -0.615323       -16.7438
  45   2.0000      -0.598608       -16.2890
  46   2.0000      -0.559828       -15.2337
  47   2.0000      -0.514189       -13.9918
  48   2.0000      -0.503179       -13.6922
  49   2.0000      -0.496514       -13.5108
  50   2.0000      -0.477481       -12.9929
  51   2.0000      -0.473050       -12.8723
  52   2.0000      -0.465009       -12.6535
  53   2.0000      -0.449316       -12.2265
  54   2.0000      -0.434863       -11.8332
  55   2.0000      -0.432221       -11.7613
  56   2.0000      -0.426003       -11.5921
  57   2.0000      -0.416426       -11.3315
  58   2.0000      -0.412097       -11.2137
  59   2.0000      -0.410277       -11.1642
  60   2.0000      -0.401181       -10.9167
  61   2.0000      -0.399470       -10.8701
  62   2.0000      -0.396206       -10.7813
  63   2.0000      -0.381787       -10.3890
  64   2.0000      -0.379923       -10.3382
  65   2.0000      -0.364369        -9.9150
  66   2.0000      -0.355384        -9.6705
  67   2.0000      -0.353767        -9.6265
  68   2.0000      -0.345788        -9.4094
  69   2.0000      -0.335296        -9.1239
  70   2.0000      -0.334403        -9.0996
  71   2.0000      -0.331371        -9.0171
  72   2.0000      -0.321903        -8.7594
  73   2.0000      -0.312220        -8.4959
  74   2.0000      -0.308288        -8.3890
  75   2.0000      -0.298054        -8.1105
  76   2.0000      -0.295282        -8.0350
  77   2.0000      -0.289348        -7.8736
  78   2.0000      -0.270161        -7.3515
  79   2.0000      -0.265404        -7.2220
  80   2.0000      -0.262671        -7.1476
  81   2.0000      -0.256856        -6.9894
  82   2.0000      -0.244896        -6.6640
  83   2.0000      -0.227658        -6.1949
  84   2.0000      -0.208806        -5.6819
  85   2.0000      -0.202392        -5.5074
  86   2.0000      -0.196739        -5.3535
  87   0.0000      -0.040869        -1.1121
  88   0.0000      -0.028039        -0.7630
  89   0.0000      -0.019879        -0.5409
  90   0.0000       0.011936         0.3248
  91   0.0000       0.018590         0.5059

MULLIKEN ATOMIC CHARGES
-----------------------
   0 C :   -0.305565
   1 C :   -0.011186
   2 O :   -0.231839
   3 C :    0.137279
   4 O :   -0.199113
   5 C :   -0.121811
   6 C :   -0.347808
   7 H :    0.173729
   8 C :    0.245580
   9 O :   -0.196028
  10 O :   -0.226777
  11 C :   -0.015215
  12 C :   -0.296152
  13 S :   -0.105610
  14 P :    0.629714
  15 S :   -0.312271
  16 O :   -0.392513
  17 C :   -0.102486
  18 O :   -0.363067
  19 C :   -0.108741
  20 H :    0.114215
  21 H :    0.128876
  22 H :    0.116349
  23 H :    0.104090
  24 H :    0.109272
  25 H :    0.144336
  26 H :    0.121337
  27 H :    0.098216
  28 H :    0.111489
  29 H :    0.121533
  30 H :    0.131138
  31 H :    0.106150
  32 H :    0.120710
  33 H :    0.122661
  34 H :    0.122011
  35 H :    0.127092
  36 H :    0.129428
  37 H :    0.120976
Sum of atomic charges:    0.0000000

LOEWDIN ATOMIC CHARGES
----------------------
   0 C :   -0.355830
   1 C :   -0.109845
   2 O :   -0.061239
   3 C :    0.034061
   4 O :   -0.162186
   5 C :   -0.251507
   6 C :   -0.278257
   7 H :    0.145872
   8 C :    0.023365
   9 O :   -0.158978
  10 O :   -0.055579
  11 C :   -0.108056
  12 C :   -0.355438
  13 S :    0.093045
  14 P :    0.582470
  15 S :   -0.299999
  16 O :   -0.262968
  17 C :   -0.217441
  18 O :   -0.238002
  19 C :   -0.211104
  20 H :    0.131336
  21 H :    0.131485
  22 H :    0.125891
  23 H :    0.118487
  24 H :    0.120168
  25 H :    0.159418
  26 H :    0.141856
  27 H :    0.115269
  28 H :    0.120055
  29 H :    0.130101
  30 H :    0.128740
  31 H :    0.127056
  32 H :    0.119995
  33 H :    0.111375
  34 H :    0.114583
  35 H :    0.117662
  36 H :    0.124480
  37 H :    0.109656

  Mayer bond orders larger than 0.100000
B(  0-C ,  1-C ) :   1.1745 B(  0-C , 20-H ) :   0.9440 B(  0-C , 21-H ) :   0.9463
B(  0-C , 22-H ) :   0.9487 B(  1-C ,  2-O ) :   0.9139 B(  1-C , 23-H ) :   0.9371
B(  1-C , 24-H ) :   0.9142 B(  2-O ,  3-C ) :   1.2405 B(  3-C ,  4-O ) :   2.0311
B(  3-C ,  5-C ) :   0.9998 B(  5-C ,  6-C ) :   1.0936 B(  5-C , 25-H ) :   0.8683
B(  5-C , 26-H ) :   0.8978 B(  6-C ,  7-H ) :   0.8146 B(  6-C ,  8-C ) :   0.8826
B(  6-C , 13-S ) :   1.0103 B(  8-C ,  9-O ) :   2.0650 B(  8-C , 10-O ) :   1.2520
B( 10-O , 11-C ) :   0.9008 B( 11-C , 12-C ) :   1.1816 B( 11-C , 27-H ) :   0.9347
B( 11-C , 28-H ) :   0.9103 B( 12-C , 29-H ) :   0.9458 B( 12-C , 30-H ) :   0.9408
B( 12-C , 31-H ) :   0.9422 B( 13-S , 14-P ) :   0.9535 B( 13-S , 15-S ) :   0.1152
B( 14-P , 15-S ) :   1.6354 B( 14-P , 16-O ) :   1.0692 B( 14-P , 18-O ) :   1.1192
B( 16-O , 17-C ) :   0.9304 B( 17-C , 32-H ) :   0.9581 B( 17-C , 33-H ) :   0.9413
B( 17-C , 34-H ) :   0.9403 B( 18-O , 19-C ) :   0.9189 B( 19-C , 35-H ) :   0.9480
B( 19-C , 36-H ) :   0.9591 B( 19-C , 37-H ) :   0.9369

Dispersion correction           -0.051437448
FINAL SINGLE POINT ENERGY     -1979.024931964027

DIPOLE MOMENT
-------------

Method             : SCF
Type of density    : Electron Density
Multiplicity       :   1
Irrep              :   0
Energy             : -1979.1554944499353041 Eh
Relativity type    :
Basis              : AO
                                X                 Y                 Z
Electronic contribution:     -7.184219450       3.240320528       1.679009349
Nuclear contribution   :      7.210553335      -4.123312002      -0.475086068
                        -----------------------------------------
Total Dipole Moment    :      0.026333884      -0.882991474       1.203923281
                        -----------------------------------------
Magnitude (a.u.)       :      1.493251045
Magnitude (Debye)      :      3.795542521

Rotational constants in cm-1:             0.013797             0.006461             0.005225
Rotational constants in MHz :           413.623227           193.710049           156.639550

                             ****ORCA TERMINATED NORMALLY****
TOTAL RUN TIME: 0 days 0 hours 0 minutes 30 seconds 819 msec
