                         Program Version 6.0.0  -   RELEASE  -
|  1> ! pbe def2-sv(p) def2/J RI DEFGRID1 loosescf d4 GCP(DFT/SV(P)) printgap
|  2> %output
|  3>     printlevel normal
|  4> end
|  5> * xyz 0 1
|  6> C 2.9853828288 0.4597057155 -2.9849152442
|  7> C 2.6283571807 -0.9445758525 -2.5408041186
|  8> O 1.7266471946 -0.9401771725 -1.4148073909
|  9> P 2.1458674048 -0.5908205478 0.0707486225
| 10> S 2.7430449486 1.2204406469 0.5553405913
| 11> O 3.2756153197 -1.6929423621 0.3050284223
| 12> C 4.1943647904 -1.6331946504 1.40730036
| 13> C 3.5018768472 -1.8587336205 2.7360096429
| 14> S 0.4342693095 -1.3196563782 1.0551383668
| 15> C -0.1506797964 0.2087826073 1.8754248745
| 16> S -1.9330184471 0.4250596718 1.7440567104
| 17> P -2.1289214861 0.926777815 -0.3221750595
| 18> S -0.4591992028 1.4419758339 -1.211778295
| 19> O -3.1523036528 2.116836529 -0.4185297586
| 20> C -4.5835773737 2.0260389947 -0.2066674787
| 21> C -4.938077536 1.6302667547 1.2105915672
| 22> O -2.9844339536 -0.262131203 -0.9494761073
| 23> C -2.6187117165 -1.6522767423 -0.9383853737
| 24> C -1.6361315477 -1.9856831499 -2.0430997573
| 25> H 3.5382271265 0.4163586242 -3.9177229086
| 26> H 2.077932267 1.0437312625 -3.1268853157
| 27> H 3.5942366447 0.956770611 -2.2319563639
| 28> H 3.5201685554 -1.5171931981 -2.2744233531
| 29> H 2.0654173772 -1.4709991967 -3.3138462527
| 30> H 4.9176388858 -2.4200534443 1.1892314743
| 31> H 4.687287817 -0.6557187455 1.3933767714
| 32> H 2.9134766451 -2.7722259685 2.7060612819
| 33> H 4.246761911 -1.9323553562 3.5216805523
| 34> H 2.8425118401 -1.0192276473 2.9537144695
| 35> H 0.3693630991 1.0591162633 1.4264630477
| 36> H 0.0559103866 0.1368039807 2.9403510555
| 37> H -4.9304033382 3.0336065738 -0.4412130688
| 38> H -4.9896629944 1.3151980954 -0.9281567738
| 39> H -4.4688864782 2.304961772 1.9217973949
| 40> H -6.0160047142 1.6768381974 1.330882636
| 41> H -4.6019105576 0.6162485711 1.4198101061
| 42> H -2.2042277122 -1.9089525876 0.0419613234
| 43> H -3.5670675442 -2.1733021903 -1.0838157388
| 44> H -0.6953323643 -1.4612468667 -1.8864567588
| 45> H -1.4456276962 -3.0540469902 -2.0412974784
| 46> H -2.0397925408 -1.6898547248 -3.0078627424
| 47> *
| 48>
| 49>                          ****END OF INPUT****

CARTESIAN COORDINATES (ANGSTROEM)
---------------------------------
  C      2.985383    0.459706   -2.984915
  C      2.628357   -0.944576   -2.540804
  O      1.726647   -0.940177   -1.414807
  P      2.145867   -0.590821    0.070749
  S      2.743045    1.220441    0.555341
  O      3.275615   -1.692942    0.305028
  C      4.194365   -1.633195    1.407300
  C      3.501877   -1.858734    2.736010
  S      0.434269   -1.319656    1.055138
  C     -0.150680    0.208783    1.875425
  S     -1.933018    0.425060    1.744057
  P     -2.128921    0.926778   -0.322175
  S     -0.459199    1.441976   -1.211778
  O     -3.152304    2.116837   -0.418530
  C     -4.583577    2.026039   -0.206667
  C     -4.938078    1.630267    1.210592
  O     -2.984434   -0.262131   -0.949476
  C     -2.618712   -1.652277   -0.938385
  C     -1.636132   -1.985683   -2.043100
  H      3.538227    0.416359   -3.917723
  H      2.077932    1.043731   -3.126885
  H      3.594237    0.956771   -2.231956
  H      3.520169   -1.517193   -2.274423
  H      2.065417   -1.470999   -3.313846
  H      4.917639   -2.420053    1.189231
  H      4.687288   -0.655719    1.393377
  H      2.913477   -2.772226    2.706061
  H      4.246762   -1.932355    3.521681
  H      2.842512   -1.019228    2.953714
  H      0.369363    1.059116    1.426463
  H      0.055910    0.136804    2.940351
  H     -4.930403    3.033607   -0.441213
  H     -4.989663    1.315198   -0.928157
  H     -4.468886    2.304962    1.921797
  H     -6.016005    1.676838    1.330883
  H     -4.601911    0.616249    1.419810
  H     -2.204228   -1.908953    0.041961
  H     -3.567068   -2.173302   -1.083816
  H     -0.695332   -1.461247   -1.886457
  H     -1.445628   -3.054047   -2.041297
  H     -2.039793   -1.689855   -3.007863

 Total Charge           Charge          ....    0
 Multiplicity           Mult            ....    1
 Number of Electrons    NEL             ....  202
 Basis Dimension        Dim             ....  334

ORBITAL ENERGIES
----------------

  NO   OCC          E(Eh)            E(eV)
   0   2.0000     -88.044143     -2395.8029
   1   2.0000     -88.041460     -2395.7299
   2   2.0000     -87.985164     -2394.1980
   3   2.0000     -87.975134     -2393.9251
   4   2.0000     -76.425127     -2079.6334
   5   2.0000     -76.421824     -2079.5435
   6   2.0000     -18.789336      -511.2838
   7   2.0000     -18.788883      -511.2715
   8   2.0000     -18.788203      -511.2530
   9   2.0000     -18.787054      -511.2217
  10   2.0000      -9.955870      -270.9130
  11   2.0000      -9.952048      -270.8090
  12   2.0000      -9.950449      -270.7655
  13   2.0000      -9.949810      -270.7481
  14   2.0000      -9.949529      -270.7405
  15   2.0000      -9.891502      -269.1615
  16   2.0000      -9.883420      -268.9415
  17   2.0000      -9.874864      -268.7087
  18   2.0000      -9.872932      -268.6561
  19   2.0000      -7.688798      -209.2228
  20   2.0000      -7.686334      -209.1558
  21   2.0000      -7.629976      -207.6222
  22   2.0000      -7.619952      -207.3494
  23   2.0000      -6.422225      -174.7576
  24   2.0000      -6.418999      -174.6699
  25   2.0000      -5.716821      -155.5626
  26   2.0000      -5.714200      -155.4913
  27   2.0000      -5.712992      -155.4584
  28   2.0000      -5.710959      -155.4031
  29   2.0000      -5.706045      -155.2694
  30   2.0000      -5.703183      -155.1915
  31   2.0000      -5.658906      -153.9867
  32   2.0000      -5.650782      -153.7656
  33   2.0000      -5.649951      -153.7430
  34   2.0000      -5.649116      -153.7203
  35   2.0000      -5.640274      -153.4797
  36   2.0000      -5.640163      -153.4766
  37   2.0000      -4.644826      -126.3922
  38   2.0000      -4.643802      -126.3643
  39   2.0000      -4.642899      -126.3397
  40   2.0000      -4.641872      -126.3118
  41   2.0000      -4.640879      -126.2847
  42   2.0000      -4.639116      -126.2368
  43   2.0000      -0.984975       -26.8025
  44   2.0000      -0.984761       -26.7967
  45   2.0000      -0.940583       -25.5946
  46   2.0000      -0.940089       -25.5811
  47   2.0000      -0.760432       -20.6924
  48   2.0000      -0.719625       -19.5820
  49   2.0000      -0.709086       -19.2952
  50   2.0000      -0.688038       -18.7225
  51   2.0000      -0.684239       -18.6191
  52   2.0000      -0.673136       -18.3170
  53   2.0000      -0.648628       -17.6501
  54   2.0000      -0.632369       -17.2076
  55   2.0000      -0.595557       -16.2059
  56   2.0000      -0.585454       -15.9310
  57   2.0000      -0.575687       -15.6652
  58   2.0000      -0.574072       -15.6213
  59   2.0000      -0.559367       -15.2212
  60   2.0000      -0.497633       -13.5413
  61   2.0000      -0.494029       -13.4432
  62   2.0000      -0.470893       -12.8136
  63   2.0000      -0.465549       -12.6682
  64   2.0000      -0.451849       -12.2954
  65   2.0000      -0.448098       -12.1934
  66   2.0000      -0.439827       -11.9683
  67   2.0000      -0.431488       -11.7414
  68   2.0000      -0.425081       -11.5670
  69   2.0000      -0.415159       -11.2971
  70   2.0000      -0.412339       -11.2203
  71   2.0000      -0.403042       -10.9673
  72   2.0000      -0.394703       -10.7404
  73   2.0000      -0.386570       -10.5191
  74   2.0000      -0.385618       -10.4932
  75   2.0000      -0.368316       -10.0224
  76   2.0000      -0.359607        -9.7854
  77   2.0000      -0.351562        -9.5665
  78   2.0000      -0.351164        -9.5557
  79   2.0000      -0.349621        -9.5137
  80   2.0000      -0.344189        -9.3659
  81   2.0000      -0.340654        -9.2697
  82   2.0000      -0.338843        -9.2204
  83   2.0000      -0.333446        -9.0735
  84   2.0000      -0.326700        -8.8900
  85   2.0000      -0.313833        -8.5398
  86   2.0000      -0.308609        -8.3977
  87   2.0000      -0.295854        -8.0506
  88   2.0000      -0.291897        -7.9429
  89   2.0000      -0.288918        -7.8619
  90   2.0000      -0.283820        -7.7231
  91   2.0000      -0.273840        -7.4516
  92   2.0000      -0.272160        -7.4059
  93   2.0000      -0.261450        -7.1144
  94   2.0000      -0.255491        -6.9523
  95   2.0000      -0.238308        -6.4847
  96   2.0000      -0.217054        -5.9063
  97   2.0000      -0.210507        -5.7282
  98   2.0000      -0.199348        -5.4245
  99   2.0000      -0.189236        -5.1494
 100   2.0000      -0.184034        -5.0078
 101   0.0000      -0.041648        -1.1333
 102   0.0000      -0.034491        -0.9386
 103   0.0000      -0.009635        -0.2622
 104   0.0000       0.007478         0.2035
 105   0.0000       0.015463         0.4208

MULLIKEN ATOMIC CHARGES
-----------------------
   0 C :   -0.316474
   1 C :    0.001436
   2 O :   -0.357306
   3 P :    0.640169
   4 S :   -0.313632
   5 O :   -0.379723
   6 C :   -0.002336
   7 C :   -0.311278
   8 S :   -0.110449
   9 C :   -0.330201
  10 S :   -0.136823
  11 P :    0.609833
  12 S :   -0.299624
  13 O :   -0.357044
  14 C :    0.003453
  15 C :   -0.332015
  16 O :   -0.382987
  17 C :   -0.010064
  18 C :   -0.326071
  19 H :    0.106098
  20 H :    0.134246
  21 H :    0.127431
  22 H :    0.103430
  23 H :    0.105992
  24 H :    0.102060
  25 H :    0.109808
  26 H :    0.117811
  27 H :    0.111793
  28 H :    0.117589
  29 H :    0.214858
  30 H :    0.179477
  31 H :    0.111847
  32 H :    0.111478
  33 H :    0.129835
  34 H :    0.117619
  35 H :    0.129737
  36 H :    0.107289
  37 H :    0.098469
  38 H :    0.163902
  39 H :    0.101652
  40 H :    0.108718
Sum of atomic charges:   -0.0000000

LOEWDIN ATOMIC CHARGES
----------------------
   0 C :   -0.367564
   1 C :   -0.109148
   2 O :   -0.230469
   3 P :    0.573926
   4 S :   -0.297180
   5 O :   -0.249342
   6 C :   -0.121769
   7 C :   -0.368550
   8 S :    0.084078
   9 C :   -0.479646
  10 S :    0.073927
  11 P :    0.560429
  12 S :   -0.292024
  13 O :   -0.235137
  14 C :   -0.110024
  15 C :   -0.371209
  16 O :   -0.247107
  17 C :   -0.118434
  18 C :   -0.371321
  19 H :    0.127386
  20 H :    0.131761
  21 H :    0.121992
  22 H :    0.109921
  23 H :    0.119115
  24 H :    0.116976
  25 H :    0.108784
  26 H :    0.124401
  27 H :    0.130047
  28 H :    0.118438
  29 H :    0.126755
  30 H :    0.133507
  31 H :    0.123402
  32 H :    0.115029
  33 H :    0.129843
  34 H :    0.133686
  35 H :    0.116487
  36 H :    0.097127
  37 H :    0.114782
  38 H :    0.126230
  39 H :    0.126848
  40 H :    0.124047

  Mayer bond orders larger than 0.100000
B(  0-C ,  1-C ) :   1.1658 B(  0-C , 19-H ) :   0.9379 B(  0-C , 20-H ) :   0.9423
B(  0-C , 21-H ) :   0.9354 B(  1-C ,  2-O ) :   0.9029 B(  1-C , 22-H ) :   0.9264
B(  1-C , 23-H ) :   0.9347 B(  2-O ,  3-P ) :   1.1269 B(  3-P ,  4-S ) :   1.6026
B(  3-P ,  5-O ) :   1.0830 B(  3-P ,  8-S ) :   0.9585 B(  4-S ,  8-S ) :   0.1200
B(  5-O ,  6-C ) :   0.9163 B(  6-C ,  7-C ) :   1.1648 B(  6-C , 24-H ) :   0.9332
B(  6-C , 25-H ) :   0.9128 B(  7-C , 26-H ) :   0.9441 B(  7-C , 27-H ) :   0.9383
B(  7-C , 28-H ) :   0.9368 B(  8-S ,  9-C ) :   0.9859 B(  9-C , 10-S ) :   1.0145
B(  9-C , 29-H ) :   0.8462 B(  9-C , 30-H ) :   0.9060 B( 10-S , 11-P ) :   0.9227
B( 10-S , 12-S ) :   0.1118 B( 11-P , 12-S ) :   1.6832 B( 11-P , 13-O ) :   1.1397
B( 11-P , 16-O ) :   1.0695 B( 13-O , 14-C ) :   0.9015 B( 14-C , 15-C ) :   1.1698
B( 14-C , 31-H ) :   0.9337 B( 14-C , 32-H ) :   0.9263 B( 15-C , 33-H ) :   0.9430
B( 15-C , 34-H ) :   0.9355 B( 15-C , 35-H ) :   0.9311 B( 16-O , 17-C ) :   0.9137
B( 17-C , 18-C ) :   1.1679 B( 17-C , 36-H ) :   0.9068 B( 17-C , 37-H ) :   0.9350
B( 18-C , 38-H ) :   0.9182 B( 18-C , 39-H ) :   0.9386 B( 18-C , 40-H ) :   0.9450

Dispersion correction           -0.067289023
FINAL SINGLE POINT ENERGY     -2929.516222287506

DIPOLE MOMENT
-------------

Method             : SCF
Type of density    : Electron Density
Multiplicity       :   1
Irrep              :   0
Energy             : -2929.6347940693626697 Eh
Relativity type    :
Basis              : AO
                                X                 Y                 Z
Electronic contribution:     -0.373914649       8.008764910       3.330780754
Nuclear contribution   :     -0.176616228      -9.290095676      -3.071649723
                        -----------------------------------------
Total Dipole Moment    :     -0.550530878      -1.281330766       0.259131031
                        -----------------------------------------
Magnitude (a.u.)       :      1.418464547
Magnitude (Debye)      :      3.605450349

Rotational constants in cm-1:             0.013310             0.005064             0.004650
Rotational constants in MHz :           399.012927           151.802804           139.396533

                             ****ORCA TERMINATED NORMALLY****
TOTAL RUN TIME: 0 days 0 hours 0 minutes 21 seconds 208 msec
