                         Program Version 6.0.0  -   RELEASE  -
|  1> ! r2scan-3c def2/J RI DEFGRID2 scfconv6 printgap
|  2> %output
|  3>     printlevel normal
|  4> end
|  5> * xyz 0 1
|  6> C 0.9816849783 0.8041823528 0.0874601052
|  7> C -0.3437135404 0.0447744917 0.0006778101
|  8> F -1.3995144105 0.8645631252 0.1534434567
|  9> F -0.4565812646 -0.8969532678 0.9570517333
| 10> F -0.5182086834 -0.5882071781 -1.1689062528
| 11> O 2.0768579306 -0.0426326493 -0.0609326217
| 12> H 1.0071680768 1.5147939792 -0.7424386326
| 13> H 0.9824504506 1.3474661438 1.0395490251
| 14> H 2.1941531675 -0.6043311057 0.7208079572
| 15> *
| 16>
| 17>                          ****END OF INPUT****

CARTESIAN COORDINATES (ANGSTROEM)
---------------------------------
  C      0.981685    0.804182    0.087460
  C     -0.343714    0.044774    0.000678
  F     -1.399514    0.864563    0.153443
  F     -0.456581   -0.896953    0.957052
  F     -0.518209   -0.588207   -1.168906
  O      2.076858   -0.042633   -0.060933
  H      1.007168    1.514794   -0.742439
  H      0.982450    1.347466    1.039549
  H      2.194153   -0.604331    0.720808

 Total Charge           Charge          ....    0
 Multiplicity           Mult            ....    1
 Number of Electrons    NEL             ....   50
 Basis Dimension        Dim             ....  149

ORBITAL ENERGIES
----------------

  NO   OCC          E(Eh)            E(eV)
   0   2.0000     -24.522701      -667.2966
   1   2.0000     -24.521956      -667.2763
   2   2.0000     -24.518209      -667.1744
   3   2.0000     -18.983801      -516.5755
   4   2.0000     -10.281314      -279.7688
   5   2.0000     -10.119994      -275.3790
   6   2.0000      -1.278677       -34.7946
   7   2.0000      -1.189747       -32.3747
   8   2.0000      -1.187376       -32.3102
   9   2.0000      -1.024557       -27.8796
  10   2.0000      -0.740313       -20.1450
  11   2.0000      -0.640511       -17.4292
  12   2.0000      -0.562660       -15.3107
  13   2.0000      -0.559989       -15.2381
  14   2.0000      -0.545662       -14.8482
  15   2.0000      -0.490512       -13.3475
  16   2.0000      -0.443319       -12.0633
  17   2.0000      -0.430535       -11.7155
  18   2.0000      -0.426402       -11.6030
  19   2.0000      -0.395070       -10.7504
  20   2.0000      -0.386641       -10.5210
  21   2.0000      -0.379499       -10.3267
  22   2.0000      -0.369918       -10.0660
  23   2.0000      -0.331385        -9.0174
  24   2.0000      -0.275691        -7.5019
  25   0.0000       0.030667         0.8345
  26   0.0000       0.091781         2.4975
  27   0.0000       0.097116         2.6427
  28   0.0000       0.107398         2.9225
  29   0.0000       0.148028         4.0280

MULLIKEN ATOMIC CHARGES
-----------------------
   0 C :   -0.168958
   1 C :    0.556019
   2 F :   -0.208167
   3 F :   -0.221739
   4 F :   -0.199957
   5 O :   -0.398611
   6 H :    0.165763
   7 H :    0.156932
   8 H :    0.318719
Sum of atomic charges:   -0.0000000

LOEWDIN ATOMIC CHARGES
----------------------
   0 C :    0.038471
   1 C :    0.505990
   2 F :   -0.215778
   3 F :   -0.216718
   4 F :   -0.201601
   5 O :   -0.566925
   6 H :    0.199937
   7 H :    0.179432
   8 H :    0.277192

  Mayer bond orders larger than 0.100000
B(  0-C ,  1-C ) :   0.9785 B(  0-C ,  5-O ) :   0.9897 B(  0-C ,  6-H ) :   0.9486
B(  0-C ,  7-H ) :   0.9510 B(  1-C ,  2-F ) :   1.0100 B(  1-C ,  3-F ) :   1.0105
B(  1-C ,  4-F ) :   1.0316 B(  5-O ,  8-H ) :   0.8826

Dispersion correction           -0.001548648
FINAL SINGLE POINT ENERGY      -452.751282863112

DIPOLE MOMENT
-------------

Method             : SCF
Type of density    : Electron Density
Multiplicity       :   1
Irrep              :   0
Energy             :  -452.7602899247974051 Eh
Relativity type    :
Basis              : AO
                                X                 Y                 Z
Electronic contribution:     -5.685461988      -2.329351902      -0.478318553
Nuclear contribution   :      6.155704128       2.692709316       1.008205596
                        -----------------------------------------
Total Dipole Moment    :      0.470242140       0.363357414       0.529887043
                        -----------------------------------------
Magnitude (a.u.)       :      0.796201330
Magnitude (Debye)      :      2.023782949

Rotational constants in cm-1:             0.178357             0.093008             0.091860
Rotational constants in MHz :          5347.018985          2788.300465          2753.905107

                             ****ORCA TERMINATED NORMALLY****
TOTAL RUN TIME: 0 days 0 hours 0 minutes 14 seconds 29 msec
