                         Program Version 6.0.0  -   RELEASE  -
|  1> ! r2scan-3c def2/J RI DEFGRID2 scfconv6 printgap
|  2> %output
|  3>     printlevel normal
|  4> end
|  5> %cpcm
|  6>     smd true
|  7>     smdsolvent "water"
|  8> end
|  9> * xyz 0 1
| 10> C 0.9816849783 0.8041823528 0.0874601052
| 11> C -0.3437135404 0.0447744917 0.0006778101
| 12> F -1.3995144105 0.8645631252 0.1534434567
| 13> F -0.4565812646 -0.8969532678 0.9570517333
| 14> F -0.5182086834 -0.5882071781 -1.1689062528
| 15> O 2.0768579306 -0.0426326493 -0.0609326217
| 16> H 1.0071680768 1.5147939792 -0.7424386326
| 17> H 0.9824504506 1.3474661438 1.0395490251
| 18> H 2.1941531675 -0.6043311057 0.7208079572
| 19> *
| 20>
| 21>                          ****END OF INPUT****

CARTESIAN COORDINATES (ANGSTROEM)
---------------------------------
  C      0.981685    0.804182    0.087460
  C     -0.343714    0.044774    0.000678
  F     -1.399514    0.864563    0.153443
  F     -0.456581   -0.896953    0.957052
  F     -0.518209   -0.588207   -1.168906
  O      2.076858   -0.042633   -0.060933
  H      1.007168    1.514794   -0.742439
  H      0.982450    1.347466    1.039549
  H      2.194153   -0.604331    0.720808

 Total Charge           Charge          ....    0
 Multiplicity           Mult            ....    1
 Number of Electrons    NEL             ....   50
 Basis Dimension        Dim             ....  149

ORBITAL ENERGIES
----------------

  NO   OCC          E(Eh)            E(eV)
   0   2.0000     -24.520472      -667.2360
   1   2.0000     -24.519782      -667.2172
   2   2.0000     -24.519317      -667.2045
   3   2.0000     -18.971142      -516.2310
   4   2.0000     -10.277837      -279.6742
   5   2.0000     -10.101337      -274.8714
   6   2.0000      -1.278117       -34.7793
   7   2.0000      -1.188883       -32.3512
   8   2.0000      -1.187701       -32.3190
   9   2.0000      -1.011191       -27.5159
  10   2.0000      -0.729094       -19.8397
  11   2.0000      -0.635027       -17.2800
  12   2.0000      -0.561089       -15.2680
  13   2.0000      -0.558680       -15.2025
  14   2.0000      -0.536405       -14.5963
  15   2.0000      -0.475441       -12.9374
  16   2.0000      -0.435490       -11.8503
  17   2.0000      -0.430301       -11.7091
  18   2.0000      -0.420994       -11.4558
  19   2.0000      -0.393344       -10.7034
  20   2.0000      -0.383577       -10.4377
  21   2.0000      -0.376389       -10.2421
  22   2.0000      -0.370565       -10.0836
  23   2.0000      -0.319672        -8.6987
  24   2.0000      -0.266633        -7.2554
  25   0.0000       0.050709         1.3799
  26   0.0000       0.107142         2.9155
  27   0.0000       0.109338         2.9752
  28   0.0000       0.130608         3.5540
  29   0.0000       0.159070         4.3285

MULLIKEN ATOMIC CHARGES
-----------------------
   0 C :   -0.171847
   1 C :    0.541789
   2 F :   -0.215221
   3 F :   -0.223200
   4 F :   -0.213408
   5 O :   -0.466375
   6 H :    0.193897
   7 H :    0.188149
   8 H :    0.366216
Sum of atomic charges:   -0.0000000

LOEWDIN ATOMIC CHARGES
----------------------
   0 C :    0.042677
   1 C :    0.505381
   2 F :   -0.220521
   3 F :   -0.219783
   4 F :   -0.213428
   5 O :   -0.593627
   6 H :    0.209515
   7 H :    0.194979
   8 H :    0.294808

  Mayer bond orders larger than 0.100000
B(  0-C ,  1-C ) :   0.9889 B(  0-C ,  5-O ) :   0.9800 B(  0-C ,  6-H ) :   0.9395
B(  0-C ,  7-H ) :   0.9364 B(  1-C ,  2-F ) :   1.0087 B(  1-C ,  3-F ) :   1.0139
B(  1-C ,  4-F ) :   1.0199 B(  5-O ,  8-H ) :   0.8568

Dispersion correction           -0.001548648
FINAL SINGLE POINT ENERGY      -452.758381653611

DIPOLE MOMENT
-------------

Method             : SCF
Type of density    : Electron Density
Multiplicity       :   1
Irrep              :   0
Energy             :  -452.7673887152959651 Eh
Relativity type    :
Basis              : AO
                                X                 Y                 Z
Electronic contribution:     -5.623669837      -2.208255605      -0.275042858
Nuclear contribution   :      6.155704128       2.692709316       1.008205596
                        -----------------------------------------
Total Dipole Moment    :      0.532034290       0.484453711       0.733162738
                        -----------------------------------------
Magnitude (a.u.)       :      1.027269918
Magnitude (Debye)      :      2.611112623

Rotational constants in cm-1:             0.178357             0.093008             0.091860
Rotational constants in MHz :          5347.018985          2788.300465          2753.905107

                             ****ORCA TERMINATED NORMALLY****
TOTAL RUN TIME: 0 days 0 hours 0 minutes 17 seconds 263 msec
