                         Program Version 6.0.0  -   RELEASE  -
|  1> ! r2scan-3c def2/J RI DEFGRID2 scfconv6 printgap
|  2> %output
|  3>     printlevel normal
|  4> end
|  5> * xyz 0 1
|  6> C 5.3827233709 -1.2992556632 0.173135513
|  7> C 4.6467051657 -1.3688286088 -1.1500626422
|  8> O 3.2189947427 -1.4040839728 -0.9536717599
|  9> P 2.395018141 -0.1008107987 -0.5446852753
| 10> S 3.170684741 1.626108257 -1.0163435616
| 11> O 2.1348927063 -0.1923111099 1.0195096635
| 12> C 1.6813509331 -1.4086707605 1.6597477175
| 13> C 0.8663040863 -1.0261672182 2.8778862112
| 14> S 0.5769609882 -0.6351619041 -1.492257058
| 15> C -0.1455551627 1.0253793297 -1.4254066632
| 16> S -0.6564832352 1.5122367572 0.2428973983
| 17> P -2.4153343401 0.3473304207 0.2711634539
| 18> S -3.4911128935 0.3105454463 -1.3734716869
| 19> O -3.2055538678 0.8074059292 1.5720226497
| 20> C -4.1790710334 1.8662059329 1.5492401843
| 21> C -3.5465887055 3.2136260391 1.2678347005
| 22> O -1.8238294166 -1.0432974848 0.7382721005
| 23> C -2.5654084128 -2.2788893104 0.60514959
| 24> C -1.5806951039 -3.4066450235 0.3751966139
| 25> H 5.1342144031 -2.1572283817 0.792345649
| 26> H 6.4525969573 -1.2874868201 -0.0096007303
| 27> H 5.1039458616 -0.3861675463 0.6994255263
| 28> H 4.8645857252 -2.2905459463 -1.6908708511
| 29> H 4.893239055 -0.5036892533 -1.7729707916
| 30> H 1.0890268135 -1.9854144864 0.9427415105
| 31> H 2.5684081818 -1.9818466384 1.9381608635
| 32> H 1.447929491 -0.3708592943 3.5197396332
| 33> H -0.040325476 -0.5058310601 2.578800058
| 34> H 0.598946432 -1.924055192 3.4258905163
| 35> H -1.0161970328 1.0211568268 -2.0823424859
| 36> H 0.5965507928 1.7532273382 -1.7545329303
| 37> H -4.9298163547 1.6275971196 0.7892541943
| 38> H -4.6288173742 1.8300672028 2.5422023125
| 39> H -3.1549494658 3.2359464482 0.2514305638
| 40> H -4.2949977822 3.9924441176 1.373102366
| 41> H -2.72942618 3.4005393488 1.9601256956
| 42> H -3.1344754937 -2.4223451577 1.5260207913
| 43> H -3.2588653921 -2.1808997489 -0.2370598146
| 44> H -0.9125668736 -3.5001722853 1.2262414973
| 45> H -2.1296175072 -4.3339553851 0.2469924071
| 46> H -0.994963852 -3.2120777833 -0.5201456984
| 47> *
| 48>
| 49>                          ****END OF INPUT****

CARTESIAN COORDINATES (ANGSTROEM)
---------------------------------
  C      5.382723   -1.299256    0.173136
  C      4.646705   -1.368829   -1.150063
  O      3.218995   -1.404084   -0.953672
  P      2.395018   -0.100811   -0.544685
  S      3.170685    1.626108   -1.016344
  O      2.134893   -0.192311    1.019510
  C      1.681351   -1.408671    1.659748
  C      0.866304   -1.026167    2.877886
  S      0.576961   -0.635162   -1.492257
  C     -0.145555    1.025379   -1.425407
  S     -0.656483    1.512237    0.242897
  P     -2.415334    0.347330    0.271163
  S     -3.491113    0.310545   -1.373472
  O     -3.205554    0.807406    1.572023
  C     -4.179071    1.866206    1.549240
  C     -3.546589    3.213626    1.267835
  O     -1.823829   -1.043297    0.738272
  C     -2.565408   -2.278889    0.605150
  C     -1.580695   -3.406645    0.375197
  H      5.134214   -2.157228    0.792346
  H      6.452597   -1.287487   -0.009601
  H      5.103946   -0.386168    0.699426
  H      4.864586   -2.290546   -1.690871
  H      4.893239   -0.503689   -1.772971
  H      1.089027   -1.985414    0.942742
  H      2.568408   -1.981847    1.938161
  H      1.447929   -0.370859    3.519740
  H     -0.040325   -0.505831    2.578800
  H      0.598946   -1.924055    3.425891
  H     -1.016197    1.021157   -2.082342
  H      0.596551    1.753227   -1.754533
  H     -4.929816    1.627597    0.789254
  H     -4.628817    1.830067    2.542202
  H     -3.154949    3.235946    0.251431
  H     -4.294998    3.992444    1.373102
  H     -2.729426    3.400539    1.960126
  H     -3.134475   -2.422345    1.526021
  H     -3.258865   -2.180900   -0.237060
  H     -0.912567   -3.500172    1.226241
  H     -2.129618   -4.333955    0.246992
  H     -0.994964   -3.212078   -0.520146

 Total Charge           Charge          ....    0
 Multiplicity           Mult            ....    1
 Number of Electrons    NEL             ....  202
 Basis Dimension        Dim             ....  539

ORBITAL ENERGIES
----------------

  NO   OCC          E(Eh)            E(eV)
   0   2.0000     -88.576604     -2410.2919
   1   2.0000     -88.573126     -2410.1973
   2   2.0000     -88.523402     -2408.8442
   3   2.0000     -88.521498     -2408.7924
   4   2.0000     -76.916159     -2092.9951
   5   2.0000     -76.912986     -2092.9087
   6   2.0000     -18.996415      -516.9187
   7   2.0000     -18.993441      -516.8378
   8   2.0000     -18.992680      -516.8171
   9   2.0000     -18.988958      -516.7158
  10   2.0000     -10.102596      -274.9056
  11   2.0000     -10.100778      -274.8561
  12   2.0000     -10.100642      -274.8524
  13   2.0000     -10.100463      -274.8476
  14   2.0000     -10.099555      -274.8228
  15   2.0000     -10.035475      -273.0791
  16   2.0000     -10.032775      -273.0057
  17   2.0000     -10.029845      -272.9260
  18   2.0000     -10.027900      -272.8730
  19   2.0000      -7.870909      -214.1783
  20   2.0000      -7.867510      -214.0858
  21   2.0000      -7.818172      -212.7433
  22   2.0000      -7.816345      -212.6936
  23   2.0000      -6.594894      -179.4562
  24   2.0000      -6.591588      -179.3662
  25   2.0000      -5.817835      -158.3113
  26   2.0000      -5.814796      -158.2287
  27   2.0000      -5.814322      -158.2157
  28   2.0000      -5.811475      -158.1383
  29   2.0000      -5.807939      -158.0421
  30   2.0000      -5.804554      -157.9500
  31   2.0000      -5.765691      -156.8924
  32   2.0000      -5.764055      -156.8479
  33   2.0000      -5.758462      -156.6957
  34   2.0000      -5.758284      -156.6909
  35   2.0000      -5.756767      -156.6496
  36   2.0000      -5.756117      -156.6319
  37   2.0000      -4.740405      -128.9930
  38   2.0000      -4.739737      -128.9748
  39   2.0000      -4.738637      -128.9449
  40   2.0000      -4.737449      -128.9125
  41   2.0000      -4.736263      -128.8803
  42   2.0000      -4.735228      -128.8521
  43   2.0000      -1.053310       -28.6620
  44   2.0000      -1.047599       -28.5066
  45   2.0000      -1.014144       -27.5963
  46   2.0000      -1.009233       -27.4626
  47   2.0000      -0.802760       -21.8442
  48   2.0000      -0.762144       -20.7390
  49   2.0000      -0.751159       -20.4401
  50   2.0000      -0.735821       -20.0227
  51   2.0000      -0.734169       -19.9777
  52   2.0000      -0.711990       -19.3742
  53   2.0000      -0.686148       -18.6710
  54   2.0000      -0.670012       -18.2320
  55   2.0000      -0.634389       -17.2626
  56   2.0000      -0.622402       -16.9364
  57   2.0000      -0.608556       -16.5596
  58   2.0000      -0.603385       -16.4189
  59   2.0000      -0.587795       -15.9947
  60   2.0000      -0.533614       -14.5204
  61   2.0000      -0.525528       -14.3003
  62   2.0000      -0.500168       -13.6103
  63   2.0000      -0.495980       -13.4963
  64   2.0000      -0.478622       -13.0240
  65   2.0000      -0.464032       -12.6269
  66   2.0000      -0.460911       -12.5420
  67   2.0000      -0.452738       -12.3196
  68   2.0000      -0.449934       -12.2433
  69   2.0000      -0.435187       -11.8421
  70   2.0000      -0.423803       -11.5323
  71   2.0000      -0.415128       -11.2962
  72   2.0000      -0.409993       -11.1565
  73   2.0000      -0.402101       -10.9417
  74   2.0000      -0.397413       -10.8142
  75   2.0000      -0.389585       -10.6011
  76   2.0000      -0.383214       -10.4278
  77   2.0000      -0.376031       -10.2323
  78   2.0000      -0.373463       -10.1624
  79   2.0000      -0.369726       -10.0607
  80   2.0000      -0.363443        -9.8898
  81   2.0000      -0.358658        -9.7596
  82   2.0000      -0.357984        -9.7412
  83   2.0000      -0.354396        -9.6436
  84   2.0000      -0.352181        -9.5833
  85   2.0000      -0.334145        -9.0925
  86   2.0000      -0.327855        -8.9214
  87   2.0000      -0.324694        -8.8354
  88   2.0000      -0.313137        -8.5209
  89   2.0000      -0.306120        -8.3299
  90   2.0000      -0.300804        -8.1853
  91   2.0000      -0.293532        -7.9874
  92   2.0000      -0.283622        -7.7177
  93   2.0000      -0.282401        -7.6845
  94   2.0000      -0.275485        -7.4963
  95   2.0000      -0.246707        -6.7132
  96   2.0000      -0.231860        -6.3092
  97   2.0000      -0.227455        -6.1894
  98   2.0000      -0.220655        -6.0043
  99   2.0000      -0.217642        -5.9223
 100   2.0000      -0.213138        -5.7998
 101   0.0000      -0.046229        -1.2580
 102   0.0000      -0.026141        -0.7113
 103   0.0000      -0.004783        -0.1302
 104   0.0000       0.004945         0.1346
 105   0.0000       0.014761         0.4017

MULLIKEN ATOMIC CHARGES
-----------------------
   0 C :   -0.448569
   1 C :   -0.151607
   2 O :   -0.314487
   3 P :    0.635447
   4 S :   -0.440889
   5 O :   -0.255225
   6 C :   -0.087394
   7 C :   -0.459081
   8 S :   -0.154373
   9 C :   -0.241908
  10 S :   -0.097877
  11 P :    0.679986
  12 S :   -0.493460
  13 O :   -0.316386
  14 C :   -0.147349
  15 C :   -0.457077
  16 O :   -0.259130
  17 C :   -0.116459
  18 C :   -0.482596
  19 H :    0.148326
  20 H :    0.150044
  21 H :    0.178746
  22 H :    0.150169
  23 H :    0.176630
  24 H :    0.156610
  25 H :    0.145656
  26 H :    0.153488
  27 H :    0.178639
  28 H :    0.139712
  29 H :    0.212754
  30 H :    0.218642
  31 H :    0.171894
  32 H :    0.147982
  33 H :    0.179357
  34 H :    0.148762
  35 H :    0.157388
  36 H :    0.149508
  37 H :    0.171052
  38 H :    0.150473
  39 H :    0.148431
  40 H :    0.174170
Sum of atomic charges:   -0.0000000

LOEWDIN ATOMIC CHARGES
----------------------
   0 C :   -0.399347
   1 C :    0.022212
   2 O :   -0.679608
   3 P :    0.375635
   4 S :   -0.102495
   5 O :   -0.666125
   6 C :    0.019975
   7 C :   -0.392106
   8 S :    0.163284
   9 C :   -0.420634
  10 S :    0.185350
  11 P :    0.373329
  12 S :   -0.140757
  13 O :   -0.658504
  14 C :    0.020570
  15 C :   -0.406267
  16 O :   -0.680954
  17 C :    0.023719
  18 C :   -0.393747
  19 H :    0.155303
  20 H :    0.161286
  21 H :    0.167836
  22 H :    0.179261
  23 H :    0.181285
  24 H :    0.177903
  25 H :    0.170561
  26 H :    0.161948
  27 H :    0.171660
  28 H :    0.157969
  29 H :    0.193925
  30 H :    0.193540
  31 H :    0.179884
  32 H :    0.179602
  33 H :    0.166578
  34 H :    0.160064
  35 H :    0.160683
  36 H :    0.171884
  37 H :    0.183438
  38 H :    0.155846
  39 H :    0.160220
  40 H :    0.165796

  Mayer bond orders larger than 0.100000
B(  0-C ,  1-C ) :   0.9238 B(  0-C , 19-H ) :   0.9720 B(  0-C , 20-H ) :   0.9613
B(  0-C , 21-H ) :   0.9608 B(  1-C ,  2-O ) :   0.8014 B(  1-C , 22-H ) :   0.9615
B(  1-C , 23-H ) :   0.9664 B(  2-O ,  3-P ) :   1.0684 B(  3-P ,  4-S ) :   1.8519
B(  3-P ,  5-O ) :   1.0904 B(  3-P ,  8-S ) :   1.0550 B(  5-O ,  6-C ) :   0.7476
B(  6-C ,  7-C ) :   0.9498 B(  6-C , 24-H ) :   0.9499 B(  6-C , 25-H ) :   0.9502
B(  7-C , 26-H ) :   0.9693 B(  7-C , 27-H ) :   0.9612 B(  7-C , 28-H ) :   0.9671
B(  8-S ,  9-C ) :   0.9191 B(  9-C , 10-S ) :   0.9101 B(  9-C , 29-H ) :   0.9008
B(  9-C , 30-H ) :   0.9032 B( 10-S , 11-P ) :   1.1101 B( 11-P , 12-S ) :   1.7446
B( 11-P , 13-O ) :   1.0652 B( 11-P , 16-O ) :   1.1397 B( 13-O , 14-C ) :   0.8155
B( 14-C , 15-C ) :   0.9221 B( 14-C , 31-H ) :   0.9663 B( 14-C , 32-H ) :   0.9584
B( 15-C , 33-H ) :   0.9608 B( 15-C , 34-H ) :   0.9580 B( 15-C , 35-H ) :   0.9686
B( 16-O , 17-C ) :   0.7673 B( 17-C , 18-C ) :   0.9467 B( 17-C , 36-H ) :   0.9474
B( 17-C , 37-H ) :   0.9503 B( 18-C , 38-H ) :   0.9737 B( 18-C , 39-H ) :   0.9622
B( 18-C , 40-H ) :   0.9695

Dispersion correction           -0.021686742
FINAL SINGLE POINT ENERGY     -2932.465095855281

DIPOLE MOMENT
-------------

Method             : SCF
Type of density    : Electron Density
Multiplicity       :   1
Irrep              :   0
Energy             : -2932.4900579736859072 Eh
Relativity type    :
Basis              : AO
                                X                 Y                 Z
Electronic contribution:     -1.560768305      10.494376255     -13.916688026
Nuclear contribution   :      1.464708506     -11.757283162      15.156396567
                        -----------------------------------------
Total Dipole Moment    :     -0.096059800      -1.262906907       1.239708541
                        -----------------------------------------
Magnitude (a.u.)       :      1.772297550
Magnitude (Debye)      :      4.504822368

Rotational constants in cm-1:             0.013380             0.004758             0.004412
Rotational constants in MHz :           401.128192           142.639680           132.267018

                             ****ORCA TERMINATED NORMALLY****
TOTAL RUN TIME: 0 days 0 hours 1 minutes 20 seconds 580 msec
