                         Program Version 6.0.0  -   RELEASE  -
|  1> ! r2scan-3c def2/J RI DEFGRID2 scfconv6 printgap
|  2> %output
|  3>     printlevel normal
|  4> end
|  5> %cpcm
|  6>     smd true
|  7>     smdsolvent "water"
|  8> end
|  9> * xyz 0 1
| 10> C 5.3827233709 -1.2992556632 0.173135513
| 11> C 4.6467051657 -1.3688286088 -1.1500626422
| 12> O 3.2189947427 -1.4040839728 -0.9536717599
| 13> P 2.395018141 -0.1008107987 -0.5446852753
| 14> S 3.170684741 1.626108257 -1.0163435616
| 15> O 2.1348927063 -0.1923111099 1.0195096635
| 16> C 1.6813509331 -1.4086707605 1.6597477175
| 17> C 0.8663040863 -1.0261672182 2.8778862112
| 18> S 0.5769609882 -0.6351619041 -1.492257058
| 19> C -0.1455551627 1.0253793297 -1.4254066632
| 20> S -0.6564832352 1.5122367572 0.2428973983
| 21> P -2.4153343401 0.3473304207 0.2711634539
| 22> S -3.4911128935 0.3105454463 -1.3734716869
| 23> O -3.2055538678 0.8074059292 1.5720226497
| 24> C -4.1790710334 1.8662059329 1.5492401843
| 25> C -3.5465887055 3.2136260391 1.2678347005
| 26> O -1.8238294166 -1.0432974848 0.7382721005
| 27> C -2.5654084128 -2.2788893104 0.60514959
| 28> C -1.5806951039 -3.4066450235 0.3751966139
| 29> H 5.1342144031 -2.1572283817 0.792345649
| 30> H 6.4525969573 -1.2874868201 -0.0096007303
| 31> H 5.1039458616 -0.3861675463 0.6994255263
| 32> H 4.8645857252 -2.2905459463 -1.6908708511
| 33> H 4.893239055 -0.5036892533 -1.7729707916
| 34> H 1.0890268135 -1.9854144864 0.9427415105
| 35> H 2.5684081818 -1.9818466384 1.9381608635
| 36> H 1.447929491 -0.3708592943 3.5197396332
| 37> H -0.040325476 -0.5058310601 2.578800058
| 38> H 0.598946432 -1.924055192 3.4258905163
| 39> H -1.0161970328 1.0211568268 -2.0823424859
| 40> H 0.5965507928 1.7532273382 -1.7545329303
| 41> H -4.9298163547 1.6275971196 0.7892541943
| 42> H -4.6288173742 1.8300672028 2.5422023125
| 43> H -3.1549494658 3.2359464482 0.2514305638
| 44> H -4.2949977822 3.9924441176 1.373102366
| 45> H -2.72942618 3.4005393488 1.9601256956
| 46> H -3.1344754937 -2.4223451577 1.5260207913
| 47> H -3.2588653921 -2.1808997489 -0.2370598146
| 48> H -0.9125668736 -3.5001722853 1.2262414973
| 49> H -2.1296175072 -4.3339553851 0.2469924071
| 50> H -0.994963852 -3.2120777833 -0.5201456984
| 51> *
| 52>
| 53>                          ****END OF INPUT****

CARTESIAN COORDINATES (ANGSTROEM)
---------------------------------
  C      5.382723   -1.299256    0.173136
  C      4.646705   -1.368829   -1.150063
  O      3.218995   -1.404084   -0.953672
  P      2.395018   -0.100811   -0.544685
  S      3.170685    1.626108   -1.016344
  O      2.134893   -0.192311    1.019510
  C      1.681351   -1.408671    1.659748
  C      0.866304   -1.026167    2.877886
  S      0.576961   -0.635162   -1.492257
  C     -0.145555    1.025379   -1.425407
  S     -0.656483    1.512237    0.242897
  P     -2.415334    0.347330    0.271163
  S     -3.491113    0.310545   -1.373472
  O     -3.205554    0.807406    1.572023
  C     -4.179071    1.866206    1.549240
  C     -3.546589    3.213626    1.267835
  O     -1.823829   -1.043297    0.738272
  C     -2.565408   -2.278889    0.605150
  C     -1.580695   -3.406645    0.375197
  H      5.134214   -2.157228    0.792346
  H      6.452597   -1.287487   -0.009601
  H      5.103946   -0.386168    0.699426
  H      4.864586   -2.290546   -1.690871
  H      4.893239   -0.503689   -1.772971
  H      1.089027   -1.985414    0.942742
  H      2.568408   -1.981847    1.938161
  H      1.447929   -0.370859    3.519740
  H     -0.040325   -0.505831    2.578800
  H      0.598946   -1.924055    3.425891
  H     -1.016197    1.021157   -2.082342
  H      0.596551    1.753227   -1.754533
  H     -4.929816    1.627597    0.789254
  H     -4.628817    1.830067    2.542202
  H     -3.154949    3.235946    0.251431
  H     -4.294998    3.992444    1.373102
  H     -2.729426    3.400539    1.960126
  H     -3.134475   -2.422345    1.526021
  H     -3.258865   -2.180900   -0.237060
  H     -0.912567   -3.500172    1.226241
  H     -2.129618   -4.333955    0.246992
  H     -0.994964   -3.212078   -0.520146

 Total Charge           Charge          ....    0
 Multiplicity           Mult            ....    1
 Number of Electrons    NEL             ....  202
 Basis Dimension        Dim             ....  539

ORBITAL ENERGIES
----------------

  NO   OCC          E(Eh)            E(eV)
   0   2.0000     -88.581072     -2410.4135
   1   2.0000     -88.578803     -2410.3518
   2   2.0000     -88.532235     -2409.0846
   3   2.0000     -88.529295     -2409.0046
   4   2.0000     -76.920042     -2093.1008
   5   2.0000     -76.919724     -2093.0921
   6   2.0000     -18.997069      -516.9365
   7   2.0000     -18.994669      -516.8712
   8   2.0000     -18.993316      -516.8344
   9   2.0000     -18.992592      -516.8147
  10   2.0000     -10.104848      -274.9669
  11   2.0000     -10.090476      -274.5758
  12   2.0000     -10.090265      -274.5701
  13   2.0000     -10.090028      -274.5636
  14   2.0000     -10.088653      -274.5262
  15   2.0000     -10.019131      -272.6344
  16   2.0000     -10.019067      -272.6327
  17   2.0000     -10.018520      -272.6178
  18   2.0000     -10.018147      -272.6076
  19   2.0000      -7.875455      -214.3020
  20   2.0000      -7.873202      -214.2407
  21   2.0000      -7.827416      -212.9948
  22   2.0000      -7.824351      -212.9114
  23   2.0000      -6.598650      -179.5584
  24   2.0000      -6.598453      -179.5530
  25   2.0000      -5.822355      -158.4343
  26   2.0000      -5.819981      -158.3697
  27   2.0000      -5.819343      -158.3524
  28   2.0000      -5.817143      -158.2925
  29   2.0000      -5.812508      -158.1664
  30   2.0000      -5.810305      -158.1064
  31   2.0000      -5.775022      -157.1463
  32   2.0000      -5.771813      -157.0590
  33   2.0000      -5.767724      -156.9478
  34   2.0000      -5.767339      -156.9373
  35   2.0000      -5.764645      -156.8640
  36   2.0000      -5.764464      -156.8590
  37   2.0000      -4.744443      -129.1029
  38   2.0000      -4.743888      -129.0878
  39   2.0000      -4.743299      -129.0717
  40   2.0000      -4.743296      -129.0717
  41   2.0000      -4.742424      -129.0479
  42   2.0000      -4.742310      -129.0448
  43   2.0000      -1.052927       -28.6516
  44   2.0000      -1.050185       -28.5770
  45   2.0000      -1.012924       -27.5631
  46   2.0000      -1.011518       -27.5248
  47   2.0000      -0.806410       -21.9435
  48   2.0000      -0.758714       -20.6457
  49   2.0000      -0.744733       -20.2652
  50   2.0000      -0.727107       -19.7856
  51   2.0000      -0.723309       -19.6822
  52   2.0000      -0.710302       -19.3283
  53   2.0000      -0.689923       -18.7738
  54   2.0000      -0.676393       -18.4056
  55   2.0000      -0.631688       -17.1891
  56   2.0000      -0.616948       -16.7880
  57   2.0000      -0.599109       -16.3026
  58   2.0000      -0.598306       -16.2807
  59   2.0000      -0.585739       -15.9388
  60   2.0000      -0.528688       -14.3863
  61   2.0000      -0.521665       -14.1952
  62   2.0000      -0.496493       -13.5103
  63   2.0000      -0.490598       -13.3499
  64   2.0000      -0.479574       -13.0499
  65   2.0000      -0.458881       -12.4868
  66   2.0000      -0.455994       -12.4082
  67   2.0000      -0.445508       -12.1229
  68   2.0000      -0.442248       -12.0342
  69   2.0000      -0.432708       -11.7746
  70   2.0000      -0.421193       -11.4612
  71   2.0000      -0.411369       -11.1939
  72   2.0000      -0.406930       -11.0731
  73   2.0000      -0.397176       -10.8077
  74   2.0000      -0.396247       -10.7824
  75   2.0000      -0.388985       -10.5848
  76   2.0000      -0.380286       -10.3481
  77   2.0000      -0.368954       -10.0398
  78   2.0000      -0.364738        -9.9250
  79   2.0000      -0.358190        -9.7468
  80   2.0000      -0.354541        -9.6476
  81   2.0000      -0.351985        -9.5780
  82   2.0000      -0.349900        -9.5213
  83   2.0000      -0.347507        -9.4561
  84   2.0000      -0.346438        -9.4271
  85   2.0000      -0.328636        -8.9426
  86   2.0000      -0.323589        -8.8053
  87   2.0000      -0.320675        -8.7260
  88   2.0000      -0.306564        -8.3420
  89   2.0000      -0.304125        -8.2757
  90   2.0000      -0.298963        -8.1352
  91   2.0000      -0.288602        -7.8533
  92   2.0000      -0.283252        -7.7077
  93   2.0000      -0.280933        -7.6446
  94   2.0000      -0.276193        -7.5156
  95   2.0000      -0.251216        -6.8359
  96   2.0000      -0.239759        -6.5242
  97   2.0000      -0.236487        -6.4351
  98   2.0000      -0.228805        -6.2261
  99   2.0000      -0.225978        -6.1492
 100   2.0000      -0.221388        -6.0243
 101   0.0000      -0.052582        -1.4308
 102   0.0000      -0.033094        -0.9005
 103   0.0000      -0.008771        -0.2387
 104   0.0000       0.000746         0.0203
 105   0.0000       0.013991         0.3807

MULLIKEN ATOMIC CHARGES
-----------------------
   0 C :   -0.476398
   1 C :   -0.145880
   2 O :   -0.332446
   3 P :    0.645729
   4 S :   -0.491550
   5 O :   -0.281157
   6 C :   -0.089878
   7 C :   -0.500122
   8 S :   -0.163421
   9 C :   -0.250065
  10 S :   -0.117141
  11 P :    0.717765
  12 S :   -0.539074
  13 O :   -0.340369
  14 C :   -0.145827
  15 C :   -0.493231
  16 O :   -0.279173
  17 C :   -0.115872
  18 C :   -0.509463
  19 H :    0.169026
  20 H :    0.172498
  21 H :    0.169808
  22 H :    0.176032
  23 H :    0.177594
  24 H :    0.170035
  25 H :    0.176293
  26 H :    0.166117
  27 H :    0.170697
  28 H :    0.170967
  29 H :    0.229561
  30 H :    0.234518
  31 H :    0.177623
  32 H :    0.175369
  33 H :    0.173270
  34 H :    0.173540
  35 H :    0.170954
  36 H :    0.173132
  37 H :    0.169760
  38 H :    0.170876
  39 H :    0.169466
  40 H :    0.170436
Sum of atomic charges:   -0.0000000

LOEWDIN ATOMIC CHARGES
----------------------
   0 C :   -0.400956
   1 C :    0.027531
   2 O :   -0.686723
   3 P :    0.377200
   4 S :   -0.140194
   5 O :   -0.684543
   6 C :    0.026584
   7 C :   -0.396403
   8 S :    0.158787
   9 C :   -0.417413
  10 S :    0.174315
  11 P :    0.379758
  12 S :   -0.169832
  13 O :   -0.667747
  14 C :    0.026060
  15 C :   -0.409633
  16 O :   -0.688021
  17 C :    0.029147
  18 C :   -0.395448
  19 H :    0.163051
  20 H :    0.169231
  21 H :    0.163053
  22 H :    0.190362
  23 H :    0.181439
  24 H :    0.182990
  25 H :    0.183616
  26 H :    0.164484
  27 H :    0.166350
  28 H :    0.170056
  29 H :    0.198722
  30 H :    0.197482
  31 H :    0.181669
  32 H :    0.191191
  33 H :    0.161761
  34 H :    0.169020
  35 H :    0.163806
  36 H :    0.181648
  37 H :    0.183002
  38 H :    0.163024
  39 H :    0.167989
  40 H :    0.163587

  Mayer bond orders larger than 0.100000
B(  0-C ,  1-C ) :   0.9196 B(  0-C , 19-H ) :   0.9663 B(  0-C , 20-H ) :   0.9568
B(  0-C , 21-H ) :   0.9619 B(  1-C ,  2-O ) :   0.7874 B(  1-C , 22-H ) :   0.9512
B(  1-C , 23-H ) :   0.9637 B(  2-O ,  3-P ) :   1.0805 B(  3-P ,  4-S ) :   1.8287
B(  3-P ,  5-O ) :   1.0956 B(  3-P ,  8-S ) :   1.0669 B(  5-O ,  6-C ) :   0.7340
B(  6-C ,  7-C ) :   0.9369 B(  6-C , 24-H ) :   0.9449 B(  6-C , 25-H ) :   0.9395
B(  7-C , 26-H ) :   0.9682 B(  7-C , 27-H ) :   0.9635 B(  7-C , 28-H ) :   0.9602
B(  8-S ,  9-C ) :   0.9091 B(  9-C , 10-S ) :   0.8999 B(  9-C , 29-H ) :   0.8977
B(  9-C , 30-H ) :   0.8998 B( 10-S , 11-P ) :   1.1110 B( 11-P , 12-S ) :   1.7072
B( 11-P , 13-O ) :   1.0744 B( 11-P , 16-O ) :   1.1555 B( 13-O , 14-C ) :   0.8039
B( 14-C , 15-C ) :   0.9085 B( 14-C , 31-H ) :   0.9649 B( 14-C , 32-H ) :   0.9486
B( 15-C , 33-H ) :   0.9625 B( 15-C , 34-H ) :   0.9527 B( 15-C , 35-H ) :   0.9659
B( 16-O , 17-C ) :   0.7579 B( 17-C , 18-C ) :   0.9457 B( 17-C , 36-H ) :   0.9382
B( 17-C , 37-H ) :   0.9499 B( 18-C , 38-H ) :   0.9676 B( 18-C , 39-H ) :   0.9575
B( 18-C , 40-H ) :   0.9685

Dispersion correction           -0.021686742
FINAL SINGLE POINT ENERGY     -2932.474146734868

DIPOLE MOMENT
-------------

Method             : SCF
Type of density    : Electron Density
Multiplicity       :   1
Irrep              :   0
Energy             : -2932.4991088532724461 Eh
Relativity type    :
Basis              : AO
                                X                 Y                 Z
Electronic contribution:     -1.640902173       9.901971921     -13.521371086
Nuclear contribution   :      1.464708506     -11.757283162      15.156396567
                        -----------------------------------------
Total Dipole Moment    :     -0.176193667      -1.855311241       1.635025481
                        -----------------------------------------
Magnitude (a.u.)       :      2.479220106
Magnitude (Debye)      :      6.301676708

Rotational constants in cm-1:             0.013380             0.004758             0.004412
Rotational constants in MHz :           401.128192           142.639680           132.267018

                             ****ORCA TERMINATED NORMALLY****
TOTAL RUN TIME: 0 days 0 hours 1 minutes 57 seconds 101 msec
