                         Program Version 6.0.0  -   RELEASE  -
|  1> ! pbe def2-sv(p) def2/J RI DEFGRID1 loosescf d4 GCP(DFT/SV(P)) printgap
|  2> %output
|  3>     printlevel normal
|  4> end
|  5> * xyz 0 1
|  6> C 2.1031308825 -1.2503672703 -3.0127054736
|  7> C 3.3491244714 -0.5548493236 -2.5061825433
|  8> O 3.4688352202 -0.6372244062 -1.0731985244
|  9> P 2.3876089534 0.0010034226 -0.099646482
| 10> S 1.6738887365 1.7431378038 -0.640047407
| 11> O 3.1661355995 0.1118181349 1.2698196646
| 12> C 4.1358776207 -0.8505641343 1.7657790736
| 13> C 3.4924949534 -1.8713348568 2.6834956228
| 14> S 0.9985074987 -1.5868396439 0.1668515196
| 15> C 0.0384625616 -0.8621870697 1.5378627195
| 16> S -1.7376753034 -1.0720728228 1.2959138332
| 17> P -2.046740078 0.7041375946 0.1607523245
| 18> S -1.4393332494 2.3056079314 1.1160737349
| 19> O -3.5923357287 0.6561827517 -0.1830542102
| 20> C -4.583550301 0.8929033784 0.8391534701
| 21> C -5.8992512365 1.1906025751 0.1496508571
| 22> O -1.3631783925 0.5194306412 -1.2437306862
| 23> C -1.9260975467 -0.2041867501 -2.3710628466
| 24> C -2.0675650924 -1.6873943022 -2.1019325496
| 25> H 2.1058436882 -1.2510698711 -4.0978735983
| 26> H 2.0636282634 -2.2737261313 -2.6474451172
| 27> H 1.2223727935 -0.7140089163 -2.660794446
| 28> H 3.3410717159 0.5022348548 -2.7886868726
| 29> H 4.2598139653 -1.0327829668 -2.8697605423
| 30> H 4.6234655499 -1.3280265088 0.9152644156
| 31> H 4.8550735608 -0.2327312741 2.3060533195
| 32> H 4.2746335742 -2.475115438 3.1332861387
| 33> H 2.9379665655 -1.3682492901 3.471741927
| 34> H 2.8209895707 -2.5230421403 2.1302419304
| 35> H 0.2658897283 0.2056399624 1.6061519869
| 36> H 0.2938350419 -1.3817726767 2.457492551
| 37> H -4.6488173277 -0.0041969204 1.46009669
| 38> H -4.2509699036 1.7331120176 1.4575183691
| 39> H -6.6621599948 1.3625657419 0.901653085
| 40> H -5.8034781281 2.0768724004 -0.4715339663
| 41> H -6.1913681361 0.3509730338 -0.4740885228
| 42> H -2.889453822 0.2464490226 -2.6138433905
| 43> H -1.2111795802 -0.002485636 -3.1708435457
| 44> H -2.3787652663 -2.1792560705 -3.018133638
| 45> H -1.1207724373 -2.1107325681 -1.7741431486
| 46> H -2.8158483916 -1.8641121268 -1.3325020388
| 47> *
| 48>
| 49>                          ****END OF INPUT****

CARTESIAN COORDINATES (ANGSTROEM)
---------------------------------
  C      2.103131   -1.250367   -3.012705
  C      3.349124   -0.554849   -2.506183
  O      3.468835   -0.637224   -1.073199
  P      2.387609    0.001003   -0.099646
  S      1.673889    1.743138   -0.640047
  O      3.166136    0.111818    1.269820
  C      4.135878   -0.850564    1.765779
  C      3.492495   -1.871335    2.683496
  S      0.998507   -1.586840    0.166852
  C      0.038463   -0.862187    1.537863
  S     -1.737675   -1.072073    1.295914
  P     -2.046740    0.704138    0.160752
  S     -1.439333    2.305608    1.116074
  O     -3.592336    0.656183   -0.183054
  C     -4.583550    0.892903    0.839153
  C     -5.899251    1.190603    0.149651
  O     -1.363178    0.519431   -1.243731
  C     -1.926098   -0.204187   -2.371063
  C     -2.067565   -1.687394   -2.101933
  H      2.105844   -1.251070   -4.097874
  H      2.063628   -2.273726   -2.647445
  H      1.222373   -0.714009   -2.660794
  H      3.341072    0.502235   -2.788687
  H      4.259814   -1.032783   -2.869761
  H      4.623466   -1.328027    0.915264
  H      4.855074   -0.232731    2.306053
  H      4.274634   -2.475115    3.133286
  H      2.937967   -1.368249    3.471742
  H      2.820990   -2.523042    2.130242
  H      0.265890    0.205640    1.606152
  H      0.293835   -1.381773    2.457493
  H     -4.648817   -0.004197    1.460097
  H     -4.250970    1.733112    1.457518
  H     -6.662160    1.362566    0.901653
  H     -5.803478    2.076872   -0.471534
  H     -6.191368    0.350973   -0.474089
  H     -2.889454    0.246449   -2.613843
  H     -1.211180   -0.002486   -3.170844
  H     -2.378765   -2.179256   -3.018134
  H     -1.120772   -2.110733   -1.774143
  H     -2.815848   -1.864112   -1.332502

 Total Charge           Charge          ....    0
 Multiplicity           Mult            ....    1
 Number of Electrons    NEL             ....  202
 Basis Dimension        Dim             ....  334

ORBITAL ENERGIES
----------------

  NO   OCC          E(Eh)            E(eV)
   0   2.0000     -88.038743     -2395.6560
   1   2.0000     -88.037959     -2395.6347
   2   2.0000     -87.972900     -2393.8643
   3   2.0000     -87.972857     -2393.8631
   4   2.0000     -76.420845     -2079.5169
   5   2.0000     -76.420227     -2079.5001
   6   2.0000     -18.796046      -511.4664
   7   2.0000     -18.793003      -511.3836
   8   2.0000     -18.786938      -511.2186
   9   2.0000     -18.786578      -511.2088
  10   2.0000      -9.955218      -270.8952
  11   2.0000      -9.955181      -270.8943
  12   2.0000      -9.954635      -270.8794
  13   2.0000      -9.954098      -270.8648
  14   2.0000      -9.953514      -270.8489
  15   2.0000      -9.890534      -269.1351
  16   2.0000      -9.888493      -269.0796
  17   2.0000      -9.887827      -269.0615
  18   2.0000      -9.882949      -268.9287
  19   2.0000      -7.684078      -209.0944
  20   2.0000      -7.682722      -209.0575
  21   2.0000      -7.618027      -207.2970
  22   2.0000      -7.617964      -207.2953
  23   2.0000      -6.418402      -174.6536
  24   2.0000      -6.417534      -174.6300
  25   2.0000      -5.711820      -155.4265
  26   2.0000      -5.710597      -155.3932
  27   2.0000      -5.708723      -155.3423
  28   2.0000      -5.707274      -155.3028
  29   2.0000      -5.701015      -155.1325
  30   2.0000      -5.699686      -155.0963
  31   2.0000      -5.647134      -153.6663
  32   2.0000      -5.647123      -153.6660
  33   2.0000      -5.638793      -153.4394
  34   2.0000      -5.638731      -153.4377
  35   2.0000      -5.637844      -153.4135
  36   2.0000      -5.637771      -153.4115
  37   2.0000      -4.641595      -126.3042
  38   2.0000      -4.640769      -126.2817
  39   2.0000      -4.640083      -126.2631
  40   2.0000      -4.639168      -126.2382
  41   2.0000      -4.638290      -126.2143
  42   2.0000      -4.637491      -126.1925
  43   2.0000      -0.988086       -26.8872
  44   2.0000      -0.985532       -26.8177
  45   2.0000      -0.943222       -25.6664
  46   2.0000      -0.942263       -25.6403
  47   2.0000      -0.759473       -20.6663
  48   2.0000      -0.719398       -19.5758
  49   2.0000      -0.710941       -19.3457
  50   2.0000      -0.692549       -18.8452
  51   2.0000      -0.691662       -18.8211
  52   2.0000      -0.676172       -18.3996
  53   2.0000      -0.644704       -17.5433
  54   2.0000      -0.625878       -17.0310
  55   2.0000      -0.592944       -16.1348
  56   2.0000      -0.587394       -15.9838
  57   2.0000      -0.577270       -15.7083
  58   2.0000      -0.573343       -15.6014
  59   2.0000      -0.558206       -15.1896
  60   2.0000      -0.505729       -13.7616
  61   2.0000      -0.499244       -13.5851
  62   2.0000      -0.472662       -12.8618
  63   2.0000      -0.471090       -12.8190
  64   2.0000      -0.454480       -12.3670
  65   2.0000      -0.446026       -12.1370
  66   2.0000      -0.443247       -12.0614
  67   2.0000      -0.441425       -12.0118
  68   2.0000      -0.430857       -11.7242
  69   2.0000      -0.425821       -11.5872
  70   2.0000      -0.406863       -11.0713
  71   2.0000      -0.399197       -10.8627
  72   2.0000      -0.395652       -10.7662
  73   2.0000      -0.382745       -10.4150
  74   2.0000      -0.375692       -10.2231
  75   2.0000      -0.368312       -10.0223
  76   2.0000      -0.365299        -9.9403
  77   2.0000      -0.359198        -9.7743
  78   2.0000      -0.353789        -9.6271
  79   2.0000      -0.352847        -9.6015
  80   2.0000      -0.348188        -9.4747
  81   2.0000      -0.344544        -9.3755
  82   2.0000      -0.339743        -9.2449
  83   2.0000      -0.336858        -9.1664
  84   2.0000      -0.334142        -9.0925
  85   2.0000      -0.321441        -8.7468
  86   2.0000      -0.314277        -8.5519
  87   2.0000      -0.303247        -8.2518
  88   2.0000      -0.300054        -8.1649
  89   2.0000      -0.292238        -7.9522
  90   2.0000      -0.291071        -7.9204
  91   2.0000      -0.271667        -7.3924
  92   2.0000      -0.267449        -7.2777
  93   2.0000      -0.258383        -7.0310
  94   2.0000      -0.255102        -6.9417
  95   2.0000      -0.231816        -6.3080
  96   2.0000      -0.216791        -5.8992
  97   2.0000      -0.208792        -5.6815
  98   2.0000      -0.188597        -5.1320
  99   2.0000      -0.185024        -5.0348
 100   2.0000      -0.175170        -4.7666
 101   0.0000      -0.037375        -1.0170
 102   0.0000      -0.030749        -0.8367
 103   0.0000      -0.014659        -0.3989
 104   0.0000       0.013863         0.3772
 105   0.0000       0.021980         0.5981

MULLIKEN ATOMIC CHARGES
-----------------------
   0 C :   -0.364096
   1 C :    0.011688
   2 O :   -0.386381
   3 P :    0.580510
   4 S :   -0.272070
   5 O :   -0.365875
   6 C :   -0.007612
   7 C :   -0.313736
   8 S :   -0.114475
   9 C :   -0.348750
  10 S :   -0.114385
  11 P :    0.608791
  12 S :   -0.291559
  13 O :   -0.388337
  14 C :   -0.012656
  15 C :   -0.281177
  16 O :   -0.350762
  17 C :    0.002137
  18 C :   -0.327232
  19 H :    0.115626
  20 H :    0.121696
  21 H :    0.158676
  22 H :    0.113028
  23 H :    0.104304
  24 H :    0.112427
  25 H :    0.111850
  26 H :    0.110673
  27 H :    0.121471
  28 H :    0.126507
  29 H :    0.201215
  30 H :    0.182412
  31 H :    0.105112
  32 H :    0.109141
  33 H :    0.114273
  34 H :    0.123187
  35 H :    0.113882
  36 H :    0.110441
  37 H :    0.116409
  38 H :    0.108451
  39 H :    0.137199
  40 H :    0.117995
Sum of atomic charges:   -0.0000000

LOEWDIN ATOMIC CHARGES
----------------------
   0 C :   -0.377421
   1 C :   -0.114289
   2 O :   -0.249257
   3 P :    0.558729
   4 S :   -0.287727
   5 O :   -0.244026
   6 C :   -0.109513
   7 C :   -0.367120
   8 S :    0.063069
   9 C :   -0.474933
  10 S :    0.060781
  11 P :    0.573480
  12 S :   -0.303031
  13 O :   -0.248795
  14 C :   -0.119840
  15 C :   -0.350581
  16 O :   -0.227360
  17 C :   -0.106649
  18 C :   -0.373044
  19 H :    0.132394
  20 H :    0.123390
  21 H :    0.125450
  22 H :    0.114530
  23 H :    0.118160
  24 H :    0.113740
  25 H :    0.122542
  26 H :    0.130552
  27 H :    0.126849
  28 H :    0.118527
  29 H :    0.127271
  30 H :    0.132635
  31 H :    0.109845
  32 H :    0.111226
  33 H :    0.132232
  34 H :    0.130247
  35 H :    0.125349
  36 H :    0.114193
  37 H :    0.120463
  38 H :    0.129085
  39 H :    0.121466
  40 H :    0.117381

  Mayer bond orders larger than 0.100000
B(  0-C ,  1-C ) :   1.1645 B(  0-C , 19-H ) :   0.9362 B(  0-C , 20-H ) :   0.9405
B(  0-C , 21-H ) :   0.9189 B(  1-C ,  2-O ) :   0.9054 B(  1-C , 22-H ) :   0.9174
B(  1-C , 23-H ) :   0.9337 B(  2-O ,  3-P ) :   1.0712 B(  3-P ,  4-S ) :   1.6858
B(  3-P ,  5-O ) :   1.1106 B(  3-P ,  8-S ) :   0.9414 B(  4-S ,  8-S ) :   0.1102
B(  5-O ,  6-C ) :   0.9009 B(  6-C ,  7-C ) :   1.1673 B(  6-C , 24-H ) :   0.9185
B(  6-C , 25-H ) :   0.9360 B(  7-C , 26-H ) :   0.9375 B(  7-C , 27-H ) :   0.9440
B(  7-C , 28-H ) :   0.9311 B(  8-S ,  9-C ) :   0.9739 B(  9-C , 10-S ) :   1.0215
B(  9-C , 29-H ) :   0.8496 B(  9-C , 30-H ) :   0.9070 B( 10-S , 11-P ) :   0.9281
B( 10-S , 12-S ) :   0.1084 B( 11-P , 12-S ) :   1.6677 B( 11-P , 13-O ) :   1.0741
B( 11-P , 16-O ) :   1.1494 B( 13-O , 14-C ) :   0.9003 B( 14-C , 15-C ) :   1.1603
B( 14-C , 31-H ) :   0.9303 B( 14-C , 32-H ) :   0.9066 B( 15-C , 33-H ) :   0.9415
B( 15-C , 34-H ) :   0.9506 B( 15-C , 35-H ) :   0.9512 B( 16-O , 17-C ) :   0.8924
B( 17-C , 18-C ) :   1.1737 B( 17-C , 36-H ) :   0.9284 B( 17-C , 37-H ) :   0.9250
B( 18-C , 38-H ) :   0.9351 B( 18-C , 39-H ) :   0.9335 B( 18-C , 40-H ) :   0.9385

Dispersion correction           -0.065922319
FINAL SINGLE POINT ENERGY     -2929.506757111987

DIPOLE MOMENT
-------------

Method             : SCF
Type of density    : Electron Density
Multiplicity       :   1
Irrep              :   0
Energy             : -2929.6263555977216129 Eh
Relativity type    :
Basis              : AO
                                X                 Y                 Z
Electronic contribution:      4.682584009      12.165845942       7.155605402
Nuclear contribution   :     -4.869849931     -14.042226731      -7.709507498
                        -----------------------------------------
Total Dipole Moment    :     -0.187265922      -1.876380789      -0.553902096
                        -----------------------------------------
Magnitude (a.u.)       :      1.965370428
Magnitude (Debye)      :      4.995574624

Rotational constants in cm-1:             0.013050             0.004960             0.004618
Rotational constants in MHz :           391.223866           148.697947           138.447474

                             ****ORCA TERMINATED NORMALLY****
TOTAL RUN TIME: 0 days 0 hours 0 minutes 21 seconds 495 msec
