                         Program Version 6.0.0  -   RELEASE  -
|  1> ! wb97x-v def2-tzvp def2/J RIJCOSX DEFGRID2 scfconv7 GCP(DFT/TZ) printgap
|  2> %output
|  3>     printlevel normal
|  4> end
|  5> * xyz 0 1
|  6> C 0.7232801411708175 0.5541197944850492 -0.2418340775639547
|  7> C -0.7230835777997205 0.5540458248082231 0.24206970723703872
|  8> Cl -1.8207518492800954 0.6772063506637428 -1.1838540857867847
|  9> Cl -1.1322096453559016 -0.885483611699865 1.2292566870562536
| 10> Cl 1.8209554862016555 0.6765817753453305 1.184138047969077
| 11> Cl 1.1323210255176324 -0.884982340073258 -1.229674443674001
| 12> H 0.896496126974944 1.4409923944882188 -0.8553603342735667
| 13> H -0.8962539751706983 1.4406507091416434 0.855998309980781
| 14> *
| 15>
| 16>                          ****END OF INPUT****

CARTESIAN COORDINATES (ANGSTROEM)
---------------------------------
  C      0.723280    0.554120   -0.241834
  C     -0.723084    0.554046    0.242070
  Cl    -1.820752    0.677206   -1.183854
  Cl    -1.132210   -0.885484    1.229257
  Cl     1.820955    0.676582    1.184138
  Cl     1.132321   -0.884982   -1.229674
  H      0.896496    1.440992   -0.855360
  H     -0.896254    1.440651    0.855998

 Total Charge           Charge          ....    0
 Multiplicity           Mult            ....    1
 Number of Electrons    NEL             ....   82
 Basis Dimension        Dim             ....  222

ORBITAL ENERGIES
----------------

  NO   OCC          E(Eh)            E(eV)
   0   2.0000    -107.165803     -2916.1298
   1   2.0000    -107.165790     -2916.1294
   2   2.0000    -107.162767     -2916.0471
   3   2.0000    -107.162760     -2916.0470
   4   2.0000     -12.208350      -332.2061
   5   2.0000     -12.207012      -332.1697
   6   2.0000     -11.319142      -308.0095
   7   2.0000     -11.319049      -308.0070
   8   2.0000     -11.316013      -307.9244
   9   2.0000     -11.315878      -307.9207
  10   2.0000      -9.111315      -247.9315
  11   2.0000      -9.110235      -247.9021
  12   2.0000      -9.108247      -247.8480
  13   2.0000      -9.108191      -247.8465
  14   2.0000      -9.107698      -247.8331
  15   2.0000      -9.107556      -247.8292
  16   2.0000      -9.107028      -247.8148
  17   2.0000      -9.106624      -247.8038
  18   2.0000      -9.104801      -247.7542
  19   2.0000      -9.104427      -247.7441
  20   2.0000      -9.104258      -247.7394
  21   2.0000      -9.104111      -247.7355
  22   2.0000      -1.483090       -40.3569
  23   2.0000      -1.441996       -39.2387
  24   2.0000      -1.404225       -38.2109
  25   2.0000      -1.400504       -38.1096
  26   2.0000      -1.265641       -34.4398
  27   2.0000      -1.125194       -30.6181
  28   2.0000      -0.982087       -26.7240
  29   2.0000      -0.969056       -26.3693
  30   2.0000      -0.960018       -26.1234
  31   2.0000      -0.911551       -24.8046
  32   2.0000      -0.911295       -24.7976
  33   2.0000      -0.823541       -22.4097
  34   2.0000      -0.815320       -22.1860
  35   2.0000      -0.813723       -22.1425
  36   2.0000      -0.811625       -22.0855
  37   2.0000      -0.801226       -21.8025
  38   2.0000      -0.801211       -21.8021
  39   2.0000      -0.799350       -21.7514
  40   2.0000      -0.789300       -21.4779
  41   0.0000      -0.345596        -9.4042
  42   0.0000      -0.339887        -9.2488
  43   0.0000      -0.279184        -7.5970
  44   0.0000      -0.246423        -6.7055
  45   0.0000      -0.105966        -2.8835

MULLIKEN ATOMIC CHARGES
-----------------------
   0 C :   -0.016767
   1 C :   -0.016762
   2 Cl:   -0.080968
   3 Cl:   -0.065153
   4 Cl:   -0.080967
   5 Cl:   -0.065153
   6 H :    0.162884
   7 H :    0.162887
Sum of atomic charges:   -0.0000000

LOEWDIN ATOMIC CHARGES
----------------------
   0 C :   -0.777129
   1 C :   -0.777123
   2 Cl:    0.316107
   3 Cl:    0.327583
   4 Cl:    0.316112
   5 Cl:    0.327585
   6 H :    0.133432
   7 H :    0.133432

  Mayer bond orders larger than 0.100000
B(  0-C ,  1-C ) :   0.9874 B(  0-C ,  4-Cl) :   1.1002 B(  0-C ,  5-Cl) :   1.1260
B(  0-C ,  6-H ) :   0.9500 B(  1-C ,  2-Cl) :   1.1002 B(  1-C ,  3-Cl) :   1.1260
B(  1-C ,  7-H ) :   0.9500

FINAL SINGLE POINT ENERGY     -1917.993901132665

DIPOLE MOMENT
-------------

Method             : SCF
Type of density    : Electron Density
Multiplicity       :   1
Irrep              :   0
Energy             : -1917.9989957812654211 Eh
Relativity type    :
Basis              : AO
                                X                 Y                 Z
Electronic contribution:     -0.000066390      -2.567937835      -0.000584328
Nuclear contribution   :      0.000090946       3.292769773       0.000751685
                        -----------------------------------------
Total Dipole Moment    :      0.000024556       0.724831938       0.000167356
                        -----------------------------------------
Magnitude (a.u.)       :      0.724831958
Magnitude (Debye)      :      1.842376421

Rotational constants in cm-1:             0.057517             0.036989             0.030670
Rotational constants in MHz :          1724.330746          1108.892666           919.476955

                             ****ORCA TERMINATED NORMALLY****
TOTAL RUN TIME: 0 days 0 hours 1 minutes 42 seconds 772 msec
