                         Program Version 6.0.0  -   RELEASE  -
|  1> ! wb97x-v def2-tzvp def2/J RIJCOSX DEFGRID2 scfconv7 GCP(DFT/TZ) printgap
|  2> %output
|  3>     printlevel normal
|  4> end
|  5> %cpcm
|  6>     smd true
|  7>     smdsolvent "water"
|  8> end
|  9> * xyz 0 1
| 10> C 0.7232801411708175 0.5541197944850492 -0.2418340775639547
| 11> C -0.7230835777997205 0.5540458248082231 0.24206970723703872
| 12> Cl -1.8207518492800954 0.6772063506637428 -1.1838540857867847
| 13> Cl -1.1322096453559016 -0.885483611699865 1.2292566870562536
| 14> Cl 1.8209554862016555 0.6765817753453305 1.184138047969077
| 15> Cl 1.1323210255176324 -0.884982340073258 -1.229674443674001
| 16> H 0.896496126974944 1.4409923944882188 -0.8553603342735667
| 17> H -0.8962539751706983 1.4406507091416434 0.855998309980781
| 18> *
| 19>
| 20>                          ****END OF INPUT****

CARTESIAN COORDINATES (ANGSTROEM)
---------------------------------
  C      0.723280    0.554120   -0.241834
  C     -0.723084    0.554046    0.242070
  Cl    -1.820752    0.677206   -1.183854
  Cl    -1.132210   -0.885484    1.229257
  Cl     1.820955    0.676582    1.184138
  Cl     1.132321   -0.884982   -1.229674
  H      0.896496    1.440992   -0.855360
  H     -0.896254    1.440651    0.855998

 Total Charge           Charge          ....    0
 Multiplicity           Mult            ....    1
 Number of Electrons    NEL             ....   82
 Basis Dimension        Dim             ....  222

ORBITAL ENERGIES
----------------

  NO   OCC          E(Eh)            E(eV)
   0   2.0000    -107.160017     -2915.9723
   1   2.0000    -107.160004     -2915.9720
   2   2.0000    -107.159415     -2915.9559
   3   2.0000    -107.159408     -2915.9557
   4   2.0000     -12.196853      -331.8932
   5   2.0000     -12.195518      -331.8569
   6   2.0000     -11.313408      -307.8535
   7   2.0000     -11.313281      -307.8500
   8   2.0000     -11.312801      -307.8370
   9   2.0000     -11.312636      -307.8325
  10   2.0000      -9.105733      -247.7796
  11   2.0000      -9.105019      -247.7602
  12   2.0000      -9.104015      -247.7328
  13   2.0000      -9.103933      -247.7306
  14   2.0000      -9.102268      -247.6853
  15   2.0000      -9.102083      -247.6803
  16   2.0000      -9.101862      -247.6742
  17   2.0000      -9.101796      -247.6725
  18   2.0000      -9.101573      -247.6664
  19   2.0000      -9.100932      -247.6490
  20   2.0000      -9.100926      -247.6488
  21   2.0000      -9.100833      -247.6463
  22   2.0000      -1.476290       -40.1719
  23   2.0000      -1.436676       -39.0939
  24   2.0000      -1.399776       -38.0898
  25   2.0000      -1.396053       -37.9885
  26   2.0000      -1.256272       -34.1849
  27   2.0000      -1.114800       -30.3353
  28   2.0000      -0.970543       -26.4098
  29   2.0000      -0.961060       -26.1518
  30   2.0000      -0.952741       -25.9254
  31   2.0000      -0.904549       -24.6140
  32   2.0000      -0.902734       -24.5646
  33   2.0000      -0.819283       -22.2938
  34   2.0000      -0.811305       -22.0767
  35   2.0000      -0.809461       -22.0266
  36   2.0000      -0.807345       -21.9690
  37   2.0000      -0.797507       -21.7013
  38   2.0000      -0.797142       -21.6913
  39   2.0000      -0.794860       -21.6293
  40   2.0000      -0.783516       -21.3206
  41   0.0000      -0.338426        -9.2090
  42   0.0000      -0.332894        -9.0585
  43   0.0000      -0.270799        -7.3688
  44   0.0000      -0.236760        -6.4426
  45   0.0000      -0.095727        -2.6049

MULLIKEN ATOMIC CHARGES
-----------------------
   0 C :   -0.020434
   1 C :   -0.020425
   2 Cl:   -0.103803
   3 Cl:   -0.096196
   4 Cl:   -0.103800
   5 Cl:   -0.096196
   6 H :    0.220427
   7 H :    0.220428
Sum of atomic charges:    0.0000000

LOEWDIN ATOMIC CHARGES
----------------------
   0 C :   -0.763131
   1 C :   -0.763124
   2 Cl:    0.304163
   3 Cl:    0.307423
   4 Cl:    0.304168
   5 Cl:    0.307425
   6 H :    0.151538
   7 H :    0.151538

  Mayer bond orders larger than 0.100000
B(  0-C ,  1-C ) :   0.9921 B(  0-C ,  4-Cl) :   1.0790 B(  0-C ,  5-Cl) :   1.0957
B(  0-C ,  6-H ) :   0.9356 B(  1-C ,  2-Cl) :   1.0790 B(  1-C ,  3-Cl) :   1.0957
B(  1-C ,  7-H ) :   0.9356

FINAL SINGLE POINT ENERGY     -1917.999654096404

DIPOLE MOMENT
-------------

Method             : SCF
Type of density    : Electron Density
Multiplicity       :   1
Irrep              :   0
Energy             : -1918.0047487450037806 Eh
Relativity type    :
Basis              : AO
                                X                 Y                 Z
Electronic contribution:     -0.000055092      -2.160145727      -0.000489370
Nuclear contribution   :      0.000090946       3.292769773       0.000751685
                        -----------------------------------------
Total Dipole Moment    :      0.000035854       1.132624047       0.000262315
                        -----------------------------------------
Magnitude (a.u.)       :      1.132624078
Magnitude (Debye)      :      2.878901615

Rotational constants in cm-1:             0.057517             0.036989             0.030670
Rotational constants in MHz :          1724.330746          1108.892666           919.476955

                             ****ORCA TERMINATED NORMALLY****
TOTAL RUN TIME: 0 days 0 hours 1 minutes 45 seconds 903 msec
