                         Program Version 6.0.0  -   RELEASE  -
|  1> ! pbe def2-sv(p) def2/J RI DEFGRID1 loosescf d4 GCP(DFT/SV(P)) printgap
|  2> %output
|  3>     printlevel normal
|  4> end
|  5> * xyz 0 1
|  6> C 4.4802430961 0.2147920163 -2.8902885156
|  7> C 3.8217530091 -0.9578739047 -2.1901041987
|  8> O 3.5447286227 -0.6189050501 -0.8147715663
|  9> P 2.0760563529 -0.3242852387 -0.2827657852
| 10> S 0.997964446 0.7524359451 -1.528597185
| 11> O 2.3571392258 0.2955704245 1.1413616508
| 12> C 2.7262979272 1.6822966251 1.3124442474
| 13> C 2.6002872384 2.0144164116 2.7835528602
| 14> S 1.3998532761 -2.2336671652 0.2594074142
| 15> C -0.2217934449 -1.8301319082 0.9762736752
| 16> S -1.5092141524 -1.4663376752 -0.2527241421
| 17> P -1.993403003 0.5437632366 0.2784702277
| 18> S -0.8673065476 1.3834272365 1.6402448486
| 19> O -3.5330993058 0.498650319 0.698181701
| 20> C -3.9863694984 0.2346952103 2.0334334789
| 21> C -3.7233610923 -1.1948686892 2.4640270111
| 22> O -2.080342218 1.3745898277 -1.0517835067
| 23> C -2.4360672799 0.8825772187 -2.3641554987
| 24> C -3.7704697238 0.1704711227 -2.3773461363
| 25> H 5.3792227842 0.512130766 -2.3578829286
| 26> H 4.7395734179 -0.0735214729 -3.9037354606
| 27> H 3.7939517791 1.0585836384 -2.9252203885
| 28> H 4.4836133703 -1.8241313127 -2.1449602056
| 29> H 2.8890456553 -1.2322480792 -2.690124211
| 30> H 3.7512152214 1.8050389651 0.9545074294
| 31> H 2.0546742982 2.2987946232 0.7050105193
| 32> H 1.5631602365 1.9142078133 3.0951111651
| 33> H 3.2156008446 1.3381318559 3.369289684
| 34> H 2.92481649 3.0368049616 2.9461987002
| 35> H -0.1147053913 -0.9690726961 1.6424717584
| 36> H -0.5205761481 -2.7243481727 1.5169384489
| 37> H -3.4941215998 0.9383875376 2.7128699281
| 38> H -5.0550350537 0.4501037363 1.9906457223
| 39> H -4.2234687565 -1.3798218896 3.4092815984
| 40> H -4.0966214983 -1.8898383913 1.7163505323
| 41> H -2.6544743749 -1.3537832257 2.5960426843
| 42> H -2.450437801 1.7895420149 -2.9703877885
| 43> H -1.6289726025 0.2305985417 -2.7099511645
| 44> H -4.5447546035 0.8179981934 -1.9741604959
| 45> H -4.0176537609 -0.0972273511 -3.3998889362
| 46> H -3.7185829064 -0.7363240962 -1.7765792171
| 47> *
| 48>
| 49>                          ****END OF INPUT****

CARTESIAN COORDINATES (ANGSTROEM)
---------------------------------
  C      4.480243    0.214792   -2.890289
  C      3.821753   -0.957874   -2.190104
  O      3.544729   -0.618905   -0.814772
  P      2.076056   -0.324285   -0.282766
  S      0.997964    0.752436   -1.528597
  O      2.357139    0.295570    1.141362
  C      2.726298    1.682297    1.312444
  C      2.600287    2.014416    2.783553
  S      1.399853   -2.233667    0.259407
  C     -0.221793   -1.830132    0.976274
  S     -1.509214   -1.466338   -0.252724
  P     -1.993403    0.543763    0.278470
  S     -0.867307    1.383427    1.640245
  O     -3.533099    0.498650    0.698182
  C     -3.986369    0.234695    2.033433
  C     -3.723361   -1.194869    2.464027
  O     -2.080342    1.374590   -1.051784
  C     -2.436067    0.882577   -2.364155
  C     -3.770470    0.170471   -2.377346
  H      5.379223    0.512131   -2.357883
  H      4.739573   -0.073521   -3.903735
  H      3.793952    1.058584   -2.925220
  H      4.483613   -1.824131   -2.144960
  H      2.889046   -1.232248   -2.690124
  H      3.751215    1.805039    0.954507
  H      2.054674    2.298795    0.705011
  H      1.563160    1.914208    3.095111
  H      3.215601    1.338132    3.369290
  H      2.924816    3.036805    2.946199
  H     -0.114705   -0.969073    1.642472
  H     -0.520576   -2.724348    1.516938
  H     -3.494122    0.938388    2.712870
  H     -5.055035    0.450104    1.990646
  H     -4.223469   -1.379822    3.409282
  H     -4.096621   -1.889838    1.716351
  H     -2.654474   -1.353783    2.596043
  H     -2.450438    1.789542   -2.970388
  H     -1.628973    0.230599   -2.709951
  H     -4.544755    0.817998   -1.974160
  H     -4.017654   -0.097227   -3.399889
  H     -3.718583   -0.736324   -1.776579

 Total Charge           Charge          ....    0
 Multiplicity           Mult            ....    1
 Number of Electrons    NEL             ....  202
 Basis Dimension        Dim             ....  334

ORBITAL ENERGIES
----------------

  NO   OCC          E(Eh)            E(eV)
   0   2.0000     -88.041143     -2395.7213
   1   2.0000     -88.039958     -2395.6890
   2   2.0000     -87.983133     -2394.1428
   3   2.0000     -87.979416     -2394.0416
   4   2.0000     -76.423983     -2079.6023
   5   2.0000     -76.420538     -2079.5086
   6   2.0000     -18.786813      -511.2152
   7   2.0000     -18.786678      -511.2115
   8   2.0000     -18.783929      -511.1367
   9   2.0000     -18.782680      -511.1027
  10   2.0000      -9.956070      -270.9184
  11   2.0000      -9.951381      -270.7908
  12   2.0000      -9.950756      -270.7738
  13   2.0000      -9.948701      -270.7179
  14   2.0000      -9.942666      -270.5537
  15   2.0000      -9.886341      -269.0210
  16   2.0000      -9.884778      -268.9785
  17   2.0000      -9.880869      -268.8721
  18   2.0000      -9.876814      -268.7618
  19   2.0000      -7.685903      -209.1440
  20   2.0000      -7.685774      -209.1406
  21   2.0000      -7.628114      -207.5715
  22   2.0000      -7.624055      -207.4611
  23   2.0000      -6.420979      -174.7237
  24   2.0000      -6.418365      -174.6526
  25   2.0000      -5.713772      -155.4796
  26   2.0000      -5.713703      -155.4778
  27   2.0000      -5.710347      -155.3865
  28   2.0000      -5.710324      -155.3858
  29   2.0000      -5.702787      -155.1807
  30   2.0000      -5.702735      -155.1793
  31   2.0000      -5.656942      -153.9332
  32   2.0000      -5.652857      -153.8221
  33   2.0000      -5.649054      -153.7186
  34   2.0000      -5.647945      -153.6884
  35   2.0000      -5.644557      -153.5962
  36   2.0000      -5.644486      -153.5943
  37   2.0000      -4.643578      -126.3582
  38   2.0000      -4.642746      -126.3355
  39   2.0000      -4.641515      -126.3020
  40   2.0000      -4.640954      -126.2868
  41   2.0000      -4.640092      -126.2633
  42   2.0000      -4.638804      -126.2283
  43   2.0000      -0.981507       -26.7082
  44   2.0000      -0.981030       -26.6952
  45   2.0000      -0.939470       -25.5643
  46   2.0000      -0.938725       -25.5440
  47   2.0000      -0.760116       -20.6838
  48   2.0000      -0.718510       -19.5517
  49   2.0000      -0.707940       -19.2640
  50   2.0000      -0.687334       -18.7033
  51   2.0000      -0.682841       -18.5811
  52   2.0000      -0.673639       -18.3307
  53   2.0000      -0.647673       -17.6241
  54   2.0000      -0.632376       -17.2078
  55   2.0000      -0.598353       -16.2820
  56   2.0000      -0.584688       -15.9102
  57   2.0000      -0.572298       -15.5730
  58   2.0000      -0.567348       -15.4383
  59   2.0000      -0.557123       -15.1601
  60   2.0000      -0.502257       -13.6671
  61   2.0000      -0.489343       -13.3157
  62   2.0000      -0.476536       -12.9672
  63   2.0000      -0.467187       -12.7128
  64   2.0000      -0.451757       -12.2929
  65   2.0000      -0.441475       -12.0131
  66   2.0000      -0.438325       -11.9274
  67   2.0000      -0.433994       -11.8096
  68   2.0000      -0.426024       -11.5927
  69   2.0000      -0.419686       -11.4202
  70   2.0000      -0.405570       -11.0361
  71   2.0000      -0.397513       -10.8169
  72   2.0000      -0.389691       -10.6040
  73   2.0000      -0.384286       -10.4569
  74   2.0000      -0.377872       -10.2824
  75   2.0000      -0.368243       -10.0204
  76   2.0000      -0.362125        -9.8539
  77   2.0000      -0.355017        -9.6605
  78   2.0000      -0.351148        -9.5552
  79   2.0000      -0.351050        -9.5525
  80   2.0000      -0.345960        -9.4140
  81   2.0000      -0.344721        -9.3803
  82   2.0000      -0.336794        -9.1646
  83   2.0000      -0.331386        -9.0175
  84   2.0000      -0.327290        -8.9060
  85   2.0000      -0.312295        -8.4980
  86   2.0000      -0.307397        -8.3647
  87   2.0000      -0.294450        -8.0124
  88   2.0000      -0.290378        -7.9016
  89   2.0000      -0.287591        -7.8257
  90   2.0000      -0.284207        -7.7337
  91   2.0000      -0.269934        -7.3453
  92   2.0000      -0.267383        -7.2759
  93   2.0000      -0.258911        -7.0453
  94   2.0000      -0.256802        -6.9879
  95   2.0000      -0.239090        -6.5060
  96   2.0000      -0.217907        -5.9296
  97   2.0000      -0.205428        -5.5900
  98   2.0000      -0.202999        -5.5239
  99   2.0000      -0.191029        -5.1982
 100   2.0000      -0.185167        -5.0386
 101   0.0000      -0.038360        -1.0438
 102   0.0000      -0.031622        -0.8605
 103   0.0000      -0.011644        -0.3169
 104   0.0000       0.002782         0.0757
 105   0.0000       0.021412         0.5826

MULLIKEN ATOMIC CHARGES
-----------------------
   0 C :   -0.288959
   1 C :   -0.003724
   2 O :   -0.381577
   3 P :    0.617214
   4 S :   -0.329431
   5 O :   -0.367208
   6 C :   -0.004977
   7 C :   -0.287298
   8 S :   -0.080159
   9 C :   -0.362360
  10 S :   -0.106111
  11 P :    0.612336
  12 S :   -0.318229
  13 O :   -0.373864
  14 C :    0.003245
  15 C :   -0.319681
  16 O :   -0.352442
  17 C :   -0.007303
  18 C :   -0.315892
  19 H :    0.112033
  20 H :    0.107456
  21 H :    0.121952
  22 H :    0.105028
  23 H :    0.101978
  24 H :    0.098438
  25 H :    0.116829
  26 H :    0.131936
  27 H :    0.111682
  28 H :    0.107228
  29 H :    0.202800
  30 H :    0.185350
  31 H :    0.109857
  32 H :    0.102384
  33 H :    0.111427
  34 H :    0.118201
  35 H :    0.121050
  36 H :    0.110764
  37 H :    0.125438
  38 H :    0.123565
  39 H :    0.114676
  40 H :    0.126347
Sum of atomic charges:    0.0000000

LOEWDIN ATOMIC CHARGES
----------------------
   0 C :   -0.359107
   1 C :   -0.117408
   2 O :   -0.251067
   3 P :    0.564122
   4 S :   -0.315005
   5 O :   -0.238656
   6 C :   -0.117063
   7 C :   -0.352432
   8 S :    0.081798
   9 C :   -0.482864
  10 S :    0.072044
  11 P :    0.578122
  12 S :   -0.296823
  13 O :   -0.249432
  14 C :   -0.118888
  15 C :   -0.369124
  16 O :   -0.224048
  17 C :   -0.115298
  18 C :   -0.367151
  19 H :    0.124516
  20 H :    0.128715
  21 H :    0.125911
  22 H :    0.116732
  23 H :    0.108056
  24 H :    0.109631
  25 H :    0.111958
  26 H :    0.124899
  27 H :    0.125014
  28 H :    0.129316
  29 H :    0.123759
  30 H :    0.136633
  31 H :    0.109585
  32 H :    0.117734
  33 H :    0.129908
  34 H :    0.124306
  35 H :    0.118923
  36 H :    0.123868
  37 H :    0.110796
  38 H :    0.129539
  39 H :    0.132292
  40 H :    0.116192

  Mayer bond orders larger than 0.100000
B(  0-C ,  1-C ) :   1.1673 B(  0-C , 19-H ) :   0.9485 B(  0-C , 20-H ) :   0.9405
B(  0-C , 21-H ) :   0.9398 B(  1-C ,  2-O ) :   0.9007 B(  1-C , 22-H ) :   0.9340
B(  1-C , 23-H ) :   0.9099 B(  2-O ,  3-P ) :   1.1034 B(  3-P ,  4-S ) :   1.6166
B(  3-P ,  5-O ) :   1.1377 B(  3-P ,  8-S ) :   0.9805 B(  4-S ,  8-S ) :   0.1160
B(  5-O ,  6-C ) :   0.8890 B(  6-C ,  7-C ) :   1.1655 B(  6-C , 24-H ) :   0.9303
B(  6-C , 25-H ) :   0.9095 B(  7-C , 26-H ) :   0.9445 B(  7-C , 27-H ) :   0.9491
B(  7-C , 28-H ) :   0.9410 B(  8-S ,  9-C ) :   0.9957 B(  9-C , 10-S ) :   1.0038
B(  9-C , 29-H ) :   0.8436 B(  9-C , 30-H ) :   0.9075 B( 10-S , 11-P ) :   0.9416
B( 10-S , 12-S ) :   0.1126 B( 11-P , 12-S ) :   1.5953 B( 11-P , 13-O ) :   1.0752
B( 11-P , 16-O ) :   1.1581 B( 12-S , 29-H ) :   0.1117 B( 13-O , 14-C ) :   0.9237
B( 14-C , 15-C ) :   1.1620 B( 14-C , 31-H ) :   0.9144 B( 14-C , 32-H ) :   0.9344
B( 15-C , 33-H ) :   0.9377 B( 15-C , 34-H ) :   0.9431 B( 15-C , 35-H ) :   0.9384
B( 16-O , 17-C ) :   0.8964 B( 17-C , 18-C ) :   1.1668 B( 17-C , 36-H ) :   0.9342
B( 17-C , 37-H ) :   0.9143 B( 18-C , 38-H ) :   0.9419 B( 18-C , 39-H ) :   0.9355
B( 18-C , 40-H ) :   0.9365

Dispersion correction           -0.067118550
FINAL SINGLE POINT ENERGY     -2929.517096381514

DIPOLE MOMENT
-------------

Method             : SCF
Type of density    : Electron Density
Multiplicity       :   1
Irrep              :   0
Energy             : -2929.6345602233122918 Eh
Relativity type    :
Basis              : AO
                                X                 Y                 Z
Electronic contribution:      1.431415967      -4.099827648      -0.006055939
Nuclear contribution   :     -1.688101819       3.540384519      -0.185907416
                        -----------------------------------------
Total Dipole Moment    :     -0.256685852      -0.559443128      -0.191963355
                        -----------------------------------------
Magnitude (a.u.)       :      0.644759002
Magnitude (Debye)      :      1.638847141

Rotational constants in cm-1:             0.011820             0.005447             0.004963
Rotational constants in MHz :           354.364720           163.309095           148.776287

                             ****ORCA TERMINATED NORMALLY****
TOTAL RUN TIME: 0 days 0 hours 0 minutes 20 seconds 900 msec
