                         Program Version 6.0.0  -   RELEASE  -
|  1> ! wb97x-v def2-tzvp def2/J RIJCOSX DEFGRID2 scfconv7 GCP(DFT/TZ) printgap
|  2> %output
|  3>     printlevel normal
|  4> end
|  5> * xyz 0 1
|  6> C -4.001592188090287 -0.6991186384896403 0.0008905652219007525
|  7> C -4.00158926681102 0.6991303772702928 0.0013361007444389833
|  8> C -2.8024954582894592 1.392792960625858 0.0008587840601488347
|  9> C -1.5830345382793034 0.702841501826853 6.0405533570291644e-05
| 10> C -1.5830373203434445 -0.702838284084214 -0.00027265361416600595
| 11> C -2.8025010176195746 -1.3927855011906838 7.668391340300275e-05
| 12> C -0.3187792534823817 -1.4610928133778276 -0.0007308331395298903
| 13> O -0.3647055731748734 -2.7201286939129385 -0.0013086460810880014
| 14> C 0.9236112322145861 -0.7227113954732209 -0.0002446233422253209
| 15> C 2.156995696071369 -1.4236037795551217 0.000281903690917612
| 16> C 3.374182331182734 -0.6778113353312819 0.0010185964333501807
| 17> C 3.374185056835145 0.6777948219232384 0.0008819978437172723
| 18> C 2.157001377190832 1.4235922966845629 5.1205523354108614e-05
| 19> C 0.923614141678151 0.7227054049585334 -0.00028219103955119684
| 20> C -0.3187736290036877 1.4610918756346034 -0.0004990240898222924
| 21> O -0.36469543969622165 2.7201275329432244 -0.0009867227468256811
| 22> N 2.25066729288455 2.766677597055773 -0.0003394516024456134
| 23> N 2.2506543446994556 -2.7666895300279566 0.00030838762704770854
| 24> H -4.941242390351294 -1.2419321100907352 0.0012240102770498626
| 25> H -4.941237106965139 1.2419475059883514 0.0020598557064383815
| 26> H -2.7948540013293024 2.4768351408483626 0.0011584752813107336
| 27> H -2.7948629276737513 -2.4768278191424633 -0.0002266952912482027
| 28> H 4.313080157860067 -1.2241829945829186 0.0016546449601380503
| 29> H 4.31308517837612 1.224162788856038 0.0013884842615457373
| 30> H 3.1595061976678176 3.201344254564684 0.0003329573046451706
| 31> H 1.3944379718999953 3.3062812569786226 -0.0007184502918649512
| 32> H 1.3944207417039307 -3.3062860399416554 -0.0006818951734542005
| 33> H 3.159491055336442 -3.201360731286179 0.00029907910828775425
| 34> *
| 35>
| 36>                          ****END OF INPUT****

CARTESIAN COORDINATES (ANGSTROEM)
---------------------------------
  C     -4.001592   -0.699119    0.000891
  C     -4.001589    0.699130    0.001336
  C     -2.802495    1.392793    0.000859
  C     -1.583035    0.702842    0.000060
  C     -1.583037   -0.702838   -0.000273
  C     -2.802501   -1.392786    0.000077
  C     -0.318779   -1.461093   -0.000731
  O     -0.364706   -2.720129   -0.001309
  C      0.923611   -0.722711   -0.000245
  C      2.156996   -1.423604    0.000282
  C      3.374182   -0.677811    0.001019
  C      3.374185    0.677795    0.000882
  C      2.157001    1.423592    0.000051
  C      0.923614    0.722705   -0.000282
  C     -0.318774    1.461092   -0.000499
  O     -0.364695    2.720128   -0.000987
  N      2.250667    2.766678   -0.000339
  N      2.250654   -2.766690    0.000308
  H     -4.941242   -1.241932    0.001224
  H     -4.941237    1.241948    0.002060
  H     -2.794854    2.476835    0.001158
  H     -2.794863   -2.476828   -0.000227
  H      4.313080   -1.224183    0.001655
  H      4.313085    1.224163    0.001388
  H      3.159506    3.201344    0.000333
  H      1.394438    3.306281   -0.000718
  H      1.394421   -3.306286   -0.000682
  H      3.159491   -3.201361    0.000299

 Total Charge           Charge          ....    0
 Multiplicity           Mult            ....    1
 Number of Electrons    NEL             ....  124
 Basis Dimension        Dim             ....  618

ORBITAL ENERGIES
----------------

  NO   OCC          E(Eh)            E(eV)
   0   2.0000     -21.650249      -589.1332
   1   2.0000     -21.650223      -589.1325
   2   2.0000     -16.538722      -450.0415
   3   2.0000     -16.538685      -450.0405
   4   2.0000     -12.135255      -330.2171
   5   2.0000     -12.135058      -330.2117
   6   2.0000     -12.114523      -329.6529
   7   2.0000     -12.114259      -329.6458
   8   2.0000     -12.077030      -328.6327
   9   2.0000     -12.074751      -328.5707
  10   2.0000     -12.067718      -328.3793
  11   2.0000     -12.065795      -328.3270
  12   2.0000     -12.062332      -328.2327
  13   2.0000     -12.061379      -328.2068
  14   2.0000     -12.060652      -328.1870
  15   2.0000     -12.059521      -328.1562
  16   2.0000     -12.057247      -328.0944
  17   2.0000     -12.057103      -328.0905
  18   2.0000      -1.681747       -45.7627
  19   2.0000      -1.681111       -45.7454
  20   2.0000      -1.515848       -41.2483
  21   2.0000      -1.511396       -41.1272
  22   2.0000      -1.403653       -38.1954
  23   2.0000      -1.378035       -37.4982
  24   2.0000      -1.332086       -36.2479
  25   2.0000      -1.295465       -35.2514
  26   2.0000      -1.289160       -35.0798
  27   2.0000      -1.272497       -34.6264
  28   2.0000      -1.213847       -33.0305
  29   2.0000      -1.174322       -31.9549
  30   2.0000      -1.153187       -31.3798
  31   2.0000      -1.125698       -30.6318
  32   2.0000      -1.100141       -29.9364
  33   2.0000      -1.081921       -29.4406
  34   2.0000      -1.057521       -28.7766
  35   2.0000      -1.046469       -28.4759
  36   2.0000      -1.039753       -28.2931
  37   2.0000      -1.012615       -27.5546
  38   2.0000      -1.009190       -27.4615
  39   2.0000      -0.997410       -27.1409
  40   2.0000      -0.973802       -26.4985
  41   2.0000      -0.973510       -26.4905
  42   2.0000      -0.944717       -25.7071
  43   2.0000      -0.936993       -25.4969
  44   2.0000      -0.923456       -25.1285
  45   2.0000      -0.904456       -24.6115
  46   2.0000      -0.901197       -24.5228
  47   2.0000      -0.896280       -24.3890
  48   2.0000      -0.888858       -24.1871
  49   2.0000      -0.869378       -23.6570
  50   2.0000      -0.852973       -23.2106
  51   2.0000      -0.843005       -22.9393
  52   2.0000      -0.841126       -22.8882
  53   2.0000      -0.822678       -22.3862
  54   2.0000      -0.817873       -22.2555
  55   2.0000      -0.806737       -21.9524
  56   2.0000      -0.783768       -21.3274
  57   2.0000      -0.732536       -19.9333
  58   2.0000      -0.686821       -18.6893
  59   2.0000      -0.654888       -17.8204
  60   2.0000      -0.651189       -17.7198
  61   2.0000      -0.608656       -16.5624
  62   0.0000      -0.404196       -10.9987
  63   0.0000      -0.315847        -8.5946
  64   0.0000      -0.260861        -7.0984
  65   0.0000      -0.239686        -6.5222
  66   0.0000      -0.197412        -5.3718

MULLIKEN ATOMIC CHARGES
-----------------------
   0 C :   -0.082260
   1 C :   -0.082285
   2 C :   -0.203228
   3 C :    0.080722
   4 C :    0.081541
   5 C :   -0.203199
   6 C :    0.243987
   7 O :   -0.454899
   8 C :   -0.064305
   9 C :    0.200691
  10 C :   -0.208283
  11 C :   -0.211057
  12 C :    0.201483
  13 C :   -0.064500
  14 C :    0.244185
  15 O :   -0.454868
  16 N :   -0.384603
  17 N :   -0.384553
  18 H :    0.124378
  19 H :    0.124215
  20 H :    0.149440
  21 H :    0.149464
  22 H :    0.110799
  23 H :    0.110280
  24 H :    0.221388
  25 H :    0.267043
  26 H :    0.267043
  27 H :    0.221380
Sum of atomic charges:    0.0000000

LOEWDIN ATOMIC CHARGES
----------------------
   0 C :   -0.123252
   1 C :   -0.123254
   2 C :   -0.072958
   3 C :   -0.066991
   4 C :   -0.066989
   5 C :   -0.072960
   6 C :   -0.224876
   7 O :    0.043255
   8 C :   -0.077832
   9 C :   -0.183651
  10 C :   -0.099325
  11 C :   -0.099331
  12 C :   -0.183652
  13 C :   -0.077830
  14 C :   -0.224875
  15 O :    0.043256
  16 N :    0.026501
  17 N :    0.026501
  18 H :    0.144068
  19 H :    0.144068
  20 H :    0.155313
  21 H :    0.155312
  22 H :    0.146505
  23 H :    0.146507
  24 H :    0.163661
  25 H :    0.169583
  26 H :    0.169583
  27 H :    0.163662

  Mayer bond orders larger than 0.100000
B(  0-C ,  1-C ) :   1.3665 B(  0-C ,  5-C ) :   1.4337 B(  0-C , 18-H ) :   0.9778
B(  1-C ,  2-C ) :   1.4335 B(  1-C , 19-H ) :   0.9780 B(  2-C ,  3-C ) :   1.3889
B(  2-C , 20-H ) :   0.9521 B(  3-C ,  4-C ) :   1.3564 B(  3-C , 14-C ) :   1.0210
B(  3-C , 15-O ) :  -0.1485 B(  4-C ,  5-C ) :   1.3892 B(  4-C ,  6-C ) :   1.0212
B(  4-C ,  7-O ) :  -0.1489 B(  5-C , 21-H ) :   0.9521 B(  6-C ,  7-O ) :   1.9024
B(  6-C ,  8-C ) :   1.0583 B(  8-C ,  9-C ) :   1.3398 B(  8-C , 13-C ) :   1.1917
B(  9-C , 10-C ) :   1.2033 B(  9-C , 17-N ) :   1.2646 B( 10-C , 11-C ) :   1.6941
B( 10-C , 22-H ) :   0.9628 B( 11-C , 12-C ) :   1.2026 B( 11-C , 23-H ) :   0.9639
B( 12-C , 13-C ) :   1.3397 B( 12-C , 16-N ) :   1.2649 B( 13-C , 14-C ) :   1.0582
B( 14-C , 15-O ) :   1.9023 B( 16-N , 24-H ) :   0.9186 B( 16-N , 25-H ) :   0.8590
B( 17-N , 26-H ) :   0.8590 B( 17-N , 27-H ) :   0.9186

FINAL SINGLE POINT ENERGY      -799.549915370855

DIPOLE MOMENT
-------------

Method             : SCF
Type of density    : Electron Density
Multiplicity       :   1
Irrep              :   0
Energy             :  -799.5652153057552596 Eh
Relativity type    :
Basis              : AO
                                X                 Y                 Z
Electronic contribution:     -0.832426900       0.000005297      -0.004161891
Nuclear contribution   :      2.152436386      -0.000003637       0.005638066
                        -----------------------------------------
Total Dipole Moment    :      1.320009486       0.000001659       0.001476175
                        -----------------------------------------
Magnitude (a.u.)       :      1.320010312
Magnitude (Debye)      :      3.355199570

Rotational constants in cm-1:             0.023873             0.012825             0.008343
Rotational constants in MHz :           715.689004           384.495925           250.121170

                             ****ORCA TERMINATED NORMALLY****
TOTAL RUN TIME: 0 days 0 hours 15 minutes 3 seconds 489 msec
