                         Program Version 6.0.0  -   RELEASE  -
|  1> ! wb97x-v def2-tzvp def2/J RIJCOSX DEFGRID2 scfconv7 GCP(DFT/TZ) printgap
|  2> %output
|  3>     printlevel normal
|  4> end
|  5> %cpcm
|  6>     smd true
|  7>     smdsolvent "water"
|  8> end
|  9> * xyz 0 1
| 10> C -4.001592188090287 -0.6991186384896403 0.0008905652219007525
| 11> C -4.00158926681102 0.6991303772702928 0.0013361007444389833
| 12> C -2.8024954582894592 1.392792960625858 0.0008587840601488347
| 13> C -1.5830345382793034 0.702841501826853 6.0405533570291644e-05
| 14> C -1.5830373203434445 -0.702838284084214 -0.00027265361416600595
| 15> C -2.8025010176195746 -1.3927855011906838 7.668391340300275e-05
| 16> C -0.3187792534823817 -1.4610928133778276 -0.0007308331395298903
| 17> O -0.3647055731748734 -2.7201286939129385 -0.0013086460810880014
| 18> C 0.9236112322145861 -0.7227113954732209 -0.0002446233422253209
| 19> C 2.156995696071369 -1.4236037795551217 0.000281903690917612
| 20> C 3.374182331182734 -0.6778113353312819 0.0010185964333501807
| 21> C 3.374185056835145 0.6777948219232384 0.0008819978437172723
| 22> C 2.157001377190832 1.4235922966845629 5.1205523354108614e-05
| 23> C 0.923614141678151 0.7227054049585334 -0.00028219103955119684
| 24> C -0.3187736290036877 1.4610918756346034 -0.0004990240898222924
| 25> O -0.36469543969622165 2.7201275329432244 -0.0009867227468256811
| 26> N 2.25066729288455 2.766677597055773 -0.0003394516024456134
| 27> N 2.2506543446994556 -2.7666895300279566 0.00030838762704770854
| 28> H -4.941242390351294 -1.2419321100907352 0.0012240102770498626
| 29> H -4.941237106965139 1.2419475059883514 0.0020598557064383815
| 30> H -2.7948540013293024 2.4768351408483626 0.0011584752813107336
| 31> H -2.7948629276737513 -2.4768278191424633 -0.0002266952912482027
| 32> H 4.313080157860067 -1.2241829945829186 0.0016546449601380503
| 33> H 4.31308517837612 1.224162788856038 0.0013884842615457373
| 34> H 3.1595061976678176 3.201344254564684 0.0003329573046451706
| 35> H 1.3944379718999953 3.3062812569786226 -0.0007184502918649512
| 36> H 1.3944207417039307 -3.3062860399416554 -0.0006818951734542005
| 37> H 3.159491055336442 -3.201360731286179 0.00029907910828775425
| 38> *
| 39>
| 40>                          ****END OF INPUT****

CARTESIAN COORDINATES (ANGSTROEM)
---------------------------------
  C     -4.001592   -0.699119    0.000891
  C     -4.001589    0.699130    0.001336
  C     -2.802495    1.392793    0.000859
  C     -1.583035    0.702842    0.000060
  C     -1.583037   -0.702838   -0.000273
  C     -2.802501   -1.392786    0.000077
  C     -0.318779   -1.461093   -0.000731
  O     -0.364706   -2.720129   -0.001309
  C      0.923611   -0.722711   -0.000245
  C      2.156996   -1.423604    0.000282
  C      3.374182   -0.677811    0.001019
  C      3.374185    0.677795    0.000882
  C      2.157001    1.423592    0.000051
  C      0.923614    0.722705   -0.000282
  C     -0.318774    1.461092   -0.000499
  O     -0.364695    2.720128   -0.000987
  N      2.250667    2.766678   -0.000339
  N      2.250654   -2.766690    0.000308
  H     -4.941242   -1.241932    0.001224
  H     -4.941237    1.241948    0.002060
  H     -2.794854    2.476835    0.001158
  H     -2.794863   -2.476828   -0.000227
  H      4.313080   -1.224183    0.001655
  H      4.313085    1.224163    0.001388
  H      3.159506    3.201344    0.000333
  H      1.394438    3.306281   -0.000718
  H      1.394421   -3.306286   -0.000682
  H      3.159491   -3.201361    0.000299

 Total Charge           Charge          ....    0
 Multiplicity           Mult            ....    1
 Number of Electrons    NEL             ....  124
 Basis Dimension        Dim             ....  618

ORBITAL ENERGIES
----------------

  NO   OCC          E(Eh)            E(eV)
   0   2.0000     -21.656423      -589.3012
   1   2.0000     -21.656396      -589.3005
   2   2.0000     -16.537106      -449.9975
   3   2.0000     -16.537069      -449.9965
   4   2.0000     -12.141149      -330.3775
   5   2.0000     -12.140952      -330.3721
   6   2.0000     -12.115900      -329.6904
   7   2.0000     -12.115641      -329.6834
   8   2.0000     -12.071682      -328.4872
   9   2.0000     -12.069744      -328.4344
  10   2.0000     -12.069612      -328.4308
  11   2.0000     -12.067347      -328.3692
  12   2.0000     -12.061944      -328.2222
  13   2.0000     -12.061089      -328.1989
  14   2.0000     -12.059893      -328.1664
  15   2.0000     -12.059585      -328.1580
  16   2.0000     -12.058704      -328.1340
  17   2.0000     -12.057969      -328.1140
  18   2.0000      -1.691712       -46.0338
  19   2.0000      -1.691109       -46.0174
  20   2.0000      -1.513571       -41.1864
  21   2.0000      -1.509012       -41.0623
  22   2.0000      -1.406796       -38.2809
  23   2.0000      -1.376552       -37.4579
  24   2.0000      -1.330777       -36.2123
  25   2.0000      -1.299144       -35.3515
  26   2.0000      -1.289244       -35.0821
  27   2.0000      -1.272403       -34.6239
  28   2.0000      -1.214825       -33.0571
  29   2.0000      -1.174099       -31.9488
  30   2.0000      -1.153569       -31.3902
  31   2.0000      -1.125166       -30.6173
  32   2.0000      -1.105829       -30.0911
  33   2.0000      -1.082898       -29.4671
  34   2.0000      -1.055019       -28.7085
  35   2.0000      -1.046819       -28.4854
  36   2.0000      -1.042121       -28.3576
  37   2.0000      -1.016406       -27.6578
  38   2.0000      -1.013444       -27.5772
  39   2.0000      -0.994418       -27.0595
  40   2.0000      -0.976003       -26.5584
  41   2.0000      -0.973354       -26.4863
  42   2.0000      -0.947195       -25.7745
  43   2.0000      -0.934845       -25.4384
  44   2.0000      -0.921758       -25.0823
  45   2.0000      -0.913422       -24.8555
  46   2.0000      -0.903730       -24.5918
  47   2.0000      -0.899710       -24.4823
  48   2.0000      -0.896766       -24.4022
  49   2.0000      -0.868604       -23.6359
  50   2.0000      -0.848302       -23.0835
  51   2.0000      -0.846967       -23.0471
  52   2.0000      -0.842234       -22.9183
  53   2.0000      -0.820365       -22.3233
  54   2.0000      -0.820084       -22.3156
  55   2.0000      -0.807933       -21.9850
  56   2.0000      -0.788983       -21.4693
  57   2.0000      -0.730141       -19.8681
  58   2.0000      -0.685336       -18.6490
  59   2.0000      -0.660774       -17.9806
  60   2.0000      -0.652129       -17.7453
  61   2.0000      -0.608126       -16.5480
  62   0.0000      -0.404820       -11.0157
  63   0.0000      -0.318171        -8.6579
  64   0.0000      -0.260510        -7.0888
  65   0.0000      -0.240652        -6.5485
  66   0.0000      -0.200399        -5.4531

MULLIKEN ATOMIC CHARGES
-----------------------
   0 C :   -0.130265
   1 C :   -0.130304
   2 C :   -0.235106
   3 C :    0.099691
   4 C :    0.100505
   5 C :   -0.235111
   6 C :    0.279499
   7 O :   -0.551687
   8 C :   -0.097891
   9 C :    0.183771
  10 C :   -0.216837
  11 C :   -0.219648
  12 C :    0.184649
  13 C :   -0.098104
  14 C :    0.279625
  15 O :   -0.551656
  16 N :   -0.390805
  17 N :   -0.390756
  18 H :    0.168023
  19 H :    0.167865
  20 H :    0.160295
  21 H :    0.160313
  22 H :    0.169556
  23 H :    0.169056
  24 H :    0.285132
  25 H :    0.277533
  26 H :    0.277534
  27 H :    0.285124
Sum of atomic charges:    0.0000000

LOEWDIN ATOMIC CHARGES
----------------------
   0 C :   -0.120317
   1 C :   -0.120319
   2 C :   -0.083042
   3 C :   -0.072536
   4 C :   -0.072534
   5 C :   -0.083044
   6 C :   -0.232442
   7 O :   -0.019515
   8 C :   -0.092458
   9 C :   -0.178796
  10 C :   -0.079968
  11 C :   -0.079974
  12 C :   -0.178798
  13 C :   -0.092457
  14 C :   -0.232441
  15 O :   -0.019513
  16 N :    0.045086
  17 N :    0.045086
  18 H :    0.155926
  19 H :    0.155926
  20 H :    0.156603
  21 H :    0.156602
  22 H :    0.165509
  23 H :    0.165511
  24 H :    0.186015
  25 H :    0.169937
  26 H :    0.169936
  27 H :    0.186015

  Mayer bond orders larger than 0.100000
B(  0-C ,  1-C ) :   1.3590 B(  0-C ,  5-C ) :   1.4410 B(  0-C , 18-H ) :   0.9770
B(  1-C ,  2-C ) :   1.4408 B(  1-C , 19-H ) :   0.9773 B(  2-C ,  3-C ) :   1.3203
B(  2-C , 20-H ) :   0.9690 B(  3-C ,  4-C ) :   1.3645 B(  3-C , 14-C ) :   1.0355
B(  3-C , 15-O ) :  -0.1552 B(  4-C ,  5-C ) :   1.3206 B(  4-C ,  6-C ) :   1.0357
B(  4-C ,  7-O ) :  -0.1556 B(  5-C , 21-H ) :   0.9690 B(  6-C ,  7-O ) :   1.8274
B(  6-C ,  8-C ) :   1.0966 B(  8-C ,  9-C ) :   1.2956 B(  8-C , 13-C ) :   1.1632
B(  9-C , 10-C ) :   1.1687 B(  9-C , 17-N ) :   1.3334 B( 10-C , 11-C ) :   1.6595
B( 10-C , 22-H ) :   0.9710 B( 11-C , 12-C ) :   1.1679 B( 11-C , 23-H ) :   0.9722
B( 12-C , 13-C ) :   1.2954 B( 12-C , 16-N ) :   1.3337 B( 13-C , 14-C ) :   1.0966
B( 14-C , 15-O ) :   1.8273 B( 16-N , 24-H ) :   0.8865 B( 16-N , 25-H ) :   0.8589
B( 17-N , 26-H ) :   0.8589 B( 17-N , 27-H ) :   0.8865

FINAL SINGLE POINT ENERGY      -799.569774286085

DIPOLE MOMENT
-------------

Method             : SCF
Type of density    : Electron Density
Multiplicity       :   1
Irrep              :   0
Energy             :  -799.5850742209848931 Eh
Relativity type    :
Basis              : AO
                                X                 Y                 Z
Electronic contribution:      0.261278050       0.000005412      -0.003254212
Nuclear contribution   :      2.152436386      -0.000003637       0.005638066
                        -----------------------------------------
Total Dipole Moment    :      2.413714436       0.000001775       0.002383854
                        -----------------------------------------
Magnitude (a.u.)       :      2.413715613
Magnitude (Debye)      :      6.135177518

Rotational constants in cm-1:             0.023873             0.012825             0.008343
Rotational constants in MHz :           715.689004           384.495925           250.121170

                             ****ORCA TERMINATED NORMALLY****
TOTAL RUN TIME: 0 days 0 hours 15 minutes 27 seconds 93 msec
