                         Program Version 6.0.0  -   RELEASE  -
|  1> ! pbe def2-sv(p) def2/J RI DEFGRID1 loosescf d4 GCP(DFT/SV(P)) printgap
|  2> %output
|  3>     printlevel normal
|  4> end
|  5> * xyz 0 1
|  6> C 4.0344702585 0.468527457 -2.6329110058
|  7> C 2.6344312842 0.0228130723 -2.2679985617
|  8> O 2.1426870336 0.7812816326 -1.1362712607
|  9> P 2.0788077598 0.2091127238 0.3253550836
| 10> S 1.3395279999 1.5498303928 1.5405262013
| 11> O 3.5983797239 -0.2176227277 0.5478779338
| 12> C 4.0775870317 -1.102054011 1.5770567571
| 13> C 3.7439459063 -0.6167122715 2.9723383261
| 14> S 1.0787186688 -1.6773147304 0.2723806028
| 15> C -0.2643569329 -1.3562628356 1.4550890387
| 16> S -1.9279540323 -1.5028443816 0.7541867441
| 17> P -1.9818065009 0.2026061893 -0.5194811146
| 18> S -0.8448162589 0.2293386319 -2.1089497817
| 19> O -1.6879115675 1.4302337876 0.4214354701
| 20> C -2.4027174584 1.7283610713 1.6466703745
| 21> C -3.5195578566 2.718020666 1.3903692759
| 22> O -3.5368275364 0.3327655691 -0.827769852
| 23> C -4.1620778694 -0.3429661074 -1.9332957336
| 24> C -4.1402215217 -1.8485265166 -1.7697694431
| 25> H 4.0394896519 1.533480984 -2.848028042
| 26> H 4.7174598018 0.2732395714 -1.8101610144
| 27> H 4.3608417739 -0.0778192826 -3.5120788804
| 28> H 2.6036357301 -1.0429377748 -2.023842283
| 29> H 1.9187405562 0.2266271382 -3.0678059591
| 30> H 3.6548570977 -2.0950910937 1.39942502
| 31> H 5.1561759233 -1.1244159559 1.4118686927
| 32> H 2.6660673403 -0.617728151 3.1260527535
| 33> H 4.2080083177 -1.2732251667 3.7011959771
| 34> H 4.1072255734 0.3978330743 3.1172547259
| 35> H -0.116745213 -0.3547709142 1.8724052462
| 36> H -0.214745172 -2.1210425966 2.2262297803
| 37> H -2.7917215545 0.7969432853 2.0676209847
| 38> H -1.6364146439 2.1461153385 2.3043932573
| 39> H -4.265558908 2.2819731567 0.7311215008
| 40> H -3.9828819578 2.9787430258 2.3367507465
| 41> H -3.1210780196 3.616274905 0.9264340141
| 42> H -5.1800045561 0.0491275993 -1.9355373506
| 43> H -3.6466095292 -0.0478560968 -2.852592199
| 44> H -4.7255000534 -2.3038180374 -2.5621577373
| 45> H -3.1159474736 -2.2136954929 -1.8348516645
| 46> H -4.5533913866 -2.1319026429 -0.804882146
| 47> *
| 48>
| 49>                          ****END OF INPUT****

CARTESIAN COORDINATES (ANGSTROEM)
---------------------------------
  C      4.034470    0.468527   -2.632911
  C      2.634431    0.022813   -2.267999
  O      2.142687    0.781282   -1.136271
  P      2.078808    0.209113    0.325355
  S      1.339528    1.549830    1.540526
  O      3.598380   -0.217623    0.547878
  C      4.077587   -1.102054    1.577057
  C      3.743946   -0.616712    2.972338
  S      1.078719   -1.677315    0.272381
  C     -0.264357   -1.356263    1.455089
  S     -1.927954   -1.502844    0.754187
  P     -1.981807    0.202606   -0.519481
  S     -0.844816    0.229339   -2.108950
  O     -1.687912    1.430234    0.421435
  C     -2.402717    1.728361    1.646670
  C     -3.519558    2.718021    1.390369
  O     -3.536828    0.332766   -0.827770
  C     -4.162078   -0.342966   -1.933296
  C     -4.140222   -1.848527   -1.769769
  H      4.039490    1.533481   -2.848028
  H      4.717460    0.273240   -1.810161
  H      4.360842   -0.077819   -3.512079
  H      2.603636   -1.042938   -2.023842
  H      1.918741    0.226627   -3.067806
  H      3.654857   -2.095091    1.399425
  H      5.156176   -1.124416    1.411869
  H      2.666067   -0.617728    3.126053
  H      4.208008   -1.273225    3.701196
  H      4.107226    0.397833    3.117255
  H     -0.116745   -0.354771    1.872405
  H     -0.214745   -2.121043    2.226230
  H     -2.791722    0.796943    2.067621
  H     -1.636415    2.146115    2.304393
  H     -4.265559    2.281973    0.731122
  H     -3.982882    2.978743    2.336751
  H     -3.121078    3.616275    0.926434
  H     -5.180005    0.049128   -1.935537
  H     -3.646610   -0.047856   -2.852592
  H     -4.725500   -2.303818   -2.562158
  H     -3.115947   -2.213695   -1.834852
  H     -4.553391   -2.131903   -0.804882

 Total Charge           Charge          ....    0
 Multiplicity           Mult            ....    1
 Number of Electrons    NEL             ....  202
 Basis Dimension        Dim             ....  334

ORBITAL ENERGIES
----------------

  NO   OCC          E(Eh)            E(eV)
   0   2.0000     -88.041502     -2395.7311
   1   2.0000     -88.041296     -2395.7255
   2   2.0000     -87.981997     -2394.1118
   3   2.0000     -87.977036     -2393.9769
   4   2.0000     -76.421998     -2079.5483
   5   2.0000     -76.420874     -2079.5177
   6   2.0000     -18.790299      -511.3100
   7   2.0000     -18.789400      -511.2856
   8   2.0000     -18.784188      -511.1437
   9   2.0000     -18.781959      -511.0831
  10   2.0000      -9.955822      -270.9117
  11   2.0000      -9.954513      -270.8761
  12   2.0000      -9.951477      -270.7934
  13   2.0000      -9.948397      -270.7096
  14   2.0000      -9.948152      -270.7030
  15   2.0000      -9.884364      -268.9672
  16   2.0000      -9.883234      -268.9365
  17   2.0000      -9.880772      -268.8695
  18   2.0000      -9.880557      -268.8636
  19   2.0000      -7.686478      -209.1597
  20   2.0000      -7.685954      -209.1454
  21   2.0000      -7.627245      -207.5479
  22   2.0000      -7.622164      -207.4096
  23   2.0000      -6.419372      -174.6800
  24   2.0000      -6.418353      -174.6523
  25   2.0000      -5.714237      -155.4923
  26   2.0000      -5.713751      -155.4791
  27   2.0000      -5.710843      -155.3999
  28   2.0000      -5.710475      -155.3899
  29   2.0000      -5.703714      -155.2059
  30   2.0000      -5.703077      -155.1886
  31   2.0000      -5.656225      -153.9137
  32   2.0000      -5.651126      -153.7750
  33   2.0000      -5.647997      -153.6898
  34   2.0000      -5.647111      -153.6657
  35   2.0000      -5.642668      -153.5448
  36   2.0000      -5.642366      -153.5366
  37   2.0000      -4.641979      -126.3147
  38   2.0000      -4.641417      -126.2994
  39   2.0000      -4.641317      -126.2967
  40   2.0000      -4.640176      -126.2656
  41   2.0000      -4.639669      -126.2518
  42   2.0000      -4.638331      -126.2154
  43   2.0000      -0.983326       -26.7577
  44   2.0000      -0.983055       -26.7503
  45   2.0000      -0.941301       -25.6141
  46   2.0000      -0.938442       -25.5363
  47   2.0000      -0.759322       -20.6622
  48   2.0000      -0.716847       -19.5064
  49   2.0000      -0.707977       -19.2650
  50   2.0000      -0.687549       -18.7092
  51   2.0000      -0.687358       -18.7040
  52   2.0000      -0.674467       -18.3532
  53   2.0000      -0.647103       -17.6086
  54   2.0000      -0.635933       -17.3046
  55   2.0000      -0.592656       -16.1270
  56   2.0000      -0.586007       -15.9461
  57   2.0000      -0.571842       -15.5606
  58   2.0000      -0.569019       -15.4838
  59   2.0000      -0.562838       -15.3156
  60   2.0000      -0.501250       -13.6397
  61   2.0000      -0.495207       -13.4753
  62   2.0000      -0.471687       -12.8352
  63   2.0000      -0.469745       -12.7824
  64   2.0000      -0.449724       -12.2376
  65   2.0000      -0.447407       -12.1746
  66   2.0000      -0.438703       -11.9377
  67   2.0000      -0.432913       -11.7802
  68   2.0000      -0.424863       -11.5611
  69   2.0000      -0.423017       -11.5109
  70   2.0000      -0.408159       -11.1066
  71   2.0000      -0.404995       -11.0205
  72   2.0000      -0.387561       -10.5461
  73   2.0000      -0.381468       -10.3803
  74   2.0000      -0.377970       -10.2851
  75   2.0000      -0.363222        -9.8838
  76   2.0000      -0.357354        -9.7241
  77   2.0000      -0.356805        -9.7092
  78   2.0000      -0.351460        -9.5637
  79   2.0000      -0.350258        -9.5310
  80   2.0000      -0.347120        -9.4456
  81   2.0000      -0.343792        -9.3551
  82   2.0000      -0.341419        -9.2905
  83   2.0000      -0.336396        -9.1538
  84   2.0000      -0.330471        -8.9926
  85   2.0000      -0.315171        -8.5762
  86   2.0000      -0.312677        -8.5084
  87   2.0000      -0.294685        -8.0188
  88   2.0000      -0.291725        -7.9382
  89   2.0000      -0.287432        -7.8214
  90   2.0000      -0.281595        -7.6626
  91   2.0000      -0.272168        -7.4061
  92   2.0000      -0.264963        -7.2100
  93   2.0000      -0.260396        -7.0857
  94   2.0000      -0.256332        -6.9751
  95   2.0000      -0.239984        -6.5303
  96   2.0000      -0.220124        -5.9899
  97   2.0000      -0.201240        -5.4760
  98   2.0000      -0.194918        -5.3040
  99   2.0000      -0.193984        -5.2786
 100   2.0000      -0.187556        -5.1037
 101   0.0000      -0.039187        -1.0663
 102   0.0000      -0.028920        -0.7870
 103   0.0000      -0.012137        -0.3303
 104   0.0000       0.000216         0.0059
 105   0.0000       0.020681         0.5628

MULLIKEN ATOMIC CHARGES
-----------------------
   0 C :   -0.280264
   1 C :   -0.016184
   2 O :   -0.335740
   3 P :    0.601265
   4 S :   -0.297848
   5 O :   -0.380558
   6 C :   -0.003468
   7 C :   -0.306751
   8 S :   -0.106448
   9 C :   -0.348595
  10 S :   -0.109929
  11 P :    0.603688
  12 S :   -0.310708
  13 O :   -0.341475
  14 C :   -0.022243
  15 C :   -0.282791
  16 O :   -0.381609
  17 C :    0.001667
  18 C :   -0.328996
  19 H :    0.121457
  20 H :    0.116449
  21 H :    0.107184
  22 H :    0.099204
  23 H :    0.120137
  24 H :    0.105265
  25 H :    0.105312
  26 H :    0.117653
  27 H :    0.108905
  28 H :    0.126056
  29 H :    0.195956
  30 H :    0.179475
  31 H :    0.097350
  32 H :    0.113485
  33 H :    0.118905
  34 H :    0.106620
  35 H :    0.122302
  36 H :    0.104091
  37 H :    0.112909
  38 H :    0.115530
  39 H :    0.133365
  40 H :    0.119378
Sum of atomic charges:    0.0000000

LOEWDIN ATOMIC CHARGES
----------------------
   0 C :   -0.357359
   1 C :   -0.113763
   2 O :   -0.220421
   3 P :    0.569273
   4 S :   -0.285821
   5 O :   -0.248362
   6 C :   -0.119541
   7 C :   -0.368029
   8 S :    0.069301
   9 C :   -0.485860
  10 S :    0.072457
  11 P :    0.564062
  12 S :   -0.304975
  13 O :   -0.224459
  14 C :   -0.118675
  15 C :   -0.358395
  16 O :   -0.248228
  17 C :   -0.118612
  18 C :   -0.373975
  19 H :    0.129828
  20 H :    0.124951
  21 H :    0.128280
  22 H :    0.103237
  23 H :    0.118674
  24 H :    0.103564
  25 H :    0.119015
  26 H :    0.117793
  27 H :    0.128637
  28 H :    0.130533
  29 H :    0.119156
  30 H :    0.135910
  31 H :    0.101065
  32 H :    0.117763
  33 H :    0.124892
  34 H :    0.128471
  35 H :    0.129929
  36 H :    0.118014
  37 H :    0.112579
  38 H :    0.132566
  39 H :    0.123313
  40 H :    0.123209

  Mayer bond orders larger than 0.100000
B(  0-C ,  1-C ) :   1.1642 B(  0-C , 19-H ) :   0.9471 B(  0-C , 20-H ) :   0.9431
B(  0-C , 21-H ) :   0.9405 B(  1-C ,  2-O ) :   0.8902 B(  1-C , 22-H ) :   0.9181
B(  1-C , 23-H ) :   0.9260 B(  2-O ,  3-P ) :   1.1616 B(  3-P ,  4-S ) :   1.6296
B(  3-P ,  5-O ) :   1.0690 B(  3-P ,  8-S ) :   0.9432 B(  4-S ,  8-S ) :   0.1182
B(  4-S , 29-H ) :   0.1279 B(  5-O ,  6-C ) :   0.9192 B(  6-C ,  7-C ) :   1.1658
B(  6-C , 24-H ) :   0.9191 B(  6-C , 25-H ) :   0.9329 B(  7-C , 26-H ) :   0.9353
B(  7-C , 27-H ) :   0.9358 B(  7-C , 28-H ) :   0.9441 B(  8-S ,  9-C ) :   1.0052
B(  9-C , 10-S ) :   0.9948 B(  9-C , 29-H ) :   0.8417 B(  9-C , 30-H ) :   0.9109
B( 10-S , 11-P ) :   0.9462 B( 10-S , 12-S ) :   0.1102 B( 11-P , 12-S ) :   1.6647
B( 11-P , 13-O ) :   1.1479 B( 11-P , 16-O ) :   1.0743 B( 13-O , 14-C ) :   0.8950
B( 14-C , 15-C ) :   1.1676 B( 14-C , 31-H ) :   0.9081 B( 14-C , 32-H ) :   0.9256
B( 15-C , 33-H ) :   0.9420 B( 15-C , 34-H ) :   0.9397 B( 15-C , 35-H ) :   0.9472
B( 16-O , 17-C ) :   0.9076 B( 17-C , 18-C ) :   1.1652 B( 17-C , 36-H ) :   0.9332
B( 17-C , 37-H ) :   0.9160 B( 18-C , 38-H ) :   0.9373 B( 18-C , 39-H ) :   0.9321
B( 18-C , 40-H ) :   0.9423

Dispersion correction           -0.066929365
FINAL SINGLE POINT ENERGY     -2929.512800981079

DIPOLE MOMENT
-------------

Method             : SCF
Type of density    : Electron Density
Multiplicity       :   1
Irrep              :   0
Energy             : -2929.6315314320695506 Eh
Relativity type    :
Basis              : AO
                                X                 Y                 Z
Electronic contribution:     -0.168838487       0.282723386      -1.531868337
Nuclear contribution   :      0.008077594      -1.328550262       1.992545564
                        -----------------------------------------
Total Dipole Moment    :     -0.160760893      -1.045826876       0.460677228
                        -----------------------------------------
Magnitude (a.u.)       :      1.154045678
Magnitude (Debye)      :      2.933350997

Rotational constants in cm-1:             0.012239             0.005290             0.004852
Rotational constants in MHz :           366.911331           158.597876           145.465098

                             ****ORCA TERMINATED NORMALLY****
TOTAL RUN TIME: 0 days 0 hours 0 minutes 21 seconds 56 msec
