                         Program Version 6.0.0  -   RELEASE  -
|  1> ! pbe def2-sv(p) def2/J RI DEFGRID1 loosescf d4 GCP(DFT/SV(P)) printgap
|  2> %output
|  3>     printlevel normal
|  4> end
|  5> * xyz 0 1
|  6> C 4.3643107094 -1.3810940635 -2.1215178116
|  7> C 4.9117198466 -0.8885109248 -0.7971909608
|  8> O 3.908699605 -0.8598214381 0.231947008
|  9> P 2.6755237014 0.1406566419 0.1973354363
| 10> S 3.0865864465 1.9405694719 -0.4565527339
| 11> O 2.2064017907 0.1884332093 1.6993572536
| 12> C 1.5076609981 -0.8443596518 2.4373344766
| 13> C 2.1941518393 -2.190489004 2.3668018406
| 14> S 1.1602334714 -0.9053149169 -0.8820367604
| 15> C 0.0949081689 0.525748587 -1.1597944273
| 16> S -0.9101720189 0.9483811977 0.2871869262
| 17> P -2.8493254908 0.3719767686 -0.4275028741
| 18> S -2.946336205 -0.1488004232 -2.3115229537
| 19> O -3.7611687173 1.6194278851 -0.1232681195
| 20> C -3.6770610528 2.5001942339 1.0222600434
| 21> C -3.701399863 1.7543233545 2.3381802532
| 22> O -3.4164399388 -0.7193798864 0.5820202632
| 23> C -3.235684744 -2.1317083436 0.3878703494
| 24> C -1.8477859696 -2.5864956045 0.791758783
| 25> H 3.8495771594 -2.3295864875 -1.9909618155
| 26> H 3.6643759081 -0.6538721029 -2.5305398446
| 27> H 5.1832230058 -1.5089344216 -2.8221516934
| 28> H 5.3276706559 0.1183870157 -0.9043857133
| 29> H 5.6715202059 -1.5631482748 -0.4002021495
| 30> H 1.4899640091 -0.4497463131 3.4542046832
| 31> H 0.4882553566 -0.9011708361 2.0476616292
| 32> H 1.672204733 -2.8882938176 3.0143308564
| 33> H 2.1756186486 -2.570890477 1.3474135422
| 34> H 3.2279080162 -2.1031702651 2.6904195927
| 35> H -0.5705996243 0.2855282486 -1.992955373
| 36> H 0.7253428816 1.3866250849 -1.3885841099
| 37> H -2.7643261216 3.0946361346 0.9280521933
| 38> H -4.5500463556 3.1439490615 0.9045605073
| 39> H -4.5769613034 1.1129642261 2.3918743636
| 40> H -2.8065673533 1.1422413574 2.4359580581
| 41> H -3.7284485418 2.4721453387 3.1522260119
| 42> H -4.0034728398 -2.5830126785 1.0181539052
| 43> H -3.432744761 -2.3691275975 -0.6627168101
| 44> H -1.6300150121 -2.2679841425 1.8079227599
| 45> H -1.7975973806 -3.6690976005 0.738491972
| 46> H -1.1019112958 -2.1728344528 0.1144583797
| 47> *
| 48>
| 49>                          ****END OF INPUT****

CARTESIAN COORDINATES (ANGSTROEM)
---------------------------------
  C      4.364311   -1.381094   -2.121518
  C      4.911720   -0.888511   -0.797191
  O      3.908700   -0.859821    0.231947
  P      2.675524    0.140657    0.197335
  S      3.086586    1.940569   -0.456553
  O      2.206402    0.188433    1.699357
  C      1.507661   -0.844360    2.437334
  C      2.194152   -2.190489    2.366802
  S      1.160233   -0.905315   -0.882037
  C      0.094908    0.525749   -1.159794
  S     -0.910172    0.948381    0.287187
  P     -2.849325    0.371977   -0.427503
  S     -2.946336   -0.148800   -2.311523
  O     -3.761169    1.619428   -0.123268
  C     -3.677061    2.500194    1.022260
  C     -3.701400    1.754323    2.338180
  O     -3.416440   -0.719380    0.582020
  C     -3.235685   -2.131708    0.387870
  C     -1.847786   -2.586496    0.791759
  H      3.849577   -2.329586   -1.990962
  H      3.664376   -0.653872   -2.530540
  H      5.183223   -1.508934   -2.822152
  H      5.327671    0.118387   -0.904386
  H      5.671520   -1.563148   -0.400202
  H      1.489964   -0.449746    3.454205
  H      0.488255   -0.901171    2.047662
  H      1.672205   -2.888294    3.014331
  H      2.175619   -2.570890    1.347414
  H      3.227908   -2.103170    2.690420
  H     -0.570600    0.285528   -1.992955
  H      0.725343    1.386625   -1.388584
  H     -2.764326    3.094636    0.928052
  H     -4.550046    3.143949    0.904561
  H     -4.576961    1.112964    2.391874
  H     -2.806567    1.142241    2.435958
  H     -3.728449    2.472145    3.152226
  H     -4.003473   -2.583013    1.018154
  H     -3.432745   -2.369128   -0.662717
  H     -1.630015   -2.267984    1.807923
  H     -1.797597   -3.669098    0.738492
  H     -1.101911   -2.172834    0.114458

 Total Charge           Charge          ....    0
 Multiplicity           Mult            ....    1
 Number of Electrons    NEL             ....  202
 Basis Dimension        Dim             ....  334

ORBITAL ENERGIES
----------------

  NO   OCC          E(Eh)            E(eV)
   0   2.0000     -88.048671     -2395.9262
   1   2.0000     -88.047130     -2395.8842
   2   2.0000     -87.991015     -2394.3572
   3   2.0000     -87.985924     -2394.2187
   4   2.0000     -76.430404     -2079.7770
   5   2.0000     -76.428972     -2079.7380
   6   2.0000     -18.796849      -511.4883
   7   2.0000     -18.795023      -511.4386
   8   2.0000     -18.794514      -511.4247
   9   2.0000     -18.793267      -511.3908
  10   2.0000      -9.961178      -271.0574
  11   2.0000      -9.957773      -270.9648
  12   2.0000      -9.955426      -270.9009
  13   2.0000      -9.955371      -270.8994
  14   2.0000      -9.951271      -270.7879
  15   2.0000      -9.893573      -269.2178
  16   2.0000      -9.890745      -269.1409
  17   2.0000      -9.888780      -269.0874
  18   2.0000      -9.886018      -269.0122
  19   2.0000      -7.692786      -209.3314
  20   2.0000      -7.691466      -209.2954
  21   2.0000      -7.636124      -207.7895
  22   2.0000      -7.631140      -207.6539
  23   2.0000      -6.427955      -174.9135
  24   2.0000      -6.426421      -174.8718
  25   2.0000      -5.720413      -155.6604
  26   2.0000      -5.719223      -155.6280
  27   2.0000      -5.717374      -155.5777
  28   2.0000      -5.715966      -155.5393
  29   2.0000      -5.710070      -155.3789
  30   2.0000      -5.708696      -155.3415
  31   2.0000      -5.665040      -154.1536
  32   2.0000      -5.660128      -154.0199
  33   2.0000      -5.656849      -153.9307
  34   2.0000      -5.656133      -153.9112
  35   2.0000      -5.651759      -153.7922
  36   2.0000      -5.651199      -153.7769
  37   2.0000      -4.650573      -126.5485
  38   2.0000      -4.649622      -126.5226
  39   2.0000      -4.649211      -126.5115
  40   2.0000      -4.648469      -126.4913
  41   2.0000      -4.648227      -126.4847
  42   2.0000      -4.646647      -126.4417
  43   2.0000      -0.990251       -26.9461
  44   2.0000      -0.990009       -26.9395
  45   2.0000      -0.948982       -25.8231
  46   2.0000      -0.948897       -25.8208
  47   2.0000      -0.764842       -20.8124
  48   2.0000      -0.724971       -19.7275
  49   2.0000      -0.715715       -19.4756
  50   2.0000      -0.695480       -18.9250
  51   2.0000      -0.693164       -18.8619
  52   2.0000      -0.682372       -18.5683
  53   2.0000      -0.653550       -17.7840
  54   2.0000      -0.639637       -17.4054
  55   2.0000      -0.605347       -16.4723
  56   2.0000      -0.599637       -16.3169
  57   2.0000      -0.580729       -15.8024
  58   2.0000      -0.578793       -15.7497
  59   2.0000      -0.561749       -15.2860
  60   2.0000      -0.501182       -13.6379
  61   2.0000      -0.493273       -13.4226
  62   2.0000      -0.477488       -12.9931
  63   2.0000      -0.475404       -12.9364
  64   2.0000      -0.461563       -12.5598
  65   2.0000      -0.450031       -12.2460
  66   2.0000      -0.445993       -12.1361
  67   2.0000      -0.442948       -12.0532
  68   2.0000      -0.437024       -11.8920
  69   2.0000      -0.429933       -11.6991
  70   2.0000      -0.409814       -11.1516
  71   2.0000      -0.403630       -10.9833
  72   2.0000      -0.401631       -10.9289
  73   2.0000      -0.391915       -10.6645
  74   2.0000      -0.379862       -10.3366
  75   2.0000      -0.376002       -10.2315
  76   2.0000      -0.368926       -10.0390
  77   2.0000      -0.364325        -9.9138
  78   2.0000      -0.358512        -9.7556
  79   2.0000      -0.358024        -9.7423
  80   2.0000      -0.354703        -9.6519
  81   2.0000      -0.351411        -9.5624
  82   2.0000      -0.348659        -9.4875
  83   2.0000      -0.342866        -9.3299
  84   2.0000      -0.338565        -9.2128
  85   2.0000      -0.321487        -8.7481
  86   2.0000      -0.311483        -8.4759
  87   2.0000      -0.299164        -8.1407
  88   2.0000      -0.296627        -8.0716
  89   2.0000      -0.296363        -8.0644
  90   2.0000      -0.294432        -8.0119
  91   2.0000      -0.279487        -7.6052
  92   2.0000      -0.273093        -7.4313
  93   2.0000      -0.266641        -7.2557
  94   2.0000      -0.263547        -7.1715
  95   2.0000      -0.235821        -6.4170
  96   2.0000      -0.222810        -6.0630
  97   2.0000      -0.213871        -5.8197
  98   2.0000      -0.207048        -5.6341
  99   2.0000      -0.204199        -5.5565
 100   2.0000      -0.200950        -5.4681
 101   0.0000      -0.046695        -1.2706
 102   0.0000      -0.035814        -0.9746
 103   0.0000      -0.017970        -0.4890
 104   0.0000       0.001187         0.0323
 105   0.0000       0.013389         0.3643

MULLIKEN ATOMIC CHARGES
-----------------------
   0 C :   -0.317977
   1 C :   -0.002555
   2 O :   -0.374770
   3 P :    0.598811
   4 S :   -0.310900
   5 O :   -0.356509
   6 C :   -0.023651
   7 C :   -0.307801
   8 S :   -0.108866
   9 C :   -0.348087
  10 S :   -0.117507
  11 P :    0.601170
  12 S :   -0.304259
  13 O :   -0.358136
  14 C :   -0.006666
  15 C :   -0.316843
  16 O :   -0.373143
  17 C :   -0.002304
  18 C :   -0.332317
  19 H :    0.115667
  20 H :    0.130518
  21 H :    0.115358
  22 H :    0.115561
  23 H :    0.105529
  24 H :    0.109473
  25 H :    0.131637
  26 H :    0.112836
  27 H :    0.119367
  28 H :    0.123499
  29 H :    0.195140
  30 H :    0.197247
  31 H :    0.119966
  32 H :    0.115086
  33 H :    0.126279
  34 H :    0.123618
  35 H :    0.118169
  36 H :    0.104538
  37 H :    0.114134
  38 H :    0.121651
  39 H :    0.111716
  40 H :    0.135322
Sum of atomic charges:    0.0000000

LOEWDIN ATOMIC CHARGES
----------------------
   0 C :   -0.370576
   1 C :   -0.117275
   2 O :   -0.241432
   3 P :    0.572004
   4 S :   -0.309672
   5 O :   -0.234260
   6 C :   -0.117183
   7 C :   -0.366412
   8 S :    0.087839
   9 C :   -0.491152
  10 S :    0.074306
  11 P :    0.571046
  12 S :   -0.295412
  13 O :   -0.234468
  14 C :   -0.113545
  15 C :   -0.367104
  16 O :   -0.243966
  17 C :   -0.119022
  18 C :   -0.370248
  19 H :    0.122979
  20 H :    0.122776
  21 H :    0.132346
  22 H :    0.113799
  23 H :    0.118973
  24 H :    0.123094
  25 H :    0.105981
  26 H :    0.131031
  27 H :    0.117511
  28 H :    0.129210
  29 H :    0.125900
  30 H :    0.127941
  31 H :    0.113371
  32 H :    0.125069
  33 H :    0.130562
  34 H :    0.117127
  35 H :    0.133713
  36 H :    0.118385
  37 H :    0.110737
  38 H :    0.122135
  39 H :    0.131391
  40 H :    0.112500

  Mayer bond orders larger than 0.100000
B(  0-C ,  1-C ) :   1.1652 B(  0-C , 19-H ) :   0.9449 B(  0-C , 20-H ) :   0.9345
B(  0-C , 21-H ) :   0.9375 B(  1-C ,  2-O ) :   0.9044 B(  1-C , 22-H ) :   0.9164
B(  1-C , 23-H ) :   0.9338 B(  2-O ,  3-P ) :   1.0967 B(  3-P ,  4-S ) :   1.6263
B(  3-P ,  5-O ) :   1.1507 B(  3-P ,  8-S ) :   0.9357 B(  4-S ,  8-S ) :   0.1070
B(  5-O ,  6-C ) :   0.8958 B(  6-C ,  7-C ) :   1.1726 B(  6-C , 24-H ) :   0.9331
B(  6-C , 25-H ) :   0.9041 B(  7-C , 26-H ) :   0.9356 B(  7-C , 27-H ) :   0.9374
B(  7-C , 28-H ) :   0.9425 B(  8-S ,  9-C ) :   1.0086 B(  9-C , 10-S ) :   1.0077
B(  9-C , 29-H ) :   0.8454 B(  9-C , 30-H ) :   0.8605 B( 10-S , 11-P ) :   0.9387
B( 10-S , 12-S ) :   0.1127 B( 11-P , 12-S ) :   1.6261 B( 11-P , 13-O ) :   1.1526
B( 11-P , 16-O ) :   1.0840 B( 12-S , 29-H ) :   0.1232 B( 13-O , 14-C ) :   0.9006
B( 14-C , 15-C ) :   1.1691 B( 14-C , 31-H ) :   0.9215 B( 14-C , 32-H ) :   0.9333
B( 15-C , 33-H ) :   0.9422 B( 15-C , 34-H ) :   0.9372 B( 15-C , 35-H ) :   0.9345
B( 16-O , 17-C ) :   0.9136 B( 17-C , 18-C ) :   1.1614 B( 17-C , 36-H ) :   0.9333
B( 17-C , 37-H ) :   0.9104 B( 18-C , 38-H ) :   0.9371 B( 18-C , 39-H ) :   0.9362
B( 18-C , 40-H ) :   0.9271

Dispersion correction           -0.064676295
FINAL SINGLE POINT ENERGY     -2929.516295875629

DIPOLE MOMENT
-------------

Method             : SCF
Type of density    : Electron Density
Multiplicity       :   1
Irrep              :   0
Energy             : -2929.6377686253604224 Eh
Relativity type    :
Basis              : AO
                                X                 Y                 Z
Electronic contribution:     -2.494940605      13.611374105     -11.420535701
Nuclear contribution   :      2.485856014     -14.837772371      12.866025178
                        -----------------------------------------
Total Dipole Moment    :     -0.009084591      -1.226398266       1.445489477
                        -----------------------------------------
Magnitude (a.u.)       :      1.895672720
Magnitude (Debye)      :      4.818417129

Rotational constants in cm-1:             0.012810             0.004338             0.004319
Rotational constants in MHz :           384.026579           130.040198           129.476662

                             ****ORCA TERMINATED NORMALLY****
TOTAL RUN TIME: 0 days 0 hours 0 minutes 21 seconds 400 msec
