                         Program Version 6.0.0  -   RELEASE  -
|  1> ! wb97x-v def2-tzvp def2/J RIJCOSX DEFGRID2 scfconv7 GCP(DFT/TZ) printgap
|  2> %output
|  3>     printlevel normal
|  4> end
|  5> * xyz 0 1
|  6> C 0.7391072845845351 -0.6339842666503244 -0.00670428273955867
|  7> C -0.6161013269715586 0.03979516326472475 0.40978695881731964
|  8> F -1.1260482623433612 -0.7218088287040829 1.4040271107644589
|  9> Cl -1.7569450104321922 0.04739932638527673 -0.9568007615279751
| 10> Cl -0.33163841375839925 1.6850414499694504 1.0272930864945609
| 11> F 1.5340056722218618 -0.6817227872716095 1.0756815966529873
| 12> F 0.48102770063367356 -1.8968262566159262 -0.38629889163777714
| 13> Cl 1.5654121196640016 0.23445500576521897 -1.3226986303744102
| 14> *
| 15>
| 16>                          ****END OF INPUT****

CARTESIAN COORDINATES (ANGSTROEM)
---------------------------------
  C      0.739107   -0.633984   -0.006704
  C     -0.616101    0.039795    0.409787
  F     -1.126048   -0.721809    1.404027
  Cl    -1.756945    0.047399   -0.956801
  Cl    -0.331638    1.685041    1.027293
  F      1.534006   -0.681723    1.075682
  F      0.481028   -1.896826   -0.386299
  Cl     1.565412    0.234455   -1.322699

 Total Charge           Charge          ....    0
 Multiplicity           Mult            ....    1
 Number of Electrons    NEL             ....   90
 Basis Dimension        Dim             ....  266

ORBITAL ENERGIES
----------------

  NO   OCC          E(Eh)            E(eV)
   0   2.0000    -107.183925     -2916.6229
   1   2.0000    -107.183912     -2916.6225
   2   2.0000    -107.181939     -2916.5688
   3   2.0000     -27.627821      -751.7912
   4   2.0000     -27.627707      -751.7881
   5   2.0000     -27.627004      -751.7690
   6   2.0000     -12.320257      -335.2512
   7   2.0000     -12.297665      -334.6365
   8   2.0000     -11.337578      -308.5112
   9   2.0000     -11.337392      -308.5061
  10   2.0000     -11.335733      -308.4610
  11   2.0000      -9.129792      -248.4343
  12   2.0000      -9.128457      -248.3979
  13   2.0000      -9.127204      -248.3638
  14   2.0000      -9.126335      -248.3402
  15   2.0000      -9.126222      -248.3371
  16   2.0000      -9.125806      -248.3258
  17   2.0000      -9.125366      -248.3138
  18   2.0000      -9.124158      -248.2809
  19   2.0000      -9.124095      -248.2792
  20   2.0000      -2.075910       -56.4884
  21   2.0000      -2.053139       -55.8687
  22   2.0000      -2.040814       -55.5334
  23   2.0000      -1.502706       -40.8907
  24   2.0000      -1.460579       -39.7444
  25   2.0000      -1.428727       -38.8776
  26   2.0000      -1.371846       -37.3298
  27   2.0000      -1.318602       -35.8810
  28   2.0000      -1.276900       -34.7462
  29   2.0000      -1.231603       -33.5136
  30   2.0000      -1.207111       -32.8472
  31   2.0000      -1.194823       -32.5128
  32   2.0000      -1.190423       -32.3931
  33   2.0000      -1.185789       -32.2670
  34   2.0000      -1.176500       -32.0142
  35   2.0000      -1.137002       -30.9394
  36   2.0000      -1.020800       -27.7774
  37   2.0000      -0.962947       -26.2031
  38   2.0000      -0.960277       -26.1305
  39   2.0000      -0.850854       -23.1529
  40   2.0000      -0.842420       -22.9234
  41   2.0000      -0.835338       -22.7307
  42   2.0000      -0.832011       -22.6402
  43   2.0000      -0.829372       -22.5683
  44   2.0000      -0.821484       -22.3537
  45   0.0000      -0.375384       -10.2147
  46   0.0000      -0.355245        -9.6667
  47   0.0000      -0.338662        -9.2155
  48   0.0000      -0.319264        -8.6876
  49   0.0000      -0.218725        -5.9518

MULLIKEN ATOMIC CHARGES
-----------------------
   0 C :    0.287683
   1 C :    0.187936
   2 F :   -0.122619
   3 Cl:   -0.029866
   4 Cl:   -0.029893
   5 F :   -0.126939
   6 F :   -0.126928
   7 Cl:   -0.039374
Sum of atomic charges:    0.0000000

LOEWDIN ATOMIC CHARGES
----------------------
   0 C :   -0.841221
   1 C :   -0.931122
   2 F :    0.191903
   3 Cl:    0.389217
   4 Cl:    0.389321
   5 F :    0.206625
   6 F :    0.206805
   7 Cl:    0.388472

  Mayer bond orders larger than 0.100000
B(  0-C ,  1-C ) :   0.9620 B(  0-C ,  5-F ) :   1.1586 B(  0-C ,  6-F ) :   1.1588
B(  0-C ,  7-Cl) :   1.1748 B(  1-C ,  2-F ) :   1.1319 B(  1-C ,  3-Cl) :   1.1621
B(  1-C ,  4-Cl) :   1.1621

FINAL SINGLE POINT ENERGY     -1756.195354821607

DIPOLE MOMENT
-------------

Method             : SCF
Type of density    : Electron Density
Multiplicity       :   1
Irrep              :   0
Energy             : -1756.2087868472065111 Eh
Relativity type    :
Basis              : AO
                                X                 Y                 Z
Electronic contribution:      0.097242188      -0.152342019       0.056250164
Nuclear contribution   :     -0.128067802       0.414109638      -0.250991772
                        -----------------------------------------
Total Dipole Moment    :     -0.030825614       0.261767619      -0.194741607
                        -----------------------------------------
Magnitude (a.u.)       :      0.327714507
Magnitude (Debye)      :      0.832984079

Rotational constants in cm-1:             0.046374             0.035331             0.033054
Rotational constants in MHz :          1390.251524          1059.198069           990.925443

                             ****ORCA TERMINATED NORMALLY****
TOTAL RUN TIME: 0 days 0 hours 1 minutes 23 seconds 364 msec
