                         Program Version 6.0.0  -   RELEASE  -
|  1> ! wb97x-v def2-tzvp def2/J RIJCOSX DEFGRID2 scfconv7 GCP(DFT/TZ) printgap
|  2> %output
|  3>     printlevel normal
|  4> end
|  5> %cpcm
|  6>     smd true
|  7>     smdsolvent "water"
|  8> end
|  9> * xyz 0 1
| 10> C 0.7391072845845351 -0.6339842666503244 -0.00670428273955867
| 11> C -0.6161013269715586 0.03979516326472475 0.40978695881731964
| 12> F -1.1260482623433612 -0.7218088287040829 1.4040271107644589
| 13> Cl -1.7569450104321922 0.04739932638527673 -0.9568007615279751
| 14> Cl -0.33163841375839925 1.6850414499694504 1.0272930864945609
| 15> F 1.5340056722218618 -0.6817227872716095 1.0756815966529873
| 16> F 0.48102770063367356 -1.8968262566159262 -0.38629889163777714
| 17> Cl 1.5654121196640016 0.23445500576521897 -1.3226986303744102
| 18> *
| 19>
| 20>                          ****END OF INPUT****

CARTESIAN COORDINATES (ANGSTROEM)
---------------------------------
  C      0.739107   -0.633984   -0.006704
  C     -0.616101    0.039795    0.409787
  F     -1.126048   -0.721809    1.404027
  Cl    -1.756945    0.047399   -0.956801
  Cl    -0.331638    1.685041    1.027293
  F      1.534006   -0.681723    1.075682
  F      0.481028   -1.896826   -0.386299
  Cl     1.565412    0.234455   -1.322699

 Total Charge           Charge          ....    0
 Multiplicity           Mult            ....    1
 Number of Electrons    NEL             ....   90
 Basis Dimension        Dim             ....  266

ORBITAL ENERGIES
----------------

  NO   OCC          E(Eh)            E(eV)
   0   2.0000    -107.183241     -2916.6043
   1   2.0000    -107.183232     -2916.6040
   2   2.0000    -107.181475     -2916.5562
   3   2.0000     -27.628411      -751.8073
   4   2.0000     -27.628294      -751.8041
   5   2.0000     -27.627359      -751.7786
   6   2.0000     -12.320114      -335.2474
   7   2.0000     -12.296947      -334.6169
   8   2.0000     -11.336845      -308.4912
   9   2.0000     -11.336661      -308.4862
  10   2.0000     -11.335209      -308.4467
  11   2.0000      -9.129059      -248.4143
  12   2.0000      -9.127725      -248.3780
  13   2.0000      -9.126682      -248.3496
  14   2.0000      -9.125597      -248.3201
  15   2.0000      -9.125486      -248.3171
  16   2.0000      -9.125081      -248.3061
  17   2.0000      -9.124624      -248.2937
  18   2.0000      -9.123614      -248.2662
  19   2.0000      -9.123540      -248.2641
  20   2.0000      -2.076528       -56.5052
  21   2.0000      -2.053644       -55.8825
  22   2.0000      -2.041514       -55.5524
  23   2.0000      -1.502210       -40.8772
  24   2.0000      -1.460097       -39.7313
  25   2.0000      -1.427897       -38.8551
  26   2.0000      -1.372059       -37.3356
  27   2.0000      -1.318997       -35.8917
  28   2.0000      -1.277786       -34.7703
  29   2.0000      -1.232097       -33.5271
  30   2.0000      -1.207737       -32.8642
  31   2.0000      -1.195404       -32.5286
  32   2.0000      -1.191029       -32.4095
  33   2.0000      -1.186551       -32.2877
  34   2.0000      -1.177279       -32.0354
  35   2.0000      -1.136964       -30.9384
  36   2.0000      -1.020192       -27.7608
  37   2.0000      -0.962074       -26.1794
  38   2.0000      -0.959801       -26.1175
  39   2.0000      -0.850148       -23.1337
  40   2.0000      -0.841782       -22.9060
  41   2.0000      -0.834558       -22.7095
  42   2.0000      -0.831329       -22.6216
  43   2.0000      -0.828632       -22.5482
  44   2.0000      -0.820682       -22.3319
  45   0.0000      -0.374373       -10.1872
  46   0.0000      -0.354407        -9.6439
  47   0.0000      -0.337992        -9.1972
  48   0.0000      -0.319088        -8.6828
  49   0.0000      -0.218356        -5.9418

MULLIKEN ATOMIC CHARGES
-----------------------
   0 C :    0.290430
   1 C :    0.186508
   2 F :   -0.126858
   3 Cl:   -0.026525
   4 Cl:   -0.026591
   5 F :   -0.130844
   6 F :   -0.130843
   7 Cl:   -0.035278
Sum of atomic charges:    0.0000000

LOEWDIN ATOMIC CHARGES
----------------------
   0 C :   -0.840633
   1 C :   -0.931974
   2 F :    0.189102
   3 Cl:    0.391517
   4 Cl:    0.391625
   5 F :    0.204405
   6 F :    0.204581
   7 Cl:    0.391378

  Mayer bond orders larger than 0.100000
B(  0-C ,  1-C ) :   0.9615 B(  0-C ,  5-F ) :   1.1537 B(  0-C ,  6-F ) :   1.1538
B(  0-C ,  7-Cl) :   1.1786 B(  1-C ,  2-F ) :   1.1266 B(  1-C ,  3-Cl) :   1.1645
B(  1-C ,  4-Cl) :   1.1644

FINAL SINGLE POINT ENERGY     -1756.190720243585

DIPOLE MOMENT
-------------

Method             : SCF
Type of density    : Electron Density
Multiplicity       :   1
Irrep              :   0
Energy             : -1756.2041522691852151 Eh
Relativity type    :
Basis              : AO
                                X                 Y                 Z
Electronic contribution:      0.095778679      -0.111747007       0.023963183
Nuclear contribution   :     -0.128067802       0.414109638      -0.250991772
                        -----------------------------------------
Total Dipole Moment    :     -0.032289123       0.302362631      -0.227028589
                        -----------------------------------------
Magnitude (a.u.)       :      0.379483502
Magnitude (Debye)      :      0.964570406

Rotational constants in cm-1:             0.046374             0.035331             0.033054
Rotational constants in MHz :          1390.251524          1059.198069           990.925443

                             ****ORCA TERMINATED NORMALLY****
TOTAL RUN TIME: 0 days 0 hours 1 minutes 27 seconds 713 msec
