                         Program Version 6.0.1  -  RELEASE   -
|  1> ! pbe def2-sv(p) def2/J RI DEFGRID1 loosescf d4 GCP(DFT/SV(P)) printgap
|  2> %output
|  3>     printlevel normal
|  4> end
|  5> * xyz 0 1
|  6> C 3.5099748556 -1.2207819951 1.9401682796
|  7> C 2.8637312469 -2.1028231109 0.8844213701
|  8> O 2.66088884 -1.373846794 -0.3444745041
|  9> C 1.6209327833 -0.5944486823 -0.4551054827
| 10> O 0.7900783014 -0.4087121438 0.4246936152
| 11> C 1.5168008936 0.0915935195 -1.792890005
| 12> C 0.3052845748 1.0097266123 -1.755604126
| 13> H 0.2459746629 1.6218465398 -2.6592872227
| 14> C 0.3137300655 1.9268265384 -0.5409415428
| 15> O -0.6834800072 2.288493998 0.0395365164
| 16> O 1.5381378004 2.3120504459 -0.2467778839
| 17> C 1.7300636503 3.2231423484 0.8551143965
| 18> C 2.9221746503 4.1078333346 0.5440099432
| 19> S -1.2764203286 0.0912905709 -1.7936350077
| 20> P -1.6468047882 -0.9597501818 0.0185735902
| 21> S -0.8961313787 -2.7282201365 0.4110903459
| 22> O -1.8299112668 0.0445671651 1.2488627437
| 23> C -1.040170669 0.09626587 2.4300457852
| 24> O -3.1843543169 -1.2586564566 -0.3148149733
| 25> C -4.1782089824 -0.2416261889 -0.5311796258
| 26> H 4.4432153143 -0.8100410298 1.5650525282
| 27> H 2.841416205 -0.405461992 2.207923188
| 28> H 3.7086435373 -1.8143506861 2.8261383161
| 29> H 1.8985471112 -2.4897248958 1.2240586244
| 30> H 3.5156639719 -2.9273310465 0.5979376992
| 31> H 1.4108578418 -0.658704724 -2.5777948155
| 32> H 2.4306958085 0.6585821641 -1.975106607
| 33> H 0.8121429998 3.8028520337 0.9905461713
| 34> H 1.9037609603 2.6206618344 1.7523107684
| 35> H 2.7350711019 4.6880788292 -0.3547120448
| 36> H 3.0886604668 4.7836603861 1.3762018087
| 37> H 3.809036495 3.5000805566 0.3936766065
| 38> H -1.7313718716 0.3134180236 3.2417685229
| 39> H -0.3024493807 0.8911687621 2.3313010341
| 40> H -0.5409545601 -0.8596260349 2.594828115
| 41> H -3.933031225 0.658875338 0.0296074304
| 42> H -5.1144250917 -0.6679208923 -0.1782897605
| 43> H -4.2350420621 -0.0199585661 -1.5959653146
| 44> *
| 45>
| 46>                          ****END OF INPUT****

CARTESIAN COORDINATES (ANGSTROEM)
---------------------------------
  C      3.509975   -1.220782    1.940168
  C      2.863731   -2.102823    0.884421
  O      2.660889   -1.373847   -0.344475
  C      1.620933   -0.594449   -0.455105
  O      0.790078   -0.408712    0.424694
  C      1.516801    0.091594   -1.792890
  C      0.305285    1.009727   -1.755604
  H      0.245975    1.621847   -2.659287
  C      0.313730    1.926827   -0.540942
  O     -0.683480    2.288494    0.039537
  O      1.538138    2.312050   -0.246778
  C      1.730064    3.223142    0.855114
  C      2.922175    4.107833    0.544010
  S     -1.276420    0.091291   -1.793635
  P     -1.646805   -0.959750    0.018574
  S     -0.896131   -2.728220    0.411090
  O     -1.829911    0.044567    1.248863
  C     -1.040171    0.096266    2.430046
  O     -3.184354   -1.258656   -0.314815
  C     -4.178209   -0.241626   -0.531180
  H      4.443215   -0.810041    1.565053
  H      2.841416   -0.405462    2.207923
  H      3.708644   -1.814351    2.826138
  H      1.898547   -2.489725    1.224059
  H      3.515664   -2.927331    0.597938
  H      1.410858   -0.658705   -2.577795
  H      2.430696    0.658582   -1.975107
  H      0.812143    3.802852    0.990546
  H      1.903761    2.620662    1.752311
  H      2.735071    4.688079   -0.354712
  H      3.088660    4.783660    1.376202
  H      3.809036    3.500081    0.393677
  H     -1.731372    0.313418    3.241769
  H     -0.302449    0.891169    2.331301
  H     -0.540955   -0.859626    2.594828
  H     -3.933031    0.658875    0.029607
  H     -5.114425   -0.667921   -0.178290
  H     -4.235042   -0.019959   -1.595965

 Total Charge           Charge          ....    0
 Multiplicity           Mult            ....    1
 Number of Electrons    NEL             ....  174
 Basis Dimension        Dim             ....  316

ORBITAL ENERGIES
----------------

  NO   OCC          E(Eh)            E(eV)
   0   2.0000     -88.029528     -2395.4052
   1   2.0000     -87.958250     -2393.4657
   2   2.0000     -76.412490     -2079.2895
   3   2.0000     -18.817432      -512.0484
   4   2.0000     -18.812878      -511.9244
   5   2.0000     -18.773847      -510.8624
   6   2.0000     -18.766090      -510.6513
   7   2.0000     -18.760526      -510.4999
   8   2.0000     -18.740512      -509.9553
   9   2.0000     -10.027073      -272.8505
  10   2.0000     -10.019562      -272.6461
  11   2.0000      -9.957841      -270.9666
  12   2.0000      -9.951965      -270.8067
  13   2.0000      -9.951422      -270.7920
  14   2.0000      -9.927538      -270.1420
  15   2.0000      -9.927430      -270.1391
  16   2.0000      -9.920063      -269.9386
  17   2.0000      -9.898963      -269.3645
  18   2.0000      -9.893948      -269.2280
  19   2.0000      -7.674108      -208.8231
  20   2.0000      -7.603799      -206.9099
  21   2.0000      -6.407955      -174.3693
  22   2.0000      -5.702745      -155.1796
  23   2.0000      -5.698211      -155.0562
  24   2.0000      -5.690766      -154.8536
  25   2.0000      -5.633218      -153.2877
  26   2.0000      -5.624188      -153.0419
  27   2.0000      -5.623569      -153.0251
  28   2.0000      -4.631121      -126.0192
  29   2.0000      -4.629853      -125.9847
  30   2.0000      -4.628219      -125.9402
  31   2.0000      -1.028248       -27.9800
  32   2.0000      -1.019288       -27.7362
  33   2.0000      -0.963350       -26.2141
  34   2.0000      -0.935448       -25.4548
  35   2.0000      -0.922154       -25.0931
  36   2.0000      -0.918525       -24.9943
  37   2.0000      -0.766476       -20.8569
  38   2.0000      -0.718905       -19.5624
  39   2.0000      -0.712756       -19.3951
  40   2.0000      -0.686213       -18.6728
  41   2.0000      -0.655687       -17.8421
  42   2.0000      -0.623503       -16.9664
  43   2.0000      -0.621783       -16.9196
  44   2.0000      -0.602122       -16.3846
  45   2.0000      -0.597003       -16.2453
  46   2.0000      -0.568198       -15.4615
  47   2.0000      -0.521193       -14.1824
  48   2.0000      -0.506843       -13.7919
  49   2.0000      -0.494638       -13.4598
  50   2.0000      -0.490694       -13.3525
  51   2.0000      -0.467458       -12.7202
  52   2.0000      -0.459772       -12.5110
  53   2.0000      -0.450504       -12.2588
  54   2.0000      -0.442982       -12.0541
  55   2.0000      -0.438134       -11.9222
  56   2.0000      -0.423919       -11.5354
  57   2.0000      -0.418238       -11.3808
  58   2.0000      -0.410037       -11.1577
  59   2.0000      -0.406020       -11.0484
  60   2.0000      -0.395322       -10.7573
  61   2.0000      -0.393050       -10.6954
  62   2.0000      -0.390242       -10.6190
  63   2.0000      -0.384448       -10.4614
  64   2.0000      -0.379951       -10.3390
  65   2.0000      -0.373954       -10.1758
  66   2.0000      -0.366596        -9.9756
  67   2.0000      -0.358964        -9.7679
  68   2.0000      -0.354592        -9.6489
  69   2.0000      -0.343591        -9.3496
  70   2.0000      -0.332860        -9.0576
  71   2.0000      -0.330336        -8.9889
  72   2.0000      -0.327897        -8.9225
  73   2.0000      -0.308543        -8.3959
  74   2.0000      -0.302659        -8.2358
  75   2.0000      -0.297289        -8.0896
  76   2.0000      -0.285652        -7.7730
  77   2.0000      -0.276877        -7.5342
  78   2.0000      -0.275022        -7.4837
  79   2.0000      -0.267471        -7.2783
  80   2.0000      -0.253291        -6.8924
  81   2.0000      -0.244151        -6.6437
  82   2.0000      -0.241717        -6.5774
  83   2.0000      -0.225863        -6.1460
  84   2.0000      -0.213388        -5.8066
  85   2.0000      -0.177644        -4.8339
  86   2.0000      -0.171116        -4.6563
  87   0.0000      -0.050701        -1.3797
  88   0.0000      -0.031116        -0.8467
  89   0.0000      -0.020192        -0.5494
  90   0.0000      -0.001530        -0.0416
  91   0.0000       0.017812         0.4847

MULLIKEN ATOMIC CHARGES
-----------------------
   0 C :   -0.317296
   1 C :   -0.022553
   2 O :   -0.210893
   3 C :    0.146610
   4 O :   -0.233403
   5 C :   -0.049823
   6 C :   -0.307454
   7 H :    0.146528
   8 C :    0.191012
   9 O :   -0.173182
  10 O :   -0.246005
  11 C :   -0.042356
  12 C :   -0.276231
  13 S :   -0.101099
  14 P :    0.655077
  15 S :   -0.346962
  16 O :   -0.378903
  17 C :   -0.087353
  18 O :   -0.380286
  19 C :   -0.113458
  20 H :    0.111843
  21 H :    0.125839
  22 H :    0.118900
  23 H :    0.138327
  24 H :    0.107085
  25 H :    0.136403
  26 H :    0.124995
  27 H :    0.119804
  28 H :    0.116163
  29 H :    0.115619
  30 H :    0.115148
  31 H :    0.114368
  32 H :    0.112214
  33 H :    0.110945
  34 H :    0.112373
  35 H :    0.128438
  36 H :    0.120608
  37 H :    0.118957
Sum of atomic charges:    0.0000000

LOEWDIN ATOMIC CHARGES
----------------------
   0 C :   -0.357696
   1 C :   -0.110284
   2 O :   -0.032998
   3 C :    0.049350
   4 O :   -0.164334
   5 C :   -0.254221
   6 C :   -0.264628
   7 H :    0.152194
   8 C :    0.007558
   9 O :   -0.150349
  10 O :   -0.063501
  11 C :   -0.108651
  12 C :   -0.350178
  13 S :    0.109514
  14 P :    0.582339
  15 S :   -0.339128
  16 O :   -0.238806
  17 C :   -0.210461
  18 O :   -0.259628
  19 C :   -0.217569
  20 H :    0.123525
  21 H :    0.126392
  22 H :    0.134017
  23 H :    0.123730
  24 H :    0.121318
  25 H :    0.150463
  26 H :    0.147813
  27 H :    0.122246
  28 H :    0.116631
  29 H :    0.127286
  30 H :    0.132406
  31 H :    0.125747
  32 H :    0.114895
  33 H :    0.104622
  34 H :    0.106054
  35 H :    0.115083
  36 H :    0.119552
  37 H :    0.109697

  Mayer bond orders larger than 0.100000
B(  0-C ,  1-C ) :   1.1666 B(  0-C , 20-H ) :   0.9473 B(  0-C , 21-H ) :   0.9443
B(  0-C , 22-H ) :   0.9435 B(  1-C ,  2-O ) :   0.8973 B(  1-C , 23-H ) :   0.9041
B(  1-C , 24-H ) :   0.9379 B(  2-O ,  3-C ) :   1.2994 B(  3-C ,  4-O ) :   1.8327
B(  3-C ,  5-C ) :   1.0141 B(  4-O , 14-P ) :   0.1039 B(  5-C ,  6-C ) :   1.0315
B(  5-C , 25-H ) :   0.8806 B(  5-C , 26-H ) :   0.8712 B(  6-C ,  7-H ) :   0.8640
B(  6-C ,  8-C ) :   0.8780 B(  6-C , 13-S ) :   1.0484 B(  8-C ,  9-O ) :   2.0930
B(  8-C , 10-O ) :   1.2185 B( 10-O , 11-C ) :   0.9055 B( 11-C , 12-C ) :   1.1597
B( 11-C , 27-H ) :   0.9155 B( 11-C , 28-H ) :   0.9281 B( 12-C , 29-H ) :   0.9512
B( 12-C , 30-H ) :   0.9435 B( 12-C , 31-H ) :   0.9488 B( 13-S , 14-P ) :   0.9486
B( 13-S , 15-S ) :   0.1040 B( 14-P , 15-S ) :   1.5861 B( 14-P , 16-O ) :   1.0850
B( 14-P , 18-O ) :   1.0857 B( 16-O , 17-C ) :   0.9371 B( 17-C , 32-H ) :   0.9537
B( 17-C , 33-H ) :   0.9457 B( 17-C , 34-H ) :   0.9330 B( 18-O , 19-C ) :   0.9245
B( 19-C , 35-H ) :   0.9410 B( 19-C , 36-H ) :   0.9585 B( 19-C , 37-H ) :   0.9525

Dispersion correction           -0.054675190
FINAL SINGLE POINT ENERGY     -1978.999624456560

DIPOLE MOMENT
-------------

Method             : SCF
Type of density    : Electron Density
Multiplicity       :   1
Irrep              :   0
Energy             : -1979.1310115043356745 Eh
Relativity type    :
Basis              : AO
                                X                 Y                 Z
Electronic contribution:    -15.669192543     -11.441344075     -10.859039509
Nuclear contribution   :     17.459993359      13.047006597      11.096602347
                        -----------------------------------------
Total Dipole Moment    :      1.790800816       1.605662522       0.237562838
                        -----------------------------------------
Magnitude (a.u.)       :      2.416931070
Magnitude (Debye)      :      6.143350561

Rotational constants in cm-1:             0.012766             0.008677             0.006800
Rotational constants in MHz :           382.717562           260.116002           203.849643

                             ****ORCA TERMINATED NORMALLY****
TOTAL RUN TIME: 0 days 0 hours 0 minutes 38 seconds 407 msec
