                         Program Version 6.0.1  -  RELEASE   -
|  1> ! pbe def2-sv(p) def2/J RI DEFGRID1 loosescf d4 GCP(DFT/SV(P)) printgap
|  2> %output
|  3>     printlevel normal
|  4> end
|  5> * xyz 0 1
|  6> C 1.3129621721 -3.6305449651 -2.1745615225
|  7> C 2.5624693913 -2.7649718271 -2.2006294701
|  8> O 2.3548099869 -1.5704333599 -1.4240030982
|  9> C 2.7474355543 -1.5580823542 -0.1655719961
| 10> O 3.345769461 -2.4566381042 0.3805778168
| 11> C 2.3869204317 -0.254886347 0.5272187398
| 12> C 0.9873927238 0.2162499718 0.1476541644
| 13> H 0.9174607272 0.3554724707 -0.9361195559
| 14> C 0.6232399846 1.527065559 0.8187670064
| 15> O -0.3869831388 1.6719476172 1.4774400171
| 16> O 1.5071683532 2.4581672906 0.5916457872
| 17> C 1.2431954637 3.7762415033 1.1216265053
| 18> C 2.3693024881 4.689013233 0.6816162232
| 19> S -0.2599213008 -1.0288580736 0.63115306
| 20> P -1.997861873 0.0442841234 0.0413501949
| 21> S -1.7642102613 1.4022390764 -1.3477183851
| 22> O -2.9427141453 -1.1690258914 -0.428835076
| 23> C -2.6529948318 -1.9267982837 -1.6061456586
| 24> O -2.8344965135 0.5316864926 1.28718867
| 25> C -3.0769047141 -0.3009123782 2.4368086252
| 26> H 1.4762351426 -4.517522302 -2.777391419
| 27> H 1.0896536229 -3.9298053021 -1.1527890228
| 28> H 0.4677020328 -3.0766148574 -2.574384571
| 29> H 2.780104771 -2.4111247451 -3.2088079894
| 30> H 3.4210546356 -3.3034196617 -1.7902438665
| 31> H 3.1047579378 0.5092067662 0.2213277251
| 32> H 2.4701240571 -0.4150574878 1.6026796423
| 33> H 0.2726299782 4.1063217628 0.7382636756
| 34> H 1.1772905844 3.7000105626 2.2109547661
| 35> H 3.3162931215 4.3321764463 1.074575337
| 36> H 2.4235153413 4.7153581717 -0.4024509355
| 37> H 2.1816132069 5.6903432209 1.0541992541
| 38> H -1.819726684 -2.6026503037 -1.4132329784
| 39> H -2.4107199452 -1.2564644214 -2.4327165589
| 40> H -3.5579151354 -2.487502929 -1.8257357202
| 41> H -2.1334496851 -0.5178528633 2.9374925411
| 42> H -3.5667907901 -1.2246902657 2.1337703575
| 43> H -3.7231805152 0.2901491898 3.0803174612
| 44> *
| 45>
| 46>                          ****END OF INPUT****

CARTESIAN COORDINATES (ANGSTROEM)
---------------------------------
  C      1.312962   -3.630545   -2.174562
  C      2.562469   -2.764972   -2.200629
  O      2.354810   -1.570433   -1.424003
  C      2.747436   -1.558082   -0.165572
  O      3.345769   -2.456638    0.380578
  C      2.386920   -0.254886    0.527219
  C      0.987393    0.216250    0.147654
  H      0.917461    0.355472   -0.936120
  C      0.623240    1.527066    0.818767
  O     -0.386983    1.671948    1.477440
  O      1.507168    2.458167    0.591646
  C      1.243195    3.776242    1.121627
  C      2.369302    4.689013    0.681616
  S     -0.259921   -1.028858    0.631153
  P     -1.997862    0.044284    0.041350
  S     -1.764210    1.402239   -1.347718
  O     -2.942714   -1.169026   -0.428835
  C     -2.652995   -1.926798   -1.606146
  O     -2.834497    0.531686    1.287189
  C     -3.076905   -0.300912    2.436809
  H      1.476235   -4.517522   -2.777391
  H      1.089654   -3.929805   -1.152789
  H      0.467702   -3.076615   -2.574385
  H      2.780105   -2.411125   -3.208808
  H      3.421055   -3.303420   -1.790244
  H      3.104758    0.509207    0.221328
  H      2.470124   -0.415057    1.602680
  H      0.272630    4.106322    0.738264
  H      1.177291    3.700011    2.210955
  H      3.316293    4.332176    1.074575
  H      2.423515    4.715358   -0.402451
  H      2.181613    5.690343    1.054199
  H     -1.819727   -2.602650   -1.413233
  H     -2.410720   -1.256464   -2.432717
  H     -3.557915   -2.487503   -1.825736
  H     -2.133450   -0.517853    2.937493
  H     -3.566791   -1.224690    2.133770
  H     -3.723181    0.290149    3.080317

 Total Charge           Charge          ....    0
 Multiplicity           Mult            ....    1
 Number of Electrons    NEL             ....  174
 Basis Dimension        Dim             ....  316

ORBITAL ENERGIES
----------------

  NO   OCC          E(Eh)            E(eV)
   0   2.0000     -88.038792     -2395.6573
   1   2.0000     -87.976111     -2393.9517
   2   2.0000     -76.421515     -2079.5351
   3   2.0000     -18.817328      -512.0455
   4   2.0000     -18.807877      -511.7884
   5   2.0000     -18.784541      -511.1534
   6   2.0000     -18.783969      -511.1378
   7   2.0000     -18.744951      -510.0760
   8   2.0000     -18.741192      -509.9738
   9   2.0000     -10.019517      -272.6449
  10   2.0000     -10.015535      -272.5366
  11   2.0000      -9.955389      -270.8999
  12   2.0000      -9.951370      -270.7905
  13   2.0000      -9.946953      -270.6704
  14   2.0000      -9.943085      -270.5651
  15   2.0000      -9.939564      -270.4693
  16   2.0000      -9.918901      -269.9070
  17   2.0000      -9.894456      -269.2418
  18   2.0000      -9.890601      -269.1369
  19   2.0000      -7.683467      -209.0778
  20   2.0000      -7.621478      -207.3910
  21   2.0000      -6.417849      -174.6386
  22   2.0000      -5.711180      -155.4091
  23   2.0000      -5.708158      -155.3269
  24   2.0000      -5.700518      -155.1190
  25   2.0000      -5.650640      -153.7617
  26   2.0000      -5.641999      -153.5266
  27   2.0000      -5.641411      -153.5106
  28   2.0000      -4.640540      -126.2755
  29   2.0000      -4.639914      -126.2585
  30   2.0000      -4.638187      -126.2115
  31   2.0000      -1.025697       -27.9106
  32   2.0000      -1.015622       -27.6365
  33   2.0000      -0.979142       -26.6438
  34   2.0000      -0.934559       -25.4306
  35   2.0000      -0.925643       -25.1880
  36   2.0000      -0.919529       -25.0216
  37   2.0000      -0.768650       -20.9160
  38   2.0000      -0.716971       -19.5098
  39   2.0000      -0.712296       -19.3826
  40   2.0000      -0.691506       -18.8168
  41   2.0000      -0.658920       -17.9301
  42   2.0000      -0.630103       -17.1460
  43   2.0000      -0.624472       -16.9927
  44   2.0000      -0.614546       -16.7226
  45   2.0000      -0.595214       -16.1966
  46   2.0000      -0.565273       -15.3819
  47   2.0000      -0.518981       -14.1222
  48   2.0000      -0.507475       -13.8091
  49   2.0000      -0.504060       -13.7162
  50   2.0000      -0.476177       -12.9574
  51   2.0000      -0.468685       -12.7536
  52   2.0000      -0.467897       -12.7321
  53   2.0000      -0.451144       -12.2762
  54   2.0000      -0.448794       -12.2123
  55   2.0000      -0.432252       -11.7622
  56   2.0000      -0.425945       -11.5906
  57   2.0000      -0.421141       -11.4598
  58   2.0000      -0.413786       -11.2597
  59   2.0000      -0.409288       -11.1373
  60   2.0000      -0.402621       -10.9559
  61   2.0000      -0.396034       -10.7766
  62   2.0000      -0.391111       -10.6427
  63   2.0000      -0.384903       -10.4737
  64   2.0000      -0.379465       -10.3258
  65   2.0000      -0.367658       -10.0045
  66   2.0000      -0.363233        -9.8841
  67   2.0000      -0.359941        -9.7945
  68   2.0000      -0.352637        -9.5957
  69   2.0000      -0.343481        -9.3466
  70   2.0000      -0.333438        -9.0733
  71   2.0000      -0.333338        -9.0706
  72   2.0000      -0.324314        -8.8250
  73   2.0000      -0.316194        -8.6041
  74   2.0000      -0.311774        -8.4838
  75   2.0000      -0.298895        -8.1334
  76   2.0000      -0.294400        -8.0110
  77   2.0000      -0.290066        -7.8931
  78   2.0000      -0.272959        -7.4276
  79   2.0000      -0.264879        -7.2077
  80   2.0000      -0.263388        -7.1672
  81   2.0000      -0.255031        -6.9397
  82   2.0000      -0.238867        -6.4999
  83   2.0000      -0.224197        -6.1007
  84   2.0000      -0.217870        -5.9285
  85   2.0000      -0.197263        -5.3678
  86   2.0000      -0.192566        -5.2400
  87   0.0000      -0.044394        -1.2080
  88   0.0000      -0.035578        -0.9681
  89   0.0000      -0.013786        -0.3751
  90   0.0000       0.005195         0.1414
  91   0.0000       0.025600         0.6966

MULLIKEN ATOMIC CHARGES
-----------------------
   0 C :   -0.308737
   1 C :   -0.018518
   2 O :   -0.234210
   3 C :    0.127546
   4 O :   -0.188441
   5 C :   -0.106996
   6 C :   -0.293318
   7 H :    0.158132
   8 C :    0.206622
   9 O :   -0.187337
  10 O :   -0.227281
  11 C :   -0.028383
  12 C :   -0.274406
  13 S :   -0.109540
  14 P :    0.623676
  15 S :   -0.331331
  16 O :   -0.391238
  17 C :   -0.111814
  18 O :   -0.349598
  19 C :   -0.102797
  20 H :    0.112904
  21 H :    0.126924
  22 H :    0.124473
  23 H :    0.105739
  24 H :    0.113851
  25 H :    0.137452
  26 H :    0.111260
  27 H :    0.122647
  28 H :    0.108964
  29 H :    0.115163
  30 H :    0.121324
  31 H :    0.115546
  32 H :    0.121929
  33 H :    0.114572
  34 H :    0.122218
  35 H :    0.123374
  36 H :    0.118919
  37 H :    0.130708
Sum of atomic charges:   -0.0000000

LOEWDIN ATOMIC CHARGES
----------------------
   0 C :   -0.355521
   1 C :   -0.110586
   2 O :   -0.057728
   3 C :    0.023924
   4 O :   -0.158860
   5 C :   -0.245037
   6 C :   -0.270741
   7 H :    0.143820
   8 C :    0.009142
   9 O :   -0.159188
  10 O :   -0.045167
  11 C :   -0.102336
  12 C :   -0.350630
  13 S :    0.091240
  14 P :    0.588516
  15 S :   -0.323556
  16 O :   -0.265537
  17 C :   -0.221005
  18 O :   -0.228163
  19 C :   -0.207681
  20 H :    0.130606
  21 H :    0.130173
  22 H :    0.124610
  23 H :    0.119082
  24 H :    0.121447
  25 H :    0.153938
  26 H :    0.140954
  27 H :    0.125759
  28 H :    0.118971
  29 H :    0.126476
  30 H :    0.129821
  31 H :    0.133402
  32 H :    0.106640
  33 H :    0.109117
  34 H :    0.121291
  35 H :    0.113513
  36 H :    0.112731
  37 H :    0.126563

  Mayer bond orders larger than 0.100000
B(  0-C ,  1-C ) :   1.1772 B(  0-C , 20-H ) :   0.9416 B(  0-C , 21-H ) :   0.9456
B(  0-C , 22-H ) :   0.9410 B(  1-C ,  2-O ) :   0.9128 B(  1-C , 23-H ) :   0.9358
B(  1-C , 24-H ) :   0.9093 B(  2-O ,  3-C ) :   1.2145 B(  3-C ,  4-O ) :   2.0796
B(  3-C ,  5-C ) :   1.0140 B(  5-C ,  6-C ) :   1.0810 B(  5-C , 25-H ) :   0.8722
B(  5-C , 26-H ) :   0.9072 B(  6-C ,  7-H ) :   0.8347 B(  6-C ,  8-C ) :   0.9054
B(  6-C , 13-S ) :   1.0222 B(  8-C ,  9-O ) :   2.0166 B(  8-C , 10-O ) :   1.2610
B( 10-O , 11-C ) :   0.8913 B( 11-C , 12-C ) :   1.1536 B( 11-C , 27-H ) :   0.9289
B( 11-C , 28-H ) :   0.9320 B( 12-C , 29-H ) :   0.9497 B( 12-C , 30-H ) :   0.9492
B( 12-C , 31-H ) :   0.9426 B( 13-S , 14-P ) :   0.9393 B( 13-S , 15-S ) :   0.1115
B( 14-P , 15-S ) :   1.6174 B( 14-P , 16-O ) :   1.0588 B( 14-P , 18-O ) :   1.1421
B( 16-O , 17-C ) :   0.9386 B( 17-C , 32-H ) :   0.9413 B( 17-C , 33-H ) :   0.9335
B( 17-C , 34-H ) :   0.9565 B( 18-O , 19-C ) :   0.9205 B( 19-C , 35-H ) :   0.9419
B( 19-C , 36-H ) :   0.9457 B( 19-C , 37-H ) :   0.9600

Dispersion correction           -0.050616327
FINAL SINGLE POINT ENERGY     -1979.017773089505

DIPOLE MOMENT
-------------

Method             : SCF
Type of density    : Electron Density
Multiplicity       :   1
Irrep              :   0
Energy             : -1979.1477711559359705 Eh
Relativity type    :
Basis              : AO
                                X                 Y                 Z
Electronic contribution:     -8.747331040       1.823824961       3.184679853
Nuclear contribution   :      9.258184707      -1.975599344      -3.234647121
                        -----------------------------------------
Total Dipole Moment    :      0.510853668      -0.151774383      -0.049967268
                        -----------------------------------------
Magnitude (a.u.)       :      0.535260367
Magnitude (Debye)      :      1.360523731

Rotational constants in cm-1:             0.009685             0.008612             0.005613
Rotational constants in MHz :           290.351907           258.172111           168.272334

                             ****ORCA TERMINATED NORMALLY****
TOTAL RUN TIME: 0 days 0 hours 0 minutes 32 seconds 876 msec
