                         Program Version 6.0.0  -   RELEASE  -
|  1> ! r2scan-3c def2/J RI DEFGRID2 scfconv6 printgap
|  2> %output
|  3>     printlevel normal
|  4> end
|  5> * xyz 0 1
|  6> C 2.5912033622 -2.9656283061 -1.4157055793
|  7> C 3.4240953225 -1.7798503372 -1.8557450437
|  8> O 3.5863425649 -0.7940775115 -0.8103406542
|  9> P 2.4263159073 0.0162313295 -0.0900070971
| 10> S 3.1765828505 1.5972332567 0.7774060085
| 11> O 1.6796874037 -1.0101206152 0.8824957792
| 12> C 1.9658470735 -1.1185414486 2.2913087431
| 13> C 0.9495034991 -0.3529995072 3.1148437066
| 14> S 0.9759721417 0.2831548718 -1.6025347402
| 15> C 0.2527750207 1.8147019818 -0.9619635638
| 16> S -0.5917720188 1.6086341043 0.6271426263
| 17> P -2.0316403168 0.2100773356 -0.0331103605
| 18> S -2.7447007387 0.4449505375 -1.8482824985
| 19> O -3.1186616011 0.1969724702 1.1261438463
| 20> C -4.2662631217 1.0628196508 1.121600232
| 21> C -3.8882055383 2.5141065764 1.3376527084
| 22> O -1.2563951339 -1.1398183677 0.2579596394
| 23> C -1.5611470057 -2.3676351502 -0.4316742501
| 24> C -2.9317044087 -2.8955324927 -0.0631627441
| 25> H 2.5575341489 -3.6933832354 -2.2204111042
| 26> H 3.0258299937 -3.4260338412 -0.5320731911
| 27> H 1.5773150679 -2.6432225846 -1.1865620777
| 28> H 2.9732802003 -1.2884580752 -2.7220365045
| 29> H 4.4502489543 -2.0698508893 -2.0875562545
| 30> H 1.9189516507 -2.1890737685 2.4993348483
| 31> H 2.9776343836 -0.7488218139 2.4832284073
| 32> H -0.0582788216 -0.648667104 2.832803686
| 33> H 1.1085076918 -0.5668166105 4.166871451
| 34> H 1.058677379 0.7166354721 2.9483835045
| 35> H -0.4577480197 2.1493457664 -1.7172224887
| 36> H 1.0398811031 2.5501343852 -0.7980222626
| 37> H -4.7880641147 0.9401620382 0.1669682409
| 38> H -4.884975742 0.6824694755 1.9354984277
| 39> H -3.3277917663 2.8858302819 0.4808428283
| 40> H -4.7897374281 3.1074187842 1.4522329236
| 41> H -3.2722746465 2.6159691855 2.2277127312
| 42> H -1.4913852262 -2.1861115255 -1.5093544881
| 43> H -0.7678902088 -3.0476506745 -0.1170543068
| 44> H -3.0824796814 -3.8638219947 -0.5300494925
| 45> H -3.0200673347 -2.9939871134 1.0156075909
| 46> H -3.6990161845 -2.2083074433 -0.4181147824
| 47> *
| 48>
| 49>                          ****END OF INPUT****

CARTESIAN COORDINATES (ANGSTROEM)
---------------------------------
  C      2.591203   -2.965628   -1.415706
  C      3.424095   -1.779850   -1.855745
  O      3.586343   -0.794078   -0.810341
  P      2.426316    0.016231   -0.090007
  S      3.176583    1.597233    0.777406
  O      1.679687   -1.010121    0.882496
  C      1.965847   -1.118541    2.291309
  C      0.949503   -0.353000    3.114844
  S      0.975972    0.283155   -1.602535
  C      0.252775    1.814702   -0.961964
  S     -0.591772    1.608634    0.627143
  P     -2.031640    0.210077   -0.033110
  S     -2.744701    0.444951   -1.848282
  O     -3.118662    0.196972    1.126144
  C     -4.266263    1.062820    1.121600
  C     -3.888206    2.514107    1.337653
  O     -1.256395   -1.139818    0.257960
  C     -1.561147   -2.367635   -0.431674
  C     -2.931704   -2.895532   -0.063163
  H      2.557534   -3.693383   -2.220411
  H      3.025830   -3.426034   -0.532073
  H      1.577315   -2.643223   -1.186562
  H      2.973280   -1.288458   -2.722037
  H      4.450249   -2.069851   -2.087556
  H      1.918952   -2.189074    2.499335
  H      2.977634   -0.748822    2.483228
  H     -0.058279   -0.648667    2.832804
  H      1.108508   -0.566817    4.166871
  H      1.058677    0.716635    2.948384
  H     -0.457748    2.149346   -1.717222
  H      1.039881    2.550134   -0.798022
  H     -4.788064    0.940162    0.166968
  H     -4.884976    0.682469    1.935498
  H     -3.327792    2.885830    0.480843
  H     -4.789737    3.107419    1.452233
  H     -3.272275    2.615969    2.227713
  H     -1.491385   -2.186112   -1.509354
  H     -0.767890   -3.047651   -0.117054
  H     -3.082480   -3.863822   -0.530049
  H     -3.020067   -2.993987    1.015608
  H     -3.699016   -2.208307   -0.418115

 Total Charge           Charge          ....    0
 Multiplicity           Mult            ....    1
 Number of Electrons    NEL             ....  202
 Basis Dimension        Dim             ....  539

ORBITAL ENERGIES
----------------

  NO   OCC          E(Eh)            E(eV)
   0   2.0000     -88.576629     -2410.2926
   1   2.0000     -88.575090     -2410.2507
   2   2.0000     -88.523911     -2408.8581
   3   2.0000     -88.515852     -2408.6388
   4   2.0000     -76.915370     -2092.9736
   5   2.0000     -76.912133     -2092.8855
   6   2.0000     -18.995351      -516.8898
   7   2.0000     -18.988764      -516.7105
   8   2.0000     -18.988720      -516.7093
   9   2.0000     -18.982995      -516.5535
  10   2.0000     -10.107810      -275.0475
  11   2.0000     -10.105757      -274.9916
  12   2.0000     -10.100927      -274.8602
  13   2.0000     -10.099097      -274.8104
  14   2.0000     -10.093682      -274.6631
  15   2.0000     -10.037297      -273.1287
  16   2.0000     -10.030449      -272.9424
  17   2.0000     -10.030264      -272.9374
  18   2.0000     -10.018524      -272.6179
  19   2.0000      -7.871191      -214.1860
  20   2.0000      -7.869557      -214.1415
  21   2.0000      -7.818643      -212.7561
  22   2.0000      -7.810777      -212.5420
  23   2.0000      -6.593967      -179.4310
  24   2.0000      -6.590269      -179.3304
  25   2.0000      -5.818116      -158.3190
  26   2.0000      -5.816474      -158.2743
  27   2.0000      -5.815043      -158.2354
  28   2.0000      -5.813473      -158.1926
  29   2.0000      -5.808196      -158.0491
  30   2.0000      -5.806531      -158.0038
  31   2.0000      -5.766248      -156.9076
  32   2.0000      -5.758923      -156.7083
  33   2.0000      -5.758697      -156.7021
  34   2.0000      -5.758574      -156.6988
  35   2.0000      -5.751314      -156.5012
  36   2.0000      -5.750341      -156.4747
  37   2.0000      -4.739327      -128.9636
  38   2.0000      -4.738834      -128.9502
  39   2.0000      -4.737878      -128.9242
  40   2.0000      -4.736073      -128.8751
  41   2.0000      -4.735002      -128.8459
  42   2.0000      -4.733965      -128.8177
  43   2.0000      -1.051666       -28.6173
  44   2.0000      -1.041731       -28.3469
  45   2.0000      -1.012510       -27.5518
  46   2.0000      -1.004742       -27.3404
  47   2.0000      -0.804190       -21.8831
  48   2.0000      -0.759141       -20.6573
  49   2.0000      -0.750819       -20.4308
  50   2.0000      -0.733711       -19.9653
  51   2.0000      -0.731964       -19.9177
  52   2.0000      -0.710647       -19.3377
  53   2.0000      -0.686639       -18.6844
  54   2.0000      -0.671066       -18.2606
  55   2.0000      -0.635116       -17.2824
  56   2.0000      -0.622291       -16.9334
  57   2.0000      -0.610443       -16.6110
  58   2.0000      -0.607086       -16.5196
  59   2.0000      -0.589656       -16.0454
  60   2.0000      -0.524405       -14.2698
  61   2.0000      -0.517654       -14.0861
  62   2.0000      -0.494912       -13.4672
  63   2.0000      -0.493066       -13.4170
  64   2.0000      -0.475935       -12.9509
  65   2.0000      -0.465298       -12.6614
  66   2.0000      -0.460504       -12.5310
  67   2.0000      -0.453760       -12.3474
  68   2.0000      -0.447181       -12.1684
  69   2.0000      -0.431712       -11.7475
  70   2.0000      -0.423838       -11.5332
  71   2.0000      -0.414578       -11.2812
  72   2.0000      -0.413159       -11.2426
  73   2.0000      -0.405832       -11.0433
  74   2.0000      -0.397810       -10.8250
  75   2.0000      -0.387600       -10.5471
  76   2.0000      -0.383490       -10.4353
  77   2.0000      -0.374687       -10.1958
  78   2.0000      -0.370100       -10.0709
  79   2.0000      -0.369169       -10.0456
  80   2.0000      -0.363152        -9.8819
  81   2.0000      -0.360899        -9.8206
  82   2.0000      -0.359975        -9.7954
  83   2.0000      -0.353849        -9.6287
  84   2.0000      -0.349803        -9.5186
  85   2.0000      -0.333687        -9.0801
  86   2.0000      -0.322649        -8.7797
  87   2.0000      -0.315422        -8.5831
  88   2.0000      -0.311657        -8.4806
  89   2.0000      -0.301146        -8.1946
  90   2.0000      -0.293071        -7.9749
  91   2.0000      -0.292352        -7.9553
  92   2.0000      -0.286782        -7.8037
  93   2.0000      -0.280883        -7.6432
  94   2.0000      -0.272910        -7.4263
  95   2.0000      -0.242883        -6.6092
  96   2.0000      -0.229769        -6.2523
  97   2.0000      -0.228145        -6.2081
  98   2.0000      -0.220962        -6.0127
  99   2.0000      -0.213183        -5.8010
 100   2.0000      -0.209166        -5.6917
 101   0.0000      -0.048421        -1.3176
 102   0.0000      -0.026870        -0.7312
 103   0.0000      -0.001948        -0.0530
 104   0.0000       0.006471         0.1761
 105   0.0000       0.007905         0.2151

MULLIKEN ATOMIC CHARGES
-----------------------
   0 C :   -0.427067
   1 C :   -0.172566
   2 O :   -0.262052
   3 P :    0.646084
   4 S :   -0.457186
   5 O :   -0.239436
   6 C :   -0.134631
   7 C :   -0.466541
   8 S :   -0.160230
   9 C :   -0.247532
  10 S :   -0.107639
  11 P :    0.684056
  12 S :   -0.485043
  13 O :   -0.303436
  14 C :   -0.152481
  15 C :   -0.449922
  16 O :   -0.250995
  17 C :   -0.166592
  18 C :   -0.451350
  19 H :    0.152383
  20 H :    0.155972
  21 H :    0.160824
  22 H :    0.164615
  23 H :    0.156033
  24 H :    0.143599
  25 H :    0.161150
  26 H :    0.162091
  27 H :    0.139305
  28 H :    0.180099
  29 H :    0.211203
  30 H :    0.211878
  31 H :    0.171593
  32 H :    0.148725
  33 H :    0.176232
  34 H :    0.148591
  35 H :    0.156422
  36 H :    0.177318
  37 H :    0.153224
  38 H :    0.146863
  39 H :    0.156260
  40 H :    0.170180
Sum of atomic charges:   -0.0000000

LOEWDIN ATOMIC CHARGES
----------------------
   0 C :   -0.401052
   1 C :    0.020691
   2 O :   -0.662615
   3 P :    0.387594
   4 S :   -0.102987
   5 O :   -0.684905
   6 C :    0.022572
   7 C :   -0.407109
   8 S :    0.166903
   9 C :   -0.417566
  10 S :    0.180475
  11 P :    0.378893
  12 S :   -0.130544
  13 O :   -0.661230
  14 C :    0.019821
  15 C :   -0.406507
  16 O :   -0.674706
  17 C :    0.014047
  18 C :   -0.399705
  19 H :    0.160191
  20 H :    0.161669
  21 H :    0.165267
  22 H :    0.174870
  23 H :    0.183822
  24 H :    0.174719
  25 H :    0.178172
  26 H :    0.163392
  27 H :    0.155188
  28 H :    0.167128
  29 H :    0.189784
  30 H :    0.192550
  31 H :    0.179478
  32 H :    0.179645
  33 H :    0.165346
  34 H :    0.159520
  35 H :    0.160792
  36 H :    0.180933
  37 H :    0.179930
  38 H :    0.159268
  39 H :    0.160694
  40 H :    0.165569

  Mayer bond orders larger than 0.100000
B(  0-C ,  1-C ) :   0.9266 B(  0-C , 19-H ) :   0.9632 B(  0-C , 20-H ) :   0.9703
B(  0-C , 21-H ) :   0.9566 B(  1-C ,  2-O ) :   0.8039 B(  1-C , 22-H ) :   0.9689
B(  1-C , 23-H ) :   0.9557 B(  2-O ,  3-P ) :   1.1389 B(  3-P ,  4-S ) :   1.8294
B(  3-P ,  5-O ) :   1.0639 B(  3-P ,  8-S ) :   1.0415 B(  5-O ,  6-C ) :   0.7768
B(  6-C ,  7-C ) :   0.9437 B(  6-C , 24-H ) :   0.9644 B(  6-C , 25-H ) :   0.9633
B(  7-C , 26-H ) :   0.9691 B(  7-C , 27-H ) :   0.9620 B(  7-C , 28-H ) :   0.9621
B(  8-S ,  9-C ) :   0.9033 B(  9-C , 10-S ) :   0.9001 B(  9-C , 29-H ) :   0.9133
B(  9-C , 30-H ) :   0.9098 B( 10-S , 11-P ) :   1.0928 B( 11-P , 12-S ) :   1.7431
B( 11-P , 13-O ) :   1.0617 B( 11-P , 16-O ) :   1.1398 B( 13-O , 14-C ) :   0.8128
B( 14-C , 15-C ) :   0.9235 B( 14-C , 31-H ) :   0.9672 B( 14-C , 32-H ) :   0.9580
B( 15-C , 33-H ) :   0.9627 B( 15-C , 34-H ) :   0.9587 B( 15-C , 35-H ) :   0.9683
B( 16-O , 17-C ) :   0.7875 B( 17-C , 18-C ) :   0.9238 B( 17-C , 36-H ) :   0.9628
B( 17-C , 37-H ) :   0.9602 B( 18-C , 38-H ) :   0.9618 B( 18-C , 39-H ) :   0.9729
B( 18-C , 40-H ) :   0.9601

Dispersion correction           -0.022505586
FINAL SINGLE POINT ENERGY     -2932.459216791635

DIPOLE MOMENT
-------------

Method             : SCF
Type of density    : Electron Density
Multiplicity       :   1
Irrep              :   0
Energy             : -2932.4831586699278887 Eh
Relativity type    :
Basis              : AO
                                X                 Y                 Z
Electronic contribution:      9.854781382      13.852721177      -7.695859621
Nuclear contribution   :    -10.637788063     -15.298320358       8.044269457
                        -----------------------------------------
Total Dipole Moment    :     -0.783006682      -1.445599180       0.348409837
                        -----------------------------------------
Magnitude (a.u.)       :      1.680549276
Magnitude (Debye)      :      4.271616788

Rotational constants in cm-1:             0.011931             0.005705             0.005197
Rotational constants in MHz :           357.681700           171.039009           155.795067

                             ****ORCA TERMINATED NORMALLY****
TOTAL RUN TIME: 0 days 0 hours 1 minutes 24 seconds 847 msec
