                         Program Version 6.0.0  -   RELEASE  -
|  1> ! r2scan-3c def2/J RI DEFGRID2 scfconv6 printgap
|  2> %output
|  3>     printlevel normal
|  4> end
|  5> %cpcm
|  6>     smd true
|  7>     smdsolvent "water"
|  8> end
|  9> * xyz 0 1
| 10> C 2.5912033622 -2.9656283061 -1.4157055793
| 11> C 3.4240953225 -1.7798503372 -1.8557450437
| 12> O 3.5863425649 -0.7940775115 -0.8103406542
| 13> P 2.4263159073 0.0162313295 -0.0900070971
| 14> S 3.1765828505 1.5972332567 0.7774060085
| 15> O 1.6796874037 -1.0101206152 0.8824957792
| 16> C 1.9658470735 -1.1185414486 2.2913087431
| 17> C 0.9495034991 -0.3529995072 3.1148437066
| 18> S 0.9759721417 0.2831548718 -1.6025347402
| 19> C 0.2527750207 1.8147019818 -0.9619635638
| 20> S -0.5917720188 1.6086341043 0.6271426263
| 21> P -2.0316403168 0.2100773356 -0.0331103605
| 22> S -2.7447007387 0.4449505375 -1.8482824985
| 23> O -3.1186616011 0.1969724702 1.1261438463
| 24> C -4.2662631217 1.0628196508 1.121600232
| 25> C -3.8882055383 2.5141065764 1.3376527084
| 26> O -1.2563951339 -1.1398183677 0.2579596394
| 27> C -1.5611470057 -2.3676351502 -0.4316742501
| 28> C -2.9317044087 -2.8955324927 -0.0631627441
| 29> H 2.5575341489 -3.6933832354 -2.2204111042
| 30> H 3.0258299937 -3.4260338412 -0.5320731911
| 31> H 1.5773150679 -2.6432225846 -1.1865620777
| 32> H 2.9732802003 -1.2884580752 -2.7220365045
| 33> H 4.4502489543 -2.0698508893 -2.0875562545
| 34> H 1.9189516507 -2.1890737685 2.4993348483
| 35> H 2.9776343836 -0.7488218139 2.4832284073
| 36> H -0.0582788216 -0.648667104 2.832803686
| 37> H 1.1085076918 -0.5668166105 4.166871451
| 38> H 1.058677379 0.7166354721 2.9483835045
| 39> H -0.4577480197 2.1493457664 -1.7172224887
| 40> H 1.0398811031 2.5501343852 -0.7980222626
| 41> H -4.7880641147 0.9401620382 0.1669682409
| 42> H -4.884975742 0.6824694755 1.9354984277
| 43> H -3.3277917663 2.8858302819 0.4808428283
| 44> H -4.7897374281 3.1074187842 1.4522329236
| 45> H -3.2722746465 2.6159691855 2.2277127312
| 46> H -1.4913852262 -2.1861115255 -1.5093544881
| 47> H -0.7678902088 -3.0476506745 -0.1170543068
| 48> H -3.0824796814 -3.8638219947 -0.5300494925
| 49> H -3.0200673347 -2.9939871134 1.0156075909
| 50> H -3.6990161845 -2.2083074433 -0.4181147824
| 51> *
| 52>
| 53>                          ****END OF INPUT****

CARTESIAN COORDINATES (ANGSTROEM)
---------------------------------
  C      2.591203   -2.965628   -1.415706
  C      3.424095   -1.779850   -1.855745
  O      3.586343   -0.794078   -0.810341
  P      2.426316    0.016231   -0.090007
  S      3.176583    1.597233    0.777406
  O      1.679687   -1.010121    0.882496
  C      1.965847   -1.118541    2.291309
  C      0.949503   -0.353000    3.114844
  S      0.975972    0.283155   -1.602535
  C      0.252775    1.814702   -0.961964
  S     -0.591772    1.608634    0.627143
  P     -2.031640    0.210077   -0.033110
  S     -2.744701    0.444951   -1.848282
  O     -3.118662    0.196972    1.126144
  C     -4.266263    1.062820    1.121600
  C     -3.888206    2.514107    1.337653
  O     -1.256395   -1.139818    0.257960
  C     -1.561147   -2.367635   -0.431674
  C     -2.931704   -2.895532   -0.063163
  H      2.557534   -3.693383   -2.220411
  H      3.025830   -3.426034   -0.532073
  H      1.577315   -2.643223   -1.186562
  H      2.973280   -1.288458   -2.722037
  H      4.450249   -2.069851   -2.087556
  H      1.918952   -2.189074    2.499335
  H      2.977634   -0.748822    2.483228
  H     -0.058279   -0.648667    2.832804
  H      1.108508   -0.566817    4.166871
  H      1.058677    0.716635    2.948384
  H     -0.457748    2.149346   -1.717222
  H      1.039881    2.550134   -0.798022
  H     -4.788064    0.940162    0.166968
  H     -4.884976    0.682469    1.935498
  H     -3.327792    2.885830    0.480843
  H     -4.789737    3.107419    1.452233
  H     -3.272275    2.615969    2.227713
  H     -1.491385   -2.186112   -1.509354
  H     -0.767890   -3.047651   -0.117054
  H     -3.082480   -3.863822   -0.530049
  H     -3.020067   -2.993987    1.015608
  H     -3.699016   -2.208307   -0.418115

 Total Charge           Charge          ....    0
 Multiplicity           Mult            ....    1
 Number of Electrons    NEL             ....  202
 Basis Dimension        Dim             ....  539

ORBITAL ENERGIES
----------------

  NO   OCC          E(Eh)            E(eV)
   0   2.0000     -88.580580     -2410.4001
   1   2.0000     -88.577390     -2410.3133
   2   2.0000     -88.528611     -2408.9860
   3   2.0000     -88.527274     -2408.9496
   4   2.0000     -76.919601     -2093.0888
   5   2.0000     -76.918519     -2093.0593
   6   2.0000     -18.995711      -516.8996
   7   2.0000     -18.992644      -516.8161
   8   2.0000     -18.990602      -516.7605
   9   2.0000     -18.987679      -516.6810
  10   2.0000     -10.106539      -275.0129
  11   2.0000     -10.093668      -274.6627
  12   2.0000     -10.089728      -274.5555
  13   2.0000     -10.088804      -274.5303
  14   2.0000     -10.087609      -274.4978
  15   2.0000     -10.020882      -272.6821
  16   2.0000     -10.018517      -272.6177
  17   2.0000     -10.018260      -272.6107
  18   2.0000     -10.014103      -272.4976
  19   2.0000      -7.875097      -214.2923
  20   2.0000      -7.871904      -214.2054
  21   2.0000      -7.823616      -212.8914
  22   2.0000      -7.822565      -212.8628
  23   2.0000      -6.597776      -179.5346
  24   2.0000      -6.597151      -179.5176
  25   2.0000      -5.822024      -158.4253
  26   2.0000      -5.818924      -158.3410
  27   2.0000      -5.818806      -158.3378
  28   2.0000      -5.815816      -158.2564
  29   2.0000      -5.812136      -158.1563
  30   2.0000      -5.808898      -158.0682
  31   2.0000      -5.771176      -157.0417
  32   2.0000      -5.770248      -157.0164
  33   2.0000      -5.763877      -156.8431
  34   2.0000      -5.763682      -156.8378
  35   2.0000      -5.763034      -156.8201
  36   2.0000      -5.762241      -156.7986
  37   2.0000      -4.743524      -129.0778
  38   2.0000      -4.742483      -129.0495
  39   2.0000      -4.742468      -129.0491
  40   2.0000      -4.742027      -129.0371
  41   2.0000      -4.741590      -129.0252
  42   2.0000      -4.741120      -129.0124
  43   2.0000      -1.052347       -28.6358
  44   2.0000      -1.045495       -28.4494
  45   2.0000      -1.012679       -27.5564
  46   2.0000      -1.008086       -27.4314
  47   2.0000      -0.805789       -21.9266
  48   2.0000      -0.755914       -20.5695
  49   2.0000      -0.743620       -20.2349
  50   2.0000      -0.726340       -19.7647
  51   2.0000      -0.722885       -19.6707
  52   2.0000      -0.709283       -19.3006
  53   2.0000      -0.689298       -18.7568
  54   2.0000      -0.676221       -18.4009
  55   2.0000      -0.632952       -17.2235
  56   2.0000      -0.619822       -16.8662
  57   2.0000      -0.604943       -16.4613
  58   2.0000      -0.598856       -16.2957
  59   2.0000      -0.587694       -15.9920
  60   2.0000      -0.521245       -14.1838
  61   2.0000      -0.513113       -13.9625
  62   2.0000      -0.491676       -13.3792
  63   2.0000      -0.488403       -13.2901
  64   2.0000      -0.474584       -12.9141
  65   2.0000      -0.460767       -12.5381
  66   2.0000      -0.454577       -12.3697
  67   2.0000      -0.449274       -12.2254
  68   2.0000      -0.442386       -12.0379
  69   2.0000      -0.427322       -11.6280
  70   2.0000      -0.420653       -11.4465
  71   2.0000      -0.410839       -11.1795
  72   2.0000      -0.407173       -11.0797
  73   2.0000      -0.403576       -10.9819
  74   2.0000      -0.394374       -10.7315
  75   2.0000      -0.385585       -10.4923
  76   2.0000      -0.383998       -10.4491
  77   2.0000      -0.370924       -10.0934
  78   2.0000      -0.364451        -9.9172
  79   2.0000      -0.358598        -9.7579
  80   2.0000      -0.354228        -9.6390
  81   2.0000      -0.353354        -9.6153
  82   2.0000      -0.352007        -9.5786
  83   2.0000      -0.347266        -9.4496
  84   2.0000      -0.346630        -9.4323
  85   2.0000      -0.329945        -8.9783
  86   2.0000      -0.317170        -8.6306
  87   2.0000      -0.313563        -8.5325
  88   2.0000      -0.304635        -8.2895
  89   2.0000      -0.299382        -8.1466
  90   2.0000      -0.295027        -8.0281
  91   2.0000      -0.290206        -7.8969
  92   2.0000      -0.285433        -7.7670
  93   2.0000      -0.279447        -7.6041
  94   2.0000      -0.274664        -7.4740
  95   2.0000      -0.245617        -6.6836
  96   2.0000      -0.237166        -6.4536
  97   2.0000      -0.233997        -6.3674
  98   2.0000      -0.227507        -6.1908
  99   2.0000      -0.221766        -6.0346
 100   2.0000      -0.219401        -5.9702
 101   0.0000      -0.052393        -1.4257
 102   0.0000      -0.032425        -0.8823
 103   0.0000      -0.004522        -0.1230
 104   0.0000       0.001974         0.0537
 105   0.0000       0.007843         0.2134

MULLIKEN ATOMIC CHARGES
-----------------------
   0 C :   -0.460637
   1 C :   -0.166107
   2 O :   -0.299631
   3 P :    0.659147
   4 S :   -0.514397
   5 O :   -0.261229
   6 C :   -0.129987
   7 C :   -0.491190
   8 S :   -0.165290
   9 C :   -0.259690
  10 S :   -0.118509
  11 P :    0.724162
  12 S :   -0.527730
  13 O :   -0.330879
  14 C :   -0.153141
  15 C :   -0.486412
  16 O :   -0.286297
  17 C :   -0.154708
  18 C :   -0.492348
  19 H :    0.177358
  20 H :    0.171501
  21 H :    0.162052
  22 H :    0.176461
  23 H :    0.179644
  24 H :    0.174287
  25 H :    0.167254
  26 H :    0.163760
  27 H :    0.164949
  28 H :    0.171775
  29 H :    0.235235
  30 H :    0.231341
  31 H :    0.177967
  32 H :    0.175499
  33 H :    0.172703
  34 H :    0.172919
  35 H :    0.169154
  36 H :    0.179697
  37 H :    0.179764
  38 H :    0.172228
  39 H :    0.170062
  40 H :    0.169265
Sum of atomic charges:   -0.0000000

LOEWDIN ATOMIC CHARGES
----------------------
   0 C :   -0.400923
   1 C :    0.027081
   2 O :   -0.683366
   3 P :    0.389214
   4 S :   -0.144819
   5 O :   -0.694777
   6 C :    0.027713
   7 C :   -0.409657
   8 S :    0.167338
   9 C :   -0.412094
  10 S :    0.174745
  11 P :    0.384308
  12 S :   -0.155792
  13 O :   -0.672427
  14 C :    0.025469
  15 C :   -0.409907
  16 O :   -0.691659
  17 C :    0.019744
  18 C :   -0.403081
  19 H :    0.170490
  20 H :    0.165568
  21 H :    0.164287
  22 H :    0.180275
  23 H :    0.194068
  24 H :    0.187583
  25 H :    0.180577
  26 H :    0.162969
  27 H :    0.164341
  28 H :    0.162109
  29 H :    0.197406
  30 H :    0.198135
  31 H :    0.181571
  32 H :    0.190998
  33 H :    0.161483
  34 H :    0.168334
  35 H :    0.163620
  36 H :    0.182341
  37 H :    0.191042
  38 H :    0.168703
  39 H :    0.164152
  40 H :    0.162836

  Mayer bond orders larger than 0.100000
B(  0-C ,  1-C ) :   0.9156 B(  0-C , 19-H ) :   0.9567 B(  0-C , 20-H ) :   0.9693
B(  0-C , 21-H ) :   0.9535 B(  1-C ,  2-O ) :   0.7919 B(  1-C , 22-H ) :   0.9590
B(  1-C , 23-H ) :   0.9454 B(  2-O ,  3-P ) :   1.1472 B(  3-P ,  4-S ) :   1.8024
B(  3-P ,  5-O ) :   1.0690 B(  3-P ,  8-S ) :   1.0624 B(  5-O ,  6-C ) :   0.7639
B(  6-C ,  7-C ) :   0.9331 B(  6-C , 24-H ) :   0.9547 B(  6-C , 25-H ) :   0.9613
B(  7-C , 26-H ) :   0.9670 B(  7-C , 27-H ) :   0.9582 B(  7-C , 28-H ) :   0.9645
B(  8-S ,  9-C ) :   0.8896 B(  9-C , 10-S ) :   0.8911 B(  9-C , 29-H ) :   0.9066
B(  9-C , 30-H ) :   0.9048 B( 10-S , 11-P ) :   1.1006 B( 11-P , 12-S ) :   1.7043
B( 11-P , 13-O ) :   1.0701 B( 11-P , 16-O ) :   1.1452 B( 13-O , 14-C ) :   0.8011
B( 14-C , 15-C ) :   0.9101 B( 14-C , 31-H ) :   0.9658 B( 14-C , 32-H ) :   0.9483
B( 15-C , 33-H ) :   0.9638 B( 15-C , 34-H ) :   0.9535 B( 15-C , 35-H ) :   0.9658
B( 16-O , 17-C ) :   0.7776 B( 17-C , 18-C ) :   0.9111 B( 17-C , 36-H ) :   0.9587
B( 17-C , 37-H ) :   0.9496 B( 18-C , 38-H ) :   0.9559 B( 18-C , 39-H ) :   0.9714
B( 18-C , 40-H ) :   0.9599

Dispersion correction           -0.022505586
FINAL SINGLE POINT ENERGY     -2932.469397543696

DIPOLE MOMENT
-------------

Method             : SCF
Type of density    : Electron Density
Multiplicity       :   1
Irrep              :   0
Energy             : -2932.4933394219892762 Eh
Relativity type    :
Basis              : AO
                                X                 Y                 Z
Electronic contribution:      9.563281689      13.325912371      -7.667931067
Nuclear contribution   :    -10.637788063     -15.298320358       8.044269457
                        -----------------------------------------
Total Dipole Moment    :     -1.074506374      -1.972407987       0.376338391
                        -----------------------------------------
Magnitude (a.u.)       :      2.277408132
Magnitude (Debye)      :      5.788711435

Rotational constants in cm-1:             0.011931             0.005705             0.005197
Rotational constants in MHz :           357.681700           171.039009           155.795067

                             ****ORCA TERMINATED NORMALLY****
TOTAL RUN TIME: 0 days 0 hours 2 minutes 1 seconds 844 msec
