                         Program Version 6.0.1  -  RELEASE   -
|  1> ! pbe def2-sv(p) def2/J RI DEFGRID1 loosescf d4 GCP(DFT/SV(P)) printgap
|  2> %output
|  3>     printlevel normal
|  4> end
|  5> * xyz 0 1
|  6> C 3.0779458758 -3.2848232321 1.2115517246
|  7> C 2.9288877561 -1.7803918192 1.3457002076
|  8> O 2.6016383307 -1.2339178678 0.0531641928
|  9> C 1.6202540178 -0.3822223986 -0.0648781466
| 10> O 0.9782615282 0.090448964 0.8614058996
| 11> C 1.3813095147 0.0280843728 -1.5005480828
| 12> C 0.2778371646 1.0737121452 -1.5511138422
| 13> H 0.2956694715 1.6004990508 -2.5094772892
| 14> C 0.4190027802 2.107726545 -0.4391195279
| 15> O -0.5135235341 2.5367962957 0.201580231
| 16> O 1.6623466242 2.5290394697 -0.3530267742
| 17> C 1.9918494315 3.5545413191 0.6071175864
| 18> C 2.692372015 4.6980762537 -0.1054675063
| 19> S -1.4119424021 0.3895302547 -1.5123917773
| 20> P -1.5859610067 -0.9622656998 0.1181907432
| 21> S -0.4694896016 -2.5698080836 0.140994076
| 22> O -1.6693252446 -0.2313778007 1.5144232402
| 23> C -2.6055846915 0.8215303387 1.8143736634
| 24> O -3.1340616507 -1.3266845639 -0.0940514571
| 25> C -3.5679950011 -2.1449636284 -1.185409408
| 26> H 3.3650028559 -3.70325182 2.1702404893
| 27> H 2.132700914 -3.7223373641 0.8981233228
| 28> H 3.8369311407 -3.5169372737 0.4711662863
| 29> H 3.8666843458 -1.3121319556 1.6555696843
| 30> H 2.133882593 -1.5146718216 2.0487474703
| 31> H 1.1223888039 -0.8550464658 -2.0875689493
| 32> H 2.3118994377 0.4404068837 -1.8938405806
| 33> H 1.0701847907 3.8824830977 1.095354639
| 34> H 2.6457729404 3.083539516 1.3452631041
| 35> H 3.5748001253 4.330363495 -0.6204169962
| 36> H 2.0253365373 5.1570186228 -0.8300205777
| 37> H 2.9881945228 5.442788636 0.6259302149
| 38> H -3.5960062745 0.560390199 1.4474220518
| 39> H -2.258317139 1.7506652082 1.3630321909
| 40> H -2.6003686986 0.8993407014 2.8984051479
| 41> H -2.9050821959 -3.0051012453 -1.2933014223
| 42> H -3.5754956205 -1.5609228321 -2.1046963927
| 43> H -4.5723440931 -2.4700443838 -0.9259398527
| 44> *
| 45>
| 46>                          ****END OF INPUT****

CARTESIAN COORDINATES (ANGSTROEM)
---------------------------------
  C      3.077946   -3.284823    1.211552
  C      2.928888   -1.780392    1.345700
  O      2.601638   -1.233918    0.053164
  C      1.620254   -0.382222   -0.064878
  O      0.978262    0.090449    0.861406
  C      1.381310    0.028084   -1.500548
  C      0.277837    1.073712   -1.551114
  H      0.295669    1.600499   -2.509477
  C      0.419003    2.107727   -0.439120
  O     -0.513524    2.536796    0.201580
  O      1.662347    2.529039   -0.353027
  C      1.991849    3.554541    0.607118
  C      2.692372    4.698076   -0.105468
  S     -1.411942    0.389530   -1.512392
  P     -1.585961   -0.962266    0.118191
  S     -0.469490   -2.569808    0.140994
  O     -1.669325   -0.231378    1.514423
  C     -2.605585    0.821530    1.814374
  O     -3.134062   -1.326685   -0.094051
  C     -3.567995   -2.144964   -1.185409
  H      3.365003   -3.703252    2.170240
  H      2.132701   -3.722337    0.898123
  H      3.836931   -3.516937    0.471166
  H      3.866684   -1.312132    1.655570
  H      2.133883   -1.514672    2.048747
  H      1.122389   -0.855046   -2.087569
  H      2.311899    0.440407   -1.893841
  H      1.070185    3.882483    1.095355
  H      2.645773    3.083540    1.345263
  H      3.574800    4.330363   -0.620417
  H      2.025337    5.157019   -0.830021
  H      2.988195    5.442789    0.625930
  H     -3.596006    0.560390    1.447422
  H     -2.258317    1.750665    1.363032
  H     -2.600369    0.899341    2.898405
  H     -2.905082   -3.005101   -1.293301
  H     -3.575496   -1.560923   -2.104696
  H     -4.572344   -2.470044   -0.925940

 Total Charge           Charge          ....    0
 Multiplicity           Mult            ....    1
 Number of Electrons    NEL             ....  174
 Basis Dimension        Dim             ....  316

ORBITAL ENERGIES
----------------

  NO   OCC          E(Eh)            E(eV)
   0   2.0000     -88.031974     -2395.4718
   1   2.0000     -87.971612     -2393.8293
   2   2.0000     -76.418337     -2079.4487
   3   2.0000     -18.805052      -511.7115
   4   2.0000     -18.802690      -511.6472
   5   2.0000     -18.784112      -511.1417
   6   2.0000     -18.778684      -510.9940
   7   2.0000     -18.739045      -509.9153
   8   2.0000     -18.735065      -509.8070
   9   2.0000     -10.015039      -272.5231
  10   2.0000     -10.013252      -272.4744
  11   2.0000      -9.948725      -270.7186
  12   2.0000      -9.948530      -270.7133
  13   2.0000      -9.942060      -270.5372
  14   2.0000      -9.937522      -270.4137
  15   2.0000      -9.926489      -270.1135
  16   2.0000      -9.911214      -269.6978
  17   2.0000      -9.892283      -269.1827
  18   2.0000      -9.879045      -268.8225
  19   2.0000      -7.676812      -208.8967
  20   2.0000      -7.617014      -207.2695
  21   2.0000      -6.414898      -174.5582
  22   2.0000      -5.704978      -155.2403
  23   2.0000      -5.701230      -155.1384
  24   2.0000      -5.693578      -154.9301
  25   2.0000      -5.646044      -153.6367
  26   2.0000      -5.637319      -153.3993
  27   2.0000      -5.637214      -153.3964
  28   2.0000      -4.637942      -126.2048
  29   2.0000      -4.636844      -126.1749
  30   2.0000      -4.635006      -126.1249
  31   2.0000      -1.014796       -27.6140
  32   2.0000      -1.008955       -27.4551
  33   2.0000      -0.975228       -26.5373
  34   2.0000      -0.930496       -25.3201
  35   2.0000      -0.917414       -24.9641
  36   2.0000      -0.915233       -24.9048
  37   2.0000      -0.761475       -20.7208
  38   2.0000      -0.709831       -19.3155
  39   2.0000      -0.707319       -19.2471
  40   2.0000      -0.686536       -18.6816
  41   2.0000      -0.653661       -17.7870
  42   2.0000      -0.627512       -17.0755
  43   2.0000      -0.620843       -16.8940
  44   2.0000      -0.607163       -16.5217
  45   2.0000      -0.587177       -15.9779
  46   2.0000      -0.561214       -15.2714
  47   2.0000      -0.512729       -13.9521
  48   2.0000      -0.503280       -13.6949
  49   2.0000      -0.498245       -13.5579
  50   2.0000      -0.483664       -13.1612
  51   2.0000      -0.463632       -12.6161
  52   2.0000      -0.449698       -12.2369
  53   2.0000      -0.444305       -12.0902
  54   2.0000      -0.436781       -11.8854
  55   2.0000      -0.424005       -11.5378
  56   2.0000      -0.422106       -11.4861
  57   2.0000      -0.414422       -11.2770
  58   2.0000      -0.411908       -11.2086
  59   2.0000      -0.407043       -11.0762
  60   2.0000      -0.399902       -10.8819
  61   2.0000      -0.394668       -10.7395
  62   2.0000      -0.386558       -10.5188
  63   2.0000      -0.380586       -10.3563
  64   2.0000      -0.372928       -10.1479
  65   2.0000      -0.362143        -9.8544
  66   2.0000      -0.354972        -9.6593
  67   2.0000      -0.349072        -9.4987
  68   2.0000      -0.344947        -9.3865
  69   2.0000      -0.338143        -9.2013
  70   2.0000      -0.334265        -9.0958
  71   2.0000      -0.325806        -8.8656
  72   2.0000      -0.315921        -8.5967
  73   2.0000      -0.307347        -8.3634
  74   2.0000      -0.298904        -8.1336
  75   2.0000      -0.295082        -8.0296
  76   2.0000      -0.290721        -7.9109
  77   2.0000      -0.283793        -7.7224
  78   2.0000      -0.261589        -7.1182
  79   2.0000      -0.258337        -7.0297
  80   2.0000      -0.252510        -6.8712
  81   2.0000      -0.247868        -6.7448
  82   2.0000      -0.230633        -6.2758
  83   2.0000      -0.226897        -6.1742
  84   2.0000      -0.217970        -5.9313
  85   2.0000      -0.191383        -5.2078
  86   2.0000      -0.185015        -5.0345
  87   0.0000      -0.034826        -0.9477
  88   0.0000      -0.020380        -0.5546
  89   0.0000      -0.017290        -0.4705
  90   0.0000      -0.004809        -0.1309
  91   0.0000       0.034478         0.9382

MULLIKEN ATOMIC CHARGES
-----------------------
   0 C :   -0.291167
   1 C :   -0.020999
   2 O :   -0.214358
   3 C :    0.121474
   4 O :   -0.210288
   5 C :   -0.075425
   6 C :   -0.297162
   7 H :    0.143738
   8 C :    0.213933
   9 O :   -0.176343
  10 O :   -0.248595
  11 C :   -0.020342
  12 C :   -0.287422
  13 S :   -0.101367
  14 P :    0.638027
  15 S :   -0.349867
  16 O :   -0.350152
  17 C :   -0.124569
  18 O :   -0.393758
  19 C :   -0.103261
  20 H :    0.108444
  21 H :    0.133809
  22 H :    0.108382
  23 H :    0.099131
  24 H :    0.125585
  25 H :    0.138163
  26 H :    0.122222
  27 H :    0.119619
  28 H :    0.106975
  29 H :    0.114029
  30 H :    0.113957
  31 H :    0.114147
  32 H :    0.114353
  33 H :    0.152254
  34 H :    0.119448
  35 H :    0.117533
  36 H :    0.117279
  37 H :    0.122572
Sum of atomic charges:   -0.0000000

LOEWDIN ATOMIC CHARGES
----------------------
   0 C :   -0.352909
   1 C :   -0.108058
   2 O :   -0.039782
   3 C :    0.021517
   4 O :   -0.163227
   5 C :   -0.257078
   6 C :   -0.262482
   7 H :    0.150797
   8 C :    0.015670
   9 O :   -0.159093
  10 O :   -0.062400
  11 C :   -0.107542
  12 C :   -0.351871
  13 S :    0.102078
  14 P :    0.579295
  15 S :   -0.319459
  16 O :   -0.224996
  17 C :   -0.214946
  18 O :   -0.261107
  19 C :   -0.217882
  20 H :    0.128965
  21 H :    0.127798
  22 H :    0.123106
  23 H :    0.114132
  24 H :    0.125058
  25 H :    0.148058
  26 H :    0.147582
  27 H :    0.123020
  28 H :    0.119009
  29 H :    0.124906
  30 H :    0.126344
  31 H :    0.131266
  32 H :    0.110035
  33 H :    0.123159
  34 H :    0.121612
  35 H :    0.109650
  36 H :    0.108693
  37 H :    0.121085

  Mayer bond orders larger than 0.100000
B(  0-C ,  1-C ) :   1.1714 B(  0-C , 20-H ) :   0.9436 B(  0-C , 21-H ) :   0.9418
B(  0-C , 22-H ) :   0.9486 B(  1-C ,  2-O ) :   0.8958 B(  1-C , 23-H ) :   0.9354
B(  1-C , 24-H ) :   0.9081 B(  2-O ,  3-C ) :   1.2749 B(  3-C ,  4-O ) :   1.9239
B(  3-C ,  5-C ) :   1.0017 B(  5-C ,  6-C ) :   1.0367 B(  5-C , 25-H ) :   0.8851
B(  5-C , 26-H ) :   0.8753 B(  6-C ,  7-H ) :   0.8665 B(  6-C ,  8-C ) :   0.8639
B(  6-C , 13-S ) :   1.0557 B(  8-C ,  9-O ) :   2.0617 B(  8-C , 10-O ) :   1.2166
B( 10-O , 11-C ) :   0.9038 B( 11-C , 12-C ) :   1.1678 B( 11-C , 27-H ) :   0.9079
B( 11-C , 28-H ) :   0.9341 B( 12-C , 29-H ) :   0.9498 B( 12-C , 30-H ) :   0.9510
B( 12-C , 31-H ) :   0.9444 B( 13-S , 14-P ) :   0.9715 B( 13-S , 15-S ) :   0.1130
B( 14-P , 15-S ) :   1.5968 B( 14-P , 16-O ) :   1.1532 B( 14-P , 18-O ) :   1.0478
B( 16-O , 17-C ) :   0.9105 B( 17-C , 32-H ) :   0.9427 B( 17-C , 33-H ) :   0.9239
B( 17-C , 34-H ) :   0.9590 B( 18-O , 19-C ) :   0.9352 B( 19-C , 35-H ) :   0.9302
B( 19-C , 36-H ) :   0.9493 B( 19-C , 37-H ) :   0.9586

Dispersion correction           -0.054001153
FINAL SINGLE POINT ENERGY     -1979.011816933855

DIPOLE MOMENT
-------------

Method             : SCF
Type of density    : Electron Density
Multiplicity       :   1
Irrep              :   0
Energy             : -1979.1420678953018069 Eh
Relativity type    :
Basis              : AO
                                X                 Y                 Z
Electronic contribution:    -11.829950143      -5.271133190      -3.887919817
Nuclear contribution   :     12.598858706       6.105715716       3.488321997
                        -----------------------------------------
Total Dipole Moment    :      0.768908563       0.834582526      -0.399597820
                        -----------------------------------------
Magnitude (a.u.)       :      1.203090516
Magnitude (Debye)      :      3.058013067

Rotational constants in cm-1:             0.012063             0.008582             0.006149
Rotational constants in MHz :           361.630436           257.288134           184.338109

                             ****ORCA TERMINATED NORMALLY****
TOTAL RUN TIME: 0 days 0 hours 0 minutes 44 seconds 527 msec
