                         Program Version 6.0.0  -   RELEASE  -
|  1> ! pbe def2-sv(p) def2/J RI DEFGRID1 loosescf d4 GCP(DFT/SV(P)) printgap
|  2> %output
|  3>     printlevel normal
|  4> end
|  5> * xyz 0 1
|  6> C 4.2936849944 0.4131101621 -2.2938098172
|  7> C 4.5562444966 0.0237767221 -0.8529388626
|  8> O 3.3624783395 -0.42934147 -0.1951468349
|  9> P 2.1707613786 0.5742539193 0.1693973008
| 10> S 2.7602256024 2.3502528976 0.7489769749
| 11> O 1.3726913276 -0.2811436853 1.232813513
| 12> C 1.8615135849 -0.4577632987 2.5808149246
| 13> C 0.7593276147 -1.1235780503 3.3778420092
| 14> S 0.8101067527 0.5008474405 -1.4370229228
| 15> C 0.4987620361 -1.2832267371 -1.5307423637
| 16> S -0.5723063915 -1.9401681901 -0.2096488583
| 17> P -2.0472984622 -0.4517202878 -0.2132453722
| 18> S -2.6664294792 0.2300328051 -1.9502763489
| 19> O -1.4514999981 0.5928576779 0.8215644953
| 20> C -2.0624827006 1.8877932442 1.0202707017
| 21> C -1.314227363 2.9600714728 0.2536798177
| 22> O -3.2089215522 -1.0975885751 0.661829065
| 23> C -4.1875441712 -1.9970373493 0.1015566628
| 24> C -5.439721647 -1.9212769426 0.9519474199
| 25> H 5.2300245368 0.6904385049 -2.7671879839
| 26> H 3.8463456603 -0.4135206168 -2.8396643593
| 27> H 3.6152008457 1.2655193966 -2.3284718391
| 28> H 4.9562431933 0.8754911899 -0.2936636828
| 29> H 5.2386833584 -0.824009037 -0.7792101651
| 30> H 2.7604928022 -1.0778850796 2.5415461899
| 31> H 2.1208760534 0.5264782723 2.9851485868
| 32> H 0.5279450499 -2.0952956919 2.950056889
| 33> H 1.0836555629 -1.2457943942 4.406060875
| 34> H -0.1384384384 -0.5114754161 3.3513352933
| 35> H 1.4354243563 -1.831761363 -1.4644202357
| 36> H 0.0132065165 -1.4360433596 -2.4930559929
| 37> H -3.1088420446 1.8429789519 0.7056635914
| 38> H -2.0100771176 2.0588866456 2.0968470329
| 39> H -0.2640127608 2.9682621864 0.5394997489
| 40> H -1.3800903546 2.7761939576 -0.8170752365
| 41> H -1.7489363276 3.9293712213 0.4753884491
| 42> H -4.38634146 -1.6958505905 -0.9326268596
| 43> H -3.7606053059 -3.0027926874 0.108576578
| 44> H -5.8543468844 -0.9174483017 0.9221600144
| 45> H -6.1731725584 -2.6218750108 0.5666371986
| 46> H -5.2042688291 -2.1747286071 1.9815297829
| 47> *
| 48>
| 49>                          ****END OF INPUT****

CARTESIAN COORDINATES (ANGSTROEM)
---------------------------------
  C      4.293685    0.413110   -2.293810
  C      4.556244    0.023777   -0.852939
  O      3.362478   -0.429341   -0.195147
  P      2.170761    0.574254    0.169397
  S      2.760226    2.350253    0.748977
  O      1.372691   -0.281144    1.232814
  C      1.861514   -0.457763    2.580815
  C      0.759328   -1.123578    3.377842
  S      0.810107    0.500847   -1.437023
  C      0.498762   -1.283227   -1.530742
  S     -0.572306   -1.940168   -0.209649
  P     -2.047298   -0.451720   -0.213245
  S     -2.666429    0.230033   -1.950276
  O     -1.451500    0.592858    0.821564
  C     -2.062483    1.887793    1.020271
  C     -1.314227    2.960071    0.253680
  O     -3.208922   -1.097589    0.661829
  C     -4.187544   -1.997037    0.101557
  C     -5.439722   -1.921277    0.951947
  H      5.230025    0.690439   -2.767188
  H      3.846346   -0.413521   -2.839664
  H      3.615201    1.265519   -2.328472
  H      4.956243    0.875491   -0.293664
  H      5.238683   -0.824009   -0.779210
  H      2.760493   -1.077885    2.541546
  H      2.120876    0.526478    2.985149
  H      0.527945   -2.095296    2.950057
  H      1.083656   -1.245794    4.406061
  H     -0.138438   -0.511475    3.351335
  H      1.435424   -1.831761   -1.464420
  H      0.013207   -1.436043   -2.493056
  H     -3.108842    1.842979    0.705664
  H     -2.010077    2.058887    2.096847
  H     -0.264013    2.968262    0.539500
  H     -1.380090    2.776194   -0.817075
  H     -1.748936    3.929371    0.475388
  H     -4.386341   -1.695851   -0.932627
  H     -3.760605   -3.002793    0.108577
  H     -5.854347   -0.917448    0.922160
  H     -6.173173   -2.621875    0.566637
  H     -5.204269   -2.174729    1.981530

 Total Charge           Charge          ....    0
 Multiplicity           Mult            ....    1
 Number of Electrons    NEL             ....  202
 Basis Dimension        Dim             ....  334

ORBITAL ENERGIES
----------------

  NO   OCC          E(Eh)            E(eV)
   0   2.0000     -88.046280     -2395.8611
   1   2.0000     -88.041186     -2395.7225
   2   2.0000     -87.989437     -2394.3143
   3   2.0000     -87.984144     -2394.1703
   4   2.0000     -76.425359     -2079.6397
   5   2.0000     -76.424827     -2079.6253
   6   2.0000     -18.794802      -511.4326
   7   2.0000     -18.791425      -511.3407
   8   2.0000     -18.786928      -511.2183
   9   2.0000     -18.784151      -511.1427
  10   2.0000      -9.962386      -271.0903
  11   2.0000      -9.953158      -270.8392
  12   2.0000      -9.950909      -270.7780
  13   2.0000      -9.950522      -270.7675
  14   2.0000      -9.945988      -270.6441
  15   2.0000      -9.887478      -269.0519
  16   2.0000      -9.885905      -269.0092
  17   2.0000      -9.882652      -268.9206
  18   2.0000      -9.867285      -268.5025
  19   2.0000      -7.690845      -209.2785
  20   2.0000      -7.686752      -209.1671
  21   2.0000      -7.634413      -207.7429
  22   2.0000      -7.629153      -207.5998
  23   2.0000      -6.423275      -174.7862
  24   2.0000      -6.422146      -174.7555
  25   2.0000      -5.719171      -155.6266
  26   2.0000      -5.715116      -155.5162
  27   2.0000      -5.714796      -155.5075
  28   2.0000      -5.711361      -155.4140
  29   2.0000      -5.707594      -155.3115
  30   2.0000      -5.703303      -155.1948
  31   2.0000      -5.663311      -154.1065
  32   2.0000      -5.658037      -153.9630
  33   2.0000      -5.655018      -153.8809
  34   2.0000      -5.654630      -153.8703
  35   2.0000      -5.649879      -153.7410
  36   2.0000      -5.649283      -153.7248
  37   2.0000      -4.645709      -126.4162
  38   2.0000      -4.645196      -126.4022
  39   2.0000      -4.644655      -126.3875
  40   2.0000      -4.643929      -126.3677
  41   2.0000      -4.643693      -126.3613
  42   2.0000      -4.642706      -126.3345
  43   2.0000      -0.986902       -26.8550
  44   2.0000      -0.982755       -26.7421
  45   2.0000      -0.944536       -25.7021
  46   2.0000      -0.939994       -25.5785
  47   2.0000      -0.766429       -20.8556
  48   2.0000      -0.722383       -19.6571
  49   2.0000      -0.707869       -19.2621
  50   2.0000      -0.687358       -18.7040
  51   2.0000      -0.682418       -18.5696
  52   2.0000      -0.671938       -18.2844
  53   2.0000      -0.651427       -17.7262
  54   2.0000      -0.637839       -17.3565
  55   2.0000      -0.596475       -16.2309
  56   2.0000      -0.587288       -15.9809
  57   2.0000      -0.574286       -15.6271
  58   2.0000      -0.565963       -15.4006
  59   2.0000      -0.556297       -15.1376
  60   2.0000      -0.505804       -13.7636
  61   2.0000      -0.504129       -13.7180
  62   2.0000      -0.474358       -12.9079
  63   2.0000      -0.471224       -12.8227
  64   2.0000      -0.459190       -12.4952
  65   2.0000      -0.444935       -12.1073
  66   2.0000      -0.439633       -11.9630
  67   2.0000      -0.429857       -11.6970
  68   2.0000      -0.427741       -11.6394
  69   2.0000      -0.416481       -11.3330
  70   2.0000      -0.410224       -11.1628
  71   2.0000      -0.396940       -10.8013
  72   2.0000      -0.391022       -10.6403
  73   2.0000      -0.382945       -10.4205
  74   2.0000      -0.376880       -10.2554
  75   2.0000      -0.373895       -10.1742
  76   2.0000      -0.367104        -9.9894
  77   2.0000      -0.354773        -9.6539
  78   2.0000      -0.352204        -9.5840
  79   2.0000      -0.351481        -9.5643
  80   2.0000      -0.344317        -9.3693
  81   2.0000      -0.341350        -9.2886
  82   2.0000      -0.336270        -9.1504
  83   2.0000      -0.333580        -9.0772
  84   2.0000      -0.328438        -8.9372
  85   2.0000      -0.322900        -8.7866
  86   2.0000      -0.307476        -8.3669
  87   2.0000      -0.297943        -8.1074
  88   2.0000      -0.297097        -8.0844
  89   2.0000      -0.293540        -7.9876
  90   2.0000      -0.283294        -7.7088
  91   2.0000      -0.272205        -7.4071
  92   2.0000      -0.267393        -7.2761
  93   2.0000      -0.264454        -7.1962
  94   2.0000      -0.261076        -7.1042
  95   2.0000      -0.229333        -6.2405
  96   2.0000      -0.220094        -5.9891
  97   2.0000      -0.210822        -5.7367
  98   2.0000      -0.205920        -5.6034
  99   2.0000      -0.198846        -5.4109
 100   2.0000      -0.196702        -5.3525
 101   0.0000      -0.046321        -1.2605
 102   0.0000      -0.025148        -0.6843
 103   0.0000      -0.007480        -0.2035
 104   0.0000       0.001280         0.0348
 105   0.0000       0.009098         0.2476

MULLIKEN ATOMIC CHARGES
-----------------------
   0 C :   -0.312191
   1 C :   -0.007677
   2 O :   -0.388312
   3 P :    0.618364
   4 S :   -0.319760
   5 O :   -0.362669
   6 C :   -0.008984
   7 C :   -0.279161
   8 S :   -0.054280
   9 C :   -0.341727
  10 S :   -0.082254
  11 P :    0.613102
  12 S :   -0.337799
  13 O :   -0.357893
  14 C :   -0.003554
  15 C :   -0.302109
  16 O :   -0.379702
  17 C :   -0.009568
  18 C :   -0.281734
  19 H :    0.113998
  20 H :    0.111969
  21 H :    0.129015
  22 H :    0.112261
  23 H :    0.103286
  24 H :    0.098573
  25 H :    0.104655
  26 H :    0.116603
  27 H :    0.106389
  28 H :    0.123936
  29 H :    0.180740
  30 H :    0.193497
  31 H :    0.098093
  32 H :    0.104136
  33 H :    0.121111
  34 H :    0.127199
  35 H :    0.101977
  36 H :    0.105930
  37 H :    0.099411
  38 H :    0.117650
  39 H :    0.111564
  40 H :    0.115916
Sum of atomic charges:    0.0000000

LOEWDIN ATOMIC CHARGES
----------------------
   0 C :   -0.367017
   1 C :   -0.122875
   2 O :   -0.254719
   3 P :    0.565128
   4 S :   -0.316457
   5 O :   -0.238913
   6 C :   -0.113834
   7 C :   -0.351531
   8 S :    0.124943
   9 C :   -0.471246
  10 S :    0.089558
  11 P :    0.564573
  12 S :   -0.332914
  13 O :   -0.238255
  14 C :   -0.111376
  15 C :   -0.368066
  16 O :   -0.252477
  17 C :   -0.121829
  18 C :   -0.350788
  19 H :    0.131448
  20 H :    0.122343
  21 H :    0.122270
  22 H :    0.110026
  23 H :    0.117201
  24 H :    0.109886
  25 H :    0.109254
  26 H :    0.124532
  27 H :    0.127515
  28 H :    0.129296
  29 H :    0.132584
  30 H :    0.138491
  31 H :    0.106599
  32 H :    0.116910
  33 H :    0.118938
  34 H :    0.123591
  35 H :    0.126165
  36 H :    0.106592
  37 H :    0.110009
  38 H :    0.127519
  39 H :    0.130625
  40 H :    0.126300

  Mayer bond orders larger than 0.100000
B(  0-C ,  1-C ) :   1.1623 B(  0-C , 19-H ) :   0.9386 B(  0-C , 20-H ) :   0.9471
B(  0-C , 21-H ) :   0.9350 B(  1-C ,  2-O ) :   0.9136 B(  1-C , 22-H ) :   0.9133
B(  1-C , 23-H ) :   0.9338 B(  2-O ,  3-P ) :   1.0600 B(  3-P ,  4-S ) :   1.6329
B(  3-P ,  5-O ) :   1.1287 B(  3-P ,  8-S ) :   0.9698 B(  5-O ,  6-C ) :   0.9005
B(  6-C ,  7-C ) :   1.1608 B(  6-C , 24-H ) :   0.9287 B(  6-C , 25-H ) :   0.9179
B(  7-C , 26-H ) :   0.9490 B(  7-C , 27-H ) :   0.9406 B(  7-C , 28-H ) :   0.9474
B(  8-S ,  9-C ) :   1.0005 B(  9-C , 10-S ) :   0.9857 B(  9-C , 29-H ) :   0.8993
B(  9-C , 30-H ) :   0.8994 B( 10-S , 11-P ) :   0.9861 B( 10-S , 12-S ) :   0.1133
B( 11-P , 12-S ) :   1.5950 B( 11-P , 13-O ) :   1.1296 B( 11-P , 16-O ) :   1.1034
B( 13-O , 14-C ) :   0.8929 B( 14-C , 15-C ) :   1.1724 B( 14-C , 31-H ) :   0.9147
B( 14-C , 32-H ) :   0.9328 B( 15-C , 33-H ) :   0.9287 B( 15-C , 34-H ) :   0.9363
B( 15-C , 35-H ) :   0.9390 B( 16-O , 17-C ) :   0.9063 B( 17-C , 18-C ) :   1.1610
B( 17-C , 36-H ) :   0.9043 B( 17-C , 37-H ) :   0.9311 B( 18-C , 38-H ) :   0.9512
B( 18-C , 39-H ) :   0.9421 B( 18-C , 40-H ) :   0.9508

Dispersion correction           -0.066165581
FINAL SINGLE POINT ENERGY     -2929.522391469647

DIPOLE MOMENT
-------------

Method             : SCF
Type of density    : Electron Density
Multiplicity       :   1
Irrep              :   0
Energy             : -2929.6406023393938085 Eh
Relativity type    :
Basis              : AO
                                X                 Y                 Z
Electronic contribution:      3.351164134       1.656014755      -7.975274271
Nuclear contribution   :     -3.121926440      -2.895149035       8.522827652
                        -----------------------------------------
Total Dipole Moment    :      0.229237694      -1.239134280       0.547553381
                        -----------------------------------------
Magnitude (a.u.)       :      1.373979035
Magnitude (Debye)      :      3.492377164

Rotational constants in cm-1:             0.013030             0.005048             0.004914
Rotational constants in MHz :           390.622416           151.326437           147.329310

                             ****ORCA TERMINATED NORMALLY****
TOTAL RUN TIME: 0 days 0 hours 0 minutes 21 seconds 383 msec
