                         Program Version 6.0.0  -   RELEASE  -
|  1> ! pbe def2-sv(p) def2/J RI DEFGRID1 loosescf d4 GCP(DFT/SV(P)) printgap
|  2> %output
|  3>     printlevel normal
|  4> end
|  5> * xyz 0 1
|  6> C 2.4956072457 0.6463354963 -3.0068113017
|  7> C 2.2281629909 -0.7762549734 -2.5587274673
|  8> O 1.4709495424 -0.8245231891 -1.3289869066
|  9> P 2.0566022587 -0.4348245636 0.0923159696
| 10> S 2.4847135567 1.4340543155 0.5263254925
| 11> O 3.3281722793 -1.3937325629 0.1404869646
| 12> C 4.3836354125 -1.2225424491 1.1007341691
| 13> C 3.926723944 -1.5367028982 2.5105169811
| 14> S 0.6133088235 -1.3724388168 1.3145190699
| 15> C -0.1225515344 0.0859183262 2.1281182233
| 16> S -1.9244081684 0.133798812 1.9917134408
| 17> P -2.1028784212 0.3431683572 -0.095570966
| 18> S -0.8026316348 1.4854295753 -1.0301767977
| 19> O -3.6369509773 0.7058842743 -0.2946535903
| 20> C -4.3532453668 1.7407938318 0.4039230564
| 21> C -3.6560760483 3.0841574689 0.346493717
| 22> O -2.0848284204 -1.1722586905 -0.5621900451
| 23> C -1.7875204792 -1.5668341892 -1.913093533
| 24> C -2.9137967581 -1.1990289931 -2.8555725852
| 25> H 2.931950767 0.6373506389 -4.0003908856
| 26> H 1.5661300908 1.2127079387 -3.0243389286
| 27> H 3.1807530192 1.1405548264 -2.3203346254
| 28> H 3.1589894029 -1.3299120521 -2.4156100412
| 29> H 1.5902628122 -1.3027529243 -3.2714422557
| 30> H 5.1588031963 -1.91197436 0.7636471398
| 31> H 4.7446543763 -0.1911030984 1.0362454219
| 32> H 3.2078271356 -0.7878777802 2.8404171922
| 33> H 3.4567414305 -2.5161984886 2.5467098342
| 34> H 4.7826545494 -1.5203521911 3.1773471699
| 35> H 0.3155462917 0.9861966081 1.6860716193
| 36> H 0.0862865913 0.0320300459 3.1936184135
| 37> H -5.3189696925 1.7705872083 -0.1039204657
| 38> H -4.4877089556 1.4184217359 1.4400775532
| 39> H -2.7018683673 3.0354824681 0.8702846449
| 40> H -3.4664482201 3.3715530803 -0.6852292251
| 41> H -4.2801108396 3.8351566826 0.820051531
| 42> H -0.8524415131 -1.0852017817 -2.2166921593
| 43> H -1.6416736536 -2.645862552 -1.8457402009
| 44> H -3.0200655038 -0.115050376 -2.8903307302
| 45> H -2.6896053148 -1.5679247418 -3.8515171568
| 46> H -3.8483771699 -1.6307871689 -2.5078666474
| 47> *
| 48>
| 49>                          ****END OF INPUT****

CARTESIAN COORDINATES (ANGSTROEM)
---------------------------------
  C      2.495607    0.646335   -3.006811
  C      2.228163   -0.776255   -2.558727
  O      1.470950   -0.824523   -1.328987
  P      2.056602   -0.434825    0.092316
  S      2.484714    1.434054    0.526325
  O      3.328172   -1.393733    0.140487
  C      4.383635   -1.222542    1.100734
  C      3.926724   -1.536703    2.510517
  S      0.613309   -1.372439    1.314519
  C     -0.122552    0.085918    2.128118
  S     -1.924408    0.133799    1.991713
  P     -2.102878    0.343168   -0.095571
  S     -0.802632    1.485430   -1.030177
  O     -3.636951    0.705884   -0.294654
  C     -4.353245    1.740794    0.403923
  C     -3.656076    3.084157    0.346494
  O     -2.084828   -1.172259   -0.562190
  C     -1.787520   -1.566834   -1.913094
  C     -2.913797   -1.199029   -2.855573
  H      2.931951    0.637351   -4.000391
  H      1.566130    1.212708   -3.024339
  H      3.180753    1.140555   -2.320335
  H      3.158989   -1.329912   -2.415610
  H      1.590263   -1.302753   -3.271442
  H      5.158803   -1.911974    0.763647
  H      4.744654   -0.191103    1.036245
  H      3.207827   -0.787878    2.840417
  H      3.456741   -2.516198    2.546710
  H      4.782655   -1.520352    3.177347
  H      0.315546    0.986197    1.686072
  H      0.086287    0.032030    3.193618
  H     -5.318970    1.770587   -0.103920
  H     -4.487709    1.418422    1.440078
  H     -2.701868    3.035482    0.870285
  H     -3.466448    3.371553   -0.685229
  H     -4.280111    3.835157    0.820052
  H     -0.852442   -1.085202   -2.216692
  H     -1.641674   -2.645863   -1.845740
  H     -3.020066   -0.115050   -2.890331
  H     -2.689605   -1.567925   -3.851517
  H     -3.848377   -1.630787   -2.507867

 Total Charge           Charge          ....    0
 Multiplicity           Mult            ....    1
 Number of Electrons    NEL             ....  202
 Basis Dimension        Dim             ....  334

ORBITAL ENERGIES
----------------

  NO   OCC          E(Eh)            E(eV)
   0   2.0000     -88.043583     -2395.7877
   1   2.0000     -88.040260     -2395.6973
   2   2.0000     -87.984870     -2394.1900
   3   2.0000     -87.978424     -2394.0146
   4   2.0000     -76.424769     -2079.6237
   5   2.0000     -76.421804     -2079.5430
   6   2.0000     -18.791466      -511.3418
   7   2.0000     -18.789224      -511.2808
   8   2.0000     -18.786811      -511.2151
   9   2.0000     -18.779622      -511.0195
  10   2.0000      -9.956065      -270.9183
  11   2.0000      -9.953843      -270.8578
  12   2.0000      -9.951497      -270.7940
  13   2.0000      -9.950338      -270.7625
  14   2.0000      -9.941548      -270.5233
  15   2.0000      -9.882787      -268.9243
  16   2.0000      -9.880685      -268.8671
  17   2.0000      -9.877258      -268.7739
  18   2.0000      -9.875919      -268.7374
  19   2.0000      -7.689130      -209.2319
  20   2.0000      -7.685260      -209.1266
  21   2.0000      -7.629763      -207.6164
  22   2.0000      -7.623101      -207.4351
  23   2.0000      -6.422004      -174.7516
  24   2.0000      -6.418996      -174.6698
  25   2.0000      -5.717026      -155.5682
  26   2.0000      -5.713456      -155.4711
  27   2.0000      -5.713170      -155.4633
  28   2.0000      -5.709881      -155.3738
  29   2.0000      -5.706190      -155.2733
  30   2.0000      -5.702059      -155.1609
  31   2.0000      -5.658613      -153.9787
  32   2.0000      -5.651947      -153.7973
  33   2.0000      -5.650605      -153.7608
  34   2.0000      -5.649752      -153.7376
  35   2.0000      -5.643954      -153.5798
  36   2.0000      -5.643130      -153.5574
  37   2.0000      -4.644694      -126.3885
  38   2.0000      -4.643497      -126.3560
  39   2.0000      -4.642641      -126.3327
  40   2.0000      -4.641493      -126.3014
  41   2.0000      -4.640962      -126.2870
  42   2.0000      -4.639398      -126.2444
  43   2.0000      -0.985280       -26.8108
  44   2.0000      -0.980618       -26.6840
  45   2.0000      -0.940772       -25.5997
  46   2.0000      -0.938838       -25.5471
  47   2.0000      -0.761756       -20.7284
  48   2.0000      -0.718574       -19.5534
  49   2.0000      -0.705049       -19.1854
  50   2.0000      -0.685594       -18.6560
  51   2.0000      -0.682905       -18.5828
  52   2.0000      -0.672263       -18.2932
  53   2.0000      -0.650210       -17.6931
  54   2.0000      -0.633130       -17.2283
  55   2.0000      -0.597064       -16.2469
  56   2.0000      -0.589061       -16.0292
  57   2.0000      -0.574649       -15.6370
  58   2.0000      -0.570124       -15.5139
  59   2.0000      -0.558532       -15.1984
  60   2.0000      -0.496597       -13.5131
  61   2.0000      -0.488108       -13.2821
  62   2.0000      -0.466462       -12.6931
  63   2.0000      -0.464775       -12.6472
  64   2.0000      -0.452594       -12.3157
  65   2.0000      -0.450114       -12.2482
  66   2.0000      -0.431799       -11.7499
  67   2.0000      -0.431009       -11.7283
  68   2.0000      -0.425761       -11.5855
  69   2.0000      -0.415162       -11.2971
  70   2.0000      -0.411171       -11.1885
  71   2.0000      -0.404150       -10.9975
  72   2.0000      -0.388364       -10.5679
  73   2.0000      -0.385283       -10.4841
  74   2.0000      -0.383524       -10.4362
  75   2.0000      -0.368742       -10.0340
  76   2.0000      -0.366723        -9.9790
  77   2.0000      -0.351161        -9.5556
  78   2.0000      -0.345089        -9.3903
  79   2.0000      -0.343749        -9.3539
  80   2.0000      -0.342727        -9.3261
  81   2.0000      -0.341452        -9.2914
  82   2.0000      -0.337455        -9.1826
  83   2.0000      -0.333674        -9.0797
  84   2.0000      -0.331449        -9.0192
  85   2.0000      -0.311899        -8.4872
  86   2.0000      -0.310209        -8.4412
  87   2.0000      -0.294826        -8.0226
  88   2.0000      -0.293019        -7.9735
  89   2.0000      -0.286451        -7.7947
  90   2.0000      -0.281669        -7.6646
  91   2.0000      -0.272568        -7.4170
  92   2.0000      -0.266404        -7.2492
  93   2.0000      -0.261672        -7.1205
  94   2.0000      -0.256705        -6.9853
  95   2.0000      -0.231937        -6.3113
  96   2.0000      -0.220332        -5.9956
  97   2.0000      -0.213323        -5.8048
  98   2.0000      -0.198719        -5.4074
  99   2.0000      -0.191756        -5.2180
 100   2.0000      -0.184161        -5.0113
 101   0.0000      -0.039855        -1.0845
 102   0.0000      -0.032731        -0.8907
 103   0.0000      -0.011290        -0.3072
 104   0.0000       0.014453         0.3933
 105   0.0000       0.017803         0.4844

MULLIKEN ATOMIC CHARGES
-----------------------
   0 C :   -0.316356
   1 C :   -0.001921
   2 O :   -0.362780
   3 P :    0.632027
   4 S :   -0.312324
   5 O :   -0.381623
   6 C :   -0.002720
   7 C :   -0.308926
   8 S :   -0.084399
   9 C :   -0.355723
  10 S :   -0.101443
  11 P :    0.608300
  12 S :   -0.316497
  13 O :   -0.375495
  14 C :   -0.011987
  15 C :   -0.309902
  16 O :   -0.356809
  17 C :   -0.030776
  18 C :   -0.300047
  19 H :    0.105330
  20 H :    0.133735
  21 H :    0.126205
  22 H :    0.107076
  23 H :    0.103373
  24 H :    0.101983
  25 H :    0.109866
  26 H :    0.117636
  27 H :    0.118025
  28 H :    0.111563
  29 H :    0.210911
  30 H :    0.180495
  31 H :    0.108766
  32 H :    0.113382
  33 H :    0.127591
  34 H :    0.125840
  35 H :    0.109968
  36 H :    0.138206
  37 H :    0.100754
  38 H :    0.120462
  39 H :    0.105171
  40 H :    0.113061
Sum of atomic charges:   -0.0000000

LOEWDIN ATOMIC CHARGES
----------------------
   0 C :   -0.368239
   1 C :   -0.110439
   2 O :   -0.235641
   3 P :    0.573867
   4 S :   -0.297100
   5 O :   -0.248225
   6 C :   -0.121479
   7 C :   -0.368332
   8 S :    0.090569
   9 C :   -0.478720
  10 S :    0.081829
  11 P :    0.564629
  12 S :   -0.305432
  13 O :   -0.246521
  14 C :   -0.114085
  15 C :   -0.370019
  16 O :   -0.238331
  17 C :   -0.121591
  18 C :   -0.364109
  19 H :    0.126880
  20 H :    0.129903
  21 H :    0.121754
  22 H :    0.110671
  23 H :    0.115228
  24 H :    0.116881
  25 H :    0.108913
  26 H :    0.118608
  27 H :    0.124574
  28 H :    0.129989
  29 H :    0.125271
  30 H :    0.134689
  31 H :    0.121308
  32 H :    0.109059
  33 H :    0.121664
  34 H :    0.129576
  35 H :    0.129235
  36 H :    0.111963
  37 H :    0.117384
  38 H :    0.122284
  39 H :    0.126871
  40 H :    0.124665

  Mayer bond orders larger than 0.100000
B(  0-C ,  1-C ) :   1.1686 B(  0-C , 19-H ) :   0.9372 B(  0-C , 20-H ) :   0.9413
B(  0-C , 21-H ) :   0.9350 B(  1-C ,  2-O ) :   0.9021 B(  1-C , 22-H ) :   0.9275
B(  1-C , 23-H ) :   0.9304 B(  2-O ,  3-P ) :   1.1238 B(  3-P ,  4-S ) :   1.5979
B(  3-P ,  5-O ) :   1.0836 B(  3-P ,  8-S ) :   0.9675 B(  4-S ,  8-S ) :   0.1240
B(  5-O ,  6-C ) :   0.9134 B(  6-C ,  7-C ) :   1.1659 B(  6-C , 24-H ) :   0.9331
B(  6-C , 25-H ) :   0.9128 B(  7-C , 26-H ) :   0.9371 B(  7-C , 27-H ) :   0.9442
B(  7-C , 28-H ) :   0.9383 B(  8-S ,  9-C ) :   0.9989 B(  9-C , 10-S ) :   1.0055
B(  9-C , 29-H ) :   0.8463 B(  9-C , 30-H ) :   0.9107 B( 10-S , 11-P ) :   0.9458
B( 10-S , 12-S ) :   0.1108 B( 11-P , 12-S ) :   1.6254 B( 11-P , 13-O ) :   1.0988
B( 11-P , 16-O ) :   1.1281 B( 13-O , 14-C ) :   0.9169 B( 14-C , 15-C ) :   1.1637
B( 14-C , 31-H ) :   0.9343 B( 14-C , 32-H ) :   0.9282 B( 15-C , 33-H ) :   0.9329
B( 15-C , 34-H ) :   0.9423 B( 15-C , 35-H ) :   0.9347 B( 16-O , 17-C ) :   0.9074
B( 17-C , 18-C ) :   1.1582 B( 17-C , 36-H ) :   0.9023 B( 17-C , 37-H ) :   0.9351
B( 18-C , 38-H ) :   0.9363 B( 18-C , 39-H ) :   0.9403 B( 18-C , 40-H ) :   0.9458

Dispersion correction           -0.067901711
FINAL SINGLE POINT ENERGY     -2929.516615427675

DIPOLE MOMENT
-------------

Method             : SCF
Type of density    : Electron Density
Multiplicity       :   1
Irrep              :   0
Energy             : -2929.6343937499714229 Eh
Relativity type    :
Basis              : AO
                                X                 Y                 Z
Electronic contribution:     -1.796162406      -1.437465400      10.079163039
Nuclear contribution   :      1.774450110       0.776894084     -10.202241511
                        -----------------------------------------
Total Dipole Moment    :     -0.021712296      -0.660571316      -0.123078472
                        -----------------------------------------
Magnitude (a.u.)       :      0.672290263
Magnitude (Debye)      :      1.708826046

Rotational constants in cm-1:             0.012423             0.005508             0.004932
Rotational constants in MHz :           372.442711           165.132371           147.862909

                             ****ORCA TERMINATED NORMALLY****
TOTAL RUN TIME: 0 days 0 hours 0 minutes 21 seconds 643 msec
