                         Program Version 6.0.0  -   RELEASE  -
|  1> ! pbe def2-sv(p) def2/J RI DEFGRID1 loosescf d4 GCP(DFT/SV(P)) printgap
|  2> %output
|  3>     printlevel normal
|  4> end
|  5> * xyz 0 1
|  6> C 4.0740667655 0.0379547665 2.3246021265
|  7> C 4.8496176849 -0.1710490808 1.0420231327
|  8> O 4.1098008593 -0.948288889 0.0664136305
|  9> P 2.7353595177 -0.5458296842 -0.5837023842
| 10> S 2.4304838481 -1.4967627717 -2.2686643837
| 11> O 2.9035391451 1.0364028572 -0.7097008743
| 12> C 1.9743392193 1.8897267358 -1.3972294821
| 13> C 1.0847445733 2.6179110792 -0.4077215106
| 14> S 1.2578338556 -0.9079396086 0.9178403215
| 15> C -0.0322936753 -1.6193184924 -0.1263675188
| 16> S -0.8139424455 -0.4050586253 -1.2365675279
| 17> P -2.2783788994 0.3353740493 0.1042841314
| 18> S -3.2052585436 1.9476516001 -0.5045933569
| 19> O -1.4445005816 0.4557732593 1.441389581
| 20> C -1.8340828997 1.3563320337 2.5006138075
| 21> C -3.1020381554 0.8892407387 3.1818887339
| 22> O -3.176621611 -0.9480291778 0.4286764353
| 23> C -4.1414921709 -1.4422135737 -0.5175460505
| 24> C -5.5176279894 -0.8707875113 -0.2353725067
| 25> H 4.7068083617 0.5514531298 3.041956108
| 26> H 3.1892385463 0.6433120571 2.1359039331
| 27> H 3.7611766485 -0.9165153785 2.7399599093
| 28> H 5.7459474749 -0.7711388375 1.2054713686
| 29> H 5.1176921797 0.7828735695 0.5844750651
| 30> H 2.5949822613 2.5928587676 -1.9561280051
| 31> H 1.3858323368 1.2934053177 -2.1024870388
| 32> H 1.6879868298 3.2046067497 0.2789490666
| 33> H 0.4113270908 3.275321865 -0.9495954774
| 34> H 0.4894308844 1.9104869192 0.1667638853
| 35> H -0.7814618593 -2.0399563162 0.5391858673
| 36> H 0.4070592143 -2.3751689297 -0.7761759959
| 37> H -0.9782387423 1.3464470508 3.1764792916
| 38> H -1.969584714 2.3557318994 2.0756015093
| 39> H -3.3239738204 1.5419752916 4.020108749
| 40> H -3.9305919816 0.9251082457 2.4754941474
| 41> H -2.9853937777 -0.1311124383 3.5368943963
| 42> H -3.8142084322 -1.1909687054 -1.5321234003
| 43> H -4.129799446 -2.5267039942 -0.3907384934
| 44> H -5.8159953356 -1.1020615029 0.7833163757
| 45> H -5.5101507348 0.2093072555 -0.3650091695
| 46> H -6.2333258846 -1.3039048635 -0.926622929
| 47> *
| 48>
| 49>                          ****END OF INPUT****

CARTESIAN COORDINATES (ANGSTROEM)
---------------------------------
  C      4.074067    0.037955    2.324602
  C      4.849618   -0.171049    1.042023
  O      4.109801   -0.948289    0.066414
  P      2.735360   -0.545830   -0.583702
  S      2.430484   -1.496763   -2.268664
  O      2.903539    1.036403   -0.709701
  C      1.974339    1.889727   -1.397229
  C      1.084745    2.617911   -0.407722
  S      1.257834   -0.907940    0.917840
  C     -0.032294   -1.619318   -0.126368
  S     -0.813942   -0.405059   -1.236568
  P     -2.278379    0.335374    0.104284
  S     -3.205259    1.947652   -0.504593
  O     -1.444501    0.455773    1.441390
  C     -1.834083    1.356332    2.500614
  C     -3.102038    0.889241    3.181889
  O     -3.176622   -0.948029    0.428676
  C     -4.141492   -1.442214   -0.517546
  C     -5.517628   -0.870788   -0.235373
  H      4.706808    0.551453    3.041956
  H      3.189239    0.643312    2.135904
  H      3.761177   -0.916515    2.739960
  H      5.745947   -0.771139    1.205471
  H      5.117692    0.782874    0.584475
  H      2.594982    2.592859   -1.956128
  H      1.385832    1.293405   -2.102487
  H      1.687987    3.204607    0.278949
  H      0.411327    3.275322   -0.949595
  H      0.489431    1.910487    0.166764
  H     -0.781462   -2.039956    0.539186
  H      0.407059   -2.375169   -0.776176
  H     -0.978239    1.346447    3.176479
  H     -1.969585    2.355732    2.075602
  H     -3.323974    1.541975    4.020109
  H     -3.930592    0.925108    2.475494
  H     -2.985394   -0.131112    3.536894
  H     -3.814208   -1.190969   -1.532123
  H     -4.129799   -2.526704   -0.390738
  H     -5.815995   -1.102062    0.783316
  H     -5.510151    0.209307   -0.365009
  H     -6.233326   -1.303905   -0.926623

 Total Charge           Charge          ....    0
 Multiplicity           Mult            ....    1
 Number of Electrons    NEL             ....  202
 Basis Dimension        Dim             ....  334

ORBITAL ENERGIES
----------------

  NO   OCC          E(Eh)            E(eV)
   0   2.0000     -88.043943     -2395.7975
   1   2.0000     -88.041524     -2395.7317
   2   2.0000     -87.992484     -2394.3972
   3   2.0000     -87.984558     -2394.1815
   4   2.0000     -76.430031     -2079.7669
   5   2.0000     -76.426704     -2079.6763
   6   2.0000     -18.798246      -511.5263
   7   2.0000     -18.795754      -511.4585
   8   2.0000     -18.792815      -511.3785
   9   2.0000     -18.790933      -511.3273
  10   2.0000      -9.959877      -271.0220
  11   2.0000      -9.958051      -270.9723
  12   2.0000      -9.957197      -270.9491
  13   2.0000      -9.955081      -270.8915
  14   2.0000      -9.946773      -270.6655
  15   2.0000      -9.893946      -269.2280
  16   2.0000      -9.888873      -269.0899
  17   2.0000      -9.883681      -268.9486
  18   2.0000      -9.876626      -268.7567
  19   2.0000      -7.688535      -209.2157
  20   2.0000      -7.686089      -209.1491
  21   2.0000      -7.637591      -207.8294
  22   2.0000      -7.629793      -207.6172
  23   2.0000      -6.427581      -174.9034
  24   2.0000      -6.424004      -174.8060
  25   2.0000      -5.716744      -155.5605
  26   2.0000      -5.714010      -155.4861
  27   2.0000      -5.712836      -155.4542
  28   2.0000      -5.710575      -155.3927
  29   2.0000      -5.705466      -155.2536
  30   2.0000      -5.703145      -155.1905
  31   2.0000      -5.666477      -154.1927
  32   2.0000      -5.658853      -153.9852
  33   2.0000      -5.658327      -153.9709
  34   2.0000      -5.657682      -153.9533
  35   2.0000      -5.650271      -153.7517
  36   2.0000      -5.649924      -153.7422
  37   2.0000      -4.650047      -126.5342
  38   2.0000      -4.649558      -126.5209
  39   2.0000      -4.647943      -126.4770
  40   2.0000      -4.646924      -126.4492
  41   2.0000      -4.645594      -126.4130
  42   2.0000      -4.644362      -126.3795
  43   2.0000      -0.992627       -27.0108
  44   2.0000      -0.987782       -26.8789
  45   2.0000      -0.951001       -25.8781
  46   2.0000      -0.942770       -25.6541
  47   2.0000      -0.763249       -20.7691
  48   2.0000      -0.724043       -19.7022
  49   2.0000      -0.712308       -19.3829
  50   2.0000      -0.690342       -18.7852
  51   2.0000      -0.689526       -18.7630
  52   2.0000      -0.675534       -18.3822
  53   2.0000      -0.656343       -17.8600
  54   2.0000      -0.637720       -17.3532
  55   2.0000      -0.600851       -16.3500
  56   2.0000      -0.595850       -16.2139
  57   2.0000      -0.576182       -15.6787
  58   2.0000      -0.571970       -15.5641
  59   2.0000      -0.562054       -15.2943
  60   2.0000      -0.505747       -13.7621
  61   2.0000      -0.497405       -13.5351
  62   2.0000      -0.480699       -13.0805
  63   2.0000      -0.474863       -12.9217
  64   2.0000      -0.463254       -12.6058
  65   2.0000      -0.448665       -12.2088
  66   2.0000      -0.443194       -12.0599
  67   2.0000      -0.437261       -11.8985
  68   2.0000      -0.425655       -11.5827
  69   2.0000      -0.423918       -11.5354
  70   2.0000      -0.410496       -11.1702
  71   2.0000      -0.405173       -11.0253
  72   2.0000      -0.394613       -10.7380
  73   2.0000      -0.388965       -10.5843
  74   2.0000      -0.382863       -10.4182
  75   2.0000      -0.372110       -10.1256
  76   2.0000      -0.364657        -9.9228
  77   2.0000      -0.360581        -9.8119
  78   2.0000      -0.359032        -9.7698
  79   2.0000      -0.354318        -9.6415
  80   2.0000      -0.350086        -9.5263
  81   2.0000      -0.346181        -9.4201
  82   2.0000      -0.343926        -9.3587
  83   2.0000      -0.335200        -9.1213
  84   2.0000      -0.333263        -9.0685
  85   2.0000      -0.323986        -8.8161
  86   2.0000      -0.314984        -8.5711
  87   2.0000      -0.300372        -8.1735
  88   2.0000      -0.298531        -8.1235
  89   2.0000      -0.296517        -8.0686
  90   2.0000      -0.288976        -7.8634
  91   2.0000      -0.280061        -7.6209
  92   2.0000      -0.275780        -7.5044
  93   2.0000      -0.265927        -7.2363
  94   2.0000      -0.256344        -6.9755
  95   2.0000      -0.234970        -6.3939
  96   2.0000      -0.219720        -5.9789
  97   2.0000      -0.210325        -5.7232
  98   2.0000      -0.204771        -5.5721
  99   2.0000      -0.202826        -5.5192
 100   2.0000      -0.200555        -5.4574
 101   0.0000      -0.041495        -1.1291
 102   0.0000      -0.026247        -0.7142
 103   0.0000      -0.011545        -0.3142
 104   0.0000       0.002959         0.0805
 105   0.0000       0.004742         0.1290

MULLIKEN ATOMIC CHARGES
-----------------------
   0 C :   -0.338065
   1 C :    0.008139
   2 O :   -0.363537
   3 P :    0.612894
   4 S :   -0.311258
   5 O :   -0.387182
   6 C :   -0.006930
   7 C :   -0.319515
   8 S :   -0.108968
   9 C :   -0.337570
  10 S :   -0.060239
  11 P :    0.588587
  12 S :   -0.318653
  13 O :   -0.374927
  14 C :   -0.008028
  15 C :   -0.304614
  16 O :   -0.377124
  17 C :   -0.011224
  18 C :   -0.294086
  19 H :    0.118759
  20 H :    0.132170
  21 H :    0.130008
  22 H :    0.112488
  23 H :    0.113269
  24 H :    0.104373
  25 H :    0.116764
  26 H :    0.102911
  27 H :    0.114919
  28 H :    0.144650
  29 H :    0.181610
  30 H :    0.196838
  31 H :    0.106517
  32 H :    0.115825
  33 H :    0.113826
  34 H :    0.127621
  35 H :    0.116862
  36 H :    0.103358
  37 H :    0.106221
  38 H :    0.113048
  39 H :    0.130457
  40 H :    0.109806
Sum of atomic charges:    0.0000000

LOEWDIN ATOMIC CHARGES
----------------------
   0 C :   -0.372985
   1 C :   -0.106879
   2 O :   -0.237724
   3 P :    0.569856
   4 S :   -0.306734
   5 O :   -0.250097
   6 C :   -0.118754
   7 C :   -0.367897
   8 S :    0.080048
   9 C :   -0.481188
  10 S :    0.102385
  11 P :    0.565151
  12 S :   -0.317701
  13 O :   -0.238952
  14 C :   -0.114969
  15 C :   -0.364828
  16 O :   -0.252065
  17 C :   -0.118176
  18 C :   -0.363996
  19 H :    0.134312
  20 H :    0.118646
  21 H :    0.128720
  22 H :    0.123714
  23 H :    0.116422
  24 H :    0.117683
  25 H :    0.105566
  26 H :    0.119788
  27 H :    0.132117
  28 H :    0.114762
  29 H :    0.132691
  30 H :    0.132298
  31 H :    0.119275
  32 H :    0.112555
  33 H :    0.131700
  34 H :    0.123902
  35 H :    0.126612
  36 H :    0.108226
  37 H :    0.117906
  38 H :    0.124469
  39 H :    0.124388
  40 H :    0.129754

  Mayer bond orders larger than 0.100000
B(  0-C ,  1-C ) :   1.1703 B(  0-C , 19-H ) :   0.9351 B(  0-C , 20-H ) :   0.9310
B(  0-C , 21-H ) :   0.9413 B(  1-C ,  2-O ) :   0.8986 B(  1-C , 22-H ) :   0.9338
B(  1-C , 23-H ) :   0.9270 B(  2-O ,  3-P ) :   1.1443 B(  3-P ,  4-S ) :   1.6473
B(  3-P ,  5-O ) :   1.0731 B(  3-P ,  8-S ) :   0.9386 B(  4-S ,  8-S ) :   0.1145
B(  5-O ,  6-C ) :   0.9010 B(  6-C ,  7-C ) :   1.1669 B(  6-C , 24-H ) :   0.9344
B(  6-C , 25-H ) :   0.9042 B(  7-C , 26-H ) :   0.9453 B(  7-C , 27-H ) :   0.9384
B(  7-C , 28-H ) :   0.9246 B(  8-S ,  9-C ) :   1.0107 B(  9-C , 10-S ) :   0.9746
B(  9-C , 29-H ) :   0.8919 B(  9-C , 30-H ) :   0.8753 B( 10-S , 11-P ) :   0.9799
B( 11-P , 12-S ) :   1.6392 B( 11-P , 13-O ) :   1.0986 B( 11-P , 16-O ) :   1.0682
B( 13-O , 14-C ) :   0.8919 B( 14-C , 15-C ) :   1.1699 B( 14-C , 31-H ) :   0.9328
B( 14-C , 32-H ) :   0.9161 B( 15-C , 33-H ) :   0.9382 B( 15-C , 34-H ) :   0.9336
B( 15-C , 35-H ) :   0.9459 B( 16-O , 17-C ) :   0.9062 B( 17-C , 18-C ) :   1.1683
B( 17-C , 36-H ) :   0.9132 B( 17-C , 37-H ) :   0.9354 B( 18-C , 38-H ) :   0.9459
B( 18-C , 39-H ) :   0.9315 B( 18-C , 40-H ) :   0.9397

Dispersion correction           -0.065399239
FINAL SINGLE POINT ENERGY     -2929.521229756447

DIPOLE MOMENT
-------------

Method             : SCF
Type of density    : Electron Density
Multiplicity       :   1
Irrep              :   0
Energy             : -2929.6420712501089838 Eh
Relativity type    :
Basis              : AO
                                X                 Y                 Z
Electronic contribution:      9.572076973      -7.789067512     -15.510945251
Nuclear contribution   :     -9.721798772       7.970720299      17.199542433
                        -----------------------------------------
Total Dipole Moment    :     -0.149721799       0.181652787       1.688597182
                        -----------------------------------------
Magnitude (a.u.)       :      1.704926625
Magnitude (Debye)      :      4.333579085

Rotational constants in cm-1:             0.013610             0.004580             0.004294
Rotational constants in MHz :           408.022515           137.307235           128.734392

                             ****ORCA TERMINATED NORMALLY****
TOTAL RUN TIME: 0 days 0 hours 0 minutes 21 seconds 188 msec
