                         Program Version 6.0.0  -   RELEASE  -
|  1> ! pbe def2-sv(p) def2/J RI DEFGRID1 loosescf d4 GCP(DFT/SV(P)) printgap
|  2> %output
|  3>     printlevel normal
|  4> end
|  5> * xyz 0 1
|  6> C 2.7237176341 -3.3739994942 0.1558364504
|  7> C 1.6226965737 -2.8048330719 -0.7133975615
|  8> O 1.273369122 -1.4560680539 -0.3332141006
|  9> P 2.2665398004 -0.2400063339 -0.5498680805
| 10> S 3.3081649579 -0.2688717324 -2.2074453757
| 11> O 3.1296311609 -0.2686374069 0.793591708
| 12> C 4.3938173377 0.4061748775 0.8931917961
| 13> C 4.2320198008 1.9128607565 0.9262315373
| 14> S 0.900105194 1.3568932685 -0.3075657779
| 15> C 0.318113989 0.9798952339 1.376070876
| 16> S -0.9032791671 -0.3492398735 1.454380892
| 17> P -2.3500550596 0.5677900361 0.1891058873
| 18> S -2.5078111646 2.5119460483 0.3230531582
| 19> O -3.6437884066 -0.3186560552 0.4493541739
| 20> C -4.187987626 -0.6314919963 1.7466759478
| 21> C -4.4525964299 0.5996668141 2.5868947754
| 22> O -1.9848875784 0.1698190119 -1.2954251022
| 23> C -1.8446670653 -1.1955075982 -1.7490260894
| 24> C -3.0926698314 -1.6458306123 -2.4796536018
| 25> H 3.656637042 -2.8445014948 -0.030389387
| 26> H 2.4621797251 -3.2729913976 1.2058400224
| 27> H 2.8612590696 -4.4237831292 -0.0838108924
| 28> H 0.6898327507 -3.3576773251 -0.5944566537
| 29> H 1.9234340035 -2.7987533904 -1.7658988867
| 30> H 4.8266717319 0.0252367621 1.8191874382
| 31> H 5.0127523605 0.1090967426 0.0404817502
| 32> H 3.7987037443 2.2596318621 -0.0120043928
| 33> H 3.5820847234 2.2135967934 1.7440729224
| 34> H 5.2051215471 2.376017506 1.0543655718
| 35> H -0.1378164349 1.9031234996 1.7326063725
| 36> H 1.1548676109 0.6736447626 1.9986225479
| 37> H -5.113494438 -1.161595693 1.5149514064
| 38> H -3.490589142 -1.3034587507 2.2544323328
| 39> H -3.51630773 1.1030273006 2.822740327
| 40> H -5.0883342223 1.2978635578 2.0475870596
| 41> H -4.9411058308 0.3070228052 3.5107016826
| 42> H -0.9763038905 -1.1801782488 -2.4126549137
| 43> H -1.6344320811 -1.8366080749 -0.8876998703
| 44> H -2.9407531737 -2.6516103258 -2.8586160334
| 45> H -3.9449387849 -1.6370330382 -1.8053989419
| 46> H -3.2970954213 -0.975587531 -3.3100532375
| 47> *
| 48>
| 49>                          ****END OF INPUT****

CARTESIAN COORDINATES (ANGSTROEM)
---------------------------------
  C      2.723718   -3.373999    0.155836
  C      1.622697   -2.804833   -0.713398
  O      1.273369   -1.456068   -0.333214
  P      2.266540   -0.240006   -0.549868
  S      3.308165   -0.268872   -2.207445
  O      3.129631   -0.268637    0.793592
  C      4.393817    0.406175    0.893192
  C      4.232020    1.912861    0.926232
  S      0.900105    1.356893   -0.307566
  C      0.318114    0.979895    1.376071
  S     -0.903279   -0.349240    1.454381
  P     -2.350055    0.567790    0.189106
  S     -2.507811    2.511946    0.323053
  O     -3.643788   -0.318656    0.449354
  C     -4.187988   -0.631492    1.746676
  C     -4.452596    0.599667    2.586895
  O     -1.984888    0.169819   -1.295425
  C     -1.844667   -1.195508   -1.749026
  C     -3.092670   -1.645831   -2.479654
  H      3.656637   -2.844501   -0.030389
  H      2.462180   -3.272991    1.205840
  H      2.861259   -4.423783   -0.083811
  H      0.689833   -3.357677   -0.594457
  H      1.923434   -2.798753   -1.765899
  H      4.826672    0.025237    1.819187
  H      5.012752    0.109097    0.040482
  H      3.798704    2.259632   -0.012004
  H      3.582085    2.213597    1.744073
  H      5.205122    2.376018    1.054366
  H     -0.137816    1.903123    1.732606
  H      1.154868    0.673645    1.998623
  H     -5.113494   -1.161596    1.514951
  H     -3.490589   -1.303459    2.254432
  H     -3.516308    1.103027    2.822740
  H     -5.088334    1.297864    2.047587
  H     -4.941106    0.307023    3.510702
  H     -0.976304   -1.180178   -2.412655
  H     -1.634432   -1.836608   -0.887700
  H     -2.940753   -2.651610   -2.858616
  H     -3.944939   -1.637033   -1.805399
  H     -3.297095   -0.975588   -3.310053

 Total Charge           Charge          ....    0
 Multiplicity           Mult            ....    1
 Number of Electrons    NEL             ....  202
 Basis Dimension        Dim             ....  334

ORBITAL ENERGIES
----------------

  NO   OCC          E(Eh)            E(eV)
   0   2.0000     -88.042912     -2395.7694
   1   2.0000     -88.042214     -2395.7504
   2   2.0000     -87.990225     -2394.3357
   3   2.0000     -87.981935     -2394.1102
   4   2.0000     -76.427391     -2079.6950
   5   2.0000     -76.426097     -2079.6598
   6   2.0000     -18.797552      -511.5074
   7   2.0000     -18.797190      -511.4976
   8   2.0000     -18.793115      -511.3867
   9   2.0000     -18.786609      -511.2096
  10   2.0000      -9.961215      -271.0584
  11   2.0000      -9.958269      -270.9783
  12   2.0000      -9.956865      -270.9401
  13   2.0000      -9.955756      -270.9099
  14   2.0000      -9.950520      -270.7674
  15   2.0000      -9.889070      -269.0953
  16   2.0000      -9.886993      -269.0388
  17   2.0000      -9.884820      -268.9796
  18   2.0000      -9.883378      -268.9404
  19   2.0000      -7.687923      -209.1990
  20   2.0000      -7.687024      -209.1745
  21   2.0000      -7.635344      -207.7683
  22   2.0000      -7.627288      -207.5490
  23   2.0000      -6.425282      -174.8408
  24   2.0000      -6.423083      -174.7810
  25   2.0000      -5.715615      -155.5298
  26   2.0000      -5.715329      -155.5220
  27   2.0000      -5.712441      -155.4434
  28   2.0000      -5.711399      -155.4151
  29   2.0000      -5.705073      -155.2429
  30   2.0000      -5.703728      -155.2063
  31   2.0000      -5.664221      -154.1313
  32   2.0000      -5.656398      -153.9184
  33   2.0000      -5.656016      -153.9080
  34   2.0000      -5.655522      -153.8946
  35   2.0000      -5.647813      -153.6848
  36   2.0000      -5.647314      -153.6712
  37   2.0000      -4.647702      -126.4704
  38   2.0000      -4.647271      -126.4587
  39   2.0000      -4.645966      -126.4232
  40   2.0000      -4.645630      -126.4140
  41   2.0000      -4.645127      -126.4003
  42   2.0000      -4.643098      -126.3451
  43   2.0000      -0.990219       -26.9452
  44   2.0000      -0.988086       -26.8872
  45   2.0000      -0.949763       -25.8444
  46   2.0000      -0.943651       -25.6780
  47   2.0000      -0.764762       -20.8102
  48   2.0000      -0.722377       -19.6569
  49   2.0000      -0.710731       -19.3400
  50   2.0000      -0.691322       -18.8118
  51   2.0000      -0.690941       -18.8015
  52   2.0000      -0.676753       -18.4154
  53   2.0000      -0.654359       -17.8060
  54   2.0000      -0.639346       -17.3975
  55   2.0000      -0.601644       -16.3716
  56   2.0000      -0.590148       -16.0587
  57   2.0000      -0.577040       -15.7021
  58   2.0000      -0.572240       -15.5714
  59   2.0000      -0.568989       -15.4830
  60   2.0000      -0.503587       -13.7033
  61   2.0000      -0.495871       -13.4933
  62   2.0000      -0.477406       -12.9909
  63   2.0000      -0.474056       -12.8997
  64   2.0000      -0.463747       -12.6192
  65   2.0000      -0.447740       -12.1836
  66   2.0000      -0.444172       -12.0865
  67   2.0000      -0.435477       -11.8499
  68   2.0000      -0.433190       -11.7877
  69   2.0000      -0.416835       -11.3427
  70   2.0000      -0.410890       -11.1809
  71   2.0000      -0.403367       -10.9762
  72   2.0000      -0.398215       -10.8360
  73   2.0000      -0.394174       -10.7260
  74   2.0000      -0.383726       -10.4417
  75   2.0000      -0.371484       -10.1086
  76   2.0000      -0.365986        -9.9590
  77   2.0000      -0.358329        -9.7506
  78   2.0000      -0.355006        -9.6602
  79   2.0000      -0.352528        -9.5928
  80   2.0000      -0.350296        -9.5320
  81   2.0000      -0.347962        -9.4685
  82   2.0000      -0.344477        -9.3737
  83   2.0000      -0.339513        -9.2386
  84   2.0000      -0.332073        -9.0362
  85   2.0000      -0.325269        -8.8510
  86   2.0000      -0.318077        -8.6553
  87   2.0000      -0.298686        -8.1277
  88   2.0000      -0.297808        -8.1038
  89   2.0000      -0.293022        -7.9735
  90   2.0000      -0.286245        -7.7891
  91   2.0000      -0.277683        -7.5561
  92   2.0000      -0.276088        -7.5127
  93   2.0000      -0.267952        -7.2913
  94   2.0000      -0.258623        -7.0375
  95   2.0000      -0.230816        -6.2808
  96   2.0000      -0.218456        -5.9445
  97   2.0000      -0.210143        -5.7183
  98   2.0000      -0.206765        -5.6264
  99   2.0000      -0.199831        -5.4377
 100   2.0000      -0.196576        -5.3491
 101   0.0000      -0.041830        -1.1382
 102   0.0000      -0.023991        -0.6528
 103   0.0000      -0.011054        -0.3008
 104   0.0000      -0.001720        -0.0468
 105   0.0000       0.008399         0.2285

MULLIKEN ATOMIC CHARGES
-----------------------
   0 C :   -0.303599
   1 C :   -0.010343
   2 O :   -0.369195
   3 P :    0.602424
   4 S :   -0.322863
   5 O :   -0.383530
   6 C :   -0.009878
   7 C :   -0.311972
   8 S :   -0.040211
   9 C :   -0.360966
  10 S :   -0.100042
  11 P :    0.593925
  12 S :   -0.308051
  13 O :   -0.380593
  14 C :   -0.011515
  15 C :   -0.307160
  16 O :   -0.344365
  17 C :   -0.020969
  18 C :   -0.283359
  19 H :    0.123613
  20 H :    0.116825
  21 H :    0.112441
  22 H :    0.103582
  23 H :    0.112993
  24 H :    0.104648
  25 H :    0.113236
  26 H :    0.132107
  27 H :    0.114178
  28 H :    0.114563
  29 H :    0.195522
  30 H :    0.183378
  31 H :    0.108985
  32 H :    0.111569
  33 H :    0.124261
  34 H :    0.128251
  35 H :    0.110913
  36 H :    0.116746
  37 H :    0.100768
  38 H :    0.105299
  39 H :    0.117017
  40 H :    0.121364
Sum of atomic charges:   -0.0000000

LOEWDIN ATOMIC CHARGES
----------------------
   0 C :   -0.363918
   1 C :   -0.116964
   2 O :   -0.243590
   3 P :    0.563985
   4 S :   -0.321444
   5 O :   -0.248682
   6 C :   -0.122693
   7 C :   -0.366476
   8 S :    0.114383
   9 C :   -0.480546
  10 S :    0.069698
  11 P :    0.566180
  12 S :   -0.307893
  13 O :   -0.246251
  14 C :   -0.115285
  15 C :   -0.369086
  16 O :   -0.228933
  17 C :   -0.116789
  18 C :   -0.358348
  19 H :    0.123637
  20 H :    0.126638
  21 H :    0.130740
  22 H :    0.115411
  23 H :    0.111624
  24 H :    0.117711
  25 H :    0.110255
  26 H :    0.124132
  27 H :    0.123117
  28 H :    0.132038
  29 H :    0.133544
  30 H :    0.130335
  31 H :    0.120858
  32 H :    0.107276
  33 H :    0.120788
  34 H :    0.131235
  35 H :    0.129929
  36 H :    0.121079
  37 H :    0.100701
  38 H :    0.127235
  39 H :    0.124722
  40 H :    0.129648

  Mayer bond orders larger than 0.100000
B(  0-C ,  1-C ) :   1.1668 B(  0-C , 19-H ) :   0.9381 B(  0-C , 20-H ) :   0.9460
B(  0-C , 21-H ) :   0.9379 B(  1-C ,  2-O ) :   0.9069 B(  1-C , 22-H ) :   0.9307
B(  1-C , 23-H ) :   0.9171 B(  2-O ,  3-P ) :   1.1092 B(  3-P ,  4-S ) :   1.6377
B(  3-P ,  5-O ) :   1.0579 B(  3-P ,  8-S ) :   0.9792 B(  5-O ,  6-C ) :   0.9071
B(  6-C ,  7-C ) :   1.1639 B(  6-C , 24-H ) :   0.9339 B(  6-C , 25-H ) :   0.9128
B(  7-C , 26-H ) :   0.9345 B(  7-C , 27-H ) :   0.9468 B(  7-C , 28-H ) :   0.9385
B(  8-S ,  9-C ) :   0.9932 B(  9-C , 10-S ) :   1.0023 B(  9-C , 29-H ) :   0.8835
B(  9-C , 30-H ) :   0.8903 B( 10-S , 11-P ) :   0.9524 B( 10-S , 12-S ) :   0.1112
B( 11-P , 12-S ) :   1.6433 B( 11-P , 13-O ) :   1.0785 B( 11-P , 16-O ) :   1.1352
B( 13-O , 14-C ) :   0.9128 B( 14-C , 15-C ) :   1.1675 B( 14-C , 31-H ) :   0.9330
B( 14-C , 32-H ) :   0.9261 B( 15-C , 33-H ) :   0.9320 B( 15-C , 34-H ) :   0.9427
B( 15-C , 35-H ) :   0.9346 B( 16-O , 17-C ) :   0.8961 B( 17-C , 18-C ) :   1.1584
B( 17-C , 36-H ) :   0.9321 B( 17-C , 37-H ) :   0.9110 B( 18-C , 38-H ) :   0.9410
B( 18-C , 39-H ) :   0.9433 B( 18-C , 40-H ) :   0.9466

Dispersion correction           -0.065821522
FINAL SINGLE POINT ENERGY     -2929.518113284169

DIPOLE MOMENT
-------------

Method             : SCF
Type of density    : Electron Density
Multiplicity       :   1
Irrep              :   0
Energy             : -2929.6383355495222531 Eh
Relativity type    :
Basis              : AO
                                X                 Y                 Z
Electronic contribution:     -0.047627281      12.879776001      -6.461395720
Nuclear contribution   :      0.120054598     -14.651965543       7.828913891
                        -----------------------------------------
Total Dipole Moment    :      0.072427317      -1.772189542       1.367518171
                        -----------------------------------------
Magnitude (a.u.)       :      2.239644489
Magnitude (Debye)      :      5.692723883

Rotational constants in cm-1:             0.012663             0.004951             0.004484
Rotational constants in MHz :           379.640433           148.420603           134.414354

                             ****ORCA TERMINATED NORMALLY****
TOTAL RUN TIME: 0 days 0 hours 0 minutes 21 seconds 288 msec
