                         Program Version 6.0.0  -   RELEASE  -
|  1> ! pbe def2-sv(p) def2/J RI DEFGRID1 loosescf d4 GCP(DFT/SV(P)) printgap
|  2> %output
|  3>     printlevel normal
|  4> end
|  5> * xyz 0 1
|  6> C 4.6754352198 -1.1319695937 -1.3632225055
|  7> C 4.3838122233 -0.7721157771 0.0781979436
|  8> O 3.4950461732 0.3535454934 0.2088600273
|  9> P 2.039668332 0.4687317854 -0.4270710844
| 10> S 1.9105785221 0.8124950766 -2.3474601686
| 11> O 1.4501803773 1.6723550378 0.4007723469
| 12> C 1.4803755609 1.7408330142 1.846196534
| 13> C 2.6059966113 2.6396325842 2.3142779973
| 14> S 1.1360680121 -1.3284946519 0.2655224174
| 15> C -0.0249274874 -1.6639925112 -1.0955639897
| 16> S -1.7125427595 -1.9125243732 -0.5205501409
| 17> P -2.0709394898 0.0722513835 0.162372544
| 18> S -1.4505281901 1.4687514642 -1.0706143267
| 19> O -1.3757981396 0.2875186011 1.5630969071
| 20> C -1.8012388636 -0.2729212571 2.833442236
| 21> C -1.5992797968 -1.7723449774 2.9100562918
| 22> O -3.6040025317 0.0455378084 0.5694977462
| 23> C -4.6666190643 -0.4905333877 -0.240938922
| 24> C -4.7385397935 0.1507379506 -1.610423802
| 25> H 3.7675595493 -1.4697529895 -1.8603499029
| 26> H 5.0533376916 -0.2661019194 -1.9015966549
| 27> H 5.414268994 -1.9262457669 -1.3928129957
| 28> H 5.2871898176 -0.4436965388 0.5953372143
| 29> H 3.9406401953 -1.6204201482 0.6071504425
| 30> H 0.5031792819 2.1452757331 2.1189306641
| 31> H 1.584038674 0.7281821901 2.2470593835
| 32> H 2.5704147455 2.7194264372 3.396236136
| 33> H 3.5655290769 2.2284105285 2.0123333394
| 34> H 2.4962953063 3.6278621208 1.8758932717
| 35> H 0.2711689891 -2.5932868384 -1.575726709
| 36> H 0.0175362163 -0.8249691388 -1.7969043911
| 37> H -1.1714654666 0.250344411 3.5549392614
| 38> H -2.84728869 -0.005632898 2.9901346132
| 39> H -0.5831903093 -2.0336934281 2.6225472155
| 40> H -1.7745538709 -2.0957218388 3.9313820438
| 41> H -2.2933265405 -2.2899512569 2.2523632012
| 42> H -4.5184847411 -1.5703298691 -0.327614741
| 43> H -5.5641687398 -0.2827105287 0.3443096838
| 44> H -3.8344461597 -0.0692748846 -2.1767308675
| 45> H -5.5967879526 -0.2391028433 -2.1480029789
| 46> H -4.8282965417 1.2308281066 -1.5205535316
| 47> *
| 48>
| 49>                          ****END OF INPUT****

CARTESIAN COORDINATES (ANGSTROEM)
---------------------------------
  C      4.675435   -1.131970   -1.363223
  C      4.383812   -0.772116    0.078198
  O      3.495046    0.353545    0.208860
  P      2.039668    0.468732   -0.427071
  S      1.910579    0.812495   -2.347460
  O      1.450180    1.672355    0.400772
  C      1.480376    1.740833    1.846197
  C      2.605997    2.639633    2.314278
  S      1.136068   -1.328495    0.265522
  C     -0.024927   -1.663993   -1.095564
  S     -1.712543   -1.912524   -0.520550
  P     -2.070939    0.072251    0.162373
  S     -1.450528    1.468751   -1.070614
  O     -1.375798    0.287519    1.563097
  C     -1.801239   -0.272921    2.833442
  C     -1.599280   -1.772345    2.910056
  O     -3.604003    0.045538    0.569498
  C     -4.666619   -0.490533   -0.240939
  C     -4.738540    0.150738   -1.610424
  H      3.767560   -1.469753   -1.860350
  H      5.053338   -0.266102   -1.901597
  H      5.414269   -1.926246   -1.392813
  H      5.287190   -0.443697    0.595337
  H      3.940640   -1.620420    0.607150
  H      0.503179    2.145276    2.118931
  H      1.584039    0.728182    2.247059
  H      2.570415    2.719426    3.396236
  H      3.565529    2.228411    2.012333
  H      2.496295    3.627862    1.875893
  H      0.271169   -2.593287   -1.575727
  H      0.017536   -0.824969   -1.796904
  H     -1.171465    0.250344    3.554939
  H     -2.847289   -0.005633    2.990135
  H     -0.583190   -2.033693    2.622547
  H     -1.774554   -2.095722    3.931382
  H     -2.293327   -2.289951    2.252363
  H     -4.518485   -1.570330   -0.327615
  H     -5.564169   -0.282711    0.344310
  H     -3.834446   -0.069275   -2.176731
  H     -5.596788   -0.239103   -2.148003
  H     -4.828297    1.230828   -1.520554

 Total Charge           Charge          ....    0
 Multiplicity           Mult            ....    1
 Number of Electrons    NEL             ....  202
 Basis Dimension        Dim             ....  334

ORBITAL ENERGIES
----------------

  NO   OCC          E(Eh)            E(eV)
   0   2.0000     -88.044879     -2395.8230
   1   2.0000     -88.041204     -2395.7230
   2   2.0000     -87.974888     -2393.9184
   3   2.0000     -87.973756     -2393.8876
   4   2.0000     -76.423632     -2079.5927
   5   2.0000     -76.419822     -2079.4891
   6   2.0000     -18.796629      -511.4823
   7   2.0000     -18.789971      -511.3011
   8   2.0000     -18.788884      -511.2715
   9   2.0000     -18.779450      -511.0148
  10   2.0000      -9.961732      -271.0725
  11   2.0000      -9.957416      -270.9551
  12   2.0000      -9.954371      -270.8722
  13   2.0000      -9.953770      -270.8558
  14   2.0000      -9.946570      -270.6599
  15   2.0000      -9.888063      -269.0679
  16   2.0000      -9.882886      -268.9270
  17   2.0000      -9.879839      -268.8441
  18   2.0000      -9.879831      -268.8439
  19   2.0000      -7.689822      -209.2507
  20   2.0000      -7.685748      -209.1398
  21   2.0000      -7.620179      -207.3556
  22   2.0000      -7.618675      -207.3147
  23   2.0000      -6.420615      -174.7138
  24   2.0000      -6.416909      -174.6130
  25   2.0000      -5.717585      -155.5834
  26   2.0000      -5.714206      -155.4914
  27   2.0000      -5.713535      -155.4732
  28   2.0000      -5.710122      -155.3803
  29   2.0000      -5.707062      -155.2971
  30   2.0000      -5.702994      -155.1864
  31   2.0000      -5.649374      -153.7273
  32   2.0000      -5.647879      -153.6866
  33   2.0000      -5.640731      -153.4921
  34   2.0000      -5.640067      -153.4740
  35   2.0000      -5.639234      -153.4514
  36   2.0000      -5.638658      -153.4357
  37   2.0000      -4.643664      -126.3605
  38   2.0000      -4.642601      -126.3316
  39   2.0000      -4.640448      -126.2730
  40   2.0000      -4.639643      -126.2511
  41   2.0000      -4.638928      -126.2316
  42   2.0000      -4.637056      -126.1807
  43   2.0000      -0.989161       -26.9164
  44   2.0000      -0.981715       -26.7138
  45   2.0000      -0.944404       -25.6986
  46   2.0000      -0.936366       -25.4798
  47   2.0000      -0.762367       -20.7450
  48   2.0000      -0.718762       -19.5585
  49   2.0000      -0.709710       -19.3122
  50   2.0000      -0.692589       -18.8463
  51   2.0000      -0.686066       -18.6688
  52   2.0000      -0.676656       -18.4127
  53   2.0000      -0.646911       -17.6033
  54   2.0000      -0.631499       -17.1840
  55   2.0000      -0.589083       -16.0298
  56   2.0000      -0.584758       -15.9121
  57   2.0000      -0.581880       -15.8338
  58   2.0000      -0.567588       -15.4449
  59   2.0000      -0.566278       -15.4092
  60   2.0000      -0.503129       -13.6908
  61   2.0000      -0.495783       -13.4909
  62   2.0000      -0.472478       -12.8568
  63   2.0000      -0.468498       -12.7485
  64   2.0000      -0.452791       -12.3211
  65   2.0000      -0.448481       -12.2038
  66   2.0000      -0.439979       -11.9724
  67   2.0000      -0.433461       -11.7951
  68   2.0000      -0.429873       -11.6974
  69   2.0000      -0.420423       -11.4403
  70   2.0000      -0.410809       -11.1787
  71   2.0000      -0.405177       -11.0254
  72   2.0000      -0.400586       -10.9005
  73   2.0000      -0.387679       -10.5493
  74   2.0000      -0.380338       -10.3495
  75   2.0000      -0.356439        -9.6992
  76   2.0000      -0.356152        -9.6914
  77   2.0000      -0.354488        -9.6461
  78   2.0000      -0.350919        -9.5490
  79   2.0000      -0.347618        -9.4592
  80   2.0000      -0.343858        -9.3569
  81   2.0000      -0.342287        -9.3141
  82   2.0000      -0.342021        -9.3069
  83   2.0000      -0.337376        -9.1805
  84   2.0000      -0.334251        -9.0954
  85   2.0000      -0.322836        -8.7848
  86   2.0000      -0.313594        -8.5333
  87   2.0000      -0.298532        -8.1235
  88   2.0000      -0.293365        -7.9829
  89   2.0000      -0.292062        -7.9474
  90   2.0000      -0.281088        -7.6488
  91   2.0000      -0.277719        -7.5571
  92   2.0000      -0.270074        -7.3491
  93   2.0000      -0.260210        -7.0807
  94   2.0000      -0.255634        -6.9562
  95   2.0000      -0.233893        -6.3646
  96   2.0000      -0.220248        -5.9933
  97   2.0000      -0.204833        -5.5738
  98   2.0000      -0.193642        -5.2693
  99   2.0000      -0.184510        -5.0208
 100   2.0000      -0.177943        -4.8421
 101   0.0000      -0.042207        -1.1485
 102   0.0000      -0.030772        -0.8373
 103   0.0000      -0.010031        -0.2730
 104   0.0000       0.007964         0.2167
 105   0.0000       0.020182         0.5492

MULLIKEN ATOMIC CHARGES
-----------------------
   0 C :   -0.305189
   1 C :   -0.006145
   2 O :   -0.383813
   3 P :    0.604205
   4 S :   -0.288444
   5 O :   -0.336992
   6 C :   -0.017235
   7 C :   -0.280739
   8 S :   -0.134667
   9 C :   -0.338197
  10 S :   -0.127911
  11 P :    0.592275
  12 S :   -0.274267
  13 O :   -0.353904
  14 C :    0.001327
  15 C :   -0.318148
  16 O :   -0.382827
  17 C :   -0.016030
  18 C :   -0.306771
  19 H :    0.120609
  20 H :    0.126054
  21 H :    0.107670
  22 H :    0.104836
  23 H :    0.107197
  24 H :    0.118791
  25 H :    0.090612
  26 H :    0.102481
  27 H :    0.117269
  28 H :    0.121526
  29 H :    0.179613
  30 H :    0.212610
  31 H :    0.102317
  32 H :    0.110605
  33 H :    0.129062
  34 H :    0.110261
  35 H :    0.120458
  36 H :    0.114327
  37 H :    0.109043
  38 H :    0.130001
  39 H :    0.110773
  40 H :    0.127355
Sum of atomic charges:   -0.0000000

LOEWDIN ATOMIC CHARGES
----------------------
   0 C :   -0.368891
   1 C :   -0.117652
   2 O :   -0.247753
   3 P :    0.568519
   4 S :   -0.290495
   5 O :   -0.222176
   6 C :   -0.114564
   7 C :   -0.358837
   8 S :    0.058419
   9 C :   -0.478494
  10 S :    0.067299
  11 P :    0.557314
  12 S :   -0.283987
  13 O :   -0.234392
  14 C :   -0.109561
  15 C :   -0.371526
  16 O :   -0.246143
  17 C :   -0.114947
  18 C :   -0.368726
  19 H :    0.119675
  20 H :    0.130390
  21 H :    0.128192
  22 H :    0.118676
  23 H :    0.104575
  24 H :    0.121223
  25 H :    0.098677
  26 H :    0.125916
  27 H :    0.124812
  28 H :    0.129945
  29 H :    0.135611
  30 H :    0.126445
  31 H :    0.116835
  32 H :    0.114069
  33 H :    0.122394
  34 H :    0.129405
  35 H :    0.116575
  36 H :    0.107307
  37 H :    0.120951
  38 H :    0.123438
  39 H :    0.129934
  40 H :    0.131548

  Mayer bond orders larger than 0.100000
B(  0-C ,  1-C ) :   1.1671 B(  0-C , 19-H ) :   0.9329 B(  0-C , 20-H ) :   0.9439
B(  0-C , 21-H ) :   0.9350 B(  1-C ,  2-O ) :   0.9167 B(  1-C , 22-H ) :   0.9331
B(  1-C , 23-H ) :   0.9234 B(  2-O ,  3-P ) :   1.0672 B(  3-P ,  4-S ) :   1.6472
B(  3-P ,  5-O ) :   1.1452 B(  3-P ,  8-S ) :   0.9383 B(  4-S ,  8-S ) :   0.1142
B(  5-O ,  6-C ) :   0.8977 B(  6-C ,  7-C ) :   1.1568 B(  6-C , 24-H ) :   0.9274
B(  6-C , 25-H ) :   0.9171 B(  7-C , 26-H ) :   0.9410 B(  7-C , 27-H ) :   0.9422
B(  7-C , 28-H ) :   0.9465 B(  8-S ,  9-C ) :   0.9949 B(  9-C , 10-S ) :   1.0100
B(  9-C , 29-H ) :   0.9108 B(  9-C , 30-H ) :   0.8391 B( 10-S , 11-P ) :   0.9218
B( 10-S , 12-S ) :   0.1095 B( 11-P , 12-S ) :   1.6882 B( 11-P , 13-O ) :   1.1160
B( 11-P , 16-O ) :   1.0746 B( 13-O , 14-C ) :   0.9012 B( 14-C , 15-C ) :   1.1705
B( 14-C , 31-H ) :   0.9324 B( 14-C , 32-H ) :   0.9271 B( 15-C , 33-H ) :   0.9383
B( 15-C , 34-H ) :   0.9358 B( 15-C , 35-H ) :   0.9392 B( 16-O , 17-C ) :   0.9129
B( 17-C , 18-C ) :   1.1667 B( 17-C , 36-H ) :   0.9255 B( 17-C , 37-H ) :   0.9335
B( 18-C , 38-H ) :   0.9306 B( 18-C , 39-H ) :   0.9347 B( 18-C , 40-H ) :   0.9433

Dispersion correction           -0.068246452
FINAL SINGLE POINT ENERGY     -2929.508914070519

DIPOLE MOMENT
-------------

Method             : SCF
Type of density    : Electron Density
Multiplicity       :   1
Irrep              :   0
Energy             : -2929.6271906249430685 Eh
Relativity type    :
Basis              : AO
                                X                 Y                 Z
Electronic contribution:     -1.791018208       3.507432296     -11.541611176
Nuclear contribution   :      1.399731891      -4.924403313      13.375555465
                        -----------------------------------------
Total Dipole Moment    :     -0.391286317      -1.416971017       1.833944289
                        -----------------------------------------
Magnitude (a.u.)       :      2.350375183
Magnitude (Debye)      :      5.974178939

Rotational constants in cm-1:             0.012652             0.005375             0.005086
Rotational constants in MHz :           379.299103           161.139826           152.477312

                             ****ORCA TERMINATED NORMALLY****
TOTAL RUN TIME: 0 days 0 hours 0 minutes 21 seconds 776 msec
