                         Program Version 6.0.0  -   RELEASE  -
|  1> ! pbe def2-sv(p) def2/J RI DEFGRID1 loosescf d4 GCP(DFT/SV(P)) printgap
|  2> %output
|  3>     printlevel normal
|  4> end
|  5> * xyz 0 1
|  6> C 3.9977268241 -1.6471659921 -2.2646284475
|  7> C 4.358478356 -0.9144954571 -0.9880554962
|  8> O 3.2273972678 -0.7773581323 -0.1155881873
|  9> P 2.0278683665 0.23503679 -0.4286142568
| 10> S 2.6191402847 1.8797250528 -1.3125813253
| 11> O 1.3433073851 0.2845462437 0.9985704314
| 12> C 2.005913239 0.7695143838 2.1883978814
| 13> C 1.9322653513 2.2794030096 2.2887184908
| 14> S 0.5894723327 -0.9037948188 -1.4705386334
| 15> C 0.1753093083 -2.1194859208 -0.1915798134
| 16> S -0.9805082436 -1.5166163438 1.0920661631
| 17> P -1.9652822851 0.1121261467 0.1281095121
| 18> S -1.0900574529 1.8376445536 -0.1996719179
| 19> O -3.2486062289 0.2408411709 1.0634017658
| 20> C -3.2800916451 1.1018595824 2.2146174476
| 21> C -2.2729074983 0.6850195778 3.2663258769
| 22> O -2.5460330935 -0.4993006308 -1.2039751631
| 23> C -3.3959187302 -1.6742796318 -1.2592101486
| 24> C -4.8556349433 -1.2750224357 -1.3284710916
| 25> H 4.8927808259 -1.7907670111 -2.8610726542
| 26> H 3.5547251579 -2.6134719966 -2.038837345
| 27> H 3.2829884715 -1.0571161675 -2.8381717924
| 28> H 4.741802743 0.0854048689 -1.2157940653
| 29> H 5.0866524949 -1.4689136002 -0.3944801712
| 30> H 1.4571501393 0.2874724207 3.0006741318
| 31> H 3.0411300412 0.4207405212 2.1828735696
| 32> H 2.5193270821 2.7426302644 1.4981143675
| 33> H 0.9019367244 2.6114298966 2.1807422942
| 34> H 2.3164882074 2.5962841559 3.2528256905
| 35> H 1.0807768769 -2.432534524 0.3245143091
| 36> H -0.2875976631 -2.9528734727 -0.715065358
| 37> H -3.0859823635 2.1263871212 1.8817375587
| 38> H -4.305051567 1.0162924081 2.577846674
| 39> H -2.4117061697 -0.3598240722 3.5331954124
| 40> H -1.2644835867 0.8181309655 2.8750478975
| 41> H -2.393136515 1.3059279235 4.1481838746
| 42> H -3.0812629786 -2.192234878 -2.1671820144
| 43> H -3.2021530798 -2.2969572172 -0.3815926872
| 44> H -5.1484763924 -0.7591505088 -0.4179735826
| 45> H -5.0211470801 -0.6132013664 -2.1742456112
| 46> H -5.4618333826 -2.1677350894 -1.4469269072
| 47> *
| 48>
| 49>                          ****END OF INPUT****

CARTESIAN COORDINATES (ANGSTROEM)
---------------------------------
  C      3.997727   -1.647166   -2.264628
  C      4.358478   -0.914495   -0.988055
  O      3.227397   -0.777358   -0.115588
  P      2.027868    0.235037   -0.428614
  S      2.619140    1.879725   -1.312581
  O      1.343307    0.284546    0.998570
  C      2.005913    0.769514    2.188398
  C      1.932265    2.279403    2.288718
  S      0.589472   -0.903795   -1.470539
  C      0.175309   -2.119486   -0.191580
  S     -0.980508   -1.516616    1.092066
  P     -1.965282    0.112126    0.128110
  S     -1.090057    1.837645   -0.199672
  O     -3.248606    0.240841    1.063402
  C     -3.280092    1.101860    2.214617
  C     -2.272907    0.685020    3.266326
  O     -2.546033   -0.499301   -1.203975
  C     -3.395919   -1.674280   -1.259210
  C     -4.855635   -1.275022   -1.328471
  H      4.892781   -1.790767   -2.861073
  H      3.554725   -2.613472   -2.038837
  H      3.282988   -1.057116   -2.838172
  H      4.741803    0.085405   -1.215794
  H      5.086652   -1.468914   -0.394480
  H      1.457150    0.287472    3.000674
  H      3.041130    0.420741    2.182874
  H      2.519327    2.742630    1.498114
  H      0.901937    2.611430    2.180742
  H      2.316488    2.596284    3.252826
  H      1.080777   -2.432535    0.324514
  H     -0.287598   -2.952873   -0.715065
  H     -3.085982    2.126387    1.881738
  H     -4.305052    1.016292    2.577847
  H     -2.411706   -0.359824    3.533195
  H     -1.264484    0.818131    2.875048
  H     -2.393137    1.305928    4.148184
  H     -3.081263   -2.192235   -2.167182
  H     -3.202153   -2.296957   -0.381593
  H     -5.148476   -0.759151   -0.417974
  H     -5.021147   -0.613201   -2.174246
  H     -5.461833   -2.167735   -1.446927

 Total Charge           Charge          ....    0
 Multiplicity           Mult            ....    1
 Number of Electrons    NEL             ....  202
 Basis Dimension        Dim             ....  334

ORBITAL ENERGIES
----------------

  NO   OCC          E(Eh)            E(eV)
   0   2.0000     -88.044301     -2395.8072
   1   2.0000     -88.039004     -2395.6631
   2   2.0000     -87.981847     -2394.1078
   3   2.0000     -87.973926     -2393.8922
   4   2.0000     -76.422978     -2079.5750
   5   2.0000     -76.422111     -2079.5514
   6   2.0000     -18.789504      -511.2884
   7   2.0000     -18.789339      -511.2839
   8   2.0000     -18.788058      -511.2491
   9   2.0000     -18.784628      -511.1557
  10   2.0000      -9.961777      -271.0737
  11   2.0000      -9.955394      -270.9000
  12   2.0000      -9.951209      -270.7862
  13   2.0000      -9.950488      -270.7665
  14   2.0000      -9.948054      -270.7003
  15   2.0000      -9.885988      -269.0114
  16   2.0000      -9.885266      -268.9918
  17   2.0000      -9.882197      -268.9082
  18   2.0000      -9.872999      -268.6580
  19   2.0000      -7.689018      -209.2288
  20   2.0000      -7.683492      -209.0785
  21   2.0000      -7.626920      -207.5391
  22   2.0000      -7.618896      -207.3207
  23   2.0000      -6.420110      -174.7001
  24   2.0000      -6.418954      -174.6686
  25   2.0000      -5.717347      -155.5769
  26   2.0000      -5.713312      -155.4671
  27   2.0000      -5.711574      -155.4198
  28   2.0000      -5.707952      -155.3213
  29   2.0000      -5.705708      -155.2602
  30   2.0000      -5.700398      -155.1157
  31   2.0000      -5.655918      -153.9053
  32   2.0000      -5.648187      -153.6950
  33   2.0000      -5.647713      -153.6821
  34   2.0000      -5.646850      -153.6586
  35   2.0000      -5.639240      -153.4515
  36   2.0000      -5.638946      -153.4435
  37   2.0000      -4.642780      -126.3365
  38   2.0000      -4.642157      -126.3195
  39   2.0000      -4.641997      -126.3152
  40   2.0000      -4.640782      -126.2821
  41   2.0000      -4.640450      -126.2731
  42   2.0000      -4.638878      -126.2303
  43   2.0000      -0.984593       -26.7921
  44   2.0000      -0.983030       -26.7496
  45   2.0000      -0.942938       -25.6586
  46   2.0000      -0.938873       -25.5480
  47   2.0000      -0.762332       -20.7441
  48   2.0000      -0.716530       -19.4978
  49   2.0000      -0.707048       -19.2397
  50   2.0000      -0.689790       -18.7702
  51   2.0000      -0.682638       -18.5755
  52   2.0000      -0.671620       -18.2757
  53   2.0000      -0.650617       -17.7042
  54   2.0000      -0.634036       -17.2530
  55   2.0000      -0.592133       -16.1128
  56   2.0000      -0.585980       -15.9453
  57   2.0000      -0.575636       -15.6639
  58   2.0000      -0.571230       -15.5440
  59   2.0000      -0.564003       -15.3473
  60   2.0000      -0.500508       -13.6195
  61   2.0000      -0.496181       -13.5018
  62   2.0000      -0.472415       -12.8551
  63   2.0000      -0.465403       -12.6642
  64   2.0000      -0.458387       -12.4733
  65   2.0000      -0.446473       -12.1492
  66   2.0000      -0.434722       -11.8294
  67   2.0000      -0.430377       -11.7111
  68   2.0000      -0.426621       -11.6090
  69   2.0000      -0.421120       -11.4593
  70   2.0000      -0.415486       -11.3059
  71   2.0000      -0.394808       -10.7433
  72   2.0000      -0.392347       -10.6763
  73   2.0000      -0.387183       -10.5358
  74   2.0000      -0.377726       -10.2784
  75   2.0000      -0.366806        -9.9813
  76   2.0000      -0.362234        -9.8569
  77   2.0000      -0.360551        -9.8111
  78   2.0000      -0.353434        -9.6174
  79   2.0000      -0.348798        -9.4913
  80   2.0000      -0.346318        -9.4238
  81   2.0000      -0.343403        -9.3445
  82   2.0000      -0.340500        -9.2655
  83   2.0000      -0.335266        -9.1231
  84   2.0000      -0.325496        -8.8572
  85   2.0000      -0.317364        -8.6359
  86   2.0000      -0.313143        -8.5210
  87   2.0000      -0.296958        -8.0806
  88   2.0000      -0.291231        -7.9248
  89   2.0000      -0.290979        -7.9179
  90   2.0000      -0.288411        -7.8481
  91   2.0000      -0.271361        -7.3841
  92   2.0000      -0.267239        -7.2719
  93   2.0000      -0.258857        -7.0439
  94   2.0000      -0.257075        -6.9954
  95   2.0000      -0.230870        -6.2823
  96   2.0000      -0.218461        -5.9446
  97   2.0000      -0.202698        -5.5157
  98   2.0000      -0.195902        -5.3308
  99   2.0000      -0.188310        -5.1242
 100   2.0000      -0.181436        -4.9371
 101   0.0000      -0.050867        -1.3842
 102   0.0000      -0.025792        -0.7018
 103   0.0000      -0.014024        -0.3816
 104   0.0000      -0.001359        -0.0370
 105   0.0000       0.015884         0.4322

MULLIKEN ATOMIC CHARGES
-----------------------
   0 C :   -0.306165
   1 C :   -0.007063
   2 O :   -0.385882
   3 P :    0.634576
   4 S :   -0.303757
   5 O :   -0.369629
   6 C :   -0.005062
   7 C :   -0.309662
   8 S :   -0.074962
   9 C :   -0.314352
  10 S :   -0.121591
  11 P :    0.596649
  12 S :   -0.286183
  13 O :   -0.383363
  14 C :    0.007062
  15 C :   -0.353951
  16 O :   -0.356738
  17 C :   -0.018068
  18 C :   -0.287100
  19 H :    0.111420
  20 H :    0.107616
  21 H :    0.125524
  22 H :    0.110471
  23 H :    0.099463
  24 H :    0.106319
  25 H :    0.100905
  26 H :    0.126924
  27 H :    0.132538
  28 H :    0.102001
  29 H :    0.182245
  30 H :    0.178503
  31 H :    0.111618
  32 H :    0.102618
  33 H :    0.120533
  34 H :    0.154016
  35 H :    0.114974
  36 H :    0.104841
  37 H :    0.100608
  38 H :    0.123185
  39 H :    0.121771
  40 H :    0.107150
Sum of atomic charges:   -0.0000000

LOEWDIN ATOMIC CHARGES
----------------------
   0 C :   -0.366624
   1 C :   -0.125135
   2 O :   -0.254353
   3 P :    0.569707
   4 S :   -0.302328
   5 O :   -0.237934
   6 C :   -0.109868
   7 C :   -0.366754
   8 S :    0.115531
   9 C :   -0.471304
  10 S :    0.063081
  11 P :    0.561205
  12 S :   -0.290430
  13 O :   -0.251984
  14 C :   -0.118497
  15 C :   -0.376191
  16 O :   -0.236645
  17 C :   -0.118777
  18 C :   -0.357693
  19 H :    0.129996
  20 H :    0.120803
  21 H :    0.121147
  22 H :    0.108290
  23 H :    0.115247
  24 H :    0.115176
  25 H :    0.108789
  26 H :    0.124304
  27 H :    0.127540
  28 H :    0.125466
  29 H :    0.132669
  30 H :    0.132332
  31 H :    0.111964
  32 H :    0.117319
  33 H :    0.122822
  34 H :    0.123609
  35 H :    0.132042
  36 H :    0.117505
  37 H :    0.102643
  38 H :    0.127339
  39 H :    0.129571
  40 H :    0.128421

  Mayer bond orders larger than 0.100000
B(  0-C ,  1-C ) :   1.1641 B(  0-C , 19-H ) :   0.9392 B(  0-C , 20-H ) :   0.9472
B(  0-C , 21-H ) :   0.9363 B(  1-C ,  2-O ) :   0.9167 B(  1-C , 22-H ) :   0.9091
B(  1-C , 23-H ) :   0.9333 B(  2-O ,  3-P ) :   1.0501 B(  3-P ,  4-S ) :   1.6602
B(  3-P ,  5-O ) :   1.1127 B(  3-P ,  8-S ) :   0.9567 B(  5-O ,  6-C ) :   0.9003
B(  6-C ,  7-C ) :   1.1728 B(  6-C , 24-H ) :   0.9271 B(  6-C , 25-H ) :   0.9237
B(  7-C , 26-H ) :   0.9330 B(  7-C , 27-H ) :   0.9396 B(  7-C , 28-H ) :   0.9381
B(  8-S ,  9-C ) :   1.0107 B(  9-C , 10-S ) :   0.9661 B(  9-C , 29-H ) :   0.9032
B(  9-C , 30-H ) :   0.9094 B( 10-S , 11-P ) :   0.9579 B( 10-S , 12-S ) :   0.1177
B( 11-P , 12-S ) :   1.6392 B( 11-P , 13-O ) :   1.0632 B( 11-P , 16-O ) :   1.1189
B( 13-O , 14-C ) :   0.9094 B( 14-C , 15-C ) :   1.1655 B( 14-C , 31-H ) :   0.9148
B( 14-C , 32-H ) :   0.9329 B( 15-C , 33-H ) :   0.9400 B( 15-C , 34-H ) :   0.9244
B( 15-C , 35-H ) :   0.9366 B( 16-O , 17-C ) :   0.9015 B( 17-C , 18-C ) :   1.1675
B( 17-C , 36-H ) :   0.9343 B( 17-C , 37-H ) :   0.9047 B( 18-C , 38-H ) :   0.9425
B( 18-C , 39-H ) :   0.9475 B( 18-C , 40-H ) :   0.9394

Dispersion correction           -0.068989380
FINAL SINGLE POINT ENERGY     -2929.507022019700

DIPOLE MOMENT
-------------

Method             : SCF
Type of density    : Electron Density
Multiplicity       :   1
Irrep              :   0
Energy             : -2929.6237797698822760 Eh
Relativity type    :
Basis              : AO
                                X                 Y                 Z
Electronic contribution:      2.469392011       4.817621755      -9.364609861
Nuclear contribution   :     -2.721743312      -6.639058140      10.470625212
                        -----------------------------------------
Total Dipole Moment    :     -0.252351301      -1.821436385       1.106015350
                        -----------------------------------------
Magnitude (a.u.)       :      2.145828894
Magnitude (Debye)      :      5.454263590

Rotational constants in cm-1:             0.012458             0.005802             0.004974
Rotational constants in MHz :           373.474382           173.949741           149.107396

                             ****ORCA TERMINATED NORMALLY****
TOTAL RUN TIME: 0 days 0 hours 0 minutes 21 seconds 630 msec
