                         Program Version 6.0.1  -  RELEASE   -
|  1> ! pbe def2-sv(p) def2/J RI DEFGRID1 loosescf d4 GCP(DFT/SV(P)) printgap
|  2> %output
|  3>     printlevel normal
|  4> end
|  5> * xyz 0 1
|  6> C 5.3017722246 -0.8007920583 -1.8647120703
|  7> C 4.5254213255 -1.3694459731 -0.6931003703
|  8> O 3.1219748793 -1.3048033101 -1.0096270734
|  9> C 2.2849422725 -1.9283928372 -0.1992693618
| 10> O 2.6291644468 -2.6070962617 0.741733512
| 11> C 0.8409516739 -1.7569685747 -0.6359166979
| 12> C 0.5493165588 -0.2985302757 -0.9698745259
| 13> H 1.1634482555 0.0107205824 -1.8230052565
| 14> C 0.9164953763 0.6125894197 0.1868263771
| 15> O 1.8427171623 0.3718221879 0.926482983
| 16> O 0.1678576804 1.6966928001 0.2357636616
| 17> C 0.4686693421 2.6854288206 1.2412182645
| 18> C 1.5084533007 3.6677591937 0.7306744287
| 19> S -1.1623552803 -0.0459796161 -1.5318457008
| 20> P -2.1905481587 0.1684439607 0.3157440937
| 21> S -1.3645467785 -0.5807620457 1.9315954546
| 22> O -2.5966718526 1.6842100529 0.486413481
| 23> C -3.2791924709 2.4151012058 -0.5548905375
| 24> O -3.6155696379 -0.4657756997 -0.0449138168
| 25> C -3.7766170586 -1.8732055489 -0.2520456555
| 26> H 5.0940228989 -1.3748519232 -2.7626876122
| 27> H 5.0182029192 0.2335538279 -2.0333721414
| 28> H 6.3631445842 -0.8491760267 -1.6457245806
| 29> H 4.6866841786 -0.7946933743 0.2247024621
| 30> H 4.7868859829 -2.4137086332 -0.4949899194
| 31> H 0.2069023383 -2.1088117919 0.180458268
| 32> H 0.6701232028 -2.373672501 -1.519553341
| 33> H -0.4876208013 3.1701431215 1.4399836027
| 34> H 0.8173771162 2.1658701184 2.1386710338
| 35> H 1.662064515 4.4399804602 1.4769789284
| 36> H 2.4514519229 3.1552467232 0.5545042745
| 37> H 1.1700553661 4.1239699708 -0.1953921094
| 38> H -2.6902102275 2.390205437 -1.4714646436
| 39> H -3.3666111303 3.4307640605 -0.1783409405
| 40> H -4.2614908424 1.9809052822 -0.7283372375
| 41> H -4.8494378521 -2.048191972 -0.2525949225
| 42> H -3.3021044901 -2.4297203539 0.5577590421
| 43> H -3.3399849709 -2.1586628383 -1.2088366549
| 44> *
| 45>
| 46>                          ****END OF INPUT****

CARTESIAN COORDINATES (ANGSTROEM)
---------------------------------
  C      5.301772   -0.800792   -1.864712
  C      4.525421   -1.369446   -0.693100
  O      3.121975   -1.304803   -1.009627
  C      2.284942   -1.928393   -0.199269
  O      2.629164   -2.607096    0.741734
  C      0.840952   -1.756969   -0.635917
  C      0.549317   -0.298530   -0.969875
  H      1.163448    0.010721   -1.823005
  C      0.916495    0.612589    0.186826
  O      1.842717    0.371822    0.926483
  O      0.167858    1.696693    0.235764
  C      0.468669    2.685429    1.241218
  C      1.508453    3.667759    0.730674
  S     -1.162355   -0.045980   -1.531846
  P     -2.190548    0.168444    0.315744
  S     -1.364547   -0.580762    1.931595
  O     -2.596672    1.684210    0.486413
  C     -3.279192    2.415101   -0.554891
  O     -3.615570   -0.465776   -0.044914
  C     -3.776617   -1.873206   -0.252046
  H      5.094023   -1.374852   -2.762688
  H      5.018203    0.233554   -2.033372
  H      6.363145   -0.849176   -1.645725
  H      4.686684   -0.794693    0.224702
  H      4.786886   -2.413709   -0.494990
  H      0.206902   -2.108812    0.180458
  H      0.670123   -2.373673   -1.519553
  H     -0.487621    3.170143    1.439984
  H      0.817377    2.165870    2.138671
  H      1.662065    4.439980    1.476979
  H      2.451452    3.155247    0.554504
  H      1.170055    4.123970   -0.195392
  H     -2.690210    2.390205   -1.471465
  H     -3.366611    3.430764   -0.178341
  H     -4.261491    1.980905   -0.728337
  H     -4.849438   -2.048192   -0.252595
  H     -3.302104   -2.429720    0.557759
  H     -3.339985   -2.158663   -1.208837

 Total Charge           Charge          ....    0
 Multiplicity           Mult            ....    1
 Number of Electrons    NEL             ....  174
 Basis Dimension        Dim             ....  316

ORBITAL ENERGIES
----------------

  NO   OCC          E(Eh)            E(eV)
   0   2.0000     -88.044990     -2395.8260
   1   2.0000     -87.987816     -2394.2702
   2   2.0000     -76.430968     -2079.7924
   3   2.0000     -18.812130      -511.9041
   4   2.0000     -18.799725      -511.5665
   5   2.0000     -18.797029      -511.4932
   6   2.0000     -18.790538      -511.3165
   7   2.0000     -18.742507      -510.0095
   8   2.0000     -18.719085      -509.3722
   9   2.0000     -10.021373      -272.6954
  10   2.0000      -9.996696      -272.0239
  11   2.0000      -9.955182      -270.8943
  12   2.0000      -9.951962      -270.8067
  13   2.0000      -9.948288      -270.7067
  14   2.0000      -9.947160      -270.6760
  15   2.0000      -9.938883      -270.4507
  16   2.0000      -9.900693      -269.4115
  17   2.0000      -9.889614      -269.1101
  18   2.0000      -9.885117      -268.9877
  19   2.0000      -7.689871      -209.2520
  20   2.0000      -7.632662      -207.6953
  21   2.0000      -6.427870      -174.9112
  22   2.0000      -5.717733      -155.5874
  23   2.0000      -5.714264      -155.4930
  24   2.0000      -5.706968      -155.2945
  25   2.0000      -5.661875      -154.0675
  26   2.0000      -5.653034      -153.8269
  27   2.0000      -5.652780      -153.8200
  28   2.0000      -4.650648      -126.5506
  29   2.0000      -4.649772      -126.5267
  30   2.0000      -4.648155      -126.4827
  31   2.0000      -1.019309       -27.7368
  32   2.0000      -0.996975       -27.1291
  33   2.0000      -0.992398       -27.0045
  34   2.0000      -0.947915       -25.7941
  35   2.0000      -0.924083       -25.1456
  36   2.0000      -0.897781       -24.4299
  37   2.0000      -0.768487       -20.9116
  38   2.0000      -0.711015       -19.3477
  39   2.0000      -0.704502       -19.1705
  40   2.0000      -0.693597       -18.8737
  41   2.0000      -0.658955       -17.9311
  42   2.0000      -0.641747       -17.4628
  43   2.0000      -0.627053       -17.0630
  44   2.0000      -0.617766       -16.8103
  45   2.0000      -0.584763       -15.9122
  46   2.0000      -0.565070       -15.3763
  47   2.0000      -0.520256       -14.1569
  48   2.0000      -0.502921       -13.6852
  49   2.0000      -0.501772       -13.6539
  50   2.0000      -0.486221       -13.2308
  51   2.0000      -0.480502       -13.0751
  52   2.0000      -0.449759       -12.2386
  53   2.0000      -0.441030       -12.0010
  54   2.0000      -0.438942       -11.9442
  55   2.0000      -0.437830       -11.9139
  56   2.0000      -0.428700       -11.6655
  57   2.0000      -0.420066       -11.4306
  58   2.0000      -0.417477       -11.3601
  59   2.0000      -0.406735       -11.0678
  60   2.0000      -0.404397       -11.0042
  61   2.0000      -0.398301       -10.8383
  62   2.0000      -0.386959       -10.5297
  63   2.0000      -0.382272       -10.4022
  64   2.0000      -0.372402       -10.1336
  65   2.0000      -0.359947        -9.7946
  66   2.0000      -0.357571        -9.7300
  67   2.0000      -0.348154        -9.4738
  68   2.0000      -0.343840        -9.3564
  69   2.0000      -0.341363        -9.2890
  70   2.0000      -0.336409        -9.1542
  71   2.0000      -0.329874        -8.9763
  72   2.0000      -0.321686        -8.7535
  73   2.0000      -0.310807        -8.4575
  74   2.0000      -0.308827        -8.4036
  75   2.0000      -0.301134        -8.1943
  76   2.0000      -0.299329        -8.1452
  77   2.0000      -0.293005        -7.9731
  78   2.0000      -0.277284        -7.5453
  79   2.0000      -0.267028        -7.2662
  80   2.0000      -0.265204        -7.2166
  81   2.0000      -0.246241        -6.7006
  82   2.0000      -0.242192        -6.5904
  83   2.0000      -0.220852        -6.0097
  84   2.0000      -0.206946        -5.6313
  85   2.0000      -0.204862        -5.5746
  86   2.0000      -0.199864        -5.4386
  87   0.0000      -0.042570        -1.1584
  88   0.0000      -0.032952        -0.8967
  89   0.0000      -0.004461        -0.1214
  90   0.0000       0.002764         0.0752
  91   0.0000       0.012652         0.3443

MULLIKEN ATOMIC CHARGES
-----------------------
   0 C :   -0.274845
   1 C :   -0.023747
   2 O :   -0.256720
   3 C :    0.109182
   4 O :   -0.194100
   5 C :   -0.028337
   6 C :   -0.304429
   7 H :    0.159031
   8 C :    0.181274
   9 O :   -0.175010
  10 O :   -0.230710
  11 C :   -0.012400
  12 C :   -0.302469
  13 S :   -0.099838
  14 P :    0.604636
  15 S :   -0.287023
  16 O :   -0.363149
  17 C :   -0.108829
  18 O :   -0.388127
  19 C :   -0.102333
  20 H :    0.110894
  21 H :    0.110171
  22 H :    0.110373
  23 H :    0.110471
  24 H :    0.105963
  25 H :    0.115946
  26 H :    0.109163
  27 H :    0.107477
  28 H :    0.120914
  29 H :    0.116140
  30 H :    0.123344
  31 H :    0.110665
  32 H :    0.122343
  33 H :    0.130452
  34 H :    0.127869
  35 H :    0.126970
  36 H :    0.122460
  37 H :    0.116328
Sum of atomic charges:    0.0000000

LOEWDIN ATOMIC CHARGES
----------------------
   0 C :   -0.351576
   1 C :   -0.106183
   2 O :   -0.075503
   3 C :    0.025951
   4 O :   -0.157388
   5 C :   -0.249440
   6 C :   -0.269421
   7 H :    0.153602
   8 C :    0.010427
   9 O :   -0.134404
  10 O :   -0.059473
  11 C :   -0.110438
  12 C :   -0.355400
  13 S :    0.093661
  14 P :    0.571979
  15 S :   -0.281993
  16 O :   -0.236106
  17 C :   -0.210897
  18 O :   -0.259970
  19 C :   -0.216010
  20 H :    0.124435
  21 H :    0.123843
  22 H :    0.130041
  23 H :    0.120093
  24 H :    0.116434
  25 H :    0.135512
  26 H :    0.140387
  27 H :    0.118101
  28 H :    0.125216
  29 H :    0.132232
  30 H :    0.128840
  31 H :    0.123192
  32 H :    0.110675
  33 H :    0.125168
  34 H :    0.117926
  35 H :    0.123566
  36 H :    0.113688
  37 H :    0.109231

  Mayer bond orders larger than 0.100000
B(  0-C ,  1-C ) :   1.1496 B(  0-C , 20-H ) :   0.9512 B(  0-C , 21-H ) :   0.9496
B(  0-C , 22-H ) :   0.9450 B(  1-C ,  2-O ) :   0.9127 B(  1-C , 23-H ) :   0.9317
B(  1-C , 24-H ) :   0.9281 B(  2-O ,  3-C ) :   1.1805 B(  3-C ,  4-O ) :   2.0824
B(  3-C ,  5-C ) :   1.0247 B(  5-C ,  6-C ) :   1.0369 B(  5-C , 25-H ) :   0.8842
B(  5-C , 26-H ) :   0.8831 B(  6-C ,  7-H ) :   0.8529 B(  6-C ,  8-C ) :   0.9122
B(  6-C , 13-S ) :   0.9962 B(  8-C ,  9-O ) :   2.0264 B(  8-C , 10-O ) :   1.2370
B( 10-O , 11-C ) :   0.8981 B( 11-C , 12-C ) :   1.1724 B( 11-C , 27-H ) :   0.9308
B( 11-C , 28-H ) :   0.9137 B( 12-C , 29-H ) :   0.9452 B( 12-C , 30-H ) :   0.9458
B( 12-C , 31-H ) :   0.9484 B( 13-S , 14-P ) :   0.9582 B( 13-S , 15-S ) :   0.1150
B( 14-P , 15-S ) :   1.6344 B( 14-P , 16-O ) :   1.1175 B( 14-P , 18-O ) :   1.0704
B( 16-O , 17-C ) :   0.9154 B( 17-C , 32-H ) :   0.9375 B( 17-C , 33-H ) :   0.9590
B( 17-C , 34-H ) :   0.9476 B( 18-O , 19-C ) :   0.9299 B( 19-C , 35-H ) :   0.9583
B( 19-C , 36-H ) :   0.9359 B( 19-C , 37-H ) :   0.9467

Dispersion correction           -0.052808844
FINAL SINGLE POINT ENERGY     -1979.019972506570

DIPOLE MOMENT
-------------

Method             : SCF
Type of density    : Electron Density
Multiplicity       :   1
Irrep              :   0
Energy             : -1979.1500343753709785 Eh
Relativity type    :
Basis              : AO
                                X                 Y                 Z
Electronic contribution:    -13.767217635      -6.605213656       5.823981200
Nuclear contribution   :     13.117130599       7.879625233      -7.536518690
                        -----------------------------------------
Total Dipole Moment    :     -0.650087036       1.274411577      -1.712537490
                        -----------------------------------------
Magnitude (a.u.)       :      2.231484412
Magnitude (Debye)      :      5.671982614

Rotational constants in cm-1:             0.015188             0.006598             0.005617
Rotational constants in MHz :           455.333839           197.813337           168.400607

                             ****ORCA TERMINATED NORMALLY****
TOTAL RUN TIME: 0 days 0 hours 0 minutes 35 seconds 355 msec
