                         Program Version 6.0.0  -   RELEASE  -
|  1> ! r2scan-3c def2/J RI DEFGRID2 scfconv6 printgap
|  2> %output
|  3>     printlevel normal
|  4> end
|  5> * xyz 0 1
|  6> C 0.9292622795 -2.8376959324 1.3337662264
|  7> C 1.9292821249 -1.7742901448 1.7410315238
|  8> O 1.5833267178 -0.4948852821 1.1703381289
|  9> P 2.2697501763 0.070602155 -0.1610263918
| 10> S 2.9461932946 -1.2490184631 -1.4291677016
| 11> O 3.449153146 1.0112416763 0.3320168091
| 12> C 3.2386916799 2.1037506035 1.2606465529
| 13> C 4.6002347847 2.6084822376 1.690945585
| 14> S 0.7867978919 1.4337307481 -0.8013963814
| 15> C -0.0198910163 0.3410924318 -1.9999029587
| 16> S -0.7713531931 -1.1241325479 -1.2460946218
| 17> P -2.2229168381 -0.1078275505 -0.108048241
| 18> S -3.0483353064 1.4925755427 -0.8932641888
| 19> O -1.4240760702 0.1029313821 1.2413131516
| 20> C -1.8437775914 1.037649193 2.2610505393
| 21> C -0.6396482261 1.8369838457 2.716776785
| 22> O -3.2599231721 -1.2343605121 0.3274623118
| 23> C -4.4211279718 -1.5616915607 -0.4553400232
| 24> C -4.0551121736 -2.2289932733 -1.7653212005
| 25> H -0.0813234 -2.5045315855 1.5582203863
| 26> H 1.0022643422 -3.033602004 0.2660810033
| 27> H 1.1381851855 -3.752665098 1.8786762525
| 28> H 2.9396091155 -2.0496950741 1.4236900596
| 29> H 1.9143353429 -1.6089989932 2.8200770584
| 30> H 2.6677333159 2.8799859958 0.7441556118
| 31> H 2.6576102794 1.7355925328 2.109833644
| 32> H 5.1640480792 2.938217824 0.8232464945
| 33> H 4.4711474222 3.4410585947 2.374768546
| 34> H 5.1546238837 1.8163880991 2.1861190037
| 35> H 0.7164906626 -0.0256083766 -2.7140941362
| 36> H -0.7878926401 0.9410234303 -2.4876753614
| 37> H -2.617578483 1.6928494802 1.8470046967
| 38> H -2.2661310394 0.4466150818 3.0763319478
| 39> H -0.2631263799 2.4450302838 1.8976108366
| 40> H -0.9289245072 2.4818681923 3.5400847897
| 41> H 0.1460063736 1.1612576012 3.0430298754
| 42> H -4.9936772347 -2.2279887994 0.191182435
| 43> H -4.9850602769 -0.6410512114 -0.6364539461
| 44> H -3.402450148 -3.0799362653 -1.5870214106
| 45> H -4.9593290715 -2.56474037 -2.2628077471
| 46> H -3.5382656625 -1.5215089067 -2.4124481932
| 47> *
| 48>
| 49>                          ****END OF INPUT****

CARTESIAN COORDINATES (ANGSTROEM)
---------------------------------
  C      0.929262   -2.837696    1.333766
  C      1.929282   -1.774290    1.741032
  O      1.583327   -0.494885    1.170338
  P      2.269750    0.070602   -0.161026
  S      2.946193   -1.249018   -1.429168
  O      3.449153    1.011242    0.332017
  C      3.238692    2.103751    1.260647
  C      4.600235    2.608482    1.690946
  S      0.786798    1.433731   -0.801396
  C     -0.019891    0.341092   -1.999903
  S     -0.771353   -1.124133   -1.246095
  P     -2.222917   -0.107828   -0.108048
  S     -3.048335    1.492576   -0.893264
  O     -1.424076    0.102931    1.241313
  C     -1.843778    1.037649    2.261051
  C     -0.639648    1.836984    2.716777
  O     -3.259923   -1.234361    0.327462
  C     -4.421128   -1.561692   -0.455340
  C     -4.055112   -2.228993   -1.765321
  H     -0.081323   -2.504532    1.558220
  H      1.002264   -3.033602    0.266081
  H      1.138185   -3.752665    1.878676
  H      2.939609   -2.049695    1.423690
  H      1.914335   -1.608999    2.820077
  H      2.667733    2.879986    0.744156
  H      2.657610    1.735593    2.109834
  H      5.164048    2.938218    0.823246
  H      4.471147    3.441059    2.374769
  H      5.154624    1.816388    2.186119
  H      0.716491   -0.025608   -2.714094
  H     -0.787893    0.941023   -2.487675
  H     -2.617578    1.692849    1.847005
  H     -2.266131    0.446615    3.076332
  H     -0.263126    2.445030    1.897611
  H     -0.928925    2.481868    3.540085
  H      0.146006    1.161258    3.043030
  H     -4.993677   -2.227989    0.191182
  H     -4.985060   -0.641051   -0.636454
  H     -3.402450   -3.079936   -1.587021
  H     -4.959329   -2.564740   -2.262808
  H     -3.538266   -1.521509   -2.412448

 Total Charge           Charge          ....    0
 Multiplicity           Mult            ....    1
 Number of Electrons    NEL             ....  202
 Basis Dimension        Dim             ....  539

ORBITAL ENERGIES
----------------

  NO   OCC          E(Eh)            E(eV)
   0   2.0000     -88.576341     -2410.2848
   1   2.0000     -88.574975     -2410.2476
   2   2.0000     -88.521814     -2408.8010
   3   2.0000     -88.519649     -2408.7421
   4   2.0000     -76.913980     -2092.9358
   5   2.0000     -76.912632     -2092.8991
   6   2.0000     -18.993184      -516.8308
   7   2.0000     -18.990570      -516.7597
   8   2.0000     -18.987398      -516.6734
   9   2.0000     -18.985497      -516.6216
  10   2.0000     -10.107409      -275.0366
  11   2.0000     -10.105696      -274.9900
  12   2.0000     -10.098665      -274.7987
  13   2.0000     -10.097810      -274.7754
  14   2.0000     -10.096273      -274.7336
  15   2.0000     -10.037466      -273.1333
  16   2.0000     -10.030329      -272.9391
  17   2.0000     -10.029060      -272.9046
  18   2.0000     -10.020545      -272.6729
  19   2.0000      -7.870843      -214.1765
  20   2.0000      -7.869546      -214.1412
  21   2.0000      -7.816588      -212.7002
  22   2.0000      -7.814485      -212.6430
  23   2.0000      -6.592586      -179.3934
  24   2.0000      -6.590978      -179.3496
  25   2.0000      -5.817787      -158.3100
  26   2.0000      -5.816435      -158.2732
  27   2.0000      -5.814711      -158.2263
  28   2.0000      -5.813454      -158.1921
  29   2.0000      -5.807825      -158.0389
  30   2.0000      -5.806524      -158.0035
  31   2.0000      -5.764137      -156.8502
  32   2.0000      -5.762323      -156.8008
  33   2.0000      -5.756913      -156.6536
  34   2.0000      -5.756636      -156.6460
  35   2.0000      -5.754892      -156.5986
  36   2.0000      -5.754163      -156.5787
  37   2.0000      -4.738049      -128.9289
  38   2.0000      -4.737442      -128.9123
  39   2.0000      -4.736805      -128.8950
  40   2.0000      -4.736394      -128.8838
  41   2.0000      -4.735604      -128.8623
  42   2.0000      -4.734745      -128.8390
  43   2.0000      -1.049151       -28.5488
  44   2.0000      -1.044867       -28.4323
  45   2.0000      -1.009527       -27.4706
  46   2.0000      -1.005597       -27.3637
  47   2.0000      -0.804319       -21.8866
  48   2.0000      -0.761139       -20.7116
  49   2.0000      -0.751779       -20.4569
  50   2.0000      -0.732878       -19.9426
  51   2.0000      -0.731013       -19.8919
  52   2.0000      -0.709838       -19.3157
  53   2.0000      -0.685174       -18.6445
  54   2.0000      -0.671280       -18.2665
  55   2.0000      -0.632561       -17.2129
  56   2.0000      -0.615248       -16.7418
  57   2.0000      -0.608620       -16.5614
  58   2.0000      -0.605212       -16.4687
  59   2.0000      -0.587394       -15.9838
  60   2.0000      -0.535302       -14.5663
  61   2.0000      -0.526768       -14.3341
  62   2.0000      -0.497605       -13.5405
  63   2.0000      -0.492406       -13.3991
  64   2.0000      -0.477306       -12.9882
  65   2.0000      -0.462037       -12.5727
  66   2.0000      -0.459607       -12.5065
  67   2.0000      -0.454176       -12.3588
  68   2.0000      -0.447425       -12.1751
  69   2.0000      -0.432510       -11.7692
  70   2.0000      -0.418272       -11.3818
  71   2.0000      -0.415502       -11.3064
  72   2.0000      -0.407200       -11.0805
  73   2.0000      -0.404345       -11.0028
  74   2.0000      -0.395443       -10.7606
  75   2.0000      -0.387098       -10.5335
  76   2.0000      -0.382439       -10.4067
  77   2.0000      -0.373415       -10.1611
  78   2.0000      -0.371373       -10.1056
  79   2.0000      -0.367958       -10.0127
  80   2.0000      -0.363695        -9.8966
  81   2.0000      -0.357563        -9.7298
  82   2.0000      -0.356692        -9.7061
  83   2.0000      -0.353983        -9.6324
  84   2.0000      -0.351487        -9.5645
  85   2.0000      -0.333797        -9.0831
  86   2.0000      -0.327418        -8.9095
  87   2.0000      -0.316419        -8.6102
  88   2.0000      -0.311277        -8.4703
  89   2.0000      -0.303947        -8.2708
  90   2.0000      -0.296401        -8.0655
  91   2.0000      -0.292301        -7.9539
  92   2.0000      -0.284637        -7.7454
  93   2.0000      -0.279504        -7.6057
  94   2.0000      -0.276602        -7.5267
  95   2.0000      -0.242920        -6.6102
  96   2.0000      -0.228519        -6.2183
  97   2.0000      -0.227626        -6.1940
  98   2.0000      -0.220394        -5.9972
  99   2.0000      -0.214660        -5.8412
 100   2.0000      -0.212557        -5.7840
 101   0.0000      -0.048576        -1.3218
 102   0.0000      -0.027042        -0.7359
 103   0.0000      -0.002402        -0.0654
 104   0.0000       0.004912         0.1337
 105   0.0000       0.008334         0.2268

MULLIKEN ATOMIC CHARGES
-----------------------
   0 C :   -0.466884
   1 C :   -0.135880
   2 O :   -0.256852
   3 P :    0.657660
   4 S :   -0.445237
   5 O :   -0.259882
   6 C :   -0.138074
   7 C :   -0.453402
   8 S :   -0.152610
   9 C :   -0.251478
  10 S :   -0.102531
  11 P :    0.693778
  12 S :   -0.491320
  13 O :   -0.255101
  14 C :   -0.126967
  15 C :   -0.474938
  16 O :   -0.304762
  17 C :   -0.154089
  18 C :   -0.449810
  19 H :    0.163219
  20 H :    0.180405
  21 H :    0.140039
  22 H :    0.160076
  23 H :    0.143567
  24 H :    0.153527
  25 H :    0.159612
  26 H :    0.160756
  27 H :    0.145856
  28 H :    0.155715
  29 H :    0.212008
  30 H :    0.211557
  31 H :    0.166805
  32 H :    0.148678
  33 H :    0.166671
  34 H :    0.143283
  35 H :    0.156528
  36 H :    0.147489
  37 H :    0.172995
  38 H :    0.155779
  39 H :    0.148279
  40 H :    0.175536
Sum of atomic charges:    0.0000000

LOEWDIN ATOMIC CHARGES
----------------------
   0 C :   -0.406409
   1 C :    0.022245
   2 O :   -0.688246
   3 P :    0.381109
   4 S :   -0.095082
   5 O :   -0.663937
   6 C :    0.018501
   7 C :   -0.382400
   8 S :    0.164682
   9 C :   -0.417886
  10 S :    0.185579
  11 P :    0.375447
  12 S :   -0.137360
  13 O :   -0.670968
  14 C :    0.026241
  15 C :   -0.397052
  16 O :   -0.660280
  17 C :    0.019272
  18 C :   -0.406727
  19 H :    0.163485
  20 H :    0.167212
  21 H :    0.155551
  22 H :    0.177404
  23 H :    0.174478
  24 H :    0.173874
  25 H :    0.174110
  26 H :    0.163955
  27 H :    0.159579
  28 H :    0.161547
  29 H :    0.191274
  30 H :    0.190971
  31 H :    0.181707
  32 H :    0.172366
  33 H :    0.163673
  34 H :    0.156811
  35 H :    0.161318
  36 H :    0.179223
  37 H :    0.179819
  38 H :    0.160360
  39 H :    0.159423
  40 H :    0.165131

  Mayer bond orders larger than 0.100000
B(  0-C ,  1-C ) :   0.9430 B(  0-C , 19-H ) :   0.9691 B(  0-C , 20-H ) :   0.9621
B(  0-C , 21-H ) :   0.9615 B(  1-C ,  2-O ) :   0.7767 B(  1-C , 22-H ) :   0.9628
B(  1-C , 23-H ) :   0.9636 B(  2-O ,  3-P ) :   1.0446 B(  3-P ,  4-S ) :   1.8385
B(  3-P ,  5-O ) :   1.1418 B(  3-P ,  8-S ) :   1.0519 B(  5-O ,  6-C ) :   0.7519
B(  6-C ,  7-C ) :   0.9644 B(  6-C , 24-H ) :   0.9368 B(  6-C , 25-H ) :   0.9481
B(  7-C , 26-H ) :   0.9713 B(  7-C , 27-H ) :   0.9628 B(  7-C , 28-H ) :   0.9729
B(  8-S ,  9-C ) :   0.9029 B(  9-C , 10-S ) :   0.8996 B(  9-C , 29-H ) :   0.9102
B(  9-C , 30-H ) :   0.9118 B( 10-S , 11-P ) :   1.1019 B( 11-P , 12-S ) :   1.7397
B( 11-P , 13-O ) :   1.1558 B( 11-P , 16-O ) :   1.0559 B( 13-O , 14-C ) :   0.7653
B( 14-C , 15-C ) :   0.9596 B( 14-C , 31-H ) :   0.9577 B( 14-C , 32-H ) :   0.9531
B( 15-C , 33-H ) :   0.9676 B( 15-C , 34-H ) :   0.9634 B( 15-C , 35-H ) :   0.9692
B( 16-O , 17-C ) :   0.8175 B( 17-C , 18-C ) :   0.9230 B( 17-C , 36-H ) :   0.9585
B( 17-C , 37-H ) :   0.9677 B( 18-C , 38-H ) :   0.9684 B( 18-C , 39-H ) :   0.9589
B( 18-C , 40-H ) :   0.9625

Dispersion correction           -0.022130579
FINAL SINGLE POINT ENERGY     -2932.461557220325

DIPOLE MOMENT
-------------

Method             : SCF
Type of density    : Electron Density
Multiplicity       :   1
Irrep              :   0
Energy             : -2932.4858089092454065 Eh
Relativity type    :
Basis              : AO
                                X                 Y                 Z
Electronic contribution:      0.410626745       0.964360614     -15.396901958
Nuclear contribution   :     -0.833220659      -0.958589925      16.998914110
                        -----------------------------------------
Total Dipole Moment    :     -0.422593914       0.005770689       1.602012152
                        -----------------------------------------
Magnitude (a.u.)       :      1.656822819
Magnitude (Debye)      :      4.211308926

Rotational constants in cm-1:             0.012326             0.005416             0.004927
Rotational constants in MHz :           369.519274           162.382143           147.712952

                             ****ORCA TERMINATED NORMALLY****
TOTAL RUN TIME: 0 days 0 hours 1 minutes 23 seconds 256 msec
