                         Program Version 6.0.0  -   RELEASE  -
|  1> ! r2scan-3c def2/J RI DEFGRID2 scfconv6 printgap
|  2> %output
|  3>     printlevel normal
|  4> end
|  5> %cpcm
|  6>     smd true
|  7>     smdsolvent "water"
|  8> end
|  9> * xyz 0 1
| 10> C 0.9292622795 -2.8376959324 1.3337662264
| 11> C 1.9292821249 -1.7742901448 1.7410315238
| 12> O 1.5833267178 -0.4948852821 1.1703381289
| 13> P 2.2697501763 0.070602155 -0.1610263918
| 14> S 2.9461932946 -1.2490184631 -1.4291677016
| 15> O 3.449153146 1.0112416763 0.3320168091
| 16> C 3.2386916799 2.1037506035 1.2606465529
| 17> C 4.6002347847 2.6084822376 1.690945585
| 18> S 0.7867978919 1.4337307481 -0.8013963814
| 19> C -0.0198910163 0.3410924318 -1.9999029587
| 20> S -0.7713531931 -1.1241325479 -1.2460946218
| 21> P -2.2229168381 -0.1078275505 -0.108048241
| 22> S -3.0483353064 1.4925755427 -0.8932641888
| 23> O -1.4240760702 0.1029313821 1.2413131516
| 24> C -1.8437775914 1.037649193 2.2610505393
| 25> C -0.6396482261 1.8369838457 2.716776785
| 26> O -3.2599231721 -1.2343605121 0.3274623118
| 27> C -4.4211279718 -1.5616915607 -0.4553400232
| 28> C -4.0551121736 -2.2289932733 -1.7653212005
| 29> H -0.0813234 -2.5045315855 1.5582203863
| 30> H 1.0022643422 -3.033602004 0.2660810033
| 31> H 1.1381851855 -3.752665098 1.8786762525
| 32> H 2.9396091155 -2.0496950741 1.4236900596
| 33> H 1.9143353429 -1.6089989932 2.8200770584
| 34> H 2.6677333159 2.8799859958 0.7441556118
| 35> H 2.6576102794 1.7355925328 2.109833644
| 36> H 5.1640480792 2.938217824 0.8232464945
| 37> H 4.4711474222 3.4410585947 2.374768546
| 38> H 5.1546238837 1.8163880991 2.1861190037
| 39> H 0.7164906626 -0.0256083766 -2.7140941362
| 40> H -0.7878926401 0.9410234303 -2.4876753614
| 41> H -2.617578483 1.6928494802 1.8470046967
| 42> H -2.2661310394 0.4466150818 3.0763319478
| 43> H -0.2631263799 2.4450302838 1.8976108366
| 44> H -0.9289245072 2.4818681923 3.5400847897
| 45> H 0.1460063736 1.1612576012 3.0430298754
| 46> H -4.9936772347 -2.2279887994 0.191182435
| 47> H -4.9850602769 -0.6410512114 -0.6364539461
| 48> H -3.402450148 -3.0799362653 -1.5870214106
| 49> H -4.9593290715 -2.56474037 -2.2628077471
| 50> H -3.5382656625 -1.5215089067 -2.4124481932
| 51> *
| 52>
| 53>                          ****END OF INPUT****

CARTESIAN COORDINATES (ANGSTROEM)
---------------------------------
  C      0.929262   -2.837696    1.333766
  C      1.929282   -1.774290    1.741032
  O      1.583327   -0.494885    1.170338
  P      2.269750    0.070602   -0.161026
  S      2.946193   -1.249018   -1.429168
  O      3.449153    1.011242    0.332017
  C      3.238692    2.103751    1.260647
  C      4.600235    2.608482    1.690946
  S      0.786798    1.433731   -0.801396
  C     -0.019891    0.341092   -1.999903
  S     -0.771353   -1.124133   -1.246095
  P     -2.222917   -0.107828   -0.108048
  S     -3.048335    1.492576   -0.893264
  O     -1.424076    0.102931    1.241313
  C     -1.843778    1.037649    2.261051
  C     -0.639648    1.836984    2.716777
  O     -3.259923   -1.234361    0.327462
  C     -4.421128   -1.561692   -0.455340
  C     -4.055112   -2.228993   -1.765321
  H     -0.081323   -2.504532    1.558220
  H      1.002264   -3.033602    0.266081
  H      1.138185   -3.752665    1.878676
  H      2.939609   -2.049695    1.423690
  H      1.914335   -1.608999    2.820077
  H      2.667733    2.879986    0.744156
  H      2.657610    1.735593    2.109834
  H      5.164048    2.938218    0.823246
  H      4.471147    3.441059    2.374769
  H      5.154624    1.816388    2.186119
  H      0.716491   -0.025608   -2.714094
  H     -0.787893    0.941023   -2.487675
  H     -2.617578    1.692849    1.847005
  H     -2.266131    0.446615    3.076332
  H     -0.263126    2.445030    1.897611
  H     -0.928925    2.481868    3.540085
  H      0.146006    1.161258    3.043030
  H     -4.993677   -2.227989    0.191182
  H     -4.985060   -0.641051   -0.636454
  H     -3.402450   -3.079936   -1.587021
  H     -4.959329   -2.564740   -2.262808
  H     -3.538266   -1.521509   -2.412448

 Total Charge           Charge          ....    0
 Multiplicity           Mult            ....    1
 Number of Electrons    NEL             ....  202
 Basis Dimension        Dim             ....  539

ORBITAL ENERGIES
----------------

  NO   OCC          E(Eh)            E(eV)
   0   2.0000     -88.579330     -2410.3661
   1   2.0000     -88.579247     -2410.3639
   2   2.0000     -88.530148     -2409.0278
   3   2.0000     -88.528090     -2408.9718
   4   2.0000     -76.919364     -2093.0823
   5   2.0000     -76.918375     -2093.0554
   6   2.0000     -18.994963      -516.8792
   7   2.0000     -18.993598      -516.8421
   8   2.0000     -18.990088      -516.7466
   9   2.0000     -18.988549      -516.7047
  10   2.0000     -10.106594      -275.0144
  11   2.0000     -10.092771      -274.6383
  12   2.0000     -10.089069      -274.5375
  13   2.0000     -10.088255      -274.5154
  14   2.0000     -10.088072      -274.5104
  15   2.0000     -10.020878      -272.6820
  16   2.0000     -10.018441      -272.6157
  17   2.0000     -10.017233      -272.5828
  18   2.0000     -10.014561      -272.5101
  19   2.0000      -7.873860      -214.2586
  20   2.0000      -7.873789      -214.2567
  21   2.0000      -7.825340      -212.9383
  22   2.0000      -7.823147      -212.8787
  23   2.0000      -6.597730      -179.5334
  24   2.0000      -6.597003      -179.5136
  25   2.0000      -5.820799      -158.3920
  26   2.0000      -5.820661      -158.3882
  27   2.0000      -5.817722      -158.3083
  28   2.0000      -5.817659      -158.3066
  29   2.0000      -5.810856      -158.1214
  30   2.0000      -5.810830      -158.1207
  31   2.0000      -5.773069      -157.0932
  32   2.0000      -5.770643      -157.0272
  33   2.0000      -5.765684      -156.8922
  34   2.0000      -5.765119      -156.8769
  35   2.0000      -5.763451      -156.8315
  36   2.0000      -5.763218      -156.8251
  37   2.0000      -4.743493      -129.0770
  38   2.0000      -4.742425      -129.0479
  39   2.0000      -4.742332      -129.0454
  40   2.0000      -4.741866      -129.0327
  41   2.0000      -4.741623      -129.0261
  42   2.0000      -4.740875      -129.0058
  43   2.0000      -1.051023       -28.5998
  44   2.0000      -1.047342       -28.4996
  45   2.0000      -1.010831       -27.5061
  46   2.0000      -1.007572       -27.4174
  47   2.0000      -0.806337       -21.9415
  48   2.0000      -0.757643       -20.6165
  49   2.0000      -0.744835       -20.2680
  50   2.0000      -0.725275       -19.7357
  51   2.0000      -0.721979       -19.6460
  52   2.0000      -0.708613       -19.2823
  53   2.0000      -0.688798       -18.7432
  54   2.0000      -0.676987       -18.4218
  55   2.0000      -0.630986       -17.1700
  56   2.0000      -0.612625       -16.6704
  57   2.0000      -0.600000       -16.3268
  58   2.0000      -0.597436       -16.2570
  59   2.0000      -0.584496       -15.9049
  60   2.0000      -0.531693       -14.4681
  61   2.0000      -0.522834       -14.2270
  62   2.0000      -0.494124       -13.4458
  63   2.0000      -0.488662       -13.2972
  64   2.0000      -0.477682       -12.9984
  65   2.0000      -0.456306       -12.4167
  66   2.0000      -0.452819       -12.3218
  67   2.0000      -0.450180       -12.2500
  68   2.0000      -0.441477       -12.0132
  69   2.0000      -0.428768       -11.6674
  70   2.0000      -0.417187       -11.3522
  71   2.0000      -0.412475       -11.2240
  72   2.0000      -0.405640       -11.0380
  73   2.0000      -0.400103       -10.8874
  74   2.0000      -0.392384       -10.6773
  75   2.0000      -0.385941       -10.5020
  76   2.0000      -0.379372       -10.3232
  77   2.0000      -0.367098        -9.9892
  78   2.0000      -0.362867        -9.8741
  79   2.0000      -0.357471        -9.7273
  80   2.0000      -0.356411        -9.6984
  81   2.0000      -0.350888        -9.5482
  82   2.0000      -0.349661        -9.5148
  83   2.0000      -0.347624        -9.4593
  84   2.0000      -0.343667        -9.3517
  85   2.0000      -0.332180        -9.0391
  86   2.0000      -0.322439        -8.7740
  87   2.0000      -0.312511        -8.5038
  88   2.0000      -0.305751        -8.3199
  89   2.0000      -0.303770        -8.2660
  90   2.0000      -0.296705        -8.0738
  91   2.0000      -0.290074        -7.8933
  92   2.0000      -0.282784        -7.6949
  93   2.0000      -0.279440        -7.6040
  94   2.0000      -0.277244        -7.5442
  95   2.0000      -0.245852        -6.6900
  96   2.0000      -0.237508        -6.4629
  97   2.0000      -0.234026        -6.3682
  98   2.0000      -0.228213        -6.2100
  99   2.0000      -0.223737        -6.0882
 100   2.0000      -0.220798        -6.0082
 101   0.0000      -0.053068        -1.4441
 102   0.0000      -0.032976        -0.8973
 103   0.0000      -0.005597        -0.1523
 104   0.0000       0.000483         0.0132
 105   0.0000       0.007868         0.2141

MULLIKEN ATOMIC CHARGES
-----------------------
   0 C :   -0.491946
   1 C :   -0.133214
   2 O :   -0.274993
   3 P :    0.668359
   4 S :   -0.499757
   5 O :   -0.296616
   6 C :   -0.122152
   7 C :   -0.501433
   8 S :   -0.162389
   9 C :   -0.262137
  10 S :   -0.110692
  11 P :    0.727997
  12 S :   -0.535595
  13 O :   -0.285978
  14 C :   -0.121782
  15 C :   -0.512331
  16 O :   -0.331890
  17 C :   -0.153184
  18 C :   -0.485736
  19 H :    0.164464
  20 H :    0.172105
  21 H :    0.165564
  22 H :    0.168096
  23 H :    0.175009
  24 H :    0.168820
  25 H :    0.182138
  26 H :    0.167704
  27 H :    0.170655
  28 H :    0.168327
  29 H :    0.233613
  30 H :    0.233367
  31 H :    0.168256
  32 H :    0.172901
  33 H :    0.170756
  34 H :    0.167786
  35 H :    0.170109
  36 H :    0.174430
  37 H :    0.177481
  38 H :    0.169224
  39 H :    0.172720
  40 H :    0.171946
Sum of atomic charges:    0.0000000

LOEWDIN ATOMIC CHARGES
----------------------
   0 C :   -0.409170
   1 C :    0.028253
   2 O :   -0.696388
   3 P :    0.382381
   4 S :   -0.135139
   5 O :   -0.685025
   6 C :    0.026719
   7 C :   -0.386482
   8 S :    0.162252
   9 C :   -0.412430
  10 S :    0.181513
  11 P :    0.380504
  12 S :   -0.165206
  13 O :   -0.687726
  14 C :    0.030370
  15 C :   -0.398504
  16 O :   -0.671400
  17 C :    0.024578
  18 C :   -0.409899
  19 H :    0.162761
  20 H :    0.162067
  21 H :    0.164648
  22 H :    0.180514
  23 H :    0.187864
  24 H :    0.180676
  25 H :    0.184094
  26 H :    0.164307
  27 H :    0.169889
  28 H :    0.164229
  29 H :    0.197607
  30 H :    0.197840
  31 H :    0.182540
  32 H :    0.182732
  33 H :    0.162946
  34 H :    0.166571
  35 H :    0.164438
  36 H :    0.190617
  37 H :    0.181204
  38 H :    0.163601
  39 H :    0.168323
  40 H :    0.161333

  Mayer bond orders larger than 0.100000
B(  0-C ,  1-C ) :   0.9305 B(  0-C , 19-H ) :   0.9670 B(  0-C , 20-H ) :   0.9647
B(  0-C , 21-H ) :   0.9578 B(  1-C ,  2-O ) :   0.7629 B(  1-C , 22-H ) :   0.9613
B(  1-C , 23-H ) :   0.9539 B(  2-O ,  3-P ) :   1.0547 B(  3-P ,  4-S ) :   1.8129
B(  3-P ,  5-O ) :   1.1500 B(  3-P ,  8-S ) :   1.0700 B(  5-O ,  6-C ) :   0.7463
B(  6-C ,  7-C ) :   0.9527 B(  6-C , 24-H ) :   0.9288 B(  6-C , 25-H ) :   0.9371
B(  7-C , 26-H ) :   0.9703 B(  7-C , 27-H ) :   0.9560 B(  7-C , 28-H ) :   0.9711
B(  8-S ,  9-C ) :   0.8880 B(  9-C , 10-S ) :   0.8910 B(  9-C , 29-H ) :   0.9044
B(  9-C , 30-H ) :   0.9060 B( 10-S , 11-P ) :   1.1106 B( 11-P , 12-S ) :   1.7022
B( 11-P , 13-O ) :   1.1618 B( 11-P , 16-O ) :   1.0640 B( 13-O , 14-C ) :   0.7557
B( 14-C , 15-C ) :   0.9485 B( 14-C , 31-H ) :   0.9545 B( 14-C , 32-H ) :   0.9422
B( 15-C , 33-H ) :   0.9658 B( 15-C , 34-H ) :   0.9582 B( 15-C , 35-H ) :   0.9666
B( 16-O , 17-C ) :   0.8057 B( 17-C , 18-C ) :   0.9110 B( 17-C , 36-H ) :   0.9488
B( 17-C , 37-H ) :   0.9660 B( 18-C , 38-H ) :   0.9657 B( 18-C , 39-H ) :   0.9535
B( 18-C , 40-H ) :   0.9634

Dispersion correction           -0.022130579
FINAL SINGLE POINT ENERGY     -2932.471930431515

DIPOLE MOMENT
-------------

Method             : SCF
Type of density    : Electron Density
Multiplicity       :   1
Irrep              :   0
Energy             : -2932.4961821204356056 Eh
Relativity type    :
Basis              : AO
                                X                 Y                 Z
Electronic contribution:      0.121401767       1.009553893     -14.802655896
Nuclear contribution   :     -0.833220659      -0.958589925      16.998914110
                        -----------------------------------------
Total Dipole Moment    :     -0.711818891       0.050963968       2.196258214
                        -----------------------------------------
Magnitude (a.u.)       :      2.309292879
Magnitude (Debye)      :      5.869756022

Rotational constants in cm-1:             0.012326             0.005416             0.004927
Rotational constants in MHz :           369.519274           162.382143           147.712952

                             ****ORCA TERMINATED NORMALLY****
TOTAL RUN TIME: 0 days 0 hours 1 minutes 53 seconds 360 msec
