                         Program Version 6.0.0  -   RELEASE  -
|  1> ! pbe def2-sv(p) def2/J RI DEFGRID1 loosescf d4 GCP(DFT/SV(P)) printgap
|  2> %output
|  3>     printlevel normal
|  4> end
|  5> * xyz 0 1
|  6> C 2.127518883 2.0367532804 -1.6167310605
|  7> C 2.4263129283 2.3999953158 -0.177001771
|  8> O 1.8017163335 1.4983101659 0.7710818601
|  9> P 2.1358064809 -0.0378280126 0.9233732563
| 10> S 1.6541715568 -0.676250241 2.7093806714
| 11> O 3.6712217641 -0.0577892037 0.509425129
| 12> C 4.4445303565 -1.2592969352 0.3343021702
| 13> C 4.9330786745 -1.8171185123 1.6565204542
| 14> S 1.1893708651 -1.0819780536 -0.6895091061
| 15> C -0.0657427455 -1.9992108012 0.2301078513
| 16> S -1.3805456027 -0.9616892379 0.9260907727
| 17> P -1.9923212536 -0.0041355765 -0.8842626207
| 18> S -1.7567449096 -1.0187553626 -2.5359222407
| 19> O -1.2572130381 1.3921969489 -0.8952032186
| 20> C -1.4566645015 2.3724037517 0.1550638848
| 21> C -2.4085436007 3.4541514956 -0.3092766507
| 22> O -3.4889163974 0.4096464613 -0.5470375119
| 23> C -4.539801302 -0.5779788001 -0.5128853744
| 24> C -5.8660425098 0.1536693581 -0.5486568837
| 25> H 2.5262070137 2.8092853059 -2.2669464185
| 26> H 2.5900953742 1.0854976427 -1.8746761931
| 27> H 1.0552891181 1.9520362984 -1.7810573301
| 28> H 2.008244727 3.3728359287 0.0876924301
| 29> H 3.5012810297 2.3979744938 0.0098998589
| 30> H 3.8404035918 -1.9938000601 -0.2061941694
| 31> H 5.2808655613 -0.9437133116 -0.2928067653
| 32> H 4.0927841377 -2.1221614024 2.2759236974
| 33> H 5.566790109 -2.677773076 1.4682031379
| 34> H 5.5015198398 -1.0630575881 2.1941881489
| 35> H 0.3882067531 -2.5073020341 1.0799794579
| 36> H -0.4966105504 -2.7023188678 -0.4809538114
| 37> H -1.8317547391 1.8654966866 1.0489046921
| 38> H -0.4624856406 2.7714787359 0.3628358439
| 39> H -3.388218603 3.0288988438 -0.5099854898
| 40> H -2.4955191961 4.2070172907 0.4678607372
| 41> H -2.0329428012 3.9152950946 -1.2184462619
| 42> H -4.4218665337 -1.2397741294 -1.3770867715
| 43> H -4.4289712242 -1.1626446468 0.4044462071
| 44> H -5.9479539334 0.733441437 -1.4636371654
| 45> H -6.6723973806 -0.571235306 -0.5115610691
| 46> H -5.945474869 0.82281787 0.3031479097
| 47> *
| 48>
| 49>                          ****END OF INPUT****

CARTESIAN COORDINATES (ANGSTROEM)
---------------------------------
  C      2.127519    2.036753   -1.616731
  C      2.426313    2.399995   -0.177002
  O      1.801716    1.498310    0.771082
  P      2.135806   -0.037828    0.923373
  S      1.654172   -0.676250    2.709381
  O      3.671222   -0.057789    0.509425
  C      4.444530   -1.259297    0.334302
  C      4.933079   -1.817119    1.656520
  S      1.189371   -1.081978   -0.689509
  C     -0.065743   -1.999211    0.230108
  S     -1.380546   -0.961689    0.926091
  P     -1.992321   -0.004136   -0.884263
  S     -1.756745   -1.018755   -2.535922
  O     -1.257213    1.392197   -0.895203
  C     -1.456665    2.372404    0.155064
  C     -2.408544    3.454151   -0.309277
  O     -3.488916    0.409646   -0.547038
  C     -4.539801   -0.577979   -0.512885
  C     -5.866043    0.153669   -0.548657
  H      2.526207    2.809285   -2.266946
  H      2.590095    1.085498   -1.874676
  H      1.055289    1.952036   -1.781057
  H      2.008245    3.372836    0.087692
  H      3.501281    2.397974    0.009900
  H      3.840404   -1.993800   -0.206194
  H      5.280866   -0.943713   -0.292807
  H      4.092784   -2.122161    2.275924
  H      5.566790   -2.677773    1.468203
  H      5.501520   -1.063058    2.194188
  H      0.388207   -2.507302    1.079979
  H     -0.496611   -2.702319   -0.480954
  H     -1.831755    1.865497    1.048905
  H     -0.462486    2.771479    0.362836
  H     -3.388219    3.028899   -0.509985
  H     -2.495519    4.207017    0.467861
  H     -2.032943    3.915295   -1.218446
  H     -4.421867   -1.239774   -1.377087
  H     -4.428971   -1.162645    0.404446
  H     -5.947954    0.733441   -1.463637
  H     -6.672397   -0.571235   -0.511561
  H     -5.945475    0.822818    0.303148

 Total Charge           Charge          ....    0
 Multiplicity           Mult            ....    1
 Number of Electrons    NEL             ....  202
 Basis Dimension        Dim             ....  334

ORBITAL ENERGIES
----------------

  NO   OCC          E(Eh)            E(eV)
   0   2.0000     -88.041856     -2395.7407
   1   2.0000     -88.037388     -2395.6191
   2   2.0000     -87.984041     -2394.1675
   3   2.0000     -87.983184     -2394.1442
   4   2.0000     -76.426254     -2079.6641
   5   2.0000     -76.424682     -2079.6213
   6   2.0000     -18.797212      -511.4981
   7   2.0000     -18.795496      -511.4514
   8   2.0000     -18.792651      -511.3740
   9   2.0000     -18.791611      -511.3457
  10   2.0000      -9.957117      -270.9469
  11   2.0000      -9.956812      -270.9386
  12   2.0000      -9.954076      -270.8642
  13   2.0000      -9.953721      -270.8545
  14   2.0000      -9.952278      -270.8153
  15   2.0000      -9.890292      -269.1285
  16   2.0000      -9.886044      -269.0129
  17   2.0000      -9.884440      -268.9693
  18   2.0000      -9.881594      -268.8918
  19   2.0000      -7.685829      -209.1420
  20   2.0000      -7.682168      -209.0424
  21   2.0000      -7.629376      -207.6059
  22   2.0000      -7.628417      -207.5798
  23   2.0000      -6.423517      -174.7928
  24   2.0000      -6.422253      -174.7584
  25   2.0000      -5.713724      -155.4783
  26   2.0000      -5.710200      -155.3824
  27   2.0000      -5.710016      -155.3774
  28   2.0000      -5.706696      -155.2871
  29   2.0000      -5.703086      -155.1889
  30   2.0000      -5.699234      -155.0840
  31   2.0000      -5.658443      -153.9741
  32   2.0000      -5.657469      -153.9476
  33   2.0000      -5.649756      -153.7377
  34   2.0000      -5.649590      -153.7332
  35   2.0000      -5.648810      -153.7119
  36   2.0000      -5.648626      -153.7069
  37   2.0000      -4.646485      -126.4373
  38   2.0000      -4.645211      -126.4026
  39   2.0000      -4.645135      -126.4005
  40   2.0000      -4.644018      -126.3701
  41   2.0000      -4.643729      -126.3623
  42   2.0000      -4.642417      -126.3266
  43   2.0000      -0.990495       -26.9527
  44   2.0000      -0.989919       -26.9371
  45   2.0000      -0.946352       -25.7515
  46   2.0000      -0.944809       -25.7095
  47   2.0000      -0.760493       -20.6941
  48   2.0000      -0.720087       -19.5946
  49   2.0000      -0.711724       -19.3670
  50   2.0000      -0.693103       -18.8603
  51   2.0000      -0.691222       -18.8091
  52   2.0000      -0.672265       -18.2932
  53   2.0000      -0.647796       -17.6274
  54   2.0000      -0.637845       -17.3566
  55   2.0000      -0.591663       -16.1000
  56   2.0000      -0.587474       -15.9860
  57   2.0000      -0.580348       -15.7921
  58   2.0000      -0.570522       -15.5247
  59   2.0000      -0.564483       -15.3604
  60   2.0000      -0.510378       -13.8881
  61   2.0000      -0.500456       -13.6181
  62   2.0000      -0.482012       -13.1162
  63   2.0000      -0.475511       -12.9393
  64   2.0000      -0.455996       -12.4083
  65   2.0000      -0.449357       -12.2276
  66   2.0000      -0.445066       -12.1109
  67   2.0000      -0.434969       -11.8361
  68   2.0000      -0.426299       -11.6002
  69   2.0000      -0.414610       -11.2821
  70   2.0000      -0.406994       -11.0749
  71   2.0000      -0.402230       -10.9452
  72   2.0000      -0.391691       -10.6585
  73   2.0000      -0.385457       -10.4888
  74   2.0000      -0.382700       -10.4138
  75   2.0000      -0.371011       -10.0957
  76   2.0000      -0.361483        -9.8364
  77   2.0000      -0.356282        -9.6949
  78   2.0000      -0.353995        -9.6327
  79   2.0000      -0.353421        -9.6171
  80   2.0000      -0.349827        -9.5193
  81   2.0000      -0.345206        -9.3935
  82   2.0000      -0.343048        -9.3348
  83   2.0000      -0.340597        -9.2681
  84   2.0000      -0.334694        -9.1075
  85   2.0000      -0.323877        -8.8131
  86   2.0000      -0.312315        -8.4985
  87   2.0000      -0.301601        -8.2070
  88   2.0000      -0.299369        -8.1462
  89   2.0000      -0.295568        -8.0428
  90   2.0000      -0.291838        -7.9413
  91   2.0000      -0.278094        -7.5673
  92   2.0000      -0.273470        -7.4415
  93   2.0000      -0.263253        -7.1635
  94   2.0000      -0.255696        -6.9578
  95   2.0000      -0.235650        -6.4124
  96   2.0000      -0.214350        -5.8328
  97   2.0000      -0.209804        -5.7090
  98   2.0000      -0.206300        -5.6137
  99   2.0000      -0.194368        -5.2890
 100   2.0000      -0.190752        -5.1906
 101   0.0000      -0.042809        -1.1649
 102   0.0000      -0.026241        -0.7141
 103   0.0000      -0.002415        -0.0657
 104   0.0000       0.005489         0.1494
 105   0.0000       0.007379         0.2008

MULLIKEN ATOMIC CHARGES
-----------------------
   0 C :   -0.340516
   1 C :   -0.003583
   2 O :   -0.368533
   3 P :    0.620625
   4 S :   -0.313150
   5 O :   -0.384470
   6 C :   -0.009988
   7 C :   -0.297628
   8 S :   -0.101048
   9 C :   -0.327035
  10 S :   -0.090308
  11 P :    0.597107
  12 S :   -0.314580
  13 O :   -0.356191
  14 C :   -0.026063
  15 C :   -0.285514
  16 O :   -0.384722
  17 C :   -0.009752
  18 C :   -0.283084
  19 H :    0.112165
  20 H :    0.121414
  21 H :    0.153529
  22 H :    0.109633
  23 H :    0.113357
  24 H :    0.103723
  25 H :    0.105179
  26 H :    0.128977
  27 H :    0.107802
  28 H :    0.115251
  29 H :    0.181824
  30 H :    0.186464
  31 H :    0.108325
  32 H :    0.123169
  33 H :    0.120858
  34 H :    0.109956
  35 H :    0.115201
  36 H :    0.105745
  37 H :    0.103910
  38 H :    0.121839
  39 H :    0.113807
  40 H :    0.116303
Sum of atomic charges:    0.0000000

LOEWDIN ATOMIC CHARGES
----------------------
   0 C :   -0.373036
   1 C :   -0.111607
   2 O :   -0.238257
   3 P :    0.565343
   4 S :   -0.305638
   5 O :   -0.245775
   6 C :   -0.117761
   7 C :   -0.365815
   8 S :    0.090147
   9 C :   -0.480153
  10 S :    0.069186
  11 P :    0.564759
  12 S :   -0.314726
  13 O :   -0.231774
  14 C :   -0.115795
  15 C :   -0.357816
  16 O :   -0.250392
  17 C :   -0.121126
  18 C :   -0.350681
  19 H :    0.131212
  20 H :    0.117449
  21 H :    0.133318
  22 H :    0.116969
  23 H :    0.115069
  24 H :    0.103848
  25 H :    0.118077
  26 H :    0.122879
  27 H :    0.128860
  28 H :    0.127139
  29 H :    0.128549
  30 H :    0.132477
  31 H :    0.108308
  32 H :    0.119186
  33 H :    0.125905
  34 H :    0.129650
  35 H :    0.126671
  36 H :    0.109555
  37 H :    0.109054
  38 H :    0.128951
  39 H :    0.131848
  40 H :    0.125939

  Mayer bond orders larger than 0.100000
B(  0-C ,  1-C ) :   1.1728 B(  0-C , 19-H ) :   0.9351 B(  0-C , 20-H ) :   0.9358
B(  0-C , 21-H ) :   0.9282 B(  1-C ,  2-O ) :   0.8908 B(  1-C , 22-H ) :   0.9272
B(  1-C , 23-H ) :   0.9268 B(  2-O ,  3-P ) :   1.1240 B(  3-P ,  4-S ) :   1.6540
B(  3-P ,  5-O ) :   1.0706 B(  3-P ,  8-S ) :   0.9382 B(  4-S ,  8-S ) :   0.1150
B(  5-O ,  6-C ) :   0.9103 B(  6-C ,  7-C ) :   1.1663 B(  6-C , 24-H ) :   0.9134
B(  6-C , 25-H ) :   0.9357 B(  7-C , 26-H ) :   0.9305 B(  7-C , 27-H ) :   0.9381
B(  7-C , 28-H ) :   0.9472 B(  8-S ,  9-C ) :   1.0114 B(  9-C , 10-S ) :   0.9993
B(  9-C , 29-H ) :   0.8841 B(  9-C , 30-H ) :   0.8898 B( 10-S , 11-P ) :   0.9608
B( 10-S , 12-S ) :   0.1124 B( 11-P , 12-S ) :   1.6455 B( 11-P , 13-O ) :   1.1214
B( 11-P , 16-O ) :   1.0730 B( 13-O , 14-C ) :   0.8807 B( 14-C , 15-C ) :   1.1612
B( 14-C , 31-H ) :   0.9148 B( 14-C , 32-H ) :   0.9227 B( 15-C , 33-H ) :   0.9418
B( 15-C , 34-H ) :   0.9405 B( 15-C , 35-H ) :   0.9475 B( 16-O , 17-C ) :   0.9046
B( 17-C , 18-C ) :   1.1594 B( 17-C , 36-H ) :   0.9105 B( 17-C , 37-H ) :   0.9262
B( 18-C , 38-H ) :   0.9508 B( 18-C , 39-H ) :   0.9418 B( 18-C , 40-H ) :   0.9508

Dispersion correction           -0.065612861
FINAL SINGLE POINT ENERGY     -2929.521846931198

DIPOLE MOMENT
-------------

Method             : SCF
Type of density    : Electron Density
Multiplicity       :   1
Irrep              :   0
Energy             : -2929.6422890418321003 Eh
Relativity type    :
Basis              : AO
                                X                 Y                 Z
Electronic contribution:      1.884166507     -10.811253963       2.057537379
Nuclear contribution   :     -1.771854598      11.431437738      -2.188494777
                        -----------------------------------------
Total Dipole Moment    :      0.112311908       0.620183775      -0.130957397
                        -----------------------------------------
Magnitude (a.u.)       :      0.643732645
Magnitude (Debye)      :      1.636238351

Rotational constants in cm-1:             0.013657             0.004850             0.004544
Rotational constants in MHz :           409.422501           145.413193           136.212034

                             ****ORCA TERMINATED NORMALLY****
TOTAL RUN TIME: 0 days 0 hours 0 minutes 21 seconds 202 msec
