                         Program Version 6.0.0  -   RELEASE  -
|  1> ! r2scan-3c def2/J RI DEFGRID2 scfconv6 printgap
|  2> %output
|  3>     printlevel normal
|  4> end
|  5> * xyz 0 1
|  6> C -2.394973442 0.0294134203 -4.16135e-05
|  7> C -0.8991255158 0.0256777785 2.18639e-05
|  8> C -0.1784291187 1.2200385832 6.33972e-05
|  9> C 1.2029806219 1.1718171397 7.32994e-05
| 10> C 1.8276235118 -0.0675604937 -2.69226e-05
| 11> C 1.0272446734 -1.1970033742 2.34828e-05
| 12> N -0.2965236368 -1.1582570872 6.01351e-05
| 13> H -2.767742898 0.5448113027 -0.8827756363
| 14> H -2.7634929747 -0.9911880544 0.003324079
| 15> H -2.7679691904 0.55096814 0.8789197055
| 16> H -0.7018221378 2.1636803461 -0.0002556622
| 17> H 1.7854089881 2.0814406328 -0.0005600473
| 18> H 2.9022215663 -0.1541517488 -0.000389933
| 19> H 1.4592466021 -2.189418224 -0.0004507278
| 20> *
| 21>
| 22>                          ****END OF INPUT****

CARTESIAN COORDINATES (ANGSTROEM)
---------------------------------
  C     -2.394973    0.029413   -0.000042
  C     -0.899126    0.025678    0.000022
  C     -0.178429    1.220039    0.000063
  C      1.202981    1.171817    0.000073
  C      1.827624   -0.067560   -0.000027
  C      1.027245   -1.197003    0.000023
  N     -0.296524   -1.158257    0.000060
  H     -2.767743    0.544811   -0.882776
  H     -2.763493   -0.991188    0.003324
  H     -2.767969    0.550968    0.878920
  H     -0.701822    2.163680   -0.000256
  H      1.785409    2.081441   -0.000560
  H      2.902222   -0.154152   -0.000390
  H      1.459247   -2.189418   -0.000451

 Total Charge           Charge          ....    0
 Multiplicity           Mult            ....    1
 Number of Electrons    NEL             ....   50
 Basis Dimension        Dim             ....  173

ORBITAL ENERGIES
----------------

  NO   OCC          E(Eh)            E(eV)
   0   2.0000     -14.149236      -385.0203
   1   2.0000     -10.074206      -274.1331
   2   2.0000     -10.063820      -273.8505
   3   2.0000     -10.052345      -273.5382
   4   2.0000     -10.040582      -273.2181
   5   2.0000     -10.040541      -273.2170
   6   2.0000     -10.024311      -272.7754
   7   2.0000      -0.913635       -24.8613
   8   2.0000      -0.772820       -21.0295
   9   2.0000      -0.752474       -20.4759
  10   2.0000      -0.669879       -18.2283
  11   2.0000      -0.600536       -16.3414
  12   2.0000      -0.573672       -15.6104
  13   2.0000      -0.485705       -13.2167
  14   2.0000      -0.458041       -12.4639
  15   2.0000      -0.429641       -11.6911
  16   2.0000      -0.405458       -11.0331
  17   2.0000      -0.388643       -10.5755
  18   2.0000      -0.377118       -10.2619
  19   2.0000      -0.353947        -9.6314
  20   2.0000      -0.347433        -9.4541
  21   2.0000      -0.328428        -8.9370
  22   2.0000      -0.269954        -7.3458
  23   2.0000      -0.237394        -6.4598
  24   2.0000      -0.221007        -6.0139
  25   0.0000      -0.049985        -1.3602
  26   0.0000      -0.038380        -1.0444
  27   0.0000       0.079169         2.1543
  28   0.0000       0.105582         2.8730
  29   0.0000       0.110324         3.0021

MULLIKEN ATOMIC CHARGES
-----------------------
   0 C :   -0.573559
   1 C :    0.270393
   2 C :   -0.188420
   3 C :   -0.168876
   4 C :   -0.103113
   5 C :   -0.112994
   6 N :   -0.197666
   7 H :    0.154877
   8 H :    0.179907
   9 H :    0.154675
  10 H :    0.152450
  11 H :    0.148841
  12 H :    0.149728
  13 H :    0.133757
Sum of atomic charges:   -0.0000000

LOEWDIN ATOMIC CHARGES
----------------------
   0 C :   -0.362699
   1 C :    0.126776
   2 C :   -0.144881
   3 C :   -0.122657
   4 C :   -0.159080
   5 C :    0.082878
   6 N :   -0.620873
   7 H :    0.166189
   8 H :    0.175851
   9 H :    0.166098
  10 H :    0.170472
  11 H :    0.168769
  12 H :    0.169313
  13 H :    0.183844

  Mayer bond orders larger than 0.100000
B(  0-C ,  1-C ) :   0.8360 B(  0-C ,  7-H ) :   0.9674 B(  0-C ,  8-H ) :   0.9976
B(  0-C ,  9-H ) :   0.9678 B(  1-C ,  2-C ) :   1.3756 B(  1-C ,  6-N ) :   1.3478
B(  2-C ,  3-C ) :   1.4594 B(  2-C , 10-H ) :   0.9171 B(  3-C ,  4-C ) :   1.3903
B(  3-C , 11-H ) :   0.9500 B(  4-C ,  5-C ) :   1.3720 B(  4-C , 12-H ) :   0.9355
B(  5-C ,  6-N ) :   1.4654 B(  5-C , 13-H ) :   0.9812

Dispersion correction           -0.004067938
FINAL SINGLE POINT ENERGY      -287.519974472314

DIPOLE MOMENT
-------------

Method             : SCF
Type of density    : Electron Density
Multiplicity       :   1
Irrep              :   0
Energy             :  -287.5219314650603906 Eh
Relativity type    :
Basis              : AO
                                X                 Y                 Z
Electronic contribution:      2.910361656      -1.183479540       0.001424407
Nuclear contribution   :     -2.679321877       1.875731195      -0.002052602
                        -----------------------------------------
Total Dipole Moment    :      0.231039779       0.692251655      -0.000628195
                        -----------------------------------------
Magnitude (a.u.)       :      0.729789098
Magnitude (Debye)      :      1.854976470

Rotational constants in cm-1:             0.192556             0.088984             0.061555
Rotational constants in MHz :          5772.678610          2667.662254          1845.360356

                             ****ORCA TERMINATED NORMALLY****
TOTAL RUN TIME: 0 days 0 hours 0 minutes 17 seconds 174 msec
