                         Program Version 6.0.0  -   RELEASE  -
|  1> ! r2scan-3c def2/J RI DEFGRID2 scfconv6 printgap
|  2> %output
|  3>     printlevel normal
|  4> end
|  5> %cpcm
|  6>     smd true
|  7>     smdsolvent "water"
|  8> end
|  9> * xyz 0 1
| 10> C -2.394973442 0.0294134203 -4.16135e-05
| 11> C -0.8991255158 0.0256777785 2.18639e-05
| 12> C -0.1784291187 1.2200385832 6.33972e-05
| 13> C 1.2029806219 1.1718171397 7.32994e-05
| 14> C 1.8276235118 -0.0675604937 -2.69226e-05
| 15> C 1.0272446734 -1.1970033742 2.34828e-05
| 16> N -0.2965236368 -1.1582570872 6.01351e-05
| 17> H -2.767742898 0.5448113027 -0.8827756363
| 18> H -2.7634929747 -0.9911880544 0.003324079
| 19> H -2.7679691904 0.55096814 0.8789197055
| 20> H -0.7018221378 2.1636803461 -0.0002556622
| 21> H 1.7854089881 2.0814406328 -0.0005600473
| 22> H 2.9022215663 -0.1541517488 -0.000389933
| 23> H 1.4592466021 -2.189418224 -0.0004507278
| 24> *
| 25>
| 26>                          ****END OF INPUT****

CARTESIAN COORDINATES (ANGSTROEM)
---------------------------------
  C     -2.394973    0.029413   -0.000042
  C     -0.899126    0.025678    0.000022
  C     -0.178429    1.220039    0.000063
  C      1.202981    1.171817    0.000073
  C      1.827624   -0.067560   -0.000027
  C      1.027245   -1.197003    0.000023
  N     -0.296524   -1.158257    0.000060
  H     -2.767743    0.544811   -0.882776
  H     -2.763493   -0.991188    0.003324
  H     -2.767969    0.550968    0.878920
  H     -0.701822    2.163680   -0.000256
  H      1.785409    2.081441   -0.000560
  H      2.902222   -0.154152   -0.000390
  H      1.459247   -2.189418   -0.000451

 Total Charge           Charge          ....    0
 Multiplicity           Mult            ....    1
 Number of Electrons    NEL             ....   50
 Basis Dimension        Dim             ....  173

ORBITAL ENERGIES
----------------

  NO   OCC          E(Eh)            E(eV)
   0   2.0000     -14.153227      -385.1289
   1   2.0000     -10.073575      -274.1159
   2   2.0000     -10.062345      -273.8103
   3   2.0000     -10.046756      -273.3861
   4   2.0000     -10.035621      -273.0831
   5   2.0000     -10.035392      -273.0769
   6   2.0000     -10.017364      -272.5863
   7   2.0000      -0.916084       -24.9279
   8   2.0000      -0.769977       -20.9521
   9   2.0000      -0.749821       -20.4037
  10   2.0000      -0.664786       -18.0898
  11   2.0000      -0.597411       -16.2564
  12   2.0000      -0.569955       -15.5093
  13   2.0000      -0.479854       -13.0575
  14   2.0000      -0.455045       -12.3824
  15   2.0000      -0.422333       -11.4923
  16   2.0000      -0.402661       -10.9570
  17   2.0000      -0.382604       -10.4112
  18   2.0000      -0.371656       -10.1133
  19   2.0000      -0.351669        -9.5694
  20   2.0000      -0.342235        -9.3127
  21   2.0000      -0.322925        -8.7872
  22   2.0000      -0.270921        -7.3721
  23   2.0000      -0.236049        -6.4232
  24   2.0000      -0.227855        -6.2002
  25   0.0000      -0.049999        -1.3605
  26   0.0000      -0.037176        -1.0116
  27   0.0000       0.083430         2.2702
  28   0.0000       0.108027         2.9396
  29   0.0000       0.117589         3.1997

MULLIKEN ATOMIC CHARGES
-----------------------
   0 C :   -0.595923
   1 C :    0.260463
   2 C :   -0.207109
   3 C :   -0.184497
   4 C :   -0.141441
   5 C :   -0.129908
   6 N :   -0.251851
   7 H :    0.177153
   8 H :    0.177651
   9 H :    0.176987
  10 H :    0.187083
  11 H :    0.185828
  12 H :    0.185127
  13 H :    0.160438
Sum of atomic charges:   -0.0000000

LOEWDIN ATOMIC CHARGES
----------------------
   0 C :   -0.366579
   1 C :    0.121401
   2 C :   -0.142565
   3 C :   -0.120343
   4 C :   -0.160855
   5 C :    0.072636
   6 N :   -0.666341
   7 H :    0.175041
   8 H :    0.172719
   9 H :    0.174972
  10 H :    0.183635
  11 H :    0.182035
  12 H :    0.181730
  13 H :    0.192514

  Mayer bond orders larger than 0.100000
B(  0-C ,  1-C ) :   0.8453 B(  0-C ,  7-H ) :   0.9563 B(  0-C ,  8-H ) :   1.0008
B(  0-C ,  9-H ) :   0.9566 B(  1-C ,  2-C ) :   1.3694 B(  1-C ,  6-N ) :   1.3409
B(  2-C ,  3-C ) :   1.4342 B(  2-C , 10-H ) :   0.9211 B(  3-C ,  4-C ) :   1.3630
B(  3-C , 11-H ) :   0.9512 B(  4-C ,  5-C ) :   1.3748 B(  4-C , 12-H ) :   0.9377
B(  5-C ,  6-N ) :   1.4533 B(  5-C , 13-H ) :   0.9699

Dispersion correction           -0.004067938
FINAL SINGLE POINT ENERGY      -287.526191556023

DIPOLE MOMENT
-------------

Method             : SCF
Type of density    : Electron Density
Multiplicity       :   1
Irrep              :   0
Energy             :  -287.5281485487694795 Eh
Relativity type    :
Basis              : AO
                                X                 Y                 Z
Electronic contribution:      3.029249320      -0.823115035       0.001179333
Nuclear contribution   :     -2.679321877       1.875731195      -0.002052602
                        -----------------------------------------
Total Dipole Moment    :      0.349927443       1.052616160      -0.000873268
                        -----------------------------------------
Magnitude (a.u.)       :      1.109256850
Magnitude (Debye)      :      2.819506843

Rotational constants in cm-1:             0.192556             0.088984             0.061555
Rotational constants in MHz :          5772.678610          2667.662254          1845.360356

                             ****ORCA TERMINATED NORMALLY****
TOTAL RUN TIME: 0 days 0 hours 0 minutes 24 seconds 359 msec
