                         Program Version 6.0.0  -   RELEASE  -
|  1> ! pbe def2-sv(p) def2/J RI DEFGRID1 loosescf d4 GCP(DFT/SV(P)) printgap
|  2> %output
|  3>     printlevel normal
|  4> end
|  5> * xyz 0 1
|  6> C 0.7194562699 -0.4309738645 3.5064105205
|  7> C 1.7108446861 0.207150675 2.5554612552
|  8> O 2.1345536455 -0.8111080708 1.6123668359
|  9> P 2.6797074787 -0.4958713918 0.1711769231
| 10> S 3.1538337545 -2.1752504725 -0.7134275463
| 11> O 3.8182279016 0.5667103149 0.4819423767
| 12> C 4.4147480722 1.4588949087 -0.4779593689
| 13> C 4.9617385014 0.7349757881 -1.6900273375
| 14> S 1.1910279808 0.6754710072 -0.8281946228
| 15> C 0.115683076 -0.7199040048 -1.2291031041
| 16> S -1.0511712063 -1.0984383124 0.092261649
| 17> P -2.4867959612 0.3868191638 -0.4787971754
| 18> S -2.7948469077 0.5499583148 -2.4045757915
| 19> O -1.9621288846 1.7647265107 0.0713205968
| 20> C -1.6970456775 2.0377398559 1.4696557818
| 21> C -2.8655298473 2.7659320755 2.1013898145
| 22> O -3.7135908913 0.0755888151 0.4783522732
| 23> C -4.3234618558 -1.2175489774 0.650401475
| 24> C -4.7786861762 -1.8296486511 -0.6573306161
| 25> H 0.3736430289 0.3131670885 4.2165560272
| 26> H -0.1261740312 -0.8308334366 2.9519867528
| 27> H 1.1936817523 -1.2481934511 4.0416975727
| 28> H 2.6002706113 0.5641133368 3.0773057683
| 29> H 1.2631144131 1.0351989623 1.997620958
| 30> H 3.6607949514 2.19358562 -0.7741523269
| 31> H 5.2096307267 1.9485709532 0.0873585142
| 32> H 5.4717334071 1.4434607644 -2.3348014405
| 33> H 5.6587075453 -0.0423296769 -1.385580516
| 34> H 4.1506212262 0.2684473892 -2.2478872716
| 35> H 0.7342274725 -1.6047287981 -1.3931095121
| 36> H -0.4460589871 -0.4564834954 -2.1277617095
| 37> H -1.4935479759 1.0953827197 1.98488222
| 38> H -0.8003704575 2.6606473528 1.4585647724
| 39> H -2.6173346946 3.0134932565 3.1286559479
| 40> H -3.0744667477 3.6796148579 1.5519748271
| 41> H -3.7530553177 2.1391812179 2.0856669363
| 42> H -3.604083952 -1.8704563153 1.1523643332
| 43> H -5.1685526942 -1.0174073375 1.3113945038
| 44> H -3.9204336652 -2.0404523638 -1.2941234161
| 45> H -5.3063277749 -2.7568798032 -0.4581989123
| 46> H -5.4378508087 -1.1463449086 -1.1876437603
| 47> *
| 48>
| 49>                          ****END OF INPUT****

CARTESIAN COORDINATES (ANGSTROEM)
---------------------------------
  C      0.719456   -0.430974    3.506411
  C      1.710845    0.207151    2.555461
  O      2.134554   -0.811108    1.612367
  P      2.679707   -0.495871    0.171177
  S      3.153834   -2.175250   -0.713428
  O      3.818228    0.566710    0.481942
  C      4.414748    1.458895   -0.477959
  C      4.961739    0.734976   -1.690027
  S      1.191028    0.675471   -0.828195
  C      0.115683   -0.719904   -1.229103
  S     -1.051171   -1.098438    0.092262
  P     -2.486796    0.386819   -0.478797
  S     -2.794847    0.549958   -2.404576
  O     -1.962129    1.764727    0.071321
  C     -1.697046    2.037740    1.469656
  C     -2.865530    2.765932    2.101390
  O     -3.713591    0.075589    0.478352
  C     -4.323462   -1.217549    0.650401
  C     -4.778686   -1.829649   -0.657331
  H      0.373643    0.313167    4.216556
  H     -0.126174   -0.830833    2.951987
  H      1.193682   -1.248193    4.041698
  H      2.600271    0.564113    3.077306
  H      1.263114    1.035199    1.997621
  H      3.660795    2.193586   -0.774152
  H      5.209631    1.948571    0.087359
  H      5.471733    1.443461   -2.334801
  H      5.658708   -0.042330   -1.385581
  H      4.150621    0.268447   -2.247887
  H      0.734227   -1.604729   -1.393110
  H     -0.446059   -0.456483   -2.127762
  H     -1.493548    1.095383    1.984882
  H     -0.800370    2.660647    1.458565
  H     -2.617335    3.013493    3.128656
  H     -3.074467    3.679615    1.551975
  H     -3.753055    2.139181    2.085667
  H     -3.604084   -1.870456    1.152364
  H     -5.168553   -1.017407    1.311395
  H     -3.920434   -2.040452   -1.294123
  H     -5.306328   -2.756880   -0.458199
  H     -5.437851   -1.146345   -1.187644

 Total Charge           Charge          ....    0
 Multiplicity           Mult            ....    1
 Number of Electrons    NEL             ....  202
 Basis Dimension        Dim             ....  334

ORBITAL ENERGIES
----------------

  NO   OCC          E(Eh)            E(eV)
   0   2.0000     -88.046840     -2395.8763
   1   2.0000     -88.045088     -2395.8287
   2   2.0000     -87.985623     -2394.2105
   3   2.0000     -87.983594     -2394.1553
   4   2.0000     -76.430354     -2079.7757
   5   2.0000     -76.427715     -2079.7038
   6   2.0000     -18.802731      -511.6483
   7   2.0000     -18.798402      -511.5305
   8   2.0000     -18.795507      -511.4517
   9   2.0000     -18.793328      -511.3924
  10   2.0000      -9.965066      -271.1632
  11   2.0000      -9.962266      -271.0870
  12   2.0000      -9.961431      -271.0643
  13   2.0000      -9.958599      -270.9872
  14   2.0000      -9.951311      -270.7889
  15   2.0000      -9.891623      -269.1648
  16   2.0000      -9.891590      -269.1638
  17   2.0000      -9.886848      -269.0348
  18   2.0000      -9.884890      -268.9815
  19   2.0000      -7.691517      -209.2968
  20   2.0000      -7.689843      -209.2513
  21   2.0000      -7.630917      -207.6478
  22   2.0000      -7.628924      -207.5936
  23   2.0000      -6.427754      -174.9081
  24   2.0000      -6.425126      -174.8366
  25   2.0000      -5.719061      -155.6236
  26   2.0000      -5.717383      -155.5779
  27   2.0000      -5.716060      -155.5419
  28   2.0000      -5.714402      -155.4968
  29   2.0000      -5.708870      -155.3463
  30   2.0000      -5.707187      -155.3005
  31   2.0000      -5.660050      -154.0178
  32   2.0000      -5.658031      -153.9628
  33   2.0000      -5.651510      -153.7854
  34   2.0000      -5.650848      -153.7674
  35   2.0000      -5.649548      -153.7320
  36   2.0000      -5.648845      -153.7129
  37   2.0000      -4.650731      -126.5528
  38   2.0000      -4.649715      -126.5252
  39   2.0000      -4.648055      -126.4800
  40   2.0000      -4.647657      -126.4692
  41   2.0000      -4.647116      -126.4544
  42   2.0000      -4.645056      -126.3984
  43   2.0000      -0.995369       -27.0854
  44   2.0000      -0.992068       -26.9955
  45   2.0000      -0.951961       -25.9042
  46   2.0000      -0.948364       -25.8063
  47   2.0000      -0.766310       -20.8524
  48   2.0000      -0.726644       -19.7730
  49   2.0000      -0.717841       -19.5334
  50   2.0000      -0.697130       -18.9699
  51   2.0000      -0.693756       -18.8780
  52   2.0000      -0.680315       -18.5123
  53   2.0000      -0.652805       -17.7637
  54   2.0000      -0.640252       -17.4221
  55   2.0000      -0.595277       -16.1983
  56   2.0000      -0.591921       -16.1070
  57   2.0000      -0.581101       -15.8126
  58   2.0000      -0.575886       -15.6706
  59   2.0000      -0.568448       -15.4683
  60   2.0000      -0.513387       -13.9700
  61   2.0000      -0.505528       -13.7561
  62   2.0000      -0.481275       -13.0962
  63   2.0000      -0.477706       -12.9990
  64   2.0000      -0.466442       -12.6925
  65   2.0000      -0.453542       -12.3415
  66   2.0000      -0.443479       -12.0677
  67   2.0000      -0.439779       -11.9670
  68   2.0000      -0.436711       -11.8835
  69   2.0000      -0.420241       -11.4354
  70   2.0000      -0.417130       -11.3507
  71   2.0000      -0.409468       -11.1422
  72   2.0000      -0.398519       -10.8443
  73   2.0000      -0.391604       -10.6561
  74   2.0000      -0.385987       -10.5032
  75   2.0000      -0.370638       -10.0856
  76   2.0000      -0.363322        -9.8865
  77   2.0000      -0.360559        -9.8113
  78   2.0000      -0.358618        -9.7585
  79   2.0000      -0.351962        -9.5774
  80   2.0000      -0.350162        -9.5284
  81   2.0000      -0.349738        -9.5168
  82   2.0000      -0.344420        -9.3721
  83   2.0000      -0.342347        -9.3157
  84   2.0000      -0.341074        -9.2811
  85   2.0000      -0.325498        -8.8572
  86   2.0000      -0.322113        -8.7651
  87   2.0000      -0.302862        -8.2413
  88   2.0000      -0.300205        -8.1690
  89   2.0000      -0.298425        -8.1206
  90   2.0000      -0.294390        -8.0108
  91   2.0000      -0.284590        -7.7441
  92   2.0000      -0.279261        -7.5991
  93   2.0000      -0.269427        -7.3315
  94   2.0000      -0.258013        -7.0209
  95   2.0000      -0.241947        -6.5837
  96   2.0000      -0.225701        -6.1416
  97   2.0000      -0.207228        -5.6390
  98   2.0000      -0.200958        -5.4683
  99   2.0000      -0.200193        -5.4475
 100   2.0000      -0.196735        -5.3534
 101   0.0000      -0.043310        -1.1785
 102   0.0000      -0.030787        -0.8378
 103   0.0000      -0.015250        -0.4150
 104   0.0000      -0.001579        -0.0430
 105   0.0000       0.014215         0.3868

MULLIKEN ATOMIC CHARGES
-----------------------
   0 C :   -0.294711
   1 C :   -0.017797
   2 O :   -0.353518
   3 P :    0.590265
   4 S :   -0.301711
   5 O :   -0.383688
   6 C :   -0.011533
   7 C :   -0.311352
   8 S :   -0.103683
   9 C :   -0.364085
  10 S :   -0.103478
  11 P :    0.591534
  12 S :   -0.300997
  13 O :   -0.347076
  14 C :   -0.037676
  15 C :   -0.280210
  16 O :   -0.381091
  17 C :   -0.014089
  18 C :   -0.310221
  19 H :    0.105016
  20 H :    0.134993
  21 H :    0.122985
  22 H :    0.108651
  23 H :    0.103160
  24 H :    0.114708
  25 H :    0.109702
  26 H :    0.113009
  27 H :    0.127936
  28 H :    0.129995
  29 H :    0.193736
  30 H :    0.196163
  31 H :    0.107211
  32 H :    0.119064
  33 H :    0.107550
  34 H :    0.122058
  35 H :    0.120936
  36 H :    0.115895
  37 H :    0.110233
  38 H :    0.130111
  39 H :    0.113842
  40 H :    0.128167
Sum of atomic charges:    0.0000000

LOEWDIN ATOMIC CHARGES
----------------------
   0 C :   -0.356630
   1 C :   -0.116186
   2 O :   -0.234944
   3 P :    0.568615
   4 S :   -0.304111
   5 O :   -0.246639
   6 C :   -0.113635
   7 C :   -0.368789
   8 S :    0.066575
   9 C :   -0.492033
  10 S :    0.069702
  11 P :    0.569085
  12 S :   -0.300934
  13 O :   -0.231711
  14 C :   -0.118082
  15 C :   -0.357353
  16 O :   -0.244058
  17 C :   -0.114617
  18 C :   -0.368582
  19 H :    0.126813
  20 H :    0.121180
  21 H :    0.131181
  22 H :    0.116484
  23 H :    0.100280
  24 H :    0.109196
  25 H :    0.121501
  26 H :    0.131012
  27 H :    0.131077
  28 H :    0.123599
  29 H :    0.127752
  30 H :    0.127949
  31 H :    0.104601
  32 H :    0.119302
  33 H :    0.128464
  34 H :    0.130178
  35 H :    0.126737
  36 H :    0.109082
  37 H :    0.121445
  38 H :    0.123638
  39 H :    0.131513
  40 H :    0.131341

  Mayer bond orders larger than 0.100000
B(  0-C ,  1-C ) :   1.1681 B(  0-C , 19-H ) :   0.9404 B(  0-C , 20-H ) :   0.9321
B(  0-C , 21-H ) :   0.9455 B(  1-C ,  2-O ) :   0.8874 B(  1-C , 22-H ) :   0.9304
B(  1-C , 23-H ) :   0.9062 B(  2-O ,  3-P ) :   1.1398 B(  3-P ,  4-S ) :   1.6478
B(  3-P ,  5-O ) :   1.0893 B(  3-P ,  8-S ) :   0.9405 B(  4-S ,  8-S ) :   0.1108
B(  4-S , 29-H ) :   0.1112 B(  5-O ,  6-C ) :   0.9110 B(  6-C ,  7-C ) :   1.1670
B(  6-C , 24-H ) :   0.9271 B(  6-C , 25-H ) :   0.9333 B(  7-C , 26-H ) :   0.9347
B(  7-C , 27-H ) :   0.9433 B(  7-C , 28-H ) :   0.9319 B(  8-S ,  9-C ) :   1.0026
B(  9-C , 10-S ) :   1.0030 B(  9-C , 29-H ) :   0.8547 B(  9-C , 30-H ) :   0.8561
B( 10-S , 11-P ) :   0.9396 B( 10-S , 12-S ) :   0.1112 B( 11-P , 12-S ) :   1.6486
B( 11-P , 13-O ) :   1.1415 B( 11-P , 16-O ) :   1.0826 B( 12-S , 30-H ) :   0.1076
B( 13-O , 14-C ) :   0.8935 B( 14-C , 15-C ) :   1.1586 B( 14-C , 31-H ) :   0.9067
B( 14-C , 32-H ) :   0.9284 B( 15-C , 33-H ) :   0.9403 B( 15-C , 34-H ) :   0.9461
B( 15-C , 35-H ) :   0.9420 B( 16-O , 17-C ) :   0.9084 B( 17-C , 18-C ) :   1.1676
B( 17-C , 36-H ) :   0.9260 B( 17-C , 37-H ) :   0.9328 B( 18-C , 38-H ) :   0.9316
B( 18-C , 39-H ) :   0.9346 B( 18-C , 40-H ) :   0.9433

Dispersion correction           -0.064071018
FINAL SINGLE POINT ENERGY     -2929.515541402583

DIPOLE MOMENT
-------------

Method             : SCF
Type of density    : Electron Density
Multiplicity       :   1
Irrep              :   0
Energy             : -2929.6365115658700233 Eh
Relativity type    :
Basis              : AO
                                X                 Y                 Z
Electronic contribution:      4.996397233      -6.073539453     -13.460397795
Nuclear contribution   :     -5.278695805       7.067254418      15.288819359
                        -----------------------------------------
Total Dipole Moment    :     -0.282298572       0.993714965       1.828421564
                        -----------------------------------------
Magnitude (a.u.)       :      2.100068411
Magnitude (Debye)      :      5.337949687

Rotational constants in cm-1:             0.012457             0.004544             0.004291
Rotational constants in MHz :           373.437495           136.230958           128.629236

                             ****ORCA TERMINATED NORMALLY****
TOTAL RUN TIME: 0 days 0 hours 0 minutes 21 seconds 146 msec
