                         Program Version 6.0.0  -   RELEASE  -
|  1> ! pbe def2-sv(p) def2/J RI DEFGRID1 loosescf d4 GCP(DFT/SV(P)) printgap
|  2> %output
|  3>     printlevel normal
|  4> end
|  5> * xyz 0 1
|  6> C 5.7878381019 -0.3587495814 0.2748164896
|  7> C 4.445715533 -0.7844205814 -0.2854153408
|  8> O 3.4282554656 0.0264686669 0.3340973293
|  9> P 1.97168638 0.1562172706 -0.2911359362
| 10> S 1.9534348218 0.5268359931 -2.2199092263
| 11> O 1.3214850143 1.2122285623 0.6879598113
| 12> C 1.366777936 2.6302935024 0.434828625
| 13> C 2.7798798086 3.1687042608 0.4847287282
| 14> S 1.0869051282 -1.6491727388 0.3262471521
| 15> C -0.1323291955 -1.9144224952 -1.0086836622
| 16> S -1.8202449849 -2.0379739388 -0.3912569958
| 17> P -2.0680667916 0.0058487361 0.1498756909
| 18> S -1.4398639935 1.3188700391 -1.1592603405
| 19> O -1.3141465494 0.2257348357 1.5155895599
| 20> C -1.5445036962 -0.5758239317 2.7018845697
| 21> C -2.4662062742 0.1472155533 3.6617877053
| 22> O -3.5910649201 0.063843118 0.5925696508
| 23> C -4.6966474495 -0.4592664736 -0.1693638886
| 24> C -4.7477428431 0.085722148 -1.5807479028
| 25> H 5.7899532557 -0.4729182597 1.354826436
| 26> H 6.5656196111 -0.9808757689 -0.155428123
| 27> H 5.9842325272 0.6812180427 0.0299291774
| 28> H 4.232231811 -1.8323108532 -0.057307148
| 29> H 4.3952392911 -0.6368024493 -1.369655064
| 30> H 0.9056863498 2.8221811021 -0.5400804539
| 31> H 0.7366611641 3.0510355342 1.219908333
| 32> H 3.3611184027 2.7516122875 -0.3370785206
| 33> H 2.7548817225 4.2494827952 0.386420404
| 34> H 3.2515919378 2.8970402852 1.4254828202
| 35> H 0.0893487691 -2.8673020389 -1.4820919233
| 36> H -0.0529769486 -1.0898837996 -1.7233016208
| 37> H -1.9595429477 -1.5429164819 2.4038428588
| 38> H -0.5504315716 -0.7213689777 3.1299769261
| 39> H -2.58204578 -0.451745463 4.5596252113
| 40> H -2.0461810126 1.1137007659 3.926222384
| 41> H -3.4393772073 0.3027641448 3.2037427307
| 42> H -4.6168266078 -1.5496363342 -0.1784959075
| 43> H -5.5718188297 -0.1539840107 0.4068428393
| 44> H -4.76153079 1.1731537364 -1.5684321946
| 45> H -3.8721873585 -0.2383630066 -2.1418193213
| 46> H -5.6407340998 -0.2803021637 -2.0769245881
| 47> *
| 48>
| 49>                          ****END OF INPUT****

CARTESIAN COORDINATES (ANGSTROEM)
---------------------------------
  C      5.787838   -0.358750    0.274816
  C      4.445716   -0.784421   -0.285415
  O      3.428255    0.026469    0.334097
  P      1.971686    0.156217   -0.291136
  S      1.953435    0.526836   -2.219909
  O      1.321485    1.212229    0.687960
  C      1.366778    2.630294    0.434829
  C      2.779880    3.168704    0.484729
  S      1.086905   -1.649173    0.326247
  C     -0.132329   -1.914422   -1.008684
  S     -1.820245   -2.037974   -0.391257
  P     -2.068067    0.005849    0.149876
  S     -1.439864    1.318870   -1.159260
  O     -1.314147    0.225735    1.515590
  C     -1.544504   -0.575824    2.701885
  C     -2.466206    0.147216    3.661788
  O     -3.591065    0.063843    0.592570
  C     -4.696647   -0.459266   -0.169364
  C     -4.747743    0.085722   -1.580748
  H      5.789953   -0.472918    1.354826
  H      6.565620   -0.980876   -0.155428
  H      5.984233    0.681218    0.029929
  H      4.232232   -1.832311   -0.057307
  H      4.395239   -0.636802   -1.369655
  H      0.905686    2.822181   -0.540080
  H      0.736661    3.051036    1.219908
  H      3.361118    2.751612   -0.337079
  H      2.754882    4.249483    0.386420
  H      3.251592    2.897040    1.425483
  H      0.089349   -2.867302   -1.482092
  H     -0.052977   -1.089884   -1.723302
  H     -1.959543   -1.542916    2.403843
  H     -0.550432   -0.721369    3.129977
  H     -2.582046   -0.451745    4.559625
  H     -2.046181    1.113701    3.926222
  H     -3.439377    0.302764    3.203743
  H     -4.616827   -1.549636   -0.178496
  H     -5.571819   -0.153984    0.406843
  H     -4.761531    1.173154   -1.568432
  H     -3.872187   -0.238363   -2.141819
  H     -5.640734   -0.280302   -2.076925

 Total Charge           Charge          ....    0
 Multiplicity           Mult            ....    1
 Number of Electrons    NEL             ....  202
 Basis Dimension        Dim             ....  334

ORBITAL ENERGIES
----------------

  NO   OCC          E(Eh)            E(eV)
   0   2.0000     -88.045736     -2395.8463
   1   2.0000     -88.039430     -2395.6747
   2   2.0000     -87.979617     -2394.0471
   3   2.0000     -87.977948     -2394.0017
   4   2.0000     -76.423838     -2079.5984
   5   2.0000     -76.418975     -2079.4660
   6   2.0000     -18.796480      -511.4782
   7   2.0000     -18.787107      -511.2232
   8   2.0000     -18.786638      -511.2104
   9   2.0000     -18.778947      -511.0011
  10   2.0000      -9.960915      -271.0503
  11   2.0000      -9.954690      -270.8809
  12   2.0000      -9.950556      -270.7684
  13   2.0000      -9.947231      -270.6779
  14   2.0000      -9.938229      -270.4330
  15   2.0000      -9.885304      -268.9928
  16   2.0000      -9.884453      -268.9696
  17   2.0000      -9.883451      -268.9424
  18   2.0000      -9.874909      -268.7099
  19   2.0000      -7.690812      -209.2776
  20   2.0000      -7.684741      -209.1124
  21   2.0000      -7.624548      -207.4745
  22   2.0000      -7.622928      -207.4304
  23   2.0000      -6.421134      -174.7279
  24   2.0000      -6.416642      -174.6057
  25   2.0000      -5.718504      -155.6084
  26   2.0000      -5.715120      -155.5163
  27   2.0000      -5.712591      -155.4475
  28   2.0000      -5.709230      -155.3561
  29   2.0000      -5.708186      -155.3276
  30   2.0000      -5.701682      -155.1507
  31   2.0000      -5.653400      -153.8368
  32   2.0000      -5.652076      -153.8008
  33   2.0000      -5.645354      -153.6179
  34   2.0000      -5.644597      -153.5973
  35   2.0000      -5.643408      -153.5650
  36   2.0000      -5.642970      -153.5530
  37   2.0000      -4.643982      -126.3692
  38   2.0000      -4.643242      -126.3490
  39   2.0000      -4.641037      -126.2890
  40   2.0000      -4.638891      -126.2306
  41   2.0000      -4.638321      -126.2151
  42   2.0000      -4.637445      -126.1913
  43   2.0000      -0.987986       -26.8845
  44   2.0000      -0.979433       -26.6517
  45   2.0000      -0.943946       -25.6861
  46   2.0000      -0.936810       -25.4919
  47   2.0000      -0.762135       -20.7387
  48   2.0000      -0.719009       -19.5652
  49   2.0000      -0.708129       -19.2692
  50   2.0000      -0.690855       -18.7991
  51   2.0000      -0.682391       -18.5688
  52   2.0000      -0.671908       -18.2835
  53   2.0000      -0.647580       -17.6215
  54   2.0000      -0.631014       -17.1708
  55   2.0000      -0.594171       -16.1682
  56   2.0000      -0.587296       -15.9811
  57   2.0000      -0.572593       -15.5811
  58   2.0000      -0.567098       -15.4315
  59   2.0000      -0.557281       -15.1644
  60   2.0000      -0.503525       -13.7016
  61   2.0000      -0.495011       -13.4699
  62   2.0000      -0.474020       -12.8987
  63   2.0000      -0.467068       -12.7096
  64   2.0000      -0.453391       -12.3374
  65   2.0000      -0.444540       -12.0966
  66   2.0000      -0.436487       -11.8774
  67   2.0000      -0.433706       -11.8017
  68   2.0000      -0.426160       -11.5964
  69   2.0000      -0.414573       -11.2811
  70   2.0000      -0.410596       -11.1729
  71   2.0000      -0.396887       -10.7999
  72   2.0000      -0.390583       -10.6283
  73   2.0000      -0.384141       -10.4530
  74   2.0000      -0.379339       -10.3224
  75   2.0000      -0.368731       -10.0337
  76   2.0000      -0.357811        -9.7365
  77   2.0000      -0.355299        -9.6682
  78   2.0000      -0.352877        -9.6023
  79   2.0000      -0.347115        -9.4455
  80   2.0000      -0.344406        -9.3718
  81   2.0000      -0.340658        -9.2698
  82   2.0000      -0.339086        -9.2270
  83   2.0000      -0.335664        -9.1339
  84   2.0000      -0.330674        -8.9981
  85   2.0000      -0.319562        -8.6957
  86   2.0000      -0.307670        -8.3721
  87   2.0000      -0.297625        -8.0988
  88   2.0000      -0.295170        -8.0320
  89   2.0000      -0.287335        -7.8188
  90   2.0000      -0.277510        -7.5514
  91   2.0000      -0.272932        -7.4269
  92   2.0000      -0.265319        -7.2197
  93   2.0000      -0.258973        -7.0470
  94   2.0000      -0.255329        -6.9478
  95   2.0000      -0.237228        -6.4553
  96   2.0000      -0.220816        -6.0087
  97   2.0000      -0.211075        -5.7436
  98   2.0000      -0.199280        -5.4227
  99   2.0000      -0.190881        -5.1941
 100   2.0000      -0.181956        -4.9513
 101   0.0000      -0.038489        -1.0473
 102   0.0000      -0.027668        -0.7529
 103   0.0000      -0.011849        -0.3224
 104   0.0000       0.013806         0.3757
 105   0.0000       0.022629         0.6158

MULLIKEN ATOMIC CHARGES
-----------------------
   0 C :   -0.280873
   1 C :   -0.008833
   2 O :   -0.379308
   3 P :    0.613865
   4 S :   -0.321393
   5 O :   -0.350652
   6 C :   -0.000125
   7 C :   -0.305563
   8 S :   -0.103400
   9 C :   -0.351428
  10 S :   -0.118450
  11 P :    0.586223
  12 S :   -0.292906
  13 O :   -0.339168
  14 C :   -0.007801
  15 C :   -0.284994
  16 O :   -0.378975
  17 C :   -0.014810
  18 C :   -0.308012
  19 H :    0.115182
  20 H :    0.110435
  21 H :    0.119590
  22 H :    0.097556
  23 H :    0.103175
  24 H :    0.123036
  25 H :    0.101475
  26 H :    0.121220
  27 H :    0.108924
  28 H :    0.112051
  29 H :    0.182399
  30 H :    0.211983
  31 H :    0.094600
  32 H :    0.109849
  33 H :    0.107694
  34 H :    0.117925
  35 H :    0.117986
  36 H :    0.114427
  37 H :    0.109614
  38 H :    0.127603
  39 H :    0.128672
  40 H :    0.111206
Sum of atomic charges:    0.0000000

LOEWDIN ATOMIC CHARGES
----------------------
   0 C :   -0.350427
   1 C :   -0.123256
   2 O :   -0.249275
   3 P :    0.569809
   4 S :   -0.314006
   5 O :   -0.228143
   6 C :   -0.116840
   7 C :   -0.367218
   8 S :    0.073967
   9 C :   -0.477580
  10 S :    0.063406
  11 P :    0.561590
  12 S :   -0.286484
  13 O :   -0.225793
  14 C :   -0.117708
  15 C :   -0.358593
  16 O :   -0.246121
  17 C :   -0.115088
  18 C :   -0.369237
  19 H :    0.126229
  20 H :    0.130002
  21 H :    0.127769
  22 H :    0.107221
  23 H :    0.106395
  24 H :    0.109790
  25 H :    0.118427
  26 H :    0.120317
  27 H :    0.129099
  28 H :    0.123680
  29 H :    0.137109
  30 H :    0.127163
  31 H :    0.100619
  32 H :    0.119083
  33 H :    0.128408
  34 H :    0.127746
  35 H :    0.125005
  36 H :    0.107901
  37 H :    0.121219
  38 H :    0.131146
  39 H :    0.122584
  40 H :    0.130090

  Mayer bond orders larger than 0.100000
B(  0-C ,  1-C ) :   1.1596 B(  0-C , 19-H ) :   0.9505 B(  0-C , 20-H ) :   0.9423
B(  0-C , 21-H ) :   0.9517 B(  1-C ,  2-O ) :   0.9084 B(  1-C , 22-H ) :   0.9274
B(  1-C , 23-H ) :   0.9073 B(  2-O ,  3-P ) :   1.0921 B(  3-P ,  4-S ) :   1.6038
B(  3-P ,  5-O ) :   1.1578 B(  3-P ,  8-S ) :   0.9613 B(  4-S ,  8-S ) :   0.1163
B(  5-O ,  6-C ) :   0.9000 B(  6-C ,  7-C ) :   1.1587 B(  6-C , 24-H ) :   0.9130
B(  6-C , 25-H ) :   0.9361 B(  7-C , 26-H ) :   0.9346 B(  7-C , 27-H ) :   0.9388
B(  7-C , 28-H ) :   0.9446 B(  8-S ,  9-C ) :   0.9934 B(  9-C , 10-S ) :   1.0042
B(  9-C , 29-H ) :   0.9118 B(  9-C , 30-H ) :   0.8453 B( 10-S , 11-P ) :   0.9357
B( 10-S , 12-S ) :   0.1058 B( 11-P , 12-S ) :   1.6577 B( 11-P , 13-O ) :   1.1456
B( 11-P , 16-O ) :   1.0777 B( 13-O , 14-C ) :   0.8916 B( 14-C , 15-C ) :   1.1634
B( 14-C , 31-H ) :   0.9118 B( 14-C , 32-H ) :   0.9318 B( 15-C , 33-H ) :   0.9408
B( 15-C , 34-H ) :   0.9476 B( 15-C , 35-H ) :   0.9432 B( 16-O , 17-C ) :   0.9124
B( 17-C , 18-C ) :   1.1670 B( 17-C , 36-H ) :   0.9262 B( 17-C , 37-H ) :   0.9332
B( 18-C , 38-H ) :   0.9428 B( 18-C , 39-H ) :   0.9314 B( 18-C , 40-H ) :   0.9346

Dispersion correction           -0.066821089
FINAL SINGLE POINT ENERGY     -2929.518643445286

DIPOLE MOMENT
-------------

Method             : SCF
Type of density    : Electron Density
Multiplicity       :   1
Irrep              :   0
Energy             : -2929.6372280699283692 Eh
Relativity type    :
Basis              : AO
                                X                 Y                 Z
Electronic contribution:     -3.271282108      -6.529330470      -8.914039294
Nuclear contribution   :      2.879277340       5.770105804      10.044465388
                        -----------------------------------------
Total Dipole Moment    :     -0.392004767      -0.759224667       1.130426094
                        -----------------------------------------
Magnitude (a.u.)       :      1.417022578
Magnitude (Debye)      :      3.601785154

Rotational constants in cm-1:             0.013274             0.004937             0.004910
Rotational constants in MHz :           397.958614           148.016957           147.187896

                             ****ORCA TERMINATED NORMALLY****
TOTAL RUN TIME: 0 days 0 hours 0 minutes 21 seconds 122 msec
