                         Program Version 6.0.0  -   RELEASE  -
|  1> ! wb97x-v def2-tzvp def2/J RIJCOSX DEFGRID2 scfconv7 GCP(DFT/TZ) printgap
|  2> %output
|  3>     printlevel normal
|  4> end
|  5> * xyz 0 1
|  6> C 1.2723261660058984 -0.25037720980132516 0.022503243784433254
|  7> C -0.007182717849752726 0.5604003684846041 -0.022963307414854493
|  8> O -1.1840320550034609 -0.2721126763914158 0.05280365910799111
|  9> H 2.1416007619792916 0.41482017373735236 -0.02040119395526151
| 10> H 1.3313160718764556 -0.8362513397959827 0.9452867883706276
| 11> H 1.3279170020246094 -0.9351429301560962 -0.8310359545194298
| 12> H -0.04215263179397561 1.1729899876793004 -0.9346275902764646
| 13> H -0.06925761283712047 1.2349329713032056 0.8365066266521842
| 14> H -1.1601355728750469 -0.8651067800747687 -0.7095439021882818
| 15> *
| 16>
| 17>                          ****END OF INPUT****

CARTESIAN COORDINATES (ANGSTROEM)
---------------------------------
  C      1.272326   -0.250377    0.022503
  C     -0.007183    0.560400   -0.022963
  O     -1.184032   -0.272113    0.052804
  H      2.141601    0.414820   -0.020401
  H      1.331316   -0.836251    0.945287
  H      1.327917   -0.935143   -0.831036
  H     -0.042153    1.172990   -0.934628
  H     -0.069258    1.234933    0.836507
  H     -1.160136   -0.865107   -0.709544

 Total Charge           Charge          ....    0
 Multiplicity           Mult            ....    1
 Number of Electrons    NEL             ....   26
 Basis Dimension        Dim             ....  129

ORBITAL ENERGIES
----------------

  NO   OCC          E(Eh)            E(eV)
   0   2.0000     -21.667394      -589.5998
   1   2.0000     -12.092612      -329.0567
   2   2.0000     -12.040938      -327.6506
   3   2.0000      -1.664920       -45.3048
   4   2.0000      -1.265691       -34.4412
   5   2.0000      -1.132969       -30.8296
   6   2.0000      -1.012685       -27.5566
   7   2.0000      -0.951059       -25.8796
   8   2.0000      -0.924585       -25.1592
   9   2.0000      -0.858672       -23.3657
  10   2.0000      -0.821040       -22.3416
  11   2.0000      -0.803955       -21.8767
  12   2.0000      -0.772461       -21.0197
  13   0.0000      -0.138709        -3.7745
  14   0.0000      -0.046903        -1.2763
  15   0.0000       0.002420         0.0659
  16   0.0000       0.013804         0.3756
  17   0.0000       0.029454         0.8015

MULLIKEN ATOMIC CHARGES
-----------------------
   0 C :   -0.337833
   1 C :   -0.003595
   2 O :   -0.454390
   3 H :    0.104590
   4 H :    0.119107
   5 H :    0.096462
   6 H :    0.083976
   7 H :    0.097680
   8 H :    0.294004
Sum of atomic charges:   -0.0000000

LOEWDIN ATOMIC CHARGES
----------------------
   0 C :   -0.320855
   1 C :   -0.358912
   2 O :   -0.069788
   3 H :    0.120735
   4 H :    0.119291
   5 H :    0.112954
   6 H :    0.109706
   7 H :    0.122213
   8 H :    0.164657

  Mayer bond orders larger than 0.100000
B(  0-C ,  1-C ) :   0.9964 B(  0-C ,  3-H ) :   0.9684 B(  0-C ,  4-H ) :   0.9751
B(  0-C ,  5-H ) :   0.9745 B(  1-C ,  2-O ) :   0.9948 B(  1-C ,  6-H ) :   0.9759
B(  1-C ,  7-H ) :   0.9682 B(  2-O ,  8-H ) :   0.9079

FINAL SINGLE POINT ENERGY      -155.045748977542

DIPOLE MOMENT
-------------

Method             : SCF
Type of density    : Electron Density
Multiplicity       :   1
Irrep              :   0
Energy             :  -155.0518271327416073 Eh
Relativity type    :
Basis              : AO
                                X                 Y                 Z
Electronic contribution:     -2.782729941      -0.247195736       0.222611010
Nuclear contribution   :      3.316881064       0.224865908      -0.683574595
                        -----------------------------------------
Total Dipole Moment    :      0.534151123      -0.022329828      -0.460963585
                        -----------------------------------------
Magnitude (a.u.)       :      0.705906134
Magnitude (Debye)      :      1.794270800

Rotational constants in cm-1:             1.133036             0.305496             0.269422
Rotational constants in MHz :         33967.568270          9158.533511          8077.078164

                             ****ORCA TERMINATED NORMALLY****
TOTAL RUN TIME: 0 days 0 hours 0 minutes 27 seconds 539 msec
