                         Program Version 6.0.0  -   RELEASE  -
|  1> ! wb97x-v def2-tzvp def2/J RIJCOSX DEFGRID2 scfconv7 GCP(DFT/TZ) printgap
|  2> %output
|  3>     printlevel normal
|  4> end
|  5> %cpcm
|  6>     smd true
|  7>     smdsolvent "water"
|  8> end
|  9> * xyz 0 1
| 10> C 1.2723261660058984 -0.25037720980132516 0.022503243784433254
| 11> C -0.007182717849752726 0.5604003684846041 -0.022963307414854493
| 12> O -1.1840320550034609 -0.2721126763914158 0.05280365910799111
| 13> H 2.1416007619792916 0.41482017373735236 -0.02040119395526151
| 14> H 1.3313160718764556 -0.8362513397959827 0.9452867883706276
| 15> H 1.3279170020246094 -0.9351429301560962 -0.8310359545194298
| 16> H -0.04215263179397561 1.1729899876793004 -0.9346275902764646
| 17> H -0.06925761283712047 1.2349329713032056 0.8365066266521842
| 18> H -1.1601355728750469 -0.8651067800747687 -0.7095439021882818
| 19> *
| 20>
| 21>                          ****END OF INPUT****

CARTESIAN COORDINATES (ANGSTROEM)
---------------------------------
  C      1.272326   -0.250377    0.022503
  C     -0.007183    0.560400   -0.022963
  O     -1.184032   -0.272113    0.052804
  H      2.141601    0.414820   -0.020401
  H      1.331316   -0.836251    0.945287
  H      1.327917   -0.935143   -0.831036
  H     -0.042153    1.172990   -0.934628
  H     -0.069258    1.234933    0.836507
  H     -1.160136   -0.865107   -0.709544

 Total Charge           Charge          ....    0
 Multiplicity           Mult            ....    1
 Number of Electrons    NEL             ....   26
 Basis Dimension        Dim             ....  129

ORBITAL ENERGIES
----------------

  NO   OCC          E(Eh)            E(eV)
   0   2.0000     -21.671113      -589.7010
   1   2.0000     -12.084903      -328.8469
   2   2.0000     -12.028052      -327.2999
   3   2.0000      -1.668638       -45.4059
   4   2.0000      -1.257102       -34.2075
   5   2.0000      -1.128138       -30.6982
   6   2.0000      -1.013440       -27.5771
   7   2.0000      -0.953082       -25.9347
   8   2.0000      -0.926319       -25.2064
   9   2.0000      -0.850369       -23.1397
  10   2.0000      -0.812160       -22.1000
  11   2.0000      -0.794539       -21.6205
  12   2.0000      -0.762739       -20.7552
  13   0.0000      -0.133289        -3.6270
  14   0.0000      -0.024034        -0.6540
  15   0.0000       0.012518         0.3406
  16   0.0000       0.028640         0.7793
  17   0.0000       0.042547         1.1578

MULLIKEN ATOMIC CHARGES
-----------------------
   0 C :   -0.379556
   1 C :   -0.003337
   2 O :   -0.568239
   3 H :    0.125461
   4 H :    0.121350
   5 H :    0.125635
   6 H :    0.105044
   7 H :    0.115891
   8 H :    0.357749
Sum of atomic charges:    0.0000000

LOEWDIN ATOMIC CHARGES
----------------------
   0 C :   -0.322727
   1 C :   -0.356981
   2 O :   -0.114324
   3 H :    0.126345
   4 H :    0.118619
   5 H :    0.120376
   6 H :    0.117007
   7 H :    0.124596
   8 H :    0.187089

  Mayer bond orders larger than 0.100000
B(  0-C ,  1-C ) :   0.9995 B(  0-C ,  3-H ) :   0.9647 B(  0-C ,  4-H ) :   0.9716
B(  0-C ,  5-H ) :   0.9725 B(  1-C ,  2-O ) :   0.9558 B(  1-C ,  6-H ) :   0.9771
B(  1-C ,  7-H ) :   0.9671 B(  2-O ,  8-H ) :   0.8700

FINAL SINGLE POINT ENERGY      -155.053761045993

DIPOLE MOMENT
-------------

Method             : SCF
Type of density    : Electron Density
Multiplicity       :   1
Irrep              :   0
Energy             :  -155.0598392011930571 Eh
Relativity type    :
Basis              : AO
                                X                 Y                 Z
Electronic contribution:     -2.611645327      -0.247133087       0.038707355
Nuclear contribution   :      3.316881064       0.224865908      -0.683574595
                        -----------------------------------------
Total Dipole Moment    :      0.705235737      -0.022267179      -0.644867240
                        -----------------------------------------
Magnitude (a.u.)       :      0.955880238
Magnitude (Debye)      :      2.429654477

Rotational constants in cm-1:             1.133036             0.305496             0.269422
Rotational constants in MHz :         33967.568270          9158.533511          8077.078164

                             ****ORCA TERMINATED NORMALLY****
TOTAL RUN TIME: 0 days 0 hours 0 minutes 34 seconds 769 msec
