                         Program Version 6.0.0  -   RELEASE  -
|  1> ! pbe def2-sv(p) def2/J RI DEFGRID1 loosescf d4 GCP(DFT/SV(P)) printgap
|  2> %output
|  3>     printlevel normal
|  4> end
|  5> * xyz 0 1
|  6> C 5.3235814044 -1.4573698888 -0.8967119467
|  7> C 4.0051284851 -0.9903444089 -1.4800720736
|  8> O 3.1465027656 -0.6139076321 -0.3884819805
|  9> P 1.8299241566 0.2549687629 -0.6311111919
| 10> S 2.0886166423 1.8075665762 -1.7924036793
| 11> O 1.3735509146 0.477438576 0.8657075566
| 12> C 1.6599836093 1.7036863884 1.5688807768
| 13> C 3.142439408 1.8637388237 1.8226053036
| 14> S 0.4417526933 -1.1868452757 -1.3252553736
| 15> C 0.2916336117 -2.2037133277 0.1657619056
| 16> S -0.7901489848 -1.5127400298 1.4714441831
| 17> P -2.0334466152 -0.1975291974 0.3932940704
| 18> S -1.3899690256 1.5455624217 -0.2748137109
| 19> O -3.2677353609 -0.0365361246 1.3827320584
| 20> C -3.344614786 1.0028198558 2.3711635945
| 21> C -2.3574432246 0.7768880838 3.4980518486
| 22> O -2.6028658518 -1.2067381138 -0.6843543591
| 23> C -3.1845541777 -0.7706548125 -1.9286844501
| 24> C -4.5188083721 -0.089011838 -1.7111382441
| 25> H 5.1581892518 -2.2942000591 -0.2245755538
| 26> H 5.9780576439 -1.7680955472 -1.7042982379
| 27> H 5.7947623732 -0.6493368111 -0.3446755131
| 28> H 3.5131134216 -1.7858843092 -2.0479238674
| 29> H 4.1370582925 -0.1210651953 -2.1332991578
| 30> H 1.2637490065 2.5396973414 0.9830384807
| 31> H 1.0954165539 1.6072550284 2.4979243914
| 32> H 3.6666566812 1.9659158596 0.872896685
| 33> H 3.3104070491 2.7562326105 2.4169320922
| 34> H 3.5277536251 0.9950341906 2.3497207873
| 35> H 1.2724718497 -2.3412154286 0.61683932
| 36> H -0.1336360103 -3.1487085082 -0.1642819463
| 37> H -3.1567012365 1.9634373709 1.8794224933
| 38> H -4.3766464252 0.9595616709 2.7213512501
| 39> H -2.5006441787 -0.2083556813 3.9340738271
| 40> H -1.3404916727 0.8411331163 3.1110766144
| 41> H -2.4959323721 1.5369265736 4.2601566881
| 42> H -2.4781306589 -0.0975820635 -2.42658429
| 43> H -3.2841551598 -1.6903633253 -2.5063998634
| 44> H -4.3727788909 0.8403290606 -1.161555175
| 45> H -4.9698939372 0.1367098005 -2.6722743393
| 46> H -5.1802035466 -0.7350426872 -1.1400622567
| 47> *
| 48>
| 49>                          ****END OF INPUT****

CARTESIAN COORDINATES (ANGSTROEM)
---------------------------------
  C      5.323581   -1.457370   -0.896712
  C      4.005128   -0.990344   -1.480072
  O      3.146503   -0.613908   -0.388482
  P      1.829924    0.254969   -0.631111
  S      2.088617    1.807567   -1.792404
  O      1.373551    0.477439    0.865708
  C      1.659984    1.703686    1.568881
  C      3.142439    1.863739    1.822605
  S      0.441753   -1.186845   -1.325255
  C      0.291634   -2.203713    0.165762
  S     -0.790149   -1.512740    1.471444
  P     -2.033447   -0.197529    0.393294
  S     -1.389969    1.545562   -0.274814
  O     -3.267735   -0.036536    1.382732
  C     -3.344615    1.002820    2.371164
  C     -2.357443    0.776888    3.498052
  O     -2.602866   -1.206738   -0.684354
  C     -3.184554   -0.770655   -1.928684
  C     -4.518808   -0.089012   -1.711138
  H      5.158189   -2.294200   -0.224576
  H      5.978058   -1.768096   -1.704298
  H      5.794762   -0.649337   -0.344676
  H      3.513113   -1.785884   -2.047924
  H      4.137058   -0.121065   -2.133299
  H      1.263749    2.539697    0.983038
  H      1.095417    1.607255    2.497924
  H      3.666657    1.965916    0.872897
  H      3.310407    2.756233    2.416932
  H      3.527754    0.995034    2.349721
  H      1.272472   -2.341215    0.616839
  H     -0.133636   -3.148709   -0.164282
  H     -3.156701    1.963437    1.879422
  H     -4.376646    0.959562    2.721351
  H     -2.500644   -0.208356    3.934074
  H     -1.340492    0.841133    3.111077
  H     -2.495932    1.536927    4.260157
  H     -2.478131   -0.097582   -2.426584
  H     -3.284155   -1.690363   -2.506400
  H     -4.372779    0.840329   -1.161555
  H     -4.969894    0.136710   -2.672274
  H     -5.180204   -0.735043   -1.140062

 Total Charge           Charge          ....    0
 Multiplicity           Mult            ....    1
 Number of Electrons    NEL             ....  202
 Basis Dimension        Dim             ....  334

ORBITAL ENERGIES
----------------

  NO   OCC          E(Eh)            E(eV)
   0   2.0000     -88.044440     -2395.8110
   1   2.0000     -88.036446     -2395.5935
   2   2.0000     -87.983174     -2394.1439
   3   2.0000     -87.979776     -2394.0514
   4   2.0000     -76.423426     -2079.5871
   5   2.0000     -76.423066     -2079.5773
   6   2.0000     -18.788490      -511.2608
   7   2.0000     -18.788356      -511.2572
   8   2.0000     -18.788131      -511.2510
   9   2.0000     -18.786873      -511.2168
  10   2.0000      -9.960155      -271.0296
  11   2.0000      -9.949807      -270.7480
  12   2.0000      -9.949202      -270.7315
  13   2.0000      -9.947248      -270.6784
  14   2.0000      -9.946774      -270.6655
  15   2.0000      -9.887705      -269.0581
  16   2.0000      -9.885864      -269.0080
  17   2.0000      -9.879475      -268.8342
  18   2.0000      -9.879375      -268.8315
  19   2.0000      -7.689020      -209.2289
  20   2.0000      -7.681780      -209.0319
  21   2.0000      -7.628349      -207.5779
  22   2.0000      -7.624246      -207.4663
  23   2.0000      -6.420512      -174.7110
  24   2.0000      -6.420395      -174.7078
  25   2.0000      -5.717307      -155.5758
  26   2.0000      -5.713296      -155.4667
  27   2.0000      -5.710025      -155.3777
  28   2.0000      -5.706315      -155.2767
  29   2.0000      -5.705815      -155.2631
  30   2.0000      -5.698288      -155.0583
  31   2.0000      -5.657361      -153.9446
  32   2.0000      -5.653236      -153.8324
  33   2.0000      -5.649064      -153.7188
  34   2.0000      -5.648330      -153.6989
  35   2.0000      -5.644840      -153.6039
  36   2.0000      -5.644449      -153.5933
  37   2.0000      -4.643002      -126.3425
  38   2.0000      -4.642806      -126.3372
  39   2.0000      -4.642515      -126.3293
  40   2.0000      -4.642242      -126.3218
  41   2.0000      -4.641014      -126.2884
  42   2.0000      -4.640845      -126.2838
  43   2.0000      -0.984182       -26.7810
  44   2.0000      -0.983363       -26.7587
  45   2.0000      -0.943534       -25.6749
  46   2.0000      -0.941671       -25.6242
  47   2.0000      -0.762149       -20.7391
  48   2.0000      -0.718309       -19.5462
  49   2.0000      -0.705960       -19.2101
  50   2.0000      -0.685486       -18.6530
  51   2.0000      -0.684281       -18.6202
  52   2.0000      -0.670160       -18.2360
  53   2.0000      -0.651630       -17.7317
  54   2.0000      -0.634629       -17.2691
  55   2.0000      -0.597259       -16.2522
  56   2.0000      -0.591611       -16.0986
  57   2.0000      -0.570191       -15.5157
  58   2.0000      -0.566702       -15.4208
  59   2.0000      -0.560409       -15.2495
  60   2.0000      -0.502501       -13.6737
  61   2.0000      -0.490283       -13.3413
  62   2.0000      -0.472834       -12.8665
  63   2.0000      -0.470245       -12.7960
  64   2.0000      -0.455544       -12.3960
  65   2.0000      -0.441123       -12.0036
  66   2.0000      -0.436801       -11.8860
  67   2.0000      -0.432070       -11.7572
  68   2.0000      -0.423672       -11.5287
  69   2.0000      -0.417704       -11.3663
  70   2.0000      -0.411730       -11.2037
  71   2.0000      -0.397006       -10.8031
  72   2.0000      -0.390379       -10.6228
  73   2.0000      -0.386432       -10.5153
  74   2.0000      -0.375751       -10.2247
  75   2.0000      -0.373361       -10.1597
  76   2.0000      -0.366609        -9.9759
  77   2.0000      -0.357085        -9.7168
  78   2.0000      -0.355395        -9.6708
  79   2.0000      -0.350319        -9.5327
  80   2.0000      -0.346996        -9.4423
  81   2.0000      -0.342995        -9.3334
  82   2.0000      -0.341895        -9.3034
  83   2.0000      -0.337849        -9.1933
  84   2.0000      -0.326532        -8.8854
  85   2.0000      -0.318933        -8.6786
  86   2.0000      -0.311536        -8.4773
  87   2.0000      -0.296726        -8.0743
  88   2.0000      -0.292451        -7.9580
  89   2.0000      -0.286871        -7.8062
  90   2.0000      -0.279178        -7.5968
  91   2.0000      -0.271293        -7.3823
  92   2.0000      -0.269358        -7.3296
  93   2.0000      -0.259746        -7.0680
  94   2.0000      -0.256931        -6.9915
  95   2.0000      -0.232092        -6.3155
  96   2.0000      -0.218854        -5.9553
  97   2.0000      -0.205734        -5.5983
  98   2.0000      -0.198529        -5.4022
  99   2.0000      -0.193094        -5.2544
 100   2.0000      -0.185745        -5.0544
 101   0.0000      -0.048882        -1.3301
 102   0.0000      -0.024482        -0.6662
 103   0.0000      -0.013671        -0.3720
 104   0.0000       0.001066         0.0290
 105   0.0000       0.024173         0.6578

MULLIKEN ATOMIC CHARGES
-----------------------
   0 C :   -0.278330
   1 C :   -0.011314
   2 O :   -0.381091
   3 P :    0.623150
   4 S :   -0.308638
   5 O :   -0.368128
   6 C :   -0.019159
   7 C :   -0.300005
   8 S :   -0.092520
   9 C :   -0.309387
  10 S :   -0.105121
  11 P :    0.607130
  12 S :   -0.316920
  13 O :   -0.367935
  14 C :   -0.000390
  15 C :   -0.342590
  16 O :   -0.372361
  17 C :   -0.002606
  18 C :   -0.303010
  19 H :    0.112021
  20 H :    0.111315
  21 H :    0.118805
  22 H :    0.094530
  23 H :    0.105344
  24 H :    0.120699
  25 H :    0.115111
  26 H :    0.122849
  27 H :    0.109898
  28 H :    0.111521
  29 H :    0.181658
  30 H :    0.185184
  31 H :    0.108373
  32 H :    0.104843
  33 H :    0.121176
  34 H :    0.145651
  35 H :    0.113952
  36 H :    0.117418
  37 H :    0.100643
  38 H :    0.122687
  39 H :    0.110912
  40 H :    0.114635
Sum of atomic charges:    0.0000000

LOEWDIN ATOMIC CHARGES
----------------------
   0 C :   -0.350064
   1 C :   -0.125182
   2 O :   -0.254491
   3 P :    0.573191
   4 S :   -0.308214
   5 O :   -0.235650
   6 C :   -0.116816
   7 C :   -0.366459
   8 S :    0.099799
   9 C :   -0.466872
  10 S :    0.077547
  11 P :    0.563790
  12 S :   -0.308668
  13 O :   -0.244101
  14 C :   -0.121734
  15 C :   -0.371610
  16 O :   -0.243648
  17 C :   -0.118190
  18 C :   -0.364204
  19 H :    0.124563
  20 H :    0.130395
  21 H :    0.127726
  22 H :    0.105353
  23 H :    0.107329
  24 H :    0.113079
  25 H :    0.116329
  26 H :    0.121045
  27 H :    0.129869
  28 H :    0.124160
  29 H :    0.132576
  30 H :    0.137197
  31 H :    0.108005
  32 H :    0.118569
  33 H :    0.125929
  34 H :    0.120579
  35 H :    0.131445
  36 H :    0.112246
  37 H :    0.116923
  38 H :    0.122834
  39 H :    0.129853
  40 H :    0.125573

  Mayer bond orders larger than 0.100000
B(  0-C ,  1-C ) :   1.1594 B(  0-C , 19-H ) :   0.9513 B(  0-C , 20-H ) :   0.9424
B(  0-C , 21-H ) :   0.9518 B(  1-C ,  2-O ) :   0.9097 B(  1-C , 22-H ) :   0.9251
B(  1-C , 23-H ) :   0.9088 B(  2-O ,  3-P ) :   1.0682 B(  3-P ,  4-S ) :   1.6505
B(  3-P ,  5-O ) :   1.1269 B(  3-P ,  8-S ) :   0.9466 B(  5-O ,  6-C ) :   0.8954
B(  6-C ,  7-C ) :   1.1627 B(  6-C , 24-H ) :   0.9165 B(  6-C , 25-H ) :   0.9256
B(  7-C , 26-H ) :   0.9316 B(  7-C , 27-H ) :   0.9387 B(  7-C , 28-H ) :   0.9449
B(  8-S ,  9-C ) :   1.0080 B(  9-C , 10-S ) :   0.9672 B(  9-C , 29-H ) :   0.9031
B(  9-C , 30-H ) :   0.9099 B( 10-S , 11-P ) :   0.9833 B( 10-S , 12-S ) :   0.1158
B( 11-P , 12-S ) :   1.5787 B( 11-P , 13-O ) :   1.1005 B( 11-P , 16-O ) :   1.1147
B( 13-O , 14-C ) :   0.9123 B( 14-C , 15-C ) :   1.1643 B( 14-C , 31-H ) :   0.9097
B( 14-C , 32-H ) :   0.9327 B( 15-C , 33-H ) :   0.9428 B( 15-C , 34-H ) :   0.9265
B( 15-C , 35-H ) :   0.9382 B( 16-O , 17-C ) :   0.9008 B( 17-C , 18-C ) :   1.1666
B( 17-C , 36-H ) :   0.9150 B( 17-C , 37-H ) :   0.9350 B( 18-C , 38-H ) :   0.9357
B( 18-C , 39-H ) :   0.9395 B( 18-C , 40-H ) :   0.9461

Dispersion correction           -0.068112075
FINAL SINGLE POINT ENERGY     -2929.514614975080

DIPOLE MOMENT
-------------

Method             : SCF
Type of density    : Electron Density
Multiplicity       :   1
Irrep              :   0
Energy             : -2929.6314218321208500 Eh
Relativity type    :
Basis              : AO
                                X                 Y                 Z
Electronic contribution:     -4.236319466      -2.069212742      -8.092035811
Nuclear contribution   :      4.306327987       1.131184057       8.839293807
                        -----------------------------------------
Total Dipole Moment    :      0.070008521      -0.938028686       0.747257997
                        -----------------------------------------
Magnitude (a.u.)       :      1.201329897
Magnitude (Debye)      :      3.053537930

Rotational constants in cm-1:             0.012566             0.005464             0.005035
Rotational constants in MHz :           376.719728           163.813590           150.940628

                             ****ORCA TERMINATED NORMALLY****
TOTAL RUN TIME: 0 days 0 hours 0 minutes 21 seconds 338 msec
