                         Program Version 6.0.0  -   RELEASE  -
|  1> ! pbe def2-sv(p) def2/J RI DEFGRID1 loosescf d4 GCP(DFT/SV(P)) printgap
|  2> %output
|  3>     printlevel normal
|  4> end
|  5> * xyz 0 1
|  6> C 0.6085677661 1.7025741685 -0.0484983796
|  7> C 1.3961789927 0.4071991408 -0.2752039831
|  8> H 1.5869369255 0.2734335986 -1.3505068901
|  9> C 0.5572606756 -0.7869226997 0.2083084791
| 10> H 0.3990547137 -0.6867744335 1.2937080802
| 11> C -0.8050335318 -0.7682885913 -0.499754622
| 12> H -0.6441246781 -0.9334050118 -1.5694005832
| 13> C -1.4714069431 0.6084194461 -0.2890933956
| 14> H -2.3604095954 0.676635 -0.9312408178
| 15> O -0.6473366485 1.6651522167 -0.7099305694
| 16> O -1.8078862185 0.7055629882 1.06005246
| 17> O -1.6587648094 -1.7927257026 -0.0785933687
| 18> O 1.1980899822 -2.0045661924 -0.0789155845
| 19> O 2.6001482164 0.3865053867 0.455339219
| 20> H 1.1242412841 2.5646600918 -0.4718990241
| 21> H 0.468198983 1.8451899635 1.0301460662
| 22> H -2.3835762455 1.4704208857 1.2110700076
| 23> H -1.8743516786 -1.6526089046 0.8572068408
| 24> H 2.0891821742 -1.9698704591 0.3018066073
| 25> H 3.2039933153 1.0633227834 0.1192414162
| 26> *
| 27>
| 28>                          ****END OF INPUT****

CARTESIAN COORDINATES (ANGSTROEM)
---------------------------------
  C      0.608568    1.702574   -0.048498
  C      1.396179    0.407199   -0.275204
  H      1.586937    0.273434   -1.350507
  C      0.557261   -0.786923    0.208308
  H      0.399055   -0.686774    1.293708
  C     -0.805034   -0.768289   -0.499755
  H     -0.644125   -0.933405   -1.569401
  C     -1.471407    0.608419   -0.289093
  H     -2.360410    0.676635   -0.931241
  O     -0.647337    1.665152   -0.709931
  O     -1.807886    0.705563    1.060052
  O     -1.658765   -1.792726   -0.078593
  O      1.198090   -2.004566   -0.078916
  O      2.600148    0.386505    0.455339
  H      1.124241    2.564660   -0.471899
  H      0.468199    1.845190    1.030146
  H     -2.383576    1.470421    1.211070
  H     -1.874352   -1.652609    0.857207
  H      2.089182   -1.969870    0.301807
  H      3.203993    1.063323    0.119241

 Total Charge           Charge          ....    0
 Multiplicity           Mult            ....    1
 Number of Electrons    NEL             ....   80
 Basis Dimension        Dim             ....  160

ORBITAL ENERGIES
----------------

  NO   OCC          E(Eh)            E(eV)
   0   2.0000     -18.774694      -510.8854
   1   2.0000     -18.769217      -510.7364
   2   2.0000     -18.765130      -510.6251
   3   2.0000     -18.738628      -509.9040
   4   2.0000     -18.738101      -509.8896
   5   2.0000      -9.984793      -271.7000
   6   2.0000      -9.942311      -270.5440
   7   2.0000      -9.936163      -270.3767
   8   2.0000      -9.935293      -270.3531
   9   2.0000      -9.934335      -270.3270
  10   2.0000      -0.985352       -26.8128
  11   2.0000      -0.944767       -25.7084
  12   2.0000      -0.926114       -25.2009
  13   2.0000      -0.916010       -24.9259
  14   2.0000      -0.905276       -24.6338
  15   2.0000      -0.698191       -18.9987
  16   2.0000      -0.678092       -18.4518
  17   2.0000      -0.581759       -15.8305
  18   2.0000      -0.577521       -15.7151
  19   2.0000      -0.537248       -14.6193
  20   2.0000      -0.489674       -13.3247
  21   2.0000      -0.488181       -13.2841
  22   2.0000      -0.474570       -12.9137
  23   2.0000      -0.450569       -12.2606
  24   2.0000      -0.425591       -11.5809
  25   2.0000      -0.414455       -11.2779
  26   2.0000      -0.391224       -10.6457
  27   2.0000      -0.371948       -10.1212
  28   2.0000      -0.367045        -9.9878
  29   2.0000      -0.346061        -9.4168
  30   2.0000      -0.340441        -9.2639
  31   2.0000      -0.313545        -8.5320
  32   2.0000      -0.294765        -8.0210
  33   2.0000      -0.283496        -7.7143
  34   2.0000      -0.263459        -7.1691
  35   2.0000      -0.256127        -6.9696
  36   2.0000      -0.246075        -6.6961
  37   2.0000      -0.227564        -6.1923
  38   2.0000      -0.214140        -5.8271
  39   2.0000      -0.199178        -5.4199
  40   0.0000       0.011111         0.3023
  41   0.0000       0.016784         0.4567
  42   0.0000       0.044331         1.2063
  43   0.0000       0.065611         1.7854
  44   0.0000       0.074682         2.0322

MULLIKEN ATOMIC CHARGES
-----------------------
   0 C :    0.084627
   1 C :   -0.032279
   2 H :    0.063078
   3 C :    0.050466
   4 H :    0.055049
   5 C :    0.098779
   6 H :    0.076294
   7 C :    0.131267
   8 H :    0.072950
   9 O :   -0.311984
  10 O :   -0.409974
  11 O :   -0.415681
  12 O :   -0.408722
  13 O :   -0.420674
  14 H :    0.082666
  15 H :    0.065669
  16 H :    0.311848
  17 H :    0.297990
  18 H :    0.302627
  19 H :    0.306006
Sum of atomic charges:    0.0000000

LOEWDIN ATOMIC CHARGES
----------------------
   0 C :   -0.132175
   1 C :   -0.091584
   2 H :    0.102950
   3 C :   -0.073716
   4 H :    0.102850
   5 C :   -0.074325
   6 H :    0.123515
   7 C :   -0.012274
   8 H :    0.101658
   9 O :   -0.157581
  10 O :   -0.309319
  11 O :   -0.305125
  12 O :   -0.317315
  13 O :   -0.321637
  14 H :    0.110865
  15 H :    0.103562
  16 H :    0.294142
  17 H :    0.280688
  18 H :    0.284365
  19 H :    0.290457

  Mayer bond orders larger than 0.100000
B(  0-C ,  1-C ) :   1.0449 B(  0-C ,  9-O ) :   1.0016 B(  0-C , 14-H ) :   0.9255
B(  0-C , 15-H ) :   0.8872 B(  1-C ,  2-H ) :   0.8809 B(  1-C ,  3-C ) :   1.0128
B(  1-C , 13-O ) :   1.0583 B(  3-C ,  4-H ) :   0.8797 B(  3-C ,  5-C ) :   0.9875
B(  3-C , 12-O ) :   1.1078 B(  5-C ,  6-H ) :   0.8774 B(  5-C ,  7-C ) :   0.9850
B(  5-C , 11-O ) :   1.0637 B(  7-C ,  8-H ) :   0.9057 B(  7-C ,  9-O ) :   1.0566
B(  7-C , 10-O ) :   1.0785 B( 10-O , 16-H ) :   0.8391 B( 11-O , 17-H ) :   0.8409
B( 12-O , 18-H ) :   0.8396 B( 13-O , 19-H ) :   0.8471

Dispersion correction           -0.019130518
FINAL SINGLE POINT ENERGY      -571.418239553579

DIPOLE MOMENT
-------------

Method             : SCF
Type of density    : Electron Density
Multiplicity       :   1
Irrep              :   0
Energy             :  -571.5263206491320034 Eh
Relativity type    :
Basis              : AO
                                X                 Y                 Z
Electronic contribution:     -1.163099671      -1.162529919      -0.101170216
Nuclear contribution   :      1.504974273       2.471684152       0.469425999
                        -----------------------------------------
Total Dipole Moment    :      0.341874601       1.309154233       0.368255783
                        -----------------------------------------
Magnitude (a.u.)       :      1.402275070
Magnitude (Debye)      :      3.564299968

Rotational constants in cm-1:             0.057405             0.044445             0.028969
Rotational constants in MHz :          1720.958425          1332.438461           868.470200

                             ****ORCA TERMINATED NORMALLY****
TOTAL RUN TIME: 0 days 0 hours 0 minutes 10 seconds 882 msec
