                         Program Version 6.0.1  -  RELEASE   -
|  1> ! pbe def2-sv(p) def2/J RI DEFGRID1 loosescf d4 GCP(DFT/SV(P)) printgap
|  2> %output
|  3>     printlevel normal
|  4> end
|  5> * xyz 0 1
|  6> C 2.5244183475 -3.0674663235 0.3263784376
|  7> C 3.2703961737 -2.7178023119 -0.9518123597
|  8> O 2.4344136261 -1.9216538867 -1.8148823948
|  9> C 2.3628047635 -0.6283168595 -1.5977677774
| 10> O 3.0169141297 -0.025371319 -0.7725424659
| 11> C 1.3124347602 0.0328069617 -2.4702478218
| 12> C 0.201071323 0.5342298243 -1.5421994181
| 13> H -0.5560660988 1.0737369801 -2.1177140543
| 14> C 0.8037453281 1.4986234101 -0.5338693659
| 15> O 1.2494797829 2.5696969713 -0.8748911555
| 16> O 0.8045283789 1.0461448535 0.7031578468
| 17> C 1.4626247676 1.8748500021 1.6844071446
| 18> C 1.4279948697 1.1728235639 3.0255712847
| 19> S -0.5933537198 -0.8937262088 -0.7352039206
| 20> P -1.9183405427 0.1701708309 0.539989421
| 21> S -2.2291586069 2.0563419833 0.1055607988
| 22> O -3.2350709497 -0.7396341798 0.4918285789
| 23> C -4.0383181042 -0.8238403826 -0.6905319613
| 24> O -1.4704391488 -0.0732479294 2.0325517662
| 25> C -1.2619725502 -1.4059370372 2.5466309305
| 26> H 1.5907491877 -3.5680439837 0.0848385825
| 27> H 3.139301803 -3.7188686044 0.938107005
| 28> H 2.3039134712 -2.1599959694 0.8848067291
| 29> H 3.4999400333 -3.6067396174 -1.5383975556
| 30> H 4.1828976909 -2.1567414104 -0.7309749641
| 31> H 0.9182619295 -0.6860396339 -3.1861795285
| 32> H 1.7503001882 0.8934653198 -2.9779993855
| 33> H 2.4857238041 2.0371882568 1.3305904929
| 34> H 0.9435345561 2.8384862368 1.7114003091
| 35> H 0.4000435129 1.0504717187 3.3532260004
| 36> H 1.9013826261 0.1984629193 2.9474150938
| 37> H 1.9661451272 1.7753550327 3.7496128045
| 38> H -3.5123168028 -1.3956794225 -1.4548642378
| 39> H -4.2666153593 0.1765017155 -1.0615271134
| 40> H -4.9497214494 -1.3334455011 -0.3887857998
| 41> H -2.203271286 -1.9511916652 2.5515529149
| 42> H -0.888209189 -1.2692310995 3.5578352011
| 43> H -0.5292716417 -1.9287664292 1.9320250756
| 44> *
| 45>
| 46>                          ****END OF INPUT****

CARTESIAN COORDINATES (ANGSTROEM)
---------------------------------
  C      2.524418   -3.067466    0.326378
  C      3.270396   -2.717802   -0.951812
  O      2.434414   -1.921654   -1.814882
  C      2.362805   -0.628317   -1.597768
  O      3.016914   -0.025371   -0.772542
  C      1.312435    0.032807   -2.470248
  C      0.201071    0.534230   -1.542199
  H     -0.556066    1.073737   -2.117714
  C      0.803745    1.498623   -0.533869
  O      1.249480    2.569697   -0.874891
  O      0.804528    1.046145    0.703158
  C      1.462625    1.874850    1.684407
  C      1.427995    1.172824    3.025571
  S     -0.593354   -0.893726   -0.735204
  P     -1.918341    0.170171    0.539989
  S     -2.229159    2.056342    0.105561
  O     -3.235071   -0.739634    0.491829
  C     -4.038318   -0.823840   -0.690532
  O     -1.470439   -0.073248    2.032552
  C     -1.261973   -1.405937    2.546631
  H      1.590749   -3.568044    0.084839
  H      3.139302   -3.718869    0.938107
  H      2.303913   -2.159996    0.884807
  H      3.499940   -3.606740   -1.538398
  H      4.182898   -2.156741   -0.730975
  H      0.918262   -0.686040   -3.186180
  H      1.750300    0.893465   -2.977999
  H      2.485724    2.037188    1.330590
  H      0.943535    2.838486    1.711400
  H      0.400044    1.050472    3.353226
  H      1.901383    0.198463    2.947415
  H      1.966145    1.775355    3.749613
  H     -3.512317   -1.395679   -1.454864
  H     -4.266615    0.176502   -1.061527
  H     -4.949721   -1.333446   -0.388786
  H     -2.203271   -1.951192    2.551553
  H     -0.888209   -1.269231    3.557835
  H     -0.529272   -1.928766    1.932025

 Total Charge           Charge          ....    0
 Multiplicity           Mult            ....    1
 Number of Electrons    NEL             ....  174
 Basis Dimension        Dim             ....  316

ORBITAL ENERGIES
----------------

  NO   OCC          E(Eh)            E(eV)
   0   2.0000     -88.043470     -2395.7846
   1   2.0000     -87.985999     -2394.2207
   2   2.0000     -76.429011     -2079.7391
   3   2.0000     -18.811479      -511.8864
   4   2.0000     -18.799274      -511.5542
   5   2.0000     -18.797938      -511.5179
   6   2.0000     -18.795461      -511.4505
   7   2.0000     -18.744328      -510.0591
   8   2.0000     -18.724472      -509.5188
   9   2.0000     -10.016880      -272.5732
  10   2.0000     -10.005923      -272.2750
  11   2.0000      -9.955084      -270.8916
  12   2.0000      -9.954586      -270.8780
  13   2.0000      -9.949255      -270.7330
  14   2.0000      -9.947791      -270.6932
  15   2.0000      -9.936249      -270.3791
  16   2.0000      -9.917264      -269.8625
  17   2.0000      -9.892534      -269.1895
  18   2.0000      -9.880515      -268.8625
  19   2.0000      -7.688004      -209.2012
  20   2.0000      -7.631043      -207.6512
  21   2.0000      -6.426088      -174.8628
  22   2.0000      -5.715683      -155.5317
  23   2.0000      -5.712569      -155.4469
  24   2.0000      -5.705189      -155.2461
  25   2.0000      -5.660212      -154.0222
  26   2.0000      -5.651462      -153.7841
  27   2.0000      -5.651143      -153.7754
  28   2.0000      -4.648825      -126.5010
  29   2.0000      -4.647989      -126.4782
  30   2.0000      -4.646358      -126.4338
  31   2.0000      -1.019700       -27.7474
  32   2.0000      -1.004559       -27.3354
  33   2.0000      -0.991912       -26.9913
  34   2.0000      -0.947021       -25.7697
  35   2.0000      -0.922652       -25.1066
  36   2.0000      -0.906076       -24.6556
  37   2.0000      -0.769704       -20.9447
  38   2.0000      -0.718049       -19.5391
  39   2.0000      -0.700767       -19.0688
  40   2.0000      -0.694216       -18.8906
  41   2.0000      -0.662194       -18.0192
  42   2.0000      -0.641390       -17.4531
  43   2.0000      -0.624195       -16.9852
  44   2.0000      -0.616275       -16.7697
  45   2.0000      -0.594610       -16.1802
  46   2.0000      -0.559587       -15.2271
  47   2.0000      -0.519060       -14.1243
  48   2.0000      -0.506015       -13.7694
  49   2.0000      -0.500217       -13.6116
  50   2.0000      -0.480337       -13.0706
  51   2.0000      -0.473938       -12.8965
  52   2.0000      -0.469892       -12.7864
  53   2.0000      -0.450173       -12.2498
  54   2.0000      -0.439037       -11.9468
  55   2.0000      -0.435452       -11.8492
  56   2.0000      -0.429553       -11.6887
  57   2.0000      -0.420044       -11.4300
  58   2.0000      -0.413486       -11.2515
  59   2.0000      -0.408709       -11.1215
  60   2.0000      -0.405671       -11.0389
  61   2.0000      -0.400294       -10.8926
  62   2.0000      -0.391131       -10.6432
  63   2.0000      -0.385094       -10.4789
  64   2.0000      -0.375237       -10.2107
  65   2.0000      -0.363554        -9.8928
  66   2.0000      -0.353905        -9.6302
  67   2.0000      -0.353066        -9.6074
  68   2.0000      -0.348387        -9.4801
  69   2.0000      -0.339571        -9.2402
  70   2.0000      -0.337535        -9.1848
  71   2.0000      -0.331490        -9.0203
  72   2.0000      -0.323848        -8.8124
  73   2.0000      -0.312602        -8.5063
  74   2.0000      -0.307025        -8.3546
  75   2.0000      -0.303901        -8.2696
  76   2.0000      -0.298496        -8.1225
  77   2.0000      -0.296299        -8.0627
  78   2.0000      -0.274655        -7.4737
  79   2.0000      -0.268785        -7.3140
  80   2.0000      -0.263390        -7.1672
  81   2.0000      -0.249904        -6.8002
  82   2.0000      -0.236367        -6.4319
  83   2.0000      -0.229268        -6.2387
  84   2.0000      -0.207521        -5.6469
  85   2.0000      -0.203939        -5.5495
  86   2.0000      -0.202529        -5.5111
  87   0.0000      -0.041592        -1.1318
  88   0.0000      -0.033650        -0.9157
  89   0.0000      -0.012619        -0.3434
  90   0.0000       0.000690         0.0188
  91   0.0000       0.012593         0.3427

MULLIKEN ATOMIC CHARGES
-----------------------
   0 C :   -0.326021
   1 C :   -0.012802
   2 O :   -0.218460
   3 C :    0.096345
   4 O :   -0.199161
   5 C :   -0.052485
   6 C :   -0.310973
   7 H :    0.152766
   8 C :    0.206057
   9 O :   -0.194295
  10 O :   -0.235008
  11 C :   -0.019199
  12 C :   -0.297120
  13 S :   -0.110966
  14 P :    0.614030
  15 S :   -0.300290
  16 O :   -0.389142
  17 C :   -0.100243
  18 O :   -0.358053
  19 C :   -0.117759
  20 H :    0.118293
  21 H :    0.112908
  22 H :    0.143108
  23 H :    0.105726
  24 H :    0.111314
  25 H :    0.115293
  26 H :    0.141442
  27 H :    0.113064
  28 H :    0.109975
  29 H :    0.132324
  30 H :    0.113157
  31 H :    0.107491
  32 H :    0.113798
  33 H :    0.119512
  34 H :    0.126193
  35 H :    0.128991
  36 H :    0.132777
  37 H :    0.127411
Sum of atomic charges:    0.0000000

LOEWDIN ATOMIC CHARGES
----------------------
   0 C :   -0.359966
   1 C :   -0.109058
   2 O :   -0.050604
   3 C :    0.026132
   4 O :   -0.160901
   5 C :   -0.239505
   6 C :   -0.258271
   7 H :    0.142837
   8 C :    0.001516
   9 O :   -0.151985
  10 O :   -0.062247
  11 C :   -0.102259
  12 C :   -0.355715
  13 S :    0.085784
  14 P :    0.574586
  15 S :   -0.293124
  16 O :   -0.260787
  17 C :   -0.216574
  18 O :   -0.233075
  19 C :   -0.210981
  20 H :    0.124392
  21 H :    0.130005
  22 H :    0.129633
  23 H :    0.119313
  24 H :    0.121446
  25 H :    0.134033
  26 H :    0.156161
  27 H :    0.121428
  28 H :    0.119631
  29 H :    0.127578
  30 H :    0.122362
  31 H :    0.129843
  32 H :    0.108192
  33 H :    0.112702
  34 H :    0.122994
  35 H :    0.117966
  36 H :    0.125060
  37 H :    0.111456

  Mayer bond orders larger than 0.100000
B(  0-C ,  1-C ) :   1.1735 B(  0-C , 20-H ) :   0.9457 B(  0-C , 21-H ) :   0.9418
B(  0-C , 22-H ) :   0.9370 B(  1-C ,  2-O ) :   0.9117 B(  1-C , 23-H ) :   0.9374
B(  1-C , 24-H ) :   0.9143 B(  2-O ,  3-C ) :   1.2477 B(  3-C ,  4-O ) :   2.0002
B(  3-C ,  5-C ) :   0.9922 B(  5-C ,  6-C ) :   1.0660 B(  5-C , 25-H ) :   0.9048
B(  5-C , 26-H ) :   0.8796 B(  6-C ,  7-H ) :   0.8686 B(  6-C ,  8-C ) :   0.8911
B(  6-C , 13-S ) :   1.0114 B(  8-C ,  9-O ) :   2.0554 B(  8-C , 10-O ) :   1.2199
B( 10-O , 11-C ) :   0.8948 B( 11-C , 12-C ) :   1.1578 B( 11-C , 27-H ) :   0.9282
B( 11-C , 28-H ) :   0.9284 B( 12-C , 29-H ) :   0.9373 B( 12-C , 30-H ) :   0.9478
B( 12-C , 31-H ) :   0.9407 B( 13-S , 14-P ) :   0.9528 B( 13-S , 15-S ) :   0.1121
B( 14-P , 15-S ) :   1.6442 B( 14-P , 16-O ) :   1.0689 B( 14-P , 18-O ) :   1.1223
B( 16-O , 17-C ) :   0.9318 B( 17-C , 32-H ) :   0.9455 B( 17-C , 33-H ) :   0.9361
B( 17-C , 34-H ) :   0.9585 B( 18-O , 19-C ) :   0.9149 B( 19-C , 35-H ) :   0.9468
B( 19-C , 36-H ) :   0.9553 B( 19-C , 37-H ) :   0.9359

Dispersion correction           -0.054894906
FINAL SINGLE POINT ENERGY     -1979.020745683507

DIPOLE MOMENT
-------------

Method             : SCF
Type of density    : Electron Density
Multiplicity       :   1
Irrep              :   0
Energy             : -1979.1494945864997135 Eh
Relativity type    :
Basis              : AO
                                X                 Y                 Z
Electronic contribution:     -9.548328477      10.757151108      -8.256004658
Nuclear contribution   :      9.508389603     -13.055129687       8.524608107
                        -----------------------------------------
Total Dipole Moment    :     -0.039938874      -2.297978578       0.268603449
                        -----------------------------------------
Magnitude (a.u.)       :      2.313968123
Magnitude (Debye)      :      5.881639547

Rotational constants in cm-1:             0.013243             0.007829             0.007301
Rotational constants in MHz :           397.017925           234.701239           218.875434

                             ****ORCA TERMINATED NORMALLY****
TOTAL RUN TIME: 0 days 0 hours 0 minutes 28 seconds 216 msec
