                         Program Version 6.0.1  -  RELEASE   -
|  1> ! pbe def2-sv(p) def2/J RI DEFGRID1 loosescf d4 GCP(DFT/SV(P)) printgap
|  2> %output
|  3>     printlevel normal
|  4> end
|  5> * xyz 0 1
|  6> C 5.0481621982 -2.6130336276 -0.778089944
|  7> C 3.6455020497 -3.0645852941 -1.1521561897
|  8> O 2.9087122106 -1.9882576013 -1.7662563641
|  9> C 2.2234633798 -1.171203448 -1.0016143639
| 10> O 2.126061983 -1.2647737098 0.206585868
| 11> C 1.5542395071 -0.0724118788 -1.8001360019
| 12> C 0.3711759349 0.4710984581 -1.0135777722
| 13> H -0.0187543484 1.3876601641 -1.4664259951
| 14> C 0.7435698315 0.7825564943 0.4258729167
| 15> O 0.0458391682 0.4417542095 1.3631562176
| 16> O 1.8066411968 1.5334715294 0.5016200842
| 17> C 2.2470866145 2.0013593762 1.7942430084
| 18> C 2.5769346265 3.4787736203 1.6858915495
| 19> S -0.9862599878 -0.749014099 -0.9715902667
| 20> P -2.3127453543 0.2828613832 0.3244475425
| 21> S -2.2158622498 2.2373771323 0.34046226
| 22> O -3.7141488698 -0.2361704457 -0.2821124904
| 23> C -4.1717317703 0.1827434894 -1.5702666379
| 24> O -2.4365474055 -0.3966551342 1.7468146141
| 25> C -2.3210767425 -1.8171263547 1.9405325301
| 26> H 5.0021448714 -1.8374666122 -0.0169085421
| 27> H 5.6039583175 -3.4579043229 -0.3850912143
| 28> H 5.5605253588 -2.2221393294 -1.6526045252
| 29> H 3.0966193894 -3.4051815759 -0.2697046381
| 30> H 3.6685833688 -3.8462650082 -1.9114098232
| 31> H 1.2409837982 -0.4589100632 -2.768899906
| 32> H 2.2831943786 0.7265100506 -1.952954431
| 33> H 1.4527612564 1.8133310785 2.5217787286
| 34> H 3.1271716149 1.4087486338 2.0565336829
| 35> H 2.9491615275 3.8310714672 2.6420613374
| 36> H 3.3340572089 3.6364563151 0.923968548
| 37> H 1.6856797215 4.0421510789 1.4214628606
| 38> H -4.087943569 1.2672249668 -1.6607221219
| 39> H -5.21308812 -0.1236554425 -1.6251628185
| 40> H -3.5837903516 -0.3035970049 -2.3486628639
| 41> H -2.6468194746 -1.990799317 2.9628009059
| 42> H -1.2789157372 -2.1137425439 1.816583591
| 43> H -2.9563906555 -2.3491838614 1.2336586094
| 44> *
| 45>
| 46>                          ****END OF INPUT****

CARTESIAN COORDINATES (ANGSTROEM)
---------------------------------
  C      5.048162   -2.613034   -0.778090
  C      3.645502   -3.064585   -1.152156
  O      2.908712   -1.988258   -1.766256
  C      2.223463   -1.171203   -1.001614
  O      2.126062   -1.264774    0.206586
  C      1.554240   -0.072412   -1.800136
  C      0.371176    0.471098   -1.013578
  H     -0.018754    1.387660   -1.466426
  C      0.743570    0.782556    0.425873
  O      0.045839    0.441754    1.363156
  O      1.806641    1.533472    0.501620
  C      2.247087    2.001359    1.794243
  C      2.576935    3.478774    1.685892
  S     -0.986260   -0.749014   -0.971590
  P     -2.312745    0.282861    0.324448
  S     -2.215862    2.237377    0.340462
  O     -3.714149   -0.236170   -0.282112
  C     -4.171732    0.182743   -1.570267
  O     -2.436547   -0.396655    1.746815
  C     -2.321077   -1.817126    1.940533
  H      5.002145   -1.837467   -0.016909
  H      5.603958   -3.457904   -0.385091
  H      5.560525   -2.222139   -1.652605
  H      3.096619   -3.405182   -0.269705
  H      3.668583   -3.846265   -1.911410
  H      1.240984   -0.458910   -2.768900
  H      2.283194    0.726510   -1.952954
  H      1.452761    1.813331    2.521779
  H      3.127172    1.408749    2.056534
  H      2.949162    3.831071    2.642061
  H      3.334057    3.636456    0.923969
  H      1.685680    4.042151    1.421463
  H     -4.087944    1.267225   -1.660722
  H     -5.213088   -0.123655   -1.625163
  H     -3.583790   -0.303597   -2.348663
  H     -2.646819   -1.990799    2.962801
  H     -1.278916   -2.113743    1.816584
  H     -2.956391   -2.349184    1.233659

 Total Charge           Charge          ....    0
 Multiplicity           Mult            ....    1
 Number of Electrons    NEL             ....  174
 Basis Dimension        Dim             ....  316

ORBITAL ENERGIES
----------------

  NO   OCC          E(Eh)            E(eV)
   0   2.0000     -88.031889     -2395.4695
   1   2.0000     -87.965221     -2393.6553
   2   2.0000     -76.413131     -2079.3070
   3   2.0000     -18.816461      -512.0219
   4   2.0000     -18.805890      -511.7343
   5   2.0000     -18.773917      -510.8642
   6   2.0000     -18.771536      -510.7995
   7   2.0000     -18.753938      -510.3206
   8   2.0000     -18.732853      -509.7469
   9   2.0000     -10.023654      -272.7575
  10   2.0000     -10.013155      -272.4718
  11   2.0000      -9.958931      -270.9963
  12   2.0000      -9.945228      -270.6234
  13   2.0000      -9.944024      -270.5906
  14   2.0000      -9.934975      -270.3444
  15   2.0000      -9.928832      -270.1773
  16   2.0000      -9.922614      -270.0080
  17   2.0000      -9.897624      -269.3280
  18   2.0000      -9.886446      -269.0239
  19   2.0000      -7.676652      -208.8923
  20   2.0000      -7.610659      -207.0966
  21   2.0000      -6.408890      -174.3948
  22   2.0000      -5.704473      -155.2266
  23   2.0000      -5.701325      -155.1409
  24   2.0000      -5.693584      -154.9303
  25   2.0000      -5.639868      -153.4686
  26   2.0000      -5.631381      -153.2377
  27   2.0000      -5.630340      -153.2094
  28   2.0000      -4.631530      -126.0303
  29   2.0000      -4.631105      -126.0188
  30   2.0000      -4.629247      -125.9682
  31   2.0000      -1.025615       -27.9084
  32   2.0000      -1.013411       -27.5763
  33   2.0000      -0.967824       -26.3358
  34   2.0000      -0.930570       -25.3221
  35   2.0000      -0.923040       -25.1172
  36   2.0000      -0.914535       -24.8857
  37   2.0000      -0.765025       -20.8174
  38   2.0000      -0.720332       -19.6012
  39   2.0000      -0.706268       -19.2185
  40   2.0000      -0.686945       -18.6927
  41   2.0000      -0.657646       -17.8955
  42   2.0000      -0.622862       -16.9489
  43   2.0000      -0.617445       -16.8015
  44   2.0000      -0.605484       -16.4761
  45   2.0000      -0.599702       -16.3187
  46   2.0000      -0.559752       -15.2316
  47   2.0000      -0.510984       -13.9046
  48   2.0000      -0.508510       -13.8373
  49   2.0000      -0.497366       -13.5340
  50   2.0000      -0.486680       -13.2432
  51   2.0000      -0.464728       -12.6459
  52   2.0000      -0.457489       -12.4489
  53   2.0000      -0.448665       -12.2088
  54   2.0000      -0.441546       -12.0151
  55   2.0000      -0.430145       -11.7049
  56   2.0000      -0.422981       -11.5099
  57   2.0000      -0.415461       -11.3053
  58   2.0000      -0.408006       -11.1024
  59   2.0000      -0.401406       -10.9228
  60   2.0000      -0.399779       -10.8785
  61   2.0000      -0.396901       -10.8002
  62   2.0000      -0.388962       -10.5842
  63   2.0000      -0.386320       -10.5123
  64   2.0000      -0.377025       -10.2594
  65   2.0000      -0.366895        -9.9837
  66   2.0000      -0.365204        -9.9377
  67   2.0000      -0.352817        -9.6006
  68   2.0000      -0.346797        -9.4368
  69   2.0000      -0.345737        -9.4080
  70   2.0000      -0.337710        -9.1896
  71   2.0000      -0.328184        -8.9303
  72   2.0000      -0.323081        -8.7915
  73   2.0000      -0.307967        -8.3802
  74   2.0000      -0.305170        -8.3041
  75   2.0000      -0.297467        -8.0945
  76   2.0000      -0.283358        -7.7106
  77   2.0000      -0.281117        -7.6496
  78   2.0000      -0.274654        -7.4737
  79   2.0000      -0.260604        -7.0914
  80   2.0000      -0.254268        -6.9190
  81   2.0000      -0.243750        -6.6328
  82   2.0000      -0.238524        -6.4906
  83   2.0000      -0.225354        -6.1322
  84   2.0000      -0.213107        -5.7989
  85   2.0000      -0.187904        -5.1131
  86   2.0000      -0.179376        -4.8811
  87   0.0000      -0.040725        -1.1082
  88   0.0000      -0.027296        -0.7428
  89   0.0000      -0.016532        -0.4499
  90   0.0000       0.012614         0.3432
  91   0.0000       0.033089         0.9004

MULLIKEN ATOMIC CHARGES
-----------------------
   0 C :   -0.304579
   1 C :   -0.016043
   2 O :   -0.221329
   3 C :    0.117013
   4 O :   -0.195920
   5 C :   -0.096612
   6 C :   -0.289984
   7 H :    0.146700
   8 C :    0.233061
   9 O :   -0.191057
  10 O :   -0.237097
  11 C :   -0.021391
  12 C :   -0.287144
  13 S :   -0.105912
  14 P :    0.617852
  15 S :   -0.341031
  16 O :   -0.392072
  17 C :   -0.096532
  18 O :   -0.352639
  19 C :   -0.098643
  20 H :    0.125311
  21 H :    0.118055
  22 H :    0.117104
  23 H :    0.116584
  24 H :    0.108468
  25 H :    0.127264
  26 H :    0.139832
  27 H :    0.128101
  28 H :    0.104099
  29 H :    0.112617
  30 H :    0.109577
  31 H :    0.124780
  32 H :    0.111341
  33 H :    0.118136
  34 H :    0.104819
  35 H :    0.126038
  36 H :    0.129903
  37 H :    0.111330
Sum of atomic charges:   -0.0000000

LOEWDIN ATOMIC CHARGES
----------------------
   0 C :   -0.354798
   1 C :   -0.109166
   2 O :   -0.050713
   3 C :    0.036499
   4 O :   -0.149243
   5 C :   -0.251502
   6 C :   -0.263689
   7 H :    0.142836
   8 C :    0.012805
   9 O :   -0.161845
  10 O :   -0.048042
  11 C :   -0.104282
  12 C :   -0.351447
  13 S :    0.088280
  14 P :    0.591456
  15 S :   -0.334379
  16 O :   -0.270928
  17 C :   -0.221612
  18 O :   -0.231689
  19 C :   -0.207686
  20 H :    0.129993
  21 H :    0.133201
  22 H :    0.126279
  23 H :    0.123294
  24 H :    0.120667
  25 H :    0.142308
  26 H :    0.155848
  27 H :    0.127228
  28 H :    0.117252
  29 H :    0.130840
  30 H :    0.123128
  31 H :    0.131308
  32 H :    0.107273
  33 H :    0.118618
  34 H :    0.102239
  35 H :    0.124182
  36 H :    0.116983
  37 H :    0.108505

  Mayer bond orders larger than 0.100000
B(  0-C ,  1-C ) :   1.1746 B(  0-C , 20-H ) :   0.9470 B(  0-C , 21-H ) :   0.9439
B(  0-C , 22-H ) :   0.9487 B(  1-C ,  2-O ) :   0.9077 B(  1-C , 23-H ) :   0.9136
B(  1-C , 24-H ) :   0.9366 B(  2-O ,  3-C ) :   1.2570 B(  3-C ,  4-O ) :   1.9893
B(  3-C ,  5-C ) :   0.9893 B(  4-O ,  8-C ) :   0.1034 B(  5-C ,  6-C ) :   1.0583
B(  5-C , 25-H ) :   0.9019 B(  5-C , 26-H ) :   0.8756 B(  6-C ,  7-H ) :   0.8560
B(  6-C ,  8-C ) :   0.8727 B(  6-C , 13-S ) :   1.0353 B(  8-C ,  9-O ) :   1.9816
B(  8-C , 10-O ) :   1.2444 B(  9-O , 14-P ) :   0.1053 B( 10-O , 11-C ) :   0.8987
B( 11-C , 12-C ) :   1.1664 B( 11-C , 27-H ) :   0.9103 B( 11-C , 28-H ) :   0.9348
B( 12-C , 29-H ) :   0.9438 B( 12-C , 30-H ) :   0.9497 B( 12-C , 31-H ) :   0.9493
B( 13-S , 14-P ) :   0.9362 B( 13-S , 15-S ) :   0.1097 B( 14-P , 15-S ) :   1.6101
B( 14-P , 16-O ) :   1.0513 B( 14-P , 18-O ) :   1.1329 B( 16-O , 17-C ) :   0.9438
B( 17-C , 32-H ) :   0.9324 B( 17-C , 33-H ) :   0.9592 B( 17-C , 34-H ) :   0.9454
B( 18-O , 19-C ) :   0.9237 B( 19-C , 35-H ) :   0.9596 B( 19-C , 36-H ) :   0.9435
B( 19-C , 37-H ) :   0.9449

Dispersion correction           -0.051079932
FINAL SINGLE POINT ENERGY     -1979.013361444878

DIPOLE MOMENT
-------------

Method             : SCF
Type of density    : Electron Density
Multiplicity       :   1
Irrep              :   0
Energy             : -1979.1441662830534369 Eh
Relativity type    :
Basis              : AO
                                X                 Y                 Z
Electronic contribution:    -18.400523085       2.933971766      -0.189262508
Nuclear contribution   :     20.200903507      -4.072764397      -0.695454091
                        -----------------------------------------
Total Dipole Moment    :      1.800380421      -1.138792631      -0.884716599
                        -----------------------------------------
Magnitude (a.u.)       :      2.306716666
Magnitude (Debye)      :      5.863207808

Rotational constants in cm-1:             0.013591             0.006541             0.005324
Rotational constants in MHz :           407.439182           196.080458           159.609527

                             ****ORCA TERMINATED NORMALLY****
TOTAL RUN TIME: 0 days 0 hours 0 minutes 34 seconds 494 msec
