                         Program Version 6.0.0  -   RELEASE  -
|  1> ! r2scan-3c def2/J RI DEFGRID2 scfconv6 printgap
|  2> %output
|  3>     printlevel normal
|  4> end
|  5> * xyz 0 1
|  6> C -0.718752131 -0.5982354427 -0.261790037
|  7> C 0.7109413537 -0.5953529876 0.2899007018
|  8> O 1.4634077176 0.5281609671 -0.1048352878
|  9> O -1.4561775103 0.552602347 0.079362941
| 10> H -1.2271006609 -1.5048551463 0.094034173
| 11> H -0.7011592671 -0.6139361903 -1.3546343572
| 12> H 1.2064204324 -1.5246515931 -0.0225386418
| 13> H 0.6944256391 -0.5595776695 1.3821157339
| 14> H 1.4482544838 0.6012411081 -1.0691593465
| 15> H -1.4425341949 0.6693705422 1.0395442737
| 16> *
| 17>
| 18>                          ****END OF INPUT****

CARTESIAN COORDINATES (ANGSTROEM)
---------------------------------
  C     -0.718752   -0.598235   -0.261790
  C      0.710941   -0.595353    0.289901
  O      1.463408    0.528161   -0.104835
  O     -1.456178    0.552602    0.079363
  H     -1.227101   -1.504855    0.094034
  H     -0.701159   -0.613936   -1.354634
  H      1.206420   -1.524652   -0.022539
  H      0.694426   -0.559578    1.382116
  H      1.448254    0.601241   -1.069159
  H     -1.442534    0.669371    1.039544

 Total Charge           Charge          ....    0
 Multiplicity           Mult            ....    1
 Number of Electrons    NEL             ....   34
 Basis Dimension        Dim             ....  116

ORBITAL ENERGIES
----------------

  NO   OCC          E(Eh)            E(eV)
   0   2.0000     -18.951012      -515.6832
   1   2.0000     -18.950955      -515.6817
   2   2.0000     -10.082649      -274.3628
   3   2.0000     -10.082503      -274.3589
   4   2.0000      -0.997997       -27.1569
   5   2.0000      -0.979319       -26.6486
   6   2.0000      -0.704303       -19.1651
   7   2.0000      -0.602976       -16.4078
   8   2.0000      -0.494923       -13.4675
   9   2.0000      -0.449488       -12.2312
  10   2.0000      -0.428285       -11.6542
  11   2.0000      -0.426229       -11.5983
  12   2.0000      -0.370507       -10.0820
  13   2.0000      -0.316178        -8.6037
  14   2.0000      -0.302836        -8.2406
  15   2.0000      -0.252282        -6.8649
  16   2.0000      -0.230962        -6.2848
  17   0.0000       0.056505         1.5376
  18   0.0000       0.071426         1.9436
  19   0.0000       0.107454         2.9240
  20   0.0000       0.123908         3.3717
  21   0.0000       0.140513         3.8236

MULLIKEN ATOMIC CHARGES
-----------------------
   0 C :   -0.156888
   1 C :   -0.156238
   2 O :   -0.396587
   3 O :   -0.396525
   4 H :    0.126841
   5 H :    0.132189
   6 H :    0.126815
   7 H :    0.132163
   8 H :    0.294076
   9 H :    0.294154
Sum of atomic charges:   -0.0000000

LOEWDIN ATOMIC CHARGES
----------------------
   0 C :    0.000171
   1 C :    0.000102
   2 O :   -0.600236
   3 O :   -0.600269
   4 H :    0.159764
   5 H :    0.174045
   6 H :    0.159717
   7 H :    0.174031
   8 H :    0.266291
   9 H :    0.266383

  Mayer bond orders larger than 0.100000
B(  0-C ,  1-C ) :   0.9593 B(  0-C ,  3-O ) :   0.9453 B(  0-C ,  4-H ) :   0.9618
B(  0-C ,  5-H ) :   0.9703 B(  1-C ,  2-O ) :   0.9451 B(  1-C ,  6-H ) :   0.9617
B(  1-C ,  7-H ) :   0.9703 B(  2-O ,  8-H ) :   0.8970 B(  3-O ,  9-H ) :   0.8970

Dispersion correction           -0.001579640
FINAL SINGLE POINT ENERGY      -230.206544290748

DIPOLE MOMENT
-------------

Method             : SCF
Type of density    : Electron Density
Multiplicity       :   1
Irrep              :   0
Energy             :  -230.2123541834812670 Eh
Relativity type    :
Basis              : AO
                                X                 Y                 Z
Electronic contribution:      0.013963310       2.040837691      -0.047898608
Nuclear contribution   :     -0.020244892      -2.735048712       0.064694928
                        -----------------------------------------
Total Dipole Moment    :     -0.006281581      -0.694211021       0.016796320
                        -----------------------------------------
Magnitude (a.u.)       :      0.694442594
Magnitude (Debye)      :      1.765132797

Rotational constants in cm-1:             0.524104             0.174200             0.149577
Rotational constants in MHz :         15712.251006          5222.375348          4484.210197

                             ****ORCA TERMINATED NORMALLY****
TOTAL RUN TIME: 0 days 0 hours 0 minutes 10 seconds 318 msec
