                         Program Version 6.0.0  -   RELEASE  -
|  1> ! r2scan-3c def2/J RI DEFGRID2 scfconv6 printgap
|  2> %output
|  3>     printlevel normal
|  4> end
|  5> %cpcm
|  6>     smd true
|  7>     smdsolvent "water"
|  8> end
|  9> * xyz 0 1
| 10> C -0.718752131 -0.5982354427 -0.261790037
| 11> C 0.7109413537 -0.5953529876 0.2899007018
| 12> O 1.4634077176 0.5281609671 -0.1048352878
| 13> O -1.4561775103 0.552602347 0.079362941
| 14> H -1.2271006609 -1.5048551463 0.094034173
| 15> H -0.7011592671 -0.6139361903 -1.3546343572
| 16> H 1.2064204324 -1.5246515931 -0.0225386418
| 17> H 0.6944256391 -0.5595776695 1.3821157339
| 18> H 1.4482544838 0.6012411081 -1.0691593465
| 19> H -1.4425341949 0.6693705422 1.0395442737
| 20> *
| 21>
| 22>                          ****END OF INPUT****

CARTESIAN COORDINATES (ANGSTROEM)
---------------------------------
  C     -0.718752   -0.598235   -0.261790
  C      0.710941   -0.595353    0.289901
  O      1.463408    0.528161   -0.104835
  O     -1.456178    0.552602    0.079363
  H     -1.227101   -1.504855    0.094034
  H     -0.701159   -0.613936   -1.354634
  H      1.206420   -1.524652   -0.022539
  H      0.694426   -0.559578    1.382116
  H      1.448254    0.601241   -1.069159
  H     -1.442534    0.669371    1.039544

 Total Charge           Charge          ....    0
 Multiplicity           Mult            ....    1
 Number of Electrons    NEL             ....   34
 Basis Dimension        Dim             ....  116

ORBITAL ENERGIES
----------------

  NO   OCC          E(Eh)            E(eV)
   0   2.0000     -18.952674      -515.7285
   1   2.0000     -18.952631      -515.7273
   2   2.0000     -10.071395      -274.0566
   3   2.0000     -10.071253      -274.0527
   4   2.0000      -0.997870       -27.1534
   5   2.0000      -0.979906       -26.6646
   6   2.0000      -0.694475       -18.8976
   7   2.0000      -0.595134       -16.1944
   8   2.0000      -0.489670       -13.3246
   9   2.0000      -0.442490       -12.0408
  10   2.0000      -0.423498       -11.5240
  11   2.0000      -0.417554       -11.3622
  12   2.0000      -0.368392       -10.0245
  13   2.0000      -0.320006        -8.7078
  14   2.0000      -0.297822        -8.1041
  15   2.0000      -0.256920        -6.9912
  16   2.0000      -0.233224        -6.3464
  17   0.0000       0.070179         1.9097
  18   0.0000       0.095532         2.5995
  19   0.0000       0.126306         3.4370
  20   0.0000       0.136106         3.7036
  21   0.0000       0.150345         4.0911

MULLIKEN ATOMIC CHARGES
-----------------------
   0 C :   -0.149487
   1 C :   -0.148840
   2 O :   -0.498413
   3 O :   -0.498378
   4 H :    0.142537
   5 H :    0.155100
   6 H :    0.142492
   7 H :    0.155006
   8 H :    0.349931
   9 H :    0.350052
Sum of atomic charges:   -0.0000000

LOEWDIN ATOMIC CHARGES
----------------------
   0 C :    0.005084
   1 C :    0.005037
   2 O :   -0.641904
   3 O :   -0.641921
   4 H :    0.169944
   5 H :    0.182450
   6 H :    0.169882
   7 H :    0.182414
   8 H :    0.284460
   9 H :    0.284555

  Mayer bond orders larger than 0.100000
B(  0-C ,  1-C ) :   0.9677 B(  0-C ,  3-O ) :   0.9327 B(  0-C ,  4-H ) :   0.9546
B(  0-C ,  5-H ) :   0.9657 B(  1-C ,  2-O ) :   0.9326 B(  1-C ,  6-H ) :   0.9545
B(  1-C ,  7-H ) :   0.9657 B(  2-O ,  8-H ) :   0.8692 B(  3-O ,  9-H ) :   0.8691

Dispersion correction           -0.001579640
FINAL SINGLE POINT ENERGY      -230.224005380145

DIPOLE MOMENT
-------------

Method             : SCF
Type of density    : Electron Density
Multiplicity       :   1
Irrep              :   0
Energy             :  -230.2298152728784260 Eh
Relativity type    :
Basis              : AO
                                X                 Y                 Z
Electronic contribution:      0.011281127       1.724142048      -0.040557936
Nuclear contribution   :     -0.020244892      -2.735048712       0.064694928
                        -----------------------------------------
Total Dipole Moment    :     -0.008963765      -1.010906665       0.024136992
                        -----------------------------------------
Magnitude (a.u.)       :      1.011234507
Magnitude (Debye)      :      2.570353847

Rotational constants in cm-1:             0.524104             0.174200             0.149577
Rotational constants in MHz :         15712.251006          5222.375348          4484.210197

                             ****ORCA TERMINATED NORMALLY****
TOTAL RUN TIME: 0 days 0 hours 0 minutes 11 seconds 642 msec
