                         Program Version 6.0.1  -  RELEASE   -
|  1> ! pbe def2-sv(p) def2/J RI DEFGRID1 loosescf d4 GCP(DFT/SV(P)) printgap
|  2> %output
|  3>     printlevel normal
|  4> end
|  5> * xyz 0 1
|  6> C 4.5706147614 -3.3721595927 -2.0518028302
|  7> C 3.6601748434 -3.6191081426 -0.8593024584
|  8> O 3.3313014318 -2.383000916 -0.1959611071
|  9> C 2.3045526986 -1.6851406122 -0.640491556
| 10> O 1.5864654035 -2.0186243417 -1.5559706483
| 11> C 2.1418743667 -0.3994415321 0.1495922357
| 12> C 0.7539296959 0.1820583999 -0.0614137207
| 13> H 0.5093784996 0.1655580244 -1.1322889547
| 14> C 0.5872302671 1.6102965916 0.4194348662
| 15> O -0.4238116667 1.9874561923 0.9760291253
| 16> O 1.6147673885 2.3606757189 0.1274433599
| 17> C 1.5611277404 3.7609536868 0.4819812781
| 18> C 1.9714114466 3.9717182674 1.9298443109
| 19> S -0.5084788865 -0.8301742594 0.7851160803
| 20> P -2.2258711855 0.2085977267 0.0911760688
| 21> S -2.0616654685 1.2479467772 -1.5594860403
| 22> O -3.2567161306 -1.019895764 -0.0642445159
| 23> C -3.0975796196 -1.989894952 -1.1008903433
| 24> O -2.9334443861 0.9712347617 1.2770762112
| 25> C -3.1772304272 0.356109763 2.5571895095
| 26> H 4.0507044484 -2.7827810301 -2.8037211419
| 27> H 5.4634199632 -2.8388238733 -1.7374522052
| 28> H 4.8568546772 -4.3235663348 -2.4877524756
| 29> H 4.1593210477 -4.2134101291 -0.0940568492
| 30> H 2.7316617063 -4.103282794 -1.1744432623
| 31> H 2.886512016 0.3153028497 -0.208184587
| 32> H 2.3331428863 -0.6060625184 1.2024325893
| 33> H 2.2595607157 4.2352488857 -0.2070517922
| 34> H 0.5448340622 4.1238809684 0.3054716422
| 35> H 2.9623675172 3.5621215875 2.1035623408
| 36> H 1.9811172808 5.0351602402 2.1444742452
| 37> H 1.2614934952 3.4856489146 2.5951028462
| 38> H -2.203488439 -2.5883530146 -0.921664722
| 39> H -3.0180325113 -1.4929952325 -2.06935867
| 40> H -3.9891810053 -2.6100771765 -1.0623395056
| 41> H -3.8850894249 -0.4633182118 2.445340374
| 42> H -3.591130109 1.1489315465 3.174620606
| 43> H -2.2402451626 -0.0099986508 2.9770704265
| 44> *
| 45>
| 46>                          ****END OF INPUT****

CARTESIAN COORDINATES (ANGSTROEM)
---------------------------------
  C      4.570615   -3.372160   -2.051803
  C      3.660175   -3.619108   -0.859302
  O      3.331301   -2.383001   -0.195961
  C      2.304553   -1.685141   -0.640492
  O      1.586465   -2.018624   -1.555971
  C      2.141874   -0.399442    0.149592
  C      0.753930    0.182058   -0.061414
  H      0.509378    0.165558   -1.132289
  C      0.587230    1.610297    0.419435
  O     -0.423812    1.987456    0.976029
  O      1.614767    2.360676    0.127443
  C      1.561128    3.760954    0.481981
  C      1.971411    3.971718    1.929844
  S     -0.508479   -0.830174    0.785116
  P     -2.225871    0.208598    0.091176
  S     -2.061665    1.247947   -1.559486
  O     -3.256716   -1.019896   -0.064245
  C     -3.097580   -1.989895   -1.100890
  O     -2.933444    0.971235    1.277076
  C     -3.177230    0.356110    2.557190
  H      4.050704   -2.782781   -2.803721
  H      5.463420   -2.838824   -1.737452
  H      4.856855   -4.323566   -2.487752
  H      4.159321   -4.213410   -0.094057
  H      2.731662   -4.103283   -1.174443
  H      2.886512    0.315303   -0.208185
  H      2.333143   -0.606063    1.202433
  H      2.259561    4.235249   -0.207052
  H      0.544834    4.123881    0.305472
  H      2.962368    3.562122    2.103562
  H      1.981117    5.035160    2.144474
  H      1.261493    3.485649    2.595103
  H     -2.203488   -2.588353   -0.921665
  H     -3.018033   -1.492995   -2.069359
  H     -3.989181   -2.610077   -1.062340
  H     -3.885089   -0.463318    2.445340
  H     -3.591130    1.148932    3.174621
  H     -2.240245   -0.009999    2.977070

 Total Charge           Charge          ....    0
 Multiplicity           Mult            ....    1
 Number of Electrons    NEL             ....  174
 Basis Dimension        Dim             ....  316

ORBITAL ENERGIES
----------------

  NO   OCC          E(Eh)            E(eV)
   0   2.0000     -88.032201     -2395.4780
   1   2.0000     -87.968450     -2393.7432
   2   2.0000     -76.413821     -2079.3258
   3   2.0000     -18.817383      -512.0470
   4   2.0000     -18.807716      -511.7840
   5   2.0000     -18.778526      -510.9897
   6   2.0000     -18.774716      -510.8860
   7   2.0000     -18.746574      -510.1202
   8   2.0000     -18.743488      -510.0362
   9   2.0000     -10.018483      -272.6168
  10   2.0000     -10.016294      -272.5572
  11   2.0000      -9.955468      -270.9021
  12   2.0000      -9.953306      -270.8432
  13   2.0000      -9.941770      -270.5293
  14   2.0000      -9.939854      -270.4772
  15   2.0000      -9.928802      -270.1764
  16   2.0000      -9.918437      -269.8944
  17   2.0000      -9.892921      -269.2001
  18   2.0000      -9.892073      -269.1770
  19   2.0000      -7.677054      -208.9033
  20   2.0000      -7.613766      -207.1811
  21   2.0000      -6.410161      -174.4294
  22   2.0000      -5.704785      -155.2351
  23   2.0000      -5.701806      -155.1540
  24   2.0000      -5.693991      -154.9414
  25   2.0000      -5.643043      -153.5550
  26   2.0000      -5.634386      -153.3194
  27   2.0000      -5.633511      -153.2956
  28   2.0000      -4.632878      -126.0670
  29   2.0000      -4.632198      -126.0485
  30   2.0000      -4.630498      -126.0022
  31   2.0000      -1.024587       -27.8804
  32   2.0000      -1.016400       -27.6577
  33   2.0000      -0.971987       -26.4491
  34   2.0000      -0.927685       -25.2436
  35   2.0000      -0.924489       -25.1566
  36   2.0000      -0.922902       -25.1135
  37   2.0000      -0.763551       -20.7773
  38   2.0000      -0.716061       -19.4850
  39   2.0000      -0.710107       -19.3230
  40   2.0000      -0.687253       -18.7011
  41   2.0000      -0.656669       -17.8689
  42   2.0000      -0.626940       -17.0599
  43   2.0000      -0.620989       -16.8980
  44   2.0000      -0.608455       -16.5569
  45   2.0000      -0.599588       -16.3156
  46   2.0000      -0.566113       -15.4047
  47   2.0000      -0.508023       -13.8240
  48   2.0000      -0.504758       -13.7352
  49   2.0000      -0.497146       -13.5280
  50   2.0000      -0.478650       -13.0247
  51   2.0000      -0.466360       -12.6903
  52   2.0000      -0.461477       -12.5574
  53   2.0000      -0.452132       -12.3031
  54   2.0000      -0.435285       -11.8447
  55   2.0000      -0.428724       -11.6662
  56   2.0000      -0.424599       -11.5539
  57   2.0000      -0.418754       -11.3949
  58   2.0000      -0.414306       -11.2738
  59   2.0000      -0.405213       -11.0264
  60   2.0000      -0.401224       -10.9179
  61   2.0000      -0.397377       -10.8132
  62   2.0000      -0.390765       -10.6332
  63   2.0000      -0.387100       -10.5335
  64   2.0000      -0.380565       -10.3557
  65   2.0000      -0.365870        -9.9558
  66   2.0000      -0.363822        -9.9001
  67   2.0000      -0.357229        -9.7207
  68   2.0000      -0.348293        -9.4775
  69   2.0000      -0.339610        -9.2413
  70   2.0000      -0.334140        -9.0924
  71   2.0000      -0.333157        -9.0657
  72   2.0000      -0.326965        -8.8972
  73   2.0000      -0.308113        -8.3842
  74   2.0000      -0.304749        -8.2926
  75   2.0000      -0.300637        -8.1808
  76   2.0000      -0.288602        -7.8533
  77   2.0000      -0.283823        -7.7232
  78   2.0000      -0.271164        -7.3787
  79   2.0000      -0.266865        -7.2618
  80   2.0000      -0.259785        -7.0691
  81   2.0000      -0.246333        -6.7031
  82   2.0000      -0.233502        -6.3539
  83   2.0000      -0.230607        -6.2751
  84   2.0000      -0.213114        -5.7991
  85   2.0000      -0.190601        -5.1865
  86   2.0000      -0.183034        -4.9806
  87   0.0000      -0.040157        -1.0927
  88   0.0000      -0.028292        -0.7699
  89   0.0000      -0.021852        -0.5946
  90   0.0000       0.013355         0.3634
  91   0.0000       0.031982         0.8703

MULLIKEN ATOMIC CHARGES
-----------------------
   0 C :   -0.306147
   1 C :   -0.012453
   2 O :   -0.231514
   3 C :    0.136214
   4 O :   -0.194294
   5 C :   -0.128228
   6 C :   -0.304949
   7 H :    0.166205
   8 C :    0.228824
   9 O :   -0.182295
  10 O :   -0.227588
  11 C :   -0.008038
  12 C :   -0.309585
  13 S :   -0.110616
  14 P :    0.628199
  15 S :   -0.330703
  16 O :   -0.396567
  17 C :   -0.100079
  18 O :   -0.353520
  19 C :   -0.102129
  20 H :    0.128626
  21 H :    0.114510
  22 H :    0.115658
  23 H :    0.104779
  24 H :    0.112618
  25 H :    0.139501
  26 H :    0.116588
  27 H :    0.106977
  28 H :    0.123223
  29 H :    0.113259
  30 H :    0.117854
  31 H :    0.131246
  32 H :    0.114988
  33 H :    0.116257
  34 H :    0.117095
  35 H :    0.121117
  36 H :    0.128952
  37 H :    0.116016
Sum of atomic charges:   -0.0000000

LOEWDIN ATOMIC CHARGES
----------------------
   0 C :   -0.356101
   1 C :   -0.110078
   2 O :   -0.060867
   3 C :    0.031562
   4 O :   -0.157559
   5 C :   -0.255714
   6 C :   -0.269814
   7 H :    0.149670
   8 C :    0.015986
   9 O :   -0.156663
  10 O :   -0.043385
  11 C :   -0.105256
  12 C :   -0.356483
  13 S :    0.092495
  14 P :    0.588803
  15 S :   -0.322226
  16 O :   -0.269087
  17 C :   -0.220674
  18 O :   -0.231569
  19 C :   -0.208333
  20 H :    0.131282
  21 H :    0.124997
  22 H :    0.132041
  23 H :    0.118834
  24 H :    0.121804
  25 H :    0.154845
  26 H :    0.139468
  27 H :    0.120328
  28 H :    0.127861
  29 H :    0.124468
  30 H :    0.133508
  31 H :    0.132081
  32 H :    0.107225
  33 H :    0.110326
  34 H :    0.118077
  35 H :    0.114246
  36 H :    0.125279
  37 H :    0.108621

  Mayer bond orders larger than 0.100000
B(  0-C ,  1-C ) :   1.1746 B(  0-C , 20-H ) :   0.9460 B(  0-C , 21-H ) :   0.9488
B(  0-C , 22-H ) :   0.9440 B(  1-C ,  2-O ) :   0.9132 B(  1-C , 23-H ) :   0.9371
B(  1-C , 24-H ) :   0.9145 B(  2-O ,  3-C ) :   1.2403 B(  3-C ,  4-O ) :   2.0418
B(  3-C ,  5-C ) :   0.9947 B(  5-C ,  6-C ) :   1.0884 B(  5-C , 25-H ) :   0.8705
B(  5-C , 26-H ) :   0.9003 B(  6-C ,  7-H ) :   0.8245 B(  6-C ,  8-C ) :   0.8976
B(  6-C , 13-S ) :   1.0237 B(  8-C ,  9-O ) :   2.0068 B(  8-C , 10-O ) :   1.2632
B( 10-O , 11-C ) :   0.9026 B( 11-C , 12-C ) :   1.1741 B( 11-C , 27-H ) :   0.9371
B( 11-C , 28-H ) :   0.9157 B( 12-C , 29-H ) :   0.9481 B( 12-C , 30-H ) :   0.9434
B( 12-C , 31-H ) :   0.9447 B( 13-S , 14-P ) :   0.9411 B( 13-S , 15-S ) :   0.1123
B( 14-P , 15-S ) :   1.6224 B( 14-P , 16-O ) :   1.0508 B( 14-P , 18-O ) :   1.1346
B( 16-O , 17-C ) :   0.9399 B( 17-C , 32-H ) :   0.9433 B( 17-C , 33-H ) :   0.9360
B( 17-C , 34-H ) :   0.9587 B( 18-O , 19-C ) :   0.9237 B( 19-C , 35-H ) :   0.9472
B( 19-C , 36-H ) :   0.9603 B( 19-C , 37-H ) :   0.9389

Dispersion correction           -0.049484223
FINAL SINGLE POINT ENERGY     -1979.016691218593

DIPOLE MOMENT
-------------

Method             : SCF
Type of density    : Electron Density
Multiplicity       :   1
Irrep              :   0
Energy             : -1979.1481374460090592 Eh
Relativity type    :
Basis              : AO
                                X                 Y                 Z
Electronic contribution:    -16.368614849       3.363868953      -1.785603466
Nuclear contribution   :     18.079614850      -3.915914229       2.810507419
                        -----------------------------------------
Total Dipole Moment    :      1.711000002      -0.552045276       1.024903953
                        -----------------------------------------
Magnitude (a.u.)       :      2.069469281
Magnitude (Debye)      :      5.260172881

Rotational constants in cm-1:             0.011057             0.006722             0.004928
Rotational constants in MHz :           331.469920           201.512537           147.734898

                             ****ORCA TERMINATED NORMALLY****
TOTAL RUN TIME: 0 days 0 hours 0 minutes 38 seconds 762 msec
