                         Program Version 6.0.0  -   RELEASE  -
|  1> ! pbe def2-sv(p) def2/J RI DEFGRID1 loosescf d4 GCP(DFT/SV(P)) printgap
|  2> %output
|  3>     printlevel normal
|  4> end
|  5> * xyz 0 1
|  6> C 1.8337271784 -3.7948617603 -0.2156499428
|  7> C 1.3465946327 -2.4200593425 0.1971094642
|  8> O 2.4345259859 -1.4961961706 0.0376976931
|  9> P 2.2760989369 0.0352375512 -0.3694335334
| 10> S 0.967044229 0.3639016737 -1.7894326311
| 11> O 3.7285293635 0.4122695317 -0.8282605211
| 12> C 4.8621570469 0.6869886485 0.0335776733
| 13> C 5.1747048776 -0.4581833847 0.9710260117
| 14> S 1.9884627128 1.1245178858 1.4416271685
| 15> C 0.2264515159 1.4691706166 1.3164898019
| 16> S -0.8001687731 -0.0270360129 1.5675011343
| 17> P -2.1752856441 0.1869455572 -0.0188851633
| 18> S -2.2659600104 1.925751549 -0.9268801973
| 19> O -3.5545053789 -0.2933766253 0.613446968
| 20> C -4.4772092496 0.6107636491 1.2431075911
| 21> C -3.9146848494 1.2150561767 2.5137762077
| 22> O -1.7945009291 -1.0903715544 -0.8752489473
| 23> C -2.1578309635 -1.2286006513 -2.2624838122
| 24> C -3.6579085816 -1.2768160222 -2.4585042296
| 25> H 2.1362397084 -3.785333725 -1.2594020513
| 26> H 2.6828737422 -4.0858259252 0.3955089614
| 27> H 1.0302503134 -4.5115245494 -0.0810112589
| 28> H 1.0399989257 -2.4032184537 1.2468152291
| 29> H 0.5046473297 -2.0949983906 -0.4239994746
| 30> H 5.672005271 0.8625816918 -0.6761050904
| 31> H 4.650402477 1.6021509944 0.5918165657
| 32> H 4.3629087763 -0.592546071 1.6827615846
| 33> H 5.3096855245 -1.3784715813 0.4091561548
| 34> H 6.0864271119 -0.2307587214 1.5146712555
| 35> H -0.0082402098 1.8897797558 0.3352138462
| 36> H 0.0084415119 2.1770099876 2.1121967397
| 37> H -4.7311198996 1.398116349 0.5261454853
| 38> H -5.3528093811 -0.007968876 1.4436136493
| 39> H -3.554729631 0.4336171081 3.1782635733
| 40> H -3.0879900091 1.8817634468 2.2706133155
| 41> H -4.6904487824 1.7864327594 3.0132657442
| 42> H -1.7110794066 -0.3961984279 -2.8168598075
| 43> H -1.6783531739 -2.160982306 -2.5643510687
| 44> H -4.0980219646 -0.3174812932 -2.1882329224
| 45> H -3.8763009271 -1.4827631133 -3.5016425276
| 46> H -4.0918922044 -2.0533817903 -1.833972796
| 47> *
| 48>
| 49>                          ****END OF INPUT****

CARTESIAN COORDINATES (ANGSTROEM)
---------------------------------
  C      1.833727   -3.794862   -0.215650
  C      1.346595   -2.420059    0.197109
  O      2.434526   -1.496196    0.037698
  P      2.276099    0.035238   -0.369434
  S      0.967044    0.363902   -1.789433
  O      3.728529    0.412270   -0.828261
  C      4.862157    0.686989    0.033578
  C      5.174705   -0.458183    0.971026
  S      1.988463    1.124518    1.441627
  C      0.226452    1.469171    1.316490
  S     -0.800169   -0.027036    1.567501
  P     -2.175286    0.186946   -0.018885
  S     -2.265960    1.925752   -0.926880
  O     -3.554505   -0.293377    0.613447
  C     -4.477209    0.610764    1.243108
  C     -3.914685    1.215056    2.513776
  O     -1.794501   -1.090372   -0.875249
  C     -2.157831   -1.228601   -2.262484
  C     -3.657909   -1.276816   -2.458504
  H      2.136240   -3.785334   -1.259402
  H      2.682874   -4.085826    0.395509
  H      1.030250   -4.511525   -0.081011
  H      1.039999   -2.403218    1.246815
  H      0.504647   -2.094998   -0.423999
  H      5.672005    0.862582   -0.676105
  H      4.650402    1.602151    0.591817
  H      4.362909   -0.592546    1.682762
  H      5.309686   -1.378472    0.409156
  H      6.086427   -0.230759    1.514671
  H     -0.008240    1.889780    0.335214
  H      0.008442    2.177010    2.112197
  H     -4.731120    1.398116    0.526145
  H     -5.352809   -0.007969    1.443614
  H     -3.554730    0.433617    3.178264
  H     -3.087990    1.881763    2.270613
  H     -4.690449    1.786433    3.013266
  H     -1.711079   -0.396198   -2.816860
  H     -1.678353   -2.160982   -2.564351
  H     -4.098022   -0.317481   -2.188233
  H     -3.876301   -1.482763   -3.501643
  H     -4.091892   -2.053382   -1.833973

 Total Charge           Charge          ....    0
 Multiplicity           Mult            ....    1
 Number of Electrons    NEL             ....  202
 Basis Dimension        Dim             ....  334

ORBITAL ENERGIES
----------------

  NO   OCC          E(Eh)            E(eV)
   0   2.0000     -88.044547     -2395.8139
   1   2.0000     -88.041813     -2395.7395
   2   2.0000     -87.988025     -2394.2759
   3   2.0000     -87.977854     -2393.9991
   4   2.0000     -76.425427     -2079.6416
   5   2.0000     -76.422979     -2079.5750
   6   2.0000     -18.792336      -511.3655
   7   2.0000     -18.789316      -511.2833
   8   2.0000     -18.786398      -511.2039
   9   2.0000     -18.784505      -511.1524
  10   2.0000      -9.959844      -271.0211
  11   2.0000      -9.955237      -270.8958
  12   2.0000      -9.951340      -270.7897
  13   2.0000      -9.946757      -270.6650
  14   2.0000      -9.942005      -270.5357
  15   2.0000      -9.889981      -269.1201
  16   2.0000      -9.884039      -268.9584
  17   2.0000      -9.881795      -268.8973
  18   2.0000      -9.880244      -268.8551
  19   2.0000      -7.689711      -209.2477
  20   2.0000      -7.686665      -209.1648
  21   2.0000      -7.632877      -207.7012
  22   2.0000      -7.622745      -207.4254
  23   2.0000      -6.422768      -174.7724
  24   2.0000      -6.420397      -174.7079
  25   2.0000      -5.717656      -155.5853
  26   2.0000      -5.714521      -155.5000
  27   2.0000      -5.713948      -155.4844
  28   2.0000      -5.711357      -155.4139
  29   2.0000      -5.706900      -155.2926
  30   2.0000      -5.703448      -155.1987
  31   2.0000      -5.661740      -154.0638
  32   2.0000      -5.653688      -153.8447
  33   2.0000      -5.652928      -153.8240
  34   2.0000      -5.651786      -153.7929
  35   2.0000      -5.643355      -153.5635
  36   2.0000      -5.642768      -153.5475
  37   2.0000      -4.644964      -126.3959
  38   2.0000      -4.644448      -126.3819
  39   2.0000      -4.643685      -126.3611
  40   2.0000      -4.643081      -126.3447
  41   2.0000      -4.642219      -126.3212
  42   2.0000      -4.640711      -126.2802
  43   2.0000      -0.984425       -26.7876
  44   2.0000      -0.984147       -26.7800
  45   2.0000      -0.942197       -25.6385
  46   2.0000      -0.941344       -25.6153
  47   2.0000      -0.761720       -20.7274
  48   2.0000      -0.720731       -19.6121
  49   2.0000      -0.710200       -19.3255
  50   2.0000      -0.690279       -18.7834
  51   2.0000      -0.685023       -18.6404
  52   2.0000      -0.673995       -18.3403
  53   2.0000      -0.648834       -17.6557
  54   2.0000      -0.634125       -17.2554
  55   2.0000      -0.601551       -16.3690
  56   2.0000      -0.592217       -16.1150
  57   2.0000      -0.570347       -15.5199
  58   2.0000      -0.567167       -15.4334
  59   2.0000      -0.562081       -15.2950
  60   2.0000      -0.498739       -13.5714
  61   2.0000      -0.488378       -13.2894
  62   2.0000      -0.477940       -13.0054
  63   2.0000      -0.469217       -12.7680
  64   2.0000      -0.452390       -12.3102
  65   2.0000      -0.447716       -12.1830
  66   2.0000      -0.438406       -11.9296
  67   2.0000      -0.435483       -11.8501
  68   2.0000      -0.428066       -11.6483
  69   2.0000      -0.417932       -11.3725
  70   2.0000      -0.407300       -11.0832
  71   2.0000      -0.398849       -10.8532
  72   2.0000      -0.391829       -10.6622
  73   2.0000      -0.388927       -10.5832
  74   2.0000      -0.381242       -10.3741
  75   2.0000      -0.376731       -10.2514
  76   2.0000      -0.361588        -9.8393
  77   2.0000      -0.354593        -9.6490
  78   2.0000      -0.352316        -9.5870
  79   2.0000      -0.350804        -9.5459
  80   2.0000      -0.347672        -9.4606
  81   2.0000      -0.344706        -9.3799
  82   2.0000      -0.340259        -9.2589
  83   2.0000      -0.337518        -9.1843
  84   2.0000      -0.335093        -9.1183
  85   2.0000      -0.312903        -8.5145
  86   2.0000      -0.309828        -8.4309
  87   2.0000      -0.294442        -8.0122
  88   2.0000      -0.291335        -7.9276
  89   2.0000      -0.289834        -7.8868
  90   2.0000      -0.280664        -7.6373
  91   2.0000      -0.276498        -7.5239
  92   2.0000      -0.268862        -7.3161
  93   2.0000      -0.264178        -7.1887
  94   2.0000      -0.254296        -6.9197
  95   2.0000      -0.234736        -6.3875
  96   2.0000      -0.218718        -5.9516
  97   2.0000      -0.214068        -5.8251
  98   2.0000      -0.202482        -5.5098
  99   2.0000      -0.193751        -5.2722
 100   2.0000      -0.188134        -5.1194
 101   0.0000      -0.043914        -1.1950
 102   0.0000      -0.034577        -0.9409
 103   0.0000      -0.009672        -0.2632
 104   0.0000       0.010102         0.2749
 105   0.0000       0.017557         0.4778

MULLIKEN ATOMIC CHARGES
-----------------------
   0 C :   -0.272761
   1 C :   -0.039992
   2 O :   -0.378011
   3 P :    0.606066
   4 S :   -0.309714
   5 O :   -0.356844
   6 C :   -0.014048
   7 C :   -0.311498
   8 S :   -0.133674
   9 C :   -0.342019
  10 S :   -0.102959
  11 P :    0.619945
  12 S :   -0.314829
  13 O :   -0.371886
  14 C :   -0.002315
  15 C :   -0.310778
  16 O :   -0.361327
  17 C :   -0.001737
  18 C :   -0.304716
  19 H :    0.115076
  20 H :    0.109645
  21 H :    0.108343
  22 H :    0.102306
  23 H :    0.133102
  24 H :    0.115289
  25 H :    0.118116
  26 H :    0.126402
  27 H :    0.125687
  28 H :    0.114886
  29 H :    0.215298
  30 H :    0.181203
  31 H :    0.109400
  32 H :    0.104357
  33 H :    0.119019
  34 H :    0.118370
  35 H :    0.112008
  36 H :    0.122976
  37 H :    0.102639
  38 H :    0.122671
  39 H :    0.111795
  40 H :    0.114509
Sum of atomic charges:   -0.0000000

LOEWDIN ATOMIC CHARGES
----------------------
   0 C :   -0.351576
   1 C :   -0.127679
   2 O :   -0.246892
   3 P :    0.563766
   4 S :   -0.297431
   5 O :   -0.232618
   6 C :   -0.113341
   7 C :   -0.367251
   8 S :    0.062056
   9 C :   -0.476954
  10 S :    0.085327
  11 P :    0.576328
  12 S :   -0.303424
  13 O :   -0.245947
  14 C :   -0.119299
  15 C :   -0.369236
  16 O :   -0.235352
  17 C :   -0.115459
  18 C :   -0.366949
  19 H :    0.126571
  20 H :    0.123048
  21 H :    0.129043
  22 H :    0.105668
  23 H :    0.109386
  24 H :    0.125014
  25 H :    0.110926
  26 H :    0.120177
  27 H :    0.130707
  28 H :    0.132081
  29 H :    0.126819
  30 H :    0.134438
  31 H :    0.109671
  32 H :    0.118351
  33 H :    0.124278
  34 H :    0.118580
  35 H :    0.130086
  36 H :    0.112285
  37 H :    0.117613
  38 H :    0.121376
  39 H :    0.130539
  40 H :    0.125275

  Mayer bond orders larger than 0.100000
B(  0-C ,  1-C ) :   1.1546 B(  0-C , 19-H ) :   0.9501 B(  0-C , 20-H ) :   0.9508
B(  0-C , 21-H ) :   0.9426 B(  1-C ,  2-O ) :   0.9014 B(  1-C , 22-H ) :   0.9273
B(  1-C , 23-H ) :   0.8994 B(  2-O ,  3-P ) :   1.0864 B(  3-P ,  4-S ) :   1.6570
B(  3-P ,  5-O ) :   1.1546 B(  3-P ,  8-S ) :   0.9190 B(  4-S ,  8-S ) :   0.1066
B(  5-O ,  6-C ) :   0.9009 B(  6-C ,  7-C ) :   1.1682 B(  6-C , 24-H ) :   0.9343
B(  6-C , 25-H ) :   0.9215 B(  7-C , 26-H ) :   0.9371 B(  7-C , 27-H ) :   0.9427
B(  7-C , 28-H ) :   0.9348 B(  8-S ,  9-C ) :   1.0204 B(  9-C , 10-S ) :   0.9849
B(  9-C , 29-H ) :   0.8471 B(  9-C , 30-H ) :   0.9080 B( 10-S , 11-P ) :   0.9553
B( 10-S , 12-S ) :   0.1161 B( 11-P , 12-S ) :   1.5923 B( 11-P , 13-O ) :   1.0999
B( 11-P , 16-O ) :   1.1289 B( 13-O , 14-C ) :   0.9148 B( 14-C , 15-C ) :   1.1663
B( 14-C , 31-H ) :   0.9160 B( 14-C , 32-H ) :   0.9341 B( 15-C , 33-H ) :   0.9429
B( 15-C , 34-H ) :   0.9373 B( 15-C , 35-H ) :   0.9378 B( 16-O , 17-C ) :   0.8999
B( 17-C , 18-C ) :   1.1630 B( 17-C , 36-H ) :   0.9178 B( 17-C , 37-H ) :   0.9350
B( 18-C , 38-H ) :   0.9346 B( 18-C , 39-H ) :   0.9385 B( 18-C , 40-H ) :   0.9446

Dispersion correction           -0.066694948
FINAL SINGLE POINT ENERGY     -2929.517355986372

DIPOLE MOMENT
-------------

Method             : SCF
Type of density    : Electron Density
Multiplicity       :   1
Irrep              :   0
Energy             : -2929.6363524084094934 Eh
Relativity type    :
Basis              : AO
                                X                 Y                 Z
Electronic contribution:      3.347106404      12.212346481      -2.482387427
Nuclear contribution   :     -3.261886777     -12.970291888       3.488730901
                        -----------------------------------------
Total Dipole Moment    :      0.085219627      -0.757945406       1.006343474
                        -----------------------------------------
Magnitude (a.u.)       :      1.262723569
Magnitude (Debye)      :      3.209588241

Rotational constants in cm-1:             0.013089             0.005046             0.004621
Rotational constants in MHz :           392.390073           151.264342           138.528751

                             ****ORCA TERMINATED NORMALLY****
TOTAL RUN TIME: 0 days 0 hours 0 minutes 21 seconds 263 msec
