                         Program Version 6.0.0  -   RELEASE  -
|  1> ! pbe def2-sv(p) def2/J RI DEFGRID1 loosescf d4 GCP(DFT/SV(P)) printgap
|  2> %output
|  3>     printlevel normal
|  4> end
|  5> * xyz 0 1
|  6> C 5.9113854414 -0.242066271 -0.4280358513
|  7> C 4.492392939 -0.581171035 -0.8364399659
|  8> O 3.6034668312 0.3073621024 -0.1289202399
|  9> P 2.0874459231 0.4907408286 -0.5816797386
| 10> S 1.8511129164 0.9188875759 -2.4735904193
| 11> O 1.6160366354 1.6065602045 0.4203236207
| 12> C 1.8588223412 1.5112687661 1.8496099908
| 13> C 0.8938465693 2.4461314044 2.5466083284
| 14> S 1.247813673 -1.3608817681 0.0563891037
| 15> C 0.045490656 -1.6803990684 -1.2741212064
| 16> S -1.6161882544 -1.9783774056 -0.638254194
| 17> P -1.9529300212 -0.0524913084 0.2026264306
| 18> S -1.3295058704 1.4572629223 -0.8849752162
| 19> O -1.3243191634 -0.0314273525 1.6435093673
| 20> C -1.2896493763 -1.1278134221 2.5969885161
| 21> C -2.6543177291 -1.7172093209 2.8739322856
| 22> O -3.5127038576 -0.053761877 0.4885777923
| 23> C -4.4709812675 0.071120664 -0.5803180513
| 24> C -5.7917511224 0.4992781801 0.0265385692
| 25> H 6.5972307224 -0.9047196574 -0.9452746208
| 26> H 6.1391713801 0.786845018 -0.6921323049
| 27> H 6.0294215088 -0.3659199633 0.6443930829
| 28> H 4.2323164105 -1.6080225821 -0.5651475646
| 29> H 4.337649197 -0.4424637804 -1.9115494089
| 30> H 1.707338093 0.4720506497 2.1581275112
| 31> H 2.8979172916 1.7947146094 2.0262035123
| 32> H -0.1306678237 2.1520758708 2.3309896987
| 33> H 1.0665915801 2.4048757045 3.6171240053
| 34> H 1.0414463546 3.462738819 2.1931949753
| 35> H 0.3422570447 -2.5880430251 -1.7933444172
| 36> H 0.0453310569 -0.8199450375 -1.9495792297
| 37> H -0.6028456888 -1.8871354537 2.2117411132
| 38> H -0.8642910917 -0.662610661 3.4875547024
| 39> H -3.3493143862 -0.9356083377 3.1689099698
| 40> H -3.0394736537 -2.2167905664 1.9876277925
| 41> H -2.5658291371 -2.4424658454 3.6769908173
| 42> H -4.0997496714 0.8101362097 -1.2986724626
| 43> H -4.5544101689 -0.8992632045 -1.0768258297
| 44> H -6.5317841004 0.5918642416 -0.76149765
| 45> H -6.1251742482 -0.2394093541 0.7492429649
| 46> H -5.6789573966 1.4572743159 0.5262739091
| 47> *
| 48>
| 49>                          ****END OF INPUT****

CARTESIAN COORDINATES (ANGSTROEM)
---------------------------------
  C      5.911385   -0.242066   -0.428036
  C      4.492393   -0.581171   -0.836440
  O      3.603467    0.307362   -0.128920
  P      2.087446    0.490741   -0.581680
  S      1.851113    0.918888   -2.473590
  O      1.616037    1.606560    0.420324
  C      1.858822    1.511269    1.849610
  C      0.893847    2.446131    2.546608
  S      1.247814   -1.360882    0.056389
  C      0.045491   -1.680399   -1.274121
  S     -1.616188   -1.978377   -0.638254
  P     -1.952930   -0.052491    0.202626
  S     -1.329506    1.457263   -0.884975
  O     -1.324319   -0.031427    1.643509
  C     -1.289649   -1.127813    2.596989
  C     -2.654318   -1.717209    2.873932
  O     -3.512704   -0.053762    0.488578
  C     -4.470981    0.071121   -0.580318
  C     -5.791751    0.499278    0.026539
  H      6.597231   -0.904720   -0.945275
  H      6.139171    0.786845   -0.692132
  H      6.029422   -0.365920    0.644393
  H      4.232316   -1.608023   -0.565148
  H      4.337649   -0.442464   -1.911549
  H      1.707338    0.472051    2.158128
  H      2.897917    1.794715    2.026204
  H     -0.130668    2.152076    2.330990
  H      1.066592    2.404876    3.617124
  H      1.041446    3.462739    2.193195
  H      0.342257   -2.588043   -1.793344
  H      0.045331   -0.819945   -1.949579
  H     -0.602846   -1.887135    2.211741
  H     -0.864291   -0.662611    3.487555
  H     -3.349314   -0.935608    3.168910
  H     -3.039474   -2.216791    1.987628
  H     -2.565829   -2.442466    3.676991
  H     -4.099750    0.810136   -1.298672
  H     -4.554410   -0.899263   -1.076826
  H     -6.531784    0.591864   -0.761498
  H     -6.125174   -0.239409    0.749243
  H     -5.678957    1.457274    0.526274

 Total Charge           Charge          ....    0
 Multiplicity           Mult            ....    1
 Number of Electrons    NEL             ....  202
 Basis Dimension        Dim             ....  334

ORBITAL ENERGIES
----------------

  NO   OCC          E(Eh)            E(eV)
   0   2.0000     -88.044938     -2395.8246
   1   2.0000     -88.040919     -2395.7152
   2   2.0000     -87.978465     -2394.0157
   3   2.0000     -87.976038     -2393.9497
   4   2.0000     -76.423685     -2079.5942
   5   2.0000     -76.419679     -2079.4852
   6   2.0000     -18.794439      -511.4227
   7   2.0000     -18.792491      -511.3697
   8   2.0000     -18.787245      -511.2269
   9   2.0000     -18.784071      -511.1406
  10   2.0000      -9.958979      -270.9976
  11   2.0000      -9.953451      -270.8472
  12   2.0000      -9.952534      -270.8222
  13   2.0000      -9.950220      -270.7592
  14   2.0000      -9.948251      -270.7057
  15   2.0000      -9.890654      -269.1384
  16   2.0000      -9.888543      -269.0809
  17   2.0000      -9.886202      -269.0172
  18   2.0000      -9.877379      -268.7772
  19   2.0000      -7.689971      -209.2547
  20   2.0000      -7.685417      -209.1308
  21   2.0000      -7.623708      -207.4516
  22   2.0000      -7.620931      -207.3761
  23   2.0000      -6.421018      -174.7248
  24   2.0000      -6.417167      -174.6200
  25   2.0000      -5.717777      -155.5886
  26   2.0000      -5.714288      -155.4937
  27   2.0000      -5.713218      -155.4646
  28   2.0000      -5.709797      -155.3715
  29   2.0000      -5.707253      -155.3023
  30   2.0000      -5.702665      -155.1774
  31   2.0000      -5.652807      -153.8207
  32   2.0000      -5.649994      -153.7442
  33   2.0000      -5.644175      -153.5858
  34   2.0000      -5.643791      -153.5754
  35   2.0000      -5.641431      -153.5111
  36   2.0000      -5.641081      -153.5016
  37   2.0000      -4.643807      -126.3644
  38   2.0000      -4.643022      -126.3431
  39   2.0000      -4.641017      -126.2885
  40   2.0000      -4.639915      -126.2585
  41   2.0000      -4.638933      -126.2318
  42   2.0000      -4.637474      -126.1921
  43   2.0000      -0.988458       -26.8973
  44   2.0000      -0.982911       -26.7464
  45   2.0000      -0.947261       -25.7763
  46   2.0000      -0.937466       -25.5097
  47   2.0000      -0.761521       -20.7220
  48   2.0000      -0.720316       -19.6008
  49   2.0000      -0.711496       -19.3608
  50   2.0000      -0.694555       -18.8998
  51   2.0000      -0.686411       -18.6782
  52   2.0000      -0.674342       -18.3498
  53   2.0000      -0.644820       -17.5464
  54   2.0000      -0.629666       -17.1341
  55   2.0000      -0.594015       -16.1640
  56   2.0000      -0.581231       -15.8161
  57   2.0000      -0.570388       -15.5210
  58   2.0000      -0.565784       -15.3958
  59   2.0000      -0.563587       -15.3360
  60   2.0000      -0.509304       -13.8589
  61   2.0000      -0.501389       -13.6435
  62   2.0000      -0.478946       -13.0328
  63   2.0000      -0.477095       -12.9824
  64   2.0000      -0.453027       -12.3275
  65   2.0000      -0.448932       -12.2161
  66   2.0000      -0.437119       -11.8946
  67   2.0000      -0.434994       -11.8368
  68   2.0000      -0.432565       -11.7707
  69   2.0000      -0.418963       -11.4006
  70   2.0000      -0.408499       -11.1158
  71   2.0000      -0.401066       -10.9136
  72   2.0000      -0.394082       -10.7235
  73   2.0000      -0.378026       -10.2866
  74   2.0000      -0.373194       -10.1551
  75   2.0000      -0.365875        -9.9560
  76   2.0000      -0.361681        -9.8418
  77   2.0000      -0.361233        -9.8296
  78   2.0000      -0.354511        -9.6467
  79   2.0000      -0.349723        -9.5165
  80   2.0000      -0.349125        -9.5002
  81   2.0000      -0.345672        -9.4062
  82   2.0000      -0.337947        -9.1960
  83   2.0000      -0.335733        -9.1358
  84   2.0000      -0.330916        -9.0047
  85   2.0000      -0.315209        -8.5773
  86   2.0000      -0.310156        -8.4398
  87   2.0000      -0.298405        -8.1200
  88   2.0000      -0.297627        -8.0988
  89   2.0000      -0.294640        -8.0176
  90   2.0000      -0.291800        -7.9403
  91   2.0000      -0.277840        -7.5604
  92   2.0000      -0.265384        -7.2215
  93   2.0000      -0.260522        -7.0892
  94   2.0000      -0.253984        -6.9112
  95   2.0000      -0.238248        -6.4831
  96   2.0000      -0.221566        -6.0291
  97   2.0000      -0.210132        -5.7180
  98   2.0000      -0.197194        -5.3659
  99   2.0000      -0.188404        -5.1267
 100   2.0000      -0.180950        -4.9239
 101   0.0000      -0.041854        -1.1389
 102   0.0000      -0.031068        -0.8454
 103   0.0000      -0.004232        -0.1152
 104   0.0000       0.010558         0.2873
 105   0.0000       0.020457         0.5567

MULLIKEN ATOMIC CHARGES
-----------------------
   0 C :   -0.279988
   1 C :   -0.006633
   2 O :   -0.390947
   3 P :    0.611888
   4 S :   -0.288694
   5 O :   -0.344898
   6 C :   -0.016130
   7 C :   -0.288537
   8 S :   -0.141275
   9 C :   -0.336091
  10 S :   -0.124255
  11 P :    0.585332
  12 S :   -0.279301
  13 O :   -0.355369
  14 C :   -0.007091
  15 C :   -0.301435
  16 O :   -0.377316
  17 C :   -0.011344
  18 C :   -0.281011
  19 H :    0.110870
  20 H :    0.121322
  21 H :    0.112143
  22 H :    0.096919
  23 H :    0.102767
  24 H :    0.099350
  25 H :    0.106728
  26 H :    0.139630
  27 H :    0.099433
  28 H :    0.119668
  29 H :    0.178851
  30 H :    0.210576
  31 H :    0.114123
  32 H :    0.106050
  33 H :    0.123192
  34 H :    0.119128
  35 H :    0.113569
  36 H :    0.108019
  37 H :    0.101897
  38 H :    0.113311
  39 H :    0.113326
  40 H :    0.122224
Sum of atomic charges:   -0.0000000

LOEWDIN ATOMIC CHARGES
----------------------
   0 C :   -0.350649
   1 C :   -0.123083
   2 O :   -0.254769
   3 P :    0.569724
   4 S :   -0.292696
   5 O :   -0.225811
   6 C :   -0.111079
   7 C :   -0.355529
   8 S :    0.055197
   9 C :   -0.477882
  10 S :    0.058929
  11 P :    0.557635
  12 S :   -0.288399
  13 O :   -0.230276
  14 C :   -0.115106
  15 C :   -0.366438
  16 O :   -0.246000
  17 C :   -0.121377
  18 C :   -0.350437
  19 H :    0.130268
  20 H :    0.129222
  21 H :    0.124644
  22 H :    0.105115
  23 H :    0.107580
  24 H :    0.101438
  25 H :    0.113615
  26 H :    0.130955
  27 H :    0.124972
  28 H :    0.130168
  29 H :    0.135786
  30 H :    0.126387
  31 H :    0.103973
  32 H :    0.119556
  33 H :    0.128873
  34 H :    0.118341
  35 H :    0.131782
  36 H :    0.110077
  37 H :    0.108793
  38 H :    0.131579
  39 H :    0.125061
  40 H :    0.129860

  Mayer bond orders larger than 0.100000
B(  0-C ,  1-C ) :   1.1597 B(  0-C , 19-H ) :   0.9423 B(  0-C , 20-H ) :   0.9510
B(  0-C , 21-H ) :   0.9513 B(  1-C ,  2-O ) :   0.9094 B(  1-C , 22-H ) :   0.9253
B(  1-C , 23-H ) :   0.9089 B(  2-O ,  3-P ) :   1.0673 B(  3-P ,  4-S ) :   1.6529
B(  3-P ,  5-O ) :   1.1482 B(  3-P ,  8-S ) :   0.9344 B(  4-S ,  8-S ) :   0.1139
B(  5-O ,  6-C ) :   0.8918 B(  6-C ,  7-C ) :   1.1658 B(  6-C , 24-H ) :   0.9148
B(  6-C , 25-H ) :   0.9308 B(  7-C , 26-H ) :   0.9341 B(  7-C , 27-H ) :   0.9398
B(  7-C , 28-H ) :   0.9477 B(  8-S ,  9-C ) :   0.9959 B(  9-C , 10-S ) :   1.0016
B(  9-C , 29-H ) :   0.9107 B(  9-C , 30-H ) :   0.8441 B( 10-S , 11-P ) :   0.9299
B( 10-S , 12-S ) :   0.1076 B( 11-P , 12-S ) :   1.6720 B( 11-P , 13-O ) :   1.1270
B( 11-P , 16-O ) :   1.0875 B( 13-O , 14-C ) :   0.8941 B( 14-C , 15-C ) :   1.1733
B( 14-C , 31-H ) :   0.9118 B( 14-C , 32-H ) :   0.9327 B( 15-C , 33-H ) :   0.9422
B( 15-C , 34-H ) :   0.9379 B( 15-C , 35-H ) :   0.9350 B( 16-O , 17-C ) :   0.9023
B( 17-C , 18-C ) :   1.1603 B( 17-C , 36-H ) :   0.9061 B( 17-C , 37-H ) :   0.9298
B( 18-C , 38-H ) :   0.9418 B( 18-C , 39-H ) :   0.9515 B( 18-C , 40-H ) :   0.9507

Dispersion correction           -0.065976963
FINAL SINGLE POINT ENERGY     -2929.517483536207

DIPOLE MOMENT
-------------

Method             : SCF
Type of density    : Electron Density
Multiplicity       :   1
Irrep              :   0
Energy             : -2929.6369924794057624 Eh
Relativity type    :
Basis              : AO
                                X                 Y                 Z
Electronic contribution:      2.853220636       0.942823038     -15.646335139
Nuclear contribution   :     -3.032760785      -2.287845479      17.173419269
                        -----------------------------------------
Total Dipole Moment    :     -0.179540149      -1.345022440       1.527084130
                        -----------------------------------------
Magnitude (a.u.)       :      2.042867096
Magnitude (Debye)      :      5.192555498

Rotational constants in cm-1:             0.013577             0.004866             0.004711
Rotational constants in MHz :           407.035638           145.892201           141.229988

                             ****ORCA TERMINATED NORMALLY****
TOTAL RUN TIME: 0 days 0 hours 0 minutes 21 seconds 458 msec
