                         Program Version 6.0.0  -   RELEASE  -
|  1> ! pbe def2-sv(p) def2/J RI DEFGRID1 loosescf d4 GCP(DFT/SV(P)) printgap
|  2> %output
|  3>     printlevel normal
|  4> end
|  5> * xyz 0 1
|  6> C 5.2151028634 -2.3772152797 -1.6021121182
|  7> C 4.1787858074 -1.2745595761 -1.6827137206
|  8> O 3.2449472036 -1.4644821352 -0.600207555
|  9> P 2.3016438442 -0.2931452757 -0.0958270428
| 10> S 3.1949948882 1.423970067 0.2397167757
| 11> O 1.5841962242 -0.9712816305 1.1422454276
| 12> C 2.0621850422 -0.7884252537 2.4915552144
| 13> C 3.3778448179 -1.5029675956 2.7135574711
| 14> S 0.7444513756 -0.2743911515 -1.521256203
| 15> C 0.0532951053 1.3354165597 -1.0471824733
| 16> S -0.6529350961 1.3405421003 0.619699594
| 17> P -2.5563791722 0.4645900027 0.1790762052
| 18> S -3.1105955317 0.6500552255 -1.6967006804
| 19> O -3.511512413 1.1266666794 1.2486401387
| 20> C -4.1468293875 2.3984479604 1.0043685422
| 21> C -5.5959766217 2.1913010445 0.6091258435
| 22> O -2.5720598539 -0.9647644379 0.8517998903
| 23> C -1.7142847066 -2.0747145003 0.5369801273
| 24> C -1.9925102332 -2.6559384282 -0.8351820352
| 25> H 5.7615666725 -2.3120070971 -0.6655593344
| 26> H 4.7283160363 -3.346289636 -1.6594242337
| 27> H 5.9096555932 -2.2735284763 -2.4292058439
| 28> H 3.6232151108 -1.316500581 -2.6233451854
| 29> H 4.6357592569 -0.2843756617 -1.5803134117
| 30> H 2.1631473113 0.2853036822 2.6803181778
| 31> H 1.2640326595 -1.1978400119 3.112016299
| 32> H 3.285552921 -2.551736608 2.444396087
| 33> H 4.1512672587 -1.047081734 2.0964682677
| 34> H 3.6633080371 -1.4183811866 3.7573925304
| 35> H -0.7268285098 1.5646580067 -1.7748209035
| 36> H 0.8456688272 2.0827704478 -1.0543605678
| 37> H -4.0627307874 2.9441220574 1.9458391418
| 38> H -3.6048605948 2.9364784917 0.2205806806
| 39> H -6.1069748025 1.6044925195 1.3669121142
| 40> H -6.0827414265 3.1559700233 0.5085646629
| 41> H -5.6511815629 1.6637422858 -0.3407343206
| 42> H -0.6696080982 -1.7602618757 0.6236622747
| 43> H -1.9397919679 -2.7975567765 1.3237494338
| 44> H -1.7233606559 -1.9462703615 -1.6154511764
| 45> H -1.4020332101 -3.5571041304 -0.9658073541
| 46> H -3.0477870345 -2.8979178121 -0.9325662259
| 47> *
| 48>
| 49>                          ****END OF INPUT****

CARTESIAN COORDINATES (ANGSTROEM)
---------------------------------
  C      5.215103   -2.377215   -1.602112
  C      4.178786   -1.274560   -1.682714
  O      3.244947   -1.464482   -0.600208
  P      2.301644   -0.293145   -0.095827
  S      3.194995    1.423970    0.239717
  O      1.584196   -0.971282    1.142245
  C      2.062185   -0.788425    2.491555
  C      3.377845   -1.502968    2.713557
  S      0.744451   -0.274391   -1.521256
  C      0.053295    1.335417   -1.047182
  S     -0.652935    1.340542    0.619700
  P     -2.556379    0.464590    0.179076
  S     -3.110596    0.650055   -1.696701
  O     -3.511512    1.126667    1.248640
  C     -4.146829    2.398448    1.004369
  C     -5.595977    2.191301    0.609126
  O     -2.572060   -0.964764    0.851800
  C     -1.714285   -2.074715    0.536980
  C     -1.992510   -2.655938   -0.835182
  H      5.761567   -2.312007   -0.665559
  H      4.728316   -3.346290   -1.659424
  H      5.909656   -2.273528   -2.429206
  H      3.623215   -1.316501   -2.623345
  H      4.635759   -0.284376   -1.580313
  H      2.163147    0.285304    2.680318
  H      1.264033   -1.197840    3.112016
  H      3.285553   -2.551737    2.444396
  H      4.151267   -1.047082    2.096468
  H      3.663308   -1.418381    3.757393
  H     -0.726829    1.564658   -1.774821
  H      0.845669    2.082770   -1.054361
  H     -4.062731    2.944122    1.945839
  H     -3.604861    2.936478    0.220581
  H     -6.106975    1.604493    1.366912
  H     -6.082741    3.155970    0.508565
  H     -5.651182    1.663742   -0.340734
  H     -0.669608   -1.760262    0.623662
  H     -1.939792   -2.797557    1.323749
  H     -1.723361   -1.946270   -1.615451
  H     -1.402033   -3.557104   -0.965807
  H     -3.047787   -2.897918   -0.932566

 Total Charge           Charge          ....    0
 Multiplicity           Mult            ....    1
 Number of Electrons    NEL             ....  202
 Basis Dimension        Dim             ....  334

ORBITAL ENERGIES
----------------

  NO   OCC          E(Eh)            E(eV)
   0   2.0000     -88.046015     -2395.8539
   1   2.0000     -88.041224     -2395.7235
   2   2.0000     -87.993922     -2394.4363
   3   2.0000     -87.989910     -2394.3272
   4   2.0000     -76.431489     -2079.8066
   5   2.0000     -76.426928     -2079.6824
   6   2.0000     -18.800227      -511.5802
   7   2.0000     -18.797756      -511.5129
   8   2.0000     -18.789235      -511.2811
   9   2.0000     -18.787973      -511.2467
  10   2.0000      -9.958317      -270.9796
  11   2.0000      -9.955157      -270.8936
  12   2.0000      -9.952375      -270.8179
  13   2.0000      -9.951745      -270.8008
  14   2.0000      -9.947052      -270.6730
  15   2.0000      -9.893118      -269.2054
  16   2.0000      -9.887732      -269.0589
  17   2.0000      -9.879641      -268.8387
  18   2.0000      -9.874505      -268.6989
  19   2.0000      -7.691070      -209.2847
  20   2.0000      -7.686040      -209.1478
  21   2.0000      -7.638811      -207.8626
  22   2.0000      -7.634805      -207.7536
  23   2.0000      -6.429265      -174.9492
  24   2.0000      -6.424112      -174.8090
  25   2.0000      -5.718848      -155.6178
  26   2.0000      -5.715641      -155.5305
  27   2.0000      -5.713868      -155.4823
  28   2.0000      -5.710482      -155.3901
  29   2.0000      -5.708072      -155.3245
  30   2.0000      -5.703225      -155.1926
  31   2.0000      -5.667596      -154.2231
  32   2.0000      -5.663569      -154.1135
  33   2.0000      -5.659439      -154.0012
  34   2.0000      -5.659138      -153.9930
  35   2.0000      -5.655370      -153.8904
  36   2.0000      -5.655179      -153.8852
  37   2.0000      -4.651647      -126.5777
  38   2.0000      -4.651068      -126.5620
  39   2.0000      -4.649794      -126.5273
  40   2.0000      -4.646396      -126.4349
  41   2.0000      -4.646177      -126.4289
  42   2.0000      -4.644584      -126.3856
  43   2.0000      -0.993993       -27.0479
  44   2.0000      -0.987589       -26.8737
  45   2.0000      -0.953006       -25.9326
  46   2.0000      -0.942094       -25.6357
  47   2.0000      -0.764689       -20.8083
  48   2.0000      -0.724250       -19.7078
  49   2.0000      -0.711494       -19.3607
  50   2.0000      -0.693336       -18.8666
  51   2.0000      -0.679260       -18.4836
  52   2.0000      -0.675761       -18.3884
  53   2.0000      -0.652875       -17.7656
  54   2.0000      -0.641140       -17.4463
  55   2.0000      -0.603459       -16.4209
  56   2.0000      -0.594220       -16.1696
  57   2.0000      -0.571329       -15.5467
  58   2.0000      -0.565674       -15.3928
  59   2.0000      -0.561705       -15.2848
  60   2.0000      -0.510263       -13.8850
  61   2.0000      -0.498334       -13.5604
  62   2.0000      -0.482434       -13.1277
  63   2.0000      -0.468628       -12.7520
  64   2.0000      -0.460075       -12.5193
  65   2.0000      -0.445425       -12.1206
  66   2.0000      -0.440234       -11.9794
  67   2.0000      -0.436096       -11.8668
  68   2.0000      -0.424131       -11.5412
  69   2.0000      -0.415577       -11.3084
  70   2.0000      -0.407826       -11.0975
  71   2.0000      -0.403754       -10.9867
  72   2.0000      -0.396174       -10.7804
  73   2.0000      -0.385812       -10.4985
  74   2.0000      -0.380625       -10.3573
  75   2.0000      -0.377667       -10.2768
  76   2.0000      -0.368312       -10.0223
  77   2.0000      -0.362027        -9.8512
  78   2.0000      -0.356682        -9.7058
  79   2.0000      -0.352325        -9.5873
  80   2.0000      -0.349152        -9.5009
  81   2.0000      -0.346756        -9.4357
  82   2.0000      -0.339311        -9.2331
  83   2.0000      -0.332899        -9.0586
  84   2.0000      -0.332242        -9.0408
  85   2.0000      -0.322274        -8.7695
  86   2.0000      -0.313476        -8.5301
  87   2.0000      -0.305684        -8.3181
  88   2.0000      -0.294988        -8.0270
  89   2.0000      -0.292293        -7.9537
  90   2.0000      -0.287648        -7.8273
  91   2.0000      -0.280019        -7.6197
  92   2.0000      -0.267840        -7.2883
  93   2.0000      -0.267326        -7.2743
  94   2.0000      -0.257204        -6.9989
  95   2.0000      -0.239275        -6.5110
  96   2.0000      -0.220666        -6.0046
  97   2.0000      -0.216863        -5.9012
  98   2.0000      -0.207977        -5.6593
  99   2.0000      -0.205681        -5.5969
 100   2.0000      -0.202082        -5.4989
 101   0.0000      -0.047606        -1.2954
 102   0.0000      -0.027985        -0.7615
 103   0.0000      -0.002975        -0.0810
 104   0.0000      -0.001568        -0.0427
 105   0.0000       0.012711         0.3459

MULLIKEN ATOMIC CHARGES
-----------------------
   0 C :   -0.282029
   1 C :   -0.013773
   2 O :   -0.374860
   3 P :    0.616259
   4 S :   -0.331368
   5 O :   -0.355691
   6 C :   -0.002312
   7 C :   -0.307578
   8 S :   -0.090019
   9 C :   -0.365162
  10 S :   -0.093901
  11 P :    0.602900
  12 S :   -0.331445
  13 O :   -0.359613
  14 C :   -0.003917
  15 C :   -0.286812
  16 O :   -0.352899
  17 C :   -0.035137
  18 C :   -0.308083
  19 H :    0.120179
  20 H :    0.118168
  21 H :    0.114628
  22 H :    0.106030
  23 H :    0.108311
  24 H :    0.116227
  25 H :    0.107104
  26 H :    0.116395
  27 H :    0.123344
  28 H :    0.114429
  29 H :    0.194213
  30 H :    0.194232
  31 H :    0.106841
  32 H :    0.099915
  33 H :    0.114790
  34 H :    0.107343
  35 H :    0.124179
  36 H :    0.136154
  37 H :    0.101229
  38 H :    0.132556
  39 H :    0.104450
  40 H :    0.114722
Sum of atomic charges:   -0.0000000

LOEWDIN ATOMIC CHARGES
----------------------
   0 C :   -0.350055
   1 C :   -0.119733
   2 O :   -0.246132
   3 P :    0.569832
   4 S :   -0.319440
   5 O :   -0.233551
   6 C :   -0.116496
   7 C :   -0.364556
   8 S :    0.091635
   9 C :   -0.487479
  10 S :    0.071787
  11 P :    0.569521
  12 S :   -0.308982
  13 O :   -0.236984
  14 C :   -0.116467
  15 C :   -0.359184
  16 O :   -0.229957
  17 C :   -0.121978
  18 C :   -0.368340
  19 H :    0.128214
  20 H :    0.127758
  21 H :    0.132229
  22 H :    0.111854
  23 H :    0.109443
  24 H :    0.112390
  25 H :    0.119448
  26 H :    0.126246
  27 H :    0.122053
  28 H :    0.131602
  29 H :    0.126321
  30 H :    0.130322
  31 H :    0.118238
  32 H :    0.106985
  33 H :    0.126339
  34 H :    0.128508
  35 H :    0.125798
  36 H :    0.106409
  37 H :    0.117968
  38 H :    0.114941
  39 H :    0.127888
  40 H :    0.125606

  Mayer bond orders larger than 0.100000
B(  0-C ,  1-C ) :   1.1615 B(  0-C , 19-H ) :   0.9514 B(  0-C , 20-H ) :   0.9503
B(  0-C , 21-H ) :   0.9414 B(  1-C ,  2-O ) :   0.9006 B(  1-C , 22-H ) :   0.9293
B(  1-C , 23-H ) :   0.9101 B(  2-O ,  3-P ) :   1.1129 B(  3-P ,  4-S ) :   1.6044
B(  3-P ,  5-O ) :   1.1198 B(  3-P ,  8-S ) :   0.9668 B(  4-S ,  8-S ) :   0.1080
B(  5-O ,  6-C ) :   0.8963 B(  6-C ,  7-C ) :   1.1643 B(  6-C , 24-H ) :   0.9161
B(  6-C , 25-H ) :   0.9338 B(  7-C , 26-H ) :   0.9460 B(  7-C , 27-H ) :   0.9352
B(  7-C , 28-H ) :   0.9390 B(  8-S ,  9-C ) :   0.9955 B(  9-C , 10-S ) :   1.0143
B(  9-C , 29-H ) :   0.8629 B(  9-C , 30-H ) :   0.8775 B( 10-S , 11-P ) :   0.9339
B( 10-S , 12-S ) :   0.1214 B( 11-P , 12-S ) :   1.5934 B( 11-P , 13-O ) :   1.1328
B( 11-P , 16-O ) :   1.1430 B( 13-O , 14-C ) :   0.9026 B( 14-C , 15-C ) :   1.1659
B( 14-C , 31-H ) :   0.9352 B( 14-C , 32-H ) :   0.9105 B( 15-C , 33-H ) :   0.9478
B( 15-C , 34-H ) :   0.9405 B( 15-C , 35-H ) :   0.9389 B( 16-O , 17-C ) :   0.9088
B( 17-C , 18-C ) :   1.1649 B( 17-C , 36-H ) :   0.8992 B( 17-C , 37-H ) :   0.9347
B( 18-C , 38-H ) :   0.9299 B( 18-C , 39-H ) :   0.9383 B( 18-C , 40-H ) :   0.9449

Dispersion correction           -0.064133665
FINAL SINGLE POINT ENERGY     -2929.528404769609

DIPOLE MOMENT
-------------

Method             : SCF
Type of density    : Electron Density
Multiplicity       :   1
Irrep              :   0
Energy             : -2929.6481581925468163 Eh
Relativity type    :
Basis              : AO
                                X                 Y                 Z
Electronic contribution:     -4.259030362      11.279964440      -3.705889069
Nuclear contribution   :      4.907546516     -11.976121663       4.196923604
                        -----------------------------------------
Total Dipole Moment    :      0.648516154      -0.696157224       0.491034535
                        -----------------------------------------
Magnitude (a.u.)       :      1.070664745
Magnitude (Debye)      :      2.721413508

Rotational constants in cm-1:             0.014544             0.004233             0.004133
Rotational constants in MHz :           436.024932           126.915774           123.904881

                             ****ORCA TERMINATED NORMALLY****
TOTAL RUN TIME: 0 days 0 hours 0 minutes 20 seconds 725 msec
