                         Program Version 6.0.0  -   RELEASE  -
|  1> ! pbe def2-sv(p) def2/J RI DEFGRID1 loosescf d4 GCP(DFT/SV(P)) printgap
|  2> %output
|  3>     printlevel normal
|  4> end
|  5> * xyz 0 1
|  6> C 3.5917946229 -0.6390959357 -3.0221768256
|  7> C 2.1721450066 -0.9649827921 -2.6067663622
|  8> O 2.1015416396 -1.4045286816 -1.234722489
|  9> P 2.2538178772 -0.410665461 -0.0147199283
| 10> S 1.4526875557 1.3691605528 -0.2626289976
| 11> O 3.8279654673 -0.3958085896 0.2094447711
| 12> C 4.4890238372 0.587874957 1.0224355522
| 13> C 4.1158288409 0.4667724002 2.4858813062
| 14> S 1.5405715742 -1.6674545061 1.5233681177
| 15> C -0.1746120468 -1.1042667689 1.5900875571
| 16> S -1.0287442737 -1.2939456949 -0.0128275707
| 17> P -2.3811623869 0.314910121 0.1936823759
| 18> S -1.8569581648 1.7984530393 1.3729509301
| 19> O -3.6689197309 -0.4741534192 0.6630865454
| 20> C -4.767074381 0.1726194774 1.3385422416
| 21> C -5.5410444594 1.0765767576 0.402879467
| 22> O -2.7722471368 0.7127698623 -1.2921651147
| 23> C -1.8505516752 1.3318521693 -2.2107944093
| 24> C -1.4558887864 0.3362046392 -3.2844281932
| 25> H 3.9464220569 0.2374718215 -2.48256351
| 26> H 4.248178165 -1.4762596965 -2.8009511102
| 27> H 3.6145515494 -0.4320249529 -4.0875403052
| 28> H 1.7672219946 -1.8058290469 -3.1714565964
| 29> H 1.5258982213 -0.0889844034 -2.7233551225
| 30> H 5.5496128663 0.3916856209 0.8595619179
| 31> H 4.2305524721 1.5816547564 0.6420338108
| 32> H 4.2661445775 -0.5530058303 2.8311760844
| 33> H 4.7307671901 1.1426552707 3.0715473029
| 34> H 3.0687158014 0.7335262726 2.6268999241
| 35> H -0.2088586837 -0.0461391725 1.8662487935
| 36> H -0.6639116553 -1.7220732886 2.3391950538
| 37> H -5.3755613696 -0.6567004172 1.7009279172
| 38> H -4.3667442842 0.742606226 2.1831793134
| 39> H -6.4070690797 1.4768408242 0.9205692106
| 40> H -4.9061739448 1.9015234716 0.0817660113
| 41> H -5.8643749889 0.5218151424 -0.4736890993
| 42> H -2.3876634863 2.1818450605 -2.6362306025
| 43> H -0.9772439061 1.701116136 -1.6629744423
| 44> H -0.7866579901 0.8177507969 -3.9902842294
| 45> H -0.9549044204 -0.5198236512 -2.8365684314
| 46> H -2.3418938444 -0.013230798 -3.8063353084
| 47> *
| 48>
| 49>                          ****END OF INPUT****

CARTESIAN COORDINATES (ANGSTROEM)
---------------------------------
  C      3.591795   -0.639096   -3.022177
  C      2.172145   -0.964983   -2.606766
  O      2.101542   -1.404529   -1.234722
  P      2.253818   -0.410665   -0.014720
  S      1.452688    1.369161   -0.262629
  O      3.827965   -0.395809    0.209445
  C      4.489024    0.587875    1.022436
  C      4.115829    0.466772    2.485881
  S      1.540572   -1.667455    1.523368
  C     -0.174612   -1.104267    1.590088
  S     -1.028744   -1.293946   -0.012828
  P     -2.381162    0.314910    0.193682
  S     -1.856958    1.798453    1.372951
  O     -3.668920   -0.474153    0.663087
  C     -4.767074    0.172619    1.338542
  C     -5.541044    1.076577    0.402879
  O     -2.772247    0.712770   -1.292165
  C     -1.850552    1.331852   -2.210794
  C     -1.455889    0.336205   -3.284428
  H      3.946422    0.237472   -2.482564
  H      4.248178   -1.476260   -2.800951
  H      3.614552   -0.432025   -4.087540
  H      1.767222   -1.805829   -3.171457
  H      1.525898   -0.088984   -2.723355
  H      5.549613    0.391686    0.859562
  H      4.230552    1.581655    0.642034
  H      4.266145   -0.553006    2.831176
  H      4.730767    1.142655    3.071547
  H      3.068716    0.733526    2.626900
  H     -0.208859   -0.046139    1.866249
  H     -0.663912   -1.722073    2.339195
  H     -5.375561   -0.656700    1.700928
  H     -4.366744    0.742606    2.183179
  H     -6.407069    1.476841    0.920569
  H     -4.906174    1.901523    0.081766
  H     -5.864375    0.521815   -0.473689
  H     -2.387663    2.181845   -2.636231
  H     -0.977244    1.701116   -1.662974
  H     -0.786658    0.817751   -3.990284
  H     -0.954904   -0.519824   -2.836568
  H     -2.341894   -0.013231   -3.806335

 Total Charge           Charge          ....    0
 Multiplicity           Mult            ....    1
 Number of Electrons    NEL             ....  202
 Basis Dimension        Dim             ....  334

ORBITAL ENERGIES
----------------

  NO   OCC          E(Eh)            E(eV)
   0   2.0000     -88.045423     -2395.8378
   1   2.0000     -88.039304     -2395.6713
   2   2.0000     -87.987024     -2394.2486
   3   2.0000     -87.982529     -2394.1263
   4   2.0000     -76.426774     -2079.6783
   5   2.0000     -76.422085     -2079.5507
   6   2.0000     -18.794094      -511.4133
   7   2.0000     -18.790871      -511.3256
   8   2.0000     -18.789380      -511.2850
   9   2.0000     -18.785051      -511.1672
  10   2.0000      -9.953122      -270.8382
  11   2.0000      -9.952354      -270.8173
  12   2.0000      -9.952070      -270.8096
  13   2.0000      -9.948598      -270.7151
  14   2.0000      -9.947455      -270.6840
  15   2.0000      -9.885244      -268.9912
  16   2.0000      -9.884766      -268.9782
  17   2.0000      -9.884006      -268.9575
  18   2.0000      -9.880264      -268.8557
  19   2.0000      -7.690811      -209.2776
  20   2.0000      -7.684188      -209.0974
  21   2.0000      -7.631579      -207.6658
  22   2.0000      -7.627478      -207.5542
  23   2.0000      -6.424262      -174.8131
  24   2.0000      -6.419861      -174.6933
  25   2.0000      -5.718810      -155.6167
  26   2.0000      -5.715302      -155.5213
  27   2.0000      -5.712042      -155.4326
  28   2.0000      -5.708902      -155.3471
  29   2.0000      -5.707621      -155.3123
  30   2.0000      -5.700999      -155.1321
  31   2.0000      -5.660335      -154.0256
  32   2.0000      -5.656239      -153.9141
  33   2.0000      -5.652391      -153.8094
  34   2.0000      -5.651767      -153.7924
  35   2.0000      -5.648207      -153.6955
  36   2.0000      -5.647688      -153.6814
  37   2.0000      -4.646665      -126.4422
  38   2.0000      -4.646041      -126.4252
  39   2.0000      -4.644859      -126.3930
  40   2.0000      -4.642315      -126.3238
  41   2.0000      -4.641543      -126.3028
  42   2.0000      -4.640466      -126.2735
  43   2.0000      -0.987390       -26.8682
  44   2.0000      -0.983513       -26.7628
  45   2.0000      -0.946448       -25.7542
  46   2.0000      -0.942320       -25.6418
  47   2.0000      -0.762521       -20.7493
  48   2.0000      -0.720638       -19.6096
  49   2.0000      -0.707302       -19.2467
  50   2.0000      -0.688219       -18.7274
  51   2.0000      -0.685659       -18.6577
  52   2.0000      -0.672934       -18.3115
  53   2.0000      -0.650687       -17.7061
  54   2.0000      -0.633082       -17.2270
  55   2.0000      -0.603225       -16.4146
  56   2.0000      -0.594198       -16.1690
  57   2.0000      -0.573591       -15.6082
  58   2.0000      -0.565853       -15.3977
  59   2.0000      -0.558667       -15.2021
  60   2.0000      -0.498415       -13.5626
  61   2.0000      -0.491590       -13.3768
  62   2.0000      -0.474773       -12.9192
  63   2.0000      -0.471739       -12.8367
  64   2.0000      -0.451498       -12.2859
  65   2.0000      -0.449403       -12.2289
  66   2.0000      -0.439277       -11.9533
  67   2.0000      -0.432611       -11.7720
  68   2.0000      -0.428246       -11.6532
  69   2.0000      -0.410099       -11.1594
  70   2.0000      -0.406808       -11.0698
  71   2.0000      -0.398562       -10.8454
  72   2.0000      -0.392013       -10.6672
  73   2.0000      -0.385950       -10.5022
  74   2.0000      -0.385283       -10.4841
  75   2.0000      -0.376078       -10.2336
  76   2.0000      -0.370374       -10.0784
  77   2.0000      -0.357604        -9.7309
  78   2.0000      -0.354833        -9.6555
  79   2.0000      -0.350425        -9.5355
  80   2.0000      -0.347682        -9.4609
  81   2.0000      -0.343927        -9.3587
  82   2.0000      -0.340131        -9.2554
  83   2.0000      -0.337956        -9.1963
  84   2.0000      -0.332547        -9.0491
  85   2.0000      -0.314372        -8.5545
  86   2.0000      -0.307440        -8.3659
  87   2.0000      -0.296451        -8.0668
  88   2.0000      -0.292812        -7.9678
  89   2.0000      -0.283507        -7.7146
  90   2.0000      -0.282928        -7.6989
  91   2.0000      -0.275780        -7.5043
  92   2.0000      -0.270240        -7.3536
  93   2.0000      -0.265091        -7.2135
  94   2.0000      -0.259865        -7.0713
  95   2.0000      -0.234505        -6.3812
  96   2.0000      -0.223708        -6.0874
  97   2.0000      -0.212013        -5.7692
  98   2.0000      -0.198553        -5.4029
  99   2.0000      -0.197412        -5.3718
 100   2.0000      -0.191060        -5.1990
 101   0.0000      -0.044295        -1.2053
 102   0.0000      -0.030596        -0.8325
 103   0.0000      -0.010032        -0.2730
 104   0.0000       0.011142         0.3032
 105   0.0000       0.020561         0.5595

MULLIKEN ATOMIC CHARGES
-----------------------
   0 C :   -0.292942
   1 C :   -0.027669
   2 O :   -0.360974
   3 P :    0.612247
   4 S :   -0.321399
   5 O :   -0.372096
   6 C :   -0.004003
   7 C :   -0.318333
   8 S :   -0.084501
   9 C :   -0.351976
  10 S :   -0.097178
  11 P :    0.614366
  12 S :   -0.320501
  13 O :   -0.365797
  14 C :   -0.005158
  15 C :   -0.304440
  16 O :   -0.373878
  17 C :   -0.027172
  18 C :   -0.305180
  19 H :    0.120381
  20 H :    0.117914
  21 H :    0.109827
  22 H :    0.108275
  23 H :    0.117107
  24 H :    0.105357
  25 H :    0.111396
  26 H :    0.119074
  27 H :    0.114165
  28 H :    0.131542
  29 H :    0.207315
  30 H :    0.181821
  31 H :    0.103408
  32 H :    0.109250
  33 H :    0.110031
  34 H :    0.123476
  35 H :    0.115802
  36 H :    0.105538
  37 H :    0.132882
  38 H :    0.111906
  39 H :    0.135630
  40 H :    0.114489
Sum of atomic charges:   -0.0000000

LOEWDIN ATOMIC CHARGES
----------------------
   0 C :   -0.361448
   1 C :   -0.119038
   2 O :   -0.238822
   3 P :    0.567079
   4 S :   -0.308093
   5 O :   -0.244375
   6 C :   -0.119322
   7 C :   -0.369601
   8 S :    0.098185
   9 C :   -0.479112
  10 S :    0.078712
  11 P :    0.570122
  12 S :   -0.307551
  13 O :   -0.244856
  14 C :   -0.118481
  15 C :   -0.363968
  16 O :   -0.243338
  17 C :   -0.118984
  18 C :   -0.360340
  19 H :    0.123589
  20 H :    0.127509
  21 H :    0.129363
  22 H :    0.119434
  23 H :    0.108591
  24 H :    0.118812
  25 H :    0.110707
  26 H :    0.124239
  27 H :    0.131620
  28 H :    0.123009
  29 H :    0.122047
  30 H :    0.135505
  31 H :    0.117857
  32 H :    0.108836
  33 H :    0.129363
  34 H :    0.123798
  35 H :    0.126038
  36 H :    0.118755
  37 H :    0.108674
  38 H :    0.128506
  39 H :    0.121238
  40 H :    0.125741

  Mayer bond orders larger than 0.100000
B(  0-C ,  1-C ) :   1.1613 B(  0-C , 19-H ) :   0.9400 B(  0-C , 20-H ) :   0.9458
B(  0-C , 21-H ) :   0.9396 B(  1-C ,  2-O ) :   0.9083 B(  1-C , 22-H ) :   0.9346
B(  1-C , 23-H ) :   0.9047 B(  2-O ,  3-P ) :   1.1298 B(  3-P ,  4-S ) :   1.6010
B(  3-P ,  5-O ) :   1.1042 B(  3-P ,  8-S ) :   0.9547 B(  4-S ,  8-S ) :   0.1150
B(  5-O ,  6-C ) :   0.9075 B(  6-C ,  7-C ) :   1.1669 B(  6-C , 24-H ) :   0.9337
B(  6-C , 25-H ) :   0.9161 B(  7-C , 26-H ) :   0.9439 B(  7-C , 27-H ) :   0.9375
B(  7-C , 28-H ) :   0.9354 B(  8-S ,  9-C ) :   1.0078 B(  9-C , 10-S ) :   0.9875
B(  9-C , 29-H ) :   0.8514 B(  9-C , 30-H ) :   0.9092 B( 10-S , 11-P ) :   0.9533
B( 10-S , 12-S ) :   0.1206 B( 11-P , 12-S ) :   1.6131 B( 11-P , 13-O ) :   1.1302
B( 11-P , 16-O ) :   1.1155 B( 13-O , 14-C ) :   0.9101 B( 14-C , 15-C ) :   1.1642
B( 14-C , 31-H ) :   0.9346 B( 14-C , 32-H ) :   0.9135 B( 15-C , 33-H ) :   0.9389
B( 15-C , 34-H ) :   0.9368 B( 15-C , 35-H ) :   0.9467 B( 16-O , 17-C ) :   0.8954
B( 17-C , 18-C ) :   1.1692 B( 17-C , 36-H ) :   0.9331 B( 17-C , 37-H ) :   0.8995
B( 18-C , 38-H ) :   0.9371 B( 18-C , 39-H ) :   0.9324 B( 18-C , 40-H ) :   0.9446

Dispersion correction           -0.065701865
FINAL SINGLE POINT ENERGY     -2929.521589479019

DIPOLE MOMENT
-------------

Method             : SCF
Type of density    : Electron Density
Multiplicity       :   1
Irrep              :   0
Energy             : -2929.6399932066951806 Eh
Relativity type    :
Basis              : AO
                                X                 Y                 Z
Electronic contribution:     -1.445318999      -6.037551377      10.509251662
Nuclear contribution   :      1.704557840       5.794712137     -11.095071176
                        -----------------------------------------
Total Dipole Moment    :      0.259238841      -0.242839240      -0.585819514
                        -----------------------------------------
Magnitude (a.u.)       :      0.685098662
Magnitude (Debye)      :      1.741382408

Rotational constants in cm-1:             0.013247             0.004940             0.004378
Rotational constants in MHz :           397.124302           148.108767           131.239799

                             ****ORCA TERMINATED NORMALLY****
TOTAL RUN TIME: 0 days 0 hours 0 minutes 21 seconds 49 msec
