                         Program Version 6.0.1  -  RELEASE   -
|  1> ! pbe def2-sv(p) def2/J RI DEFGRID1 loosescf d4 GCP(DFT/SV(P)) printgap
|  2> %output
|  3>     printlevel normal
|  4> end
|  5> * xyz 0 1
|  6> C 3.7394775652 -3.3534892387 -0.3262936399
|  7> C 3.1381741332 -2.1081802499 0.3044140738
|  8> O 2.7814053369 -1.1311227203 -0.6921298207
|  9> C 1.6495882833 -1.2964179916 -1.3562588291
| 10> O 0.8858810034 -2.219752865 -1.1894247995
| 11> C 1.3992788634 -0.1383781518 -2.303178184
| 12> C 0.448727144 0.8525318254 -1.6075939935
| 13> H 0.4028621557 1.7911785958 -2.1601929785
| 14> C 0.9709250353 1.073492382 -0.2056944222
| 15> O 0.5718671979 0.417938349 0.7414665827
| 16> O 1.9103875901 1.9693919701 -0.1666503777
| 17> C 2.522395739 2.285999566 1.103933751
| 18> C 1.7787607532 3.4286480181 1.7745868977
| 19> S -1.2476123334 0.1801597883 -1.5205951407
| 20> P -1.8121011765 0.0669342479 0.5337959922
| 21> S -1.7919164119 1.6646085134 1.6745161202
| 22> O -3.3418875644 -0.3534979737 0.2291197196
| 23> C -4.3064085921 0.5833199303 -0.2524108501
| 24> O -1.3450210326 -1.2741071002 1.2325020541
| 25> C -1.6384605665 -2.5932375324 0.7322048093
| 26> H 3.0004821091 -3.8550017193 -0.9466433953
| 27> H 4.5958653482 -3.084744221 -0.9385639185
| 28> H 4.058132443 -4.0308940695 0.4589552714
| 29> H 3.8621659093 -1.5934596581 0.9365361066
| 30> H 2.2417090495 -2.3531044745 0.8830900359
| 31> H 0.9289234214 -0.503676287 -3.2152557358
| 32> H 2.3425179342 0.3622208187 -2.5188993992
| 33> H 2.5112997814 1.3910613244 1.7312021395
| 34> H 3.5439629748 2.5666974671 0.8479293174
| 35> H 1.7609529881 4.2982230729 1.1241808735
| 36> H 0.7533403697 3.1352269184 1.9963086579
| 37> H 2.2772866359 3.6844194683 2.7034380124
| 38> H -4.1652607726 0.7447377036 -1.3207267629
| 39> H -4.2093925152 1.5290732214 0.2845382605
| 40> H -5.2769648155 0.1345251247 -0.0558062438
| 41> H -0.9618972611 -2.8278118196 -0.0898567737
| 42> H -2.6736063726 -2.6537652184 0.4035125594
| 43> H -1.4618622168 -3.2563530159 1.5753982074
| 44> *
| 45>
| 46>                          ****END OF INPUT****

CARTESIAN COORDINATES (ANGSTROEM)
---------------------------------
  C      3.739478   -3.353489   -0.326294
  C      3.138174   -2.108180    0.304414
  O      2.781405   -1.131123   -0.692130
  C      1.649588   -1.296418   -1.356259
  O      0.885881   -2.219753   -1.189425
  C      1.399279   -0.138378   -2.303178
  C      0.448727    0.852532   -1.607594
  H      0.402862    1.791179   -2.160193
  C      0.970925    1.073492   -0.205694
  O      0.571867    0.417938    0.741467
  O      1.910388    1.969392   -0.166650
  C      2.522396    2.286000    1.103934
  C      1.778761    3.428648    1.774587
  S     -1.247612    0.180160   -1.520595
  P     -1.812101    0.066934    0.533796
  S     -1.791916    1.664609    1.674516
  O     -3.341888   -0.353498    0.229120
  C     -4.306409    0.583320   -0.252411
  O     -1.345021   -1.274107    1.232502
  C     -1.638461   -2.593238    0.732205
  H      3.000482   -3.855002   -0.946643
  H      4.595865   -3.084744   -0.938564
  H      4.058132   -4.030894    0.458955
  H      3.862166   -1.593460    0.936536
  H      2.241709   -2.353104    0.883090
  H      0.928923   -0.503676   -3.215256
  H      2.342518    0.362221   -2.518899
  H      2.511300    1.391061    1.731202
  H      3.543963    2.566697    0.847929
  H      1.760953    4.298223    1.124181
  H      0.753340    3.135227    1.996309
  H      2.277287    3.684419    2.703438
  H     -4.165261    0.744738   -1.320727
  H     -4.209393    1.529073    0.284538
  H     -5.276965    0.134525   -0.055806
  H     -0.961897   -2.827812   -0.089857
  H     -2.673606   -2.653765    0.403513
  H     -1.461862   -3.256353    1.575398

 Total Charge           Charge          ....    0
 Multiplicity           Mult            ....    1
 Number of Electrons    NEL             ....  174
 Basis Dimension        Dim             ....  316

ORBITAL ENERGIES
----------------

  NO   OCC          E(Eh)            E(eV)
   0   2.0000     -88.030808     -2395.4401
   1   2.0000     -87.961043     -2393.5417
   2   2.0000     -76.415080     -2079.3600
   3   2.0000     -18.823210      -512.2056
   4   2.0000     -18.812102      -511.9033
   5   2.0000     -18.771879      -510.8088
   6   2.0000     -18.770546      -510.7725
   7   2.0000     -18.762759      -510.5606
   8   2.0000     -18.747696      -510.1508
   9   2.0000     -10.029612      -272.9196
  10   2.0000     -10.020260      -272.6651
  11   2.0000      -9.956854      -270.9398
  12   2.0000      -9.956592      -270.9326
  13   2.0000      -9.953818      -270.8571
  14   2.0000      -9.928270      -270.1620
  15   2.0000      -9.924314      -270.0543
  16   2.0000      -9.923606      -270.0350
  17   2.0000      -9.891734      -269.1678
  18   2.0000      -9.884762      -268.9781
  19   2.0000      -7.675914      -208.8722
  20   2.0000      -7.606382      -206.9802
  21   2.0000      -6.410247      -174.4317
  22   2.0000      -5.704110      -155.2167
  23   2.0000      -5.700140      -155.1087
  24   2.0000      -5.692820      -154.9095
  25   2.0000      -5.635692      -153.3550
  26   2.0000      -5.626791      -153.1128
  27   2.0000      -5.626276      -153.0988
  28   2.0000      -4.633498      -126.0839
  29   2.0000      -4.632306      -126.0514
  30   2.0000      -4.630341      -125.9980
  31   2.0000      -1.034693       -28.1554
  32   2.0000      -1.018588       -27.7172
  33   2.0000      -0.966376       -26.2964
  34   2.0000      -0.940438       -25.5906
  35   2.0000      -0.924902       -25.1679
  36   2.0000      -0.919616       -25.0240
  37   2.0000      -0.771769       -21.0009
  38   2.0000      -0.715903       -19.4807
  39   2.0000      -0.710044       -19.3213
  40   2.0000      -0.684992       -18.6396
  41   2.0000      -0.655542       -17.8382
  42   2.0000      -0.623594       -16.9689
  43   2.0000      -0.619055       -16.8453
  44   2.0000      -0.604309       -16.4441
  45   2.0000      -0.599991       -16.3266
  46   2.0000      -0.568150       -15.4601
  47   2.0000      -0.516977       -14.0677
  48   2.0000      -0.506257       -13.7760
  49   2.0000      -0.498969       -13.5776
  50   2.0000      -0.485512       -13.2114
  51   2.0000      -0.462861       -12.5951
  52   2.0000      -0.459137       -12.4937
  53   2.0000      -0.457947       -12.4614
  54   2.0000      -0.443989       -12.0815
  55   2.0000      -0.435887       -11.8611
  56   2.0000      -0.426602       -11.6084
  57   2.0000      -0.415351       -11.3023
  58   2.0000      -0.412538       -11.2257
  59   2.0000      -0.403010       -10.9665
  60   2.0000      -0.399882       -10.8813
  61   2.0000      -0.393182       -10.6990
  62   2.0000      -0.390668       -10.6306
  63   2.0000      -0.385139       -10.4802
  64   2.0000      -0.378079       -10.2881
  65   2.0000      -0.367430        -9.9983
  66   2.0000      -0.362231        -9.8568
  67   2.0000      -0.357651        -9.7322
  68   2.0000      -0.350650        -9.5417
  69   2.0000      -0.343282        -9.3412
  70   2.0000      -0.338225        -9.2036
  71   2.0000      -0.331433        -9.0188
  72   2.0000      -0.325379        -8.8540
  73   2.0000      -0.309959        -8.4344
  74   2.0000      -0.304131        -8.2758
  75   2.0000      -0.299131        -8.1398
  76   2.0000      -0.289046        -7.8653
  77   2.0000      -0.278579        -7.5805
  78   2.0000      -0.273401        -7.4396
  79   2.0000      -0.270127        -7.3505
  80   2.0000      -0.259273        -7.0552
  81   2.0000      -0.244028        -6.6403
  82   2.0000      -0.238223        -6.4824
  83   2.0000      -0.235761        -6.4154
  84   2.0000      -0.214751        -5.8437
  85   2.0000      -0.178820        -4.8660
  86   2.0000      -0.174390        -4.7454
  87   0.0000      -0.052923        -1.4401
  88   0.0000      -0.037132        -1.0104
  89   0.0000      -0.021786        -0.5928
  90   0.0000       0.003330         0.0906
  91   0.0000       0.033701         0.9170

MULLIKEN ATOMIC CHARGES
-----------------------
   0 C :   -0.308399
   1 C :   -0.016812
   2 O :   -0.240319
   3 C :    0.090304
   4 O :   -0.178780
   5 C :   -0.030532
   6 C :   -0.255942
   7 H :    0.146832
   8 C :    0.188345
   9 O :   -0.201413
  10 O :   -0.206574
  11 C :   -0.016168
  12 C :   -0.314910
  13 S :   -0.115728
  14 P :    0.651580
  15 S :   -0.342348
  16 O :   -0.404145
  17 C :   -0.098789
  18 O :   -0.364852
  19 C :   -0.129643
  20 H :    0.130827
  21 H :    0.112735
  22 H :    0.115770
  23 H :    0.103026
  24 H :    0.121067
  25 H :    0.129216
  26 H :    0.115615
  27 H :    0.117379
  28 H :    0.105855
  29 H :    0.112422
  30 H :    0.152014
  31 H :    0.112836
  32 H :    0.109378
  33 H :    0.113910
  34 H :    0.116977
  35 H :    0.146834
  36 H :    0.116982
  37 H :    0.115451
Sum of atomic charges:    0.0000000

LOEWDIN ATOMIC CHARGES
----------------------
   0 C :   -0.357699
   1 C :   -0.109642
   2 O :   -0.059771
   3 C :    0.031058
   4 O :   -0.150583
   5 C :   -0.237984
   6 C :   -0.253179
   7 H :    0.142166
   8 C :    0.017379
   9 O :   -0.146539
  10 O :   -0.029261
  11 C :   -0.105080
  12 C :   -0.359655
  13 S :    0.088114
  14 P :    0.589805
  15 S :   -0.336665
  16 O :   -0.269018
  17 C :   -0.221218
  18 O :   -0.238439
  19 C :   -0.217476
  20 H :    0.131193
  21 H :    0.124503
  22 H :    0.132419
  23 H :    0.117994
  24 H :    0.125121
  25 H :    0.142762
  26 H :    0.139463
  27 H :    0.123790
  28 H :    0.119371
  29 H :    0.125034
  30 H :    0.132343
  31 H :    0.131792
  32 H :    0.104802
  33 H :    0.106798
  34 H :    0.118166
  35 H :    0.118185
  36 H :    0.110636
  37 H :    0.119316

  Mayer bond orders larger than 0.100000
B(  0-C ,  1-C ) :   1.1690 B(  0-C , 20-H ) :   0.9443 B(  0-C , 21-H ) :   0.9475
B(  0-C , 22-H ) :   0.9437 B(  1-C ,  2-O ) :   0.9110 B(  1-C , 23-H ) :   0.9368
B(  1-C , 24-H ) :   0.9178 B(  2-O ,  3-C ) :   1.1937 B(  3-C ,  4-O ) :   2.0044
B(  3-C ,  5-C ) :   1.0062 B(  5-C ,  6-C ) :   1.0280 B(  5-C , 25-H ) :   0.9003
B(  5-C , 26-H ) :   0.8890 B(  6-C ,  7-H ) :   0.8869 B(  6-C ,  8-C ) :   0.9130
B(  6-C , 13-S ) :   1.0203 B(  8-C ,  9-O ) :   1.8548 B(  8-C , 10-O ) :   1.2975
B(  9-O , 14-P ) :   0.1454 B( 10-O , 11-C ) :   0.8890 B( 11-C , 12-C ) :   1.1807
B( 11-C , 27-H ) :   0.9108 B( 11-C , 28-H ) :   0.9359 B( 12-C , 29-H ) :   0.9477
B( 12-C , 30-H ) :   0.9242 B( 12-C , 31-H ) :   0.9408 B( 13-S , 14-P ) :   0.9400
B( 13-S , 15-S ) :   0.1110 B( 14-P , 15-S ) :   1.5815 B( 14-P , 16-O ) :   1.0194
B( 14-P , 18-O ) :   1.1300 B( 16-O , 17-C ) :   0.9420 B( 17-C , 32-H ) :   0.9491
B( 17-C , 33-H ) :   0.9269 B( 17-C , 34-H ) :   0.9588 B( 18-O , 19-C ) :   0.9184
B( 19-C , 35-H ) :   0.9233 B( 19-C , 36-H ) :   0.9400 B( 19-C , 37-H ) :   0.9594

Dispersion correction           -0.053858314
FINAL SINGLE POINT ENERGY     -1979.002606730020

DIPOLE MOMENT
-------------

Method             : SCF
Type of density    : Electron Density
Multiplicity       :   1
Irrep              :   0
Energy             : -1979.1336469815751116 Eh
Relativity type    :
Basis              : AO
                                X                 Y                 Z
Electronic contribution:    -12.806836833       4.208762517      -1.960889151
Nuclear contribution   :     14.422719700      -4.393476871       1.114976204
                        -----------------------------------------
Total Dipole Moment    :      1.615882867      -0.184714354      -0.845912946
                        -----------------------------------------
Magnitude (a.u.)       :      1.833239086
Magnitude (Debye)      :      4.659723441

Rotational constants in cm-1:             0.012789             0.008363             0.006514
Rotational constants in MHz :           383.415647           250.728748           195.292025

                             ****ORCA TERMINATED NORMALLY****
TOTAL RUN TIME: 0 days 0 hours 0 minutes 47 seconds 240 msec
