                         Program Version 6.0.0  -   RELEASE  -
|  1> ! pbe def2-sv(p) def2/J RI DEFGRID1 loosescf d4 GCP(DFT/SV(P)) printgap
|  2> %output
|  3>     printlevel normal
|  4> end
|  5> * xyz 0 1
|  6> C 2.6981986074 -0.19948694 -2.9197265519
|  7> C 3.5534687832 0.6706594097 -2.0192923554
|  8> O 3.6414662022 0.1605980898 -0.6801731674
|  9> P 2.3888885234 0.0355470942 0.2846631771
| 10> S 1.1066341104 1.5283877723 0.2041560694
| 11> O 3.2339234148 -0.0485075034 1.6200201744
| 12> C 2.6530010135 0.1871779564 2.9153421255
| 13> C 1.7581988363 -0.9519852487 3.3639595809
| 14> S 1.7074537885 -1.9599463773 0.02054249
| 15> C -0.0102672264 -1.7800312649 -0.5376122428
| 16> S -1.130972595 -1.0512266673 0.6961020601
| 17> P -2.0442462597 0.4850030217 -0.471911745
| 18> S -1.3706478172 0.6829462783 -2.3002528534
| 19> O -1.9796055786 1.822175539 0.3568650916
| 20> C -2.7787941453 2.1349104261 1.5230348913
| 21> C -2.4779445494 1.2204888241 2.6913167472
| 22> O -3.6064264227 0.160954705 -0.3887322843
| 23> C -4.2831806571 -0.7054573725 -1.3136758729
| 24> C -3.7959408084 -2.1381650463 -1.2367108022
| 25> H 2.8114394628 0.1266478291 -3.9487993541
| 26> H 2.9977716446 -1.241335916 -2.8361353015
| 27> H 1.6466924811 -0.102948116 -2.647598686
| 28> H 3.1536014982 1.689300477 -1.9805432878
| 29> H 4.5913963261 0.694546969 -2.3546844737
| 30> H 3.5182103353 0.2978577986 3.5708312901
| 31> H 2.0959733044 1.1296568823 2.8779363442
| 32> H 2.2862981225 -1.8982392339 3.2804515305
| 33> H 1.4682248656 -0.7914540625 4.3974689526
| 34> H 0.8592831668 -0.997216419 2.7501067557
| 35> H -0.3328628805 -2.7995124828 -0.7345615512
| 36> H -0.0600295678 -1.1666253036 -1.441508728
| 37> H -2.5004109867 3.1676614131 1.7393703256
| 38> H -3.8323638922 2.081679349 1.241031433
| 39> H -1.4115745539 1.2253447895 2.9042095526
| 40> H -3.0191554231 1.5701205 3.5648448387
| 41> H -2.7867925316 0.2010934011 2.4650137231
| 42> H -5.3317692408 -0.6209976903 -1.0240628842
| 43> H -4.1431115715 -0.307291084 -2.3235223192
| 44> H -3.8141982603 -2.4918006881 -0.2089947742
| 45> H -4.4393718712 -2.7652207016 -1.8455101924
| 46> H -2.7788646801 -2.2031533259 -1.6202222961
| 47> *
| 48>
| 49>                          ****END OF INPUT****

CARTESIAN COORDINATES (ANGSTROEM)
---------------------------------
  C      2.698199   -0.199487   -2.919727
  C      3.553469    0.670659   -2.019292
  O      3.641466    0.160598   -0.680173
  P      2.388889    0.035547    0.284663
  S      1.106634    1.528388    0.204156
  O      3.233923   -0.048508    1.620020
  C      2.653001    0.187178    2.915342
  C      1.758199   -0.951985    3.363960
  S      1.707454   -1.959946    0.020542
  C     -0.010267   -1.780031   -0.537612
  S     -1.130973   -1.051227    0.696102
  P     -2.044246    0.485003   -0.471912
  S     -1.370648    0.682946   -2.300253
  O     -1.979606    1.822176    0.356865
  C     -2.778794    2.134910    1.523035
  C     -2.477945    1.220489    2.691317
  O     -3.606426    0.160955   -0.388732
  C     -4.283181   -0.705457   -1.313676
  C     -3.795941   -2.138165   -1.236711
  H      2.811439    0.126648   -3.948799
  H      2.997772   -1.241336   -2.836135
  H      1.646692   -0.102948   -2.647599
  H      3.153601    1.689300   -1.980543
  H      4.591396    0.694547   -2.354684
  H      3.518210    0.297858    3.570831
  H      2.095973    1.129657    2.877936
  H      2.286298   -1.898239    3.280452
  H      1.468225   -0.791454    4.397469
  H      0.859283   -0.997216    2.750107
  H     -0.332863   -2.799512   -0.734562
  H     -0.060030   -1.166625   -1.441509
  H     -2.500411    3.167661    1.739370
  H     -3.832364    2.081679    1.241031
  H     -1.411575    1.225345    2.904210
  H     -3.019155    1.570121    3.564845
  H     -2.786793    0.201093    2.465014
  H     -5.331769   -0.620998   -1.024063
  H     -4.143112   -0.307291   -2.323522
  H     -3.814198   -2.491801   -0.208995
  H     -4.439372   -2.765221   -1.845510
  H     -2.778865   -2.203153   -1.620222

 Total Charge           Charge          ....    0
 Multiplicity           Mult            ....    1
 Number of Electrons    NEL             ....  202
 Basis Dimension        Dim             ....  334

ORBITAL ENERGIES
----------------

  NO   OCC          E(Eh)            E(eV)
   0   2.0000     -88.041821     -2395.7397
   1   2.0000     -88.041348     -2395.7269
   2   2.0000     -87.986076     -2394.2228
   3   2.0000     -87.982467     -2394.1246
   4   2.0000     -76.427592     -2079.7005
   5   2.0000     -76.420038     -2079.4950
   6   2.0000     -18.791210      -511.3348
   7   2.0000     -18.790470      -511.3147
   8   2.0000     -18.781324      -511.0658
   9   2.0000     -18.779065      -511.0043
  10   2.0000      -9.957160      -270.9481
  11   2.0000      -9.954733      -270.8820
  12   2.0000      -9.954239      -270.8686
  13   2.0000      -9.947475      -270.6846
  14   2.0000      -9.945344      -270.6266
  15   2.0000      -9.890580      -269.1364
  16   2.0000      -9.887345      -269.0483
  17   2.0000      -9.878913      -268.8189
  18   2.0000      -9.876598      -268.7559
  19   2.0000      -7.686331      -209.1557
  20   2.0000      -7.685805      -209.1414
  21   2.0000      -7.631131      -207.6536
  22   2.0000      -7.626859      -207.5374
  23   2.0000      -6.424439      -174.8179
  24   2.0000      -6.417372      -174.6256
  25   2.0000      -5.714248      -155.4926
  26   2.0000      -5.713765      -155.4795
  27   2.0000      -5.710692      -155.3958
  28   2.0000      -5.710496      -155.3905
  29   2.0000      -5.703398      -155.1973
  30   2.0000      -5.702673      -155.1776
  31   2.0000      -5.660081      -154.0186
  32   2.0000      -5.655781      -153.9016
  33   2.0000      -5.651722      -153.7912
  34   2.0000      -5.651235      -153.7779
  35   2.0000      -5.647416      -153.6740
  36   2.0000      -5.647216      -153.6686
  37   2.0000      -4.647404      -126.4623
  38   2.0000      -4.645858      -126.4202
  39   2.0000      -4.644979      -126.3963
  40   2.0000      -4.639571      -126.2491
  41   2.0000      -4.639392      -126.2443
  42   2.0000      -4.637891      -126.2034
  43   2.0000      -0.987481       -26.8707
  44   2.0000      -0.980372       -26.6773
  45   2.0000      -0.942365       -25.6430
  46   2.0000      -0.936372       -25.4800
  47   2.0000      -0.758338       -20.6354
  48   2.0000      -0.718551       -19.5528
  49   2.0000      -0.707955       -19.2644
  50   2.0000      -0.692046       -18.8315
  51   2.0000      -0.677983       -18.4489
  52   2.0000      -0.676436       -18.4068
  53   2.0000      -0.650666       -17.7055
  54   2.0000      -0.633319       -17.2335
  55   2.0000      -0.600897       -16.3513
  56   2.0000      -0.592497       -16.1227
  57   2.0000      -0.581635       -15.8271
  58   2.0000      -0.563925       -15.3452
  59   2.0000      -0.558874       -15.2077
  60   2.0000      -0.496525       -13.5111
  61   2.0000      -0.488165       -13.2836
  62   2.0000      -0.469725       -12.7819
  63   2.0000      -0.458786       -12.4842
  64   2.0000      -0.452099       -12.3022
  65   2.0000      -0.448430       -12.2024
  66   2.0000      -0.445708       -12.1283
  67   2.0000      -0.432991       -11.7823
  68   2.0000      -0.427559       -11.6345
  69   2.0000      -0.415800       -11.3145
  70   2.0000      -0.412005       -11.2112
  71   2.0000      -0.401820       -10.9341
  72   2.0000      -0.392565       -10.6822
  73   2.0000      -0.388488       -10.5713
  74   2.0000      -0.378378       -10.2962
  75   2.0000      -0.371643       -10.1129
  76   2.0000      -0.368162       -10.0182
  77   2.0000      -0.358294        -9.7497
  78   2.0000      -0.354317        -9.6414
  79   2.0000      -0.346464        -9.4278
  80   2.0000      -0.346398        -9.4260
  81   2.0000      -0.343501        -9.3471
  82   2.0000      -0.339844        -9.2476
  83   2.0000      -0.334999        -9.1158
  84   2.0000      -0.330279        -8.9874
  85   2.0000      -0.313617        -8.5339
  86   2.0000      -0.306603        -8.3431
  87   2.0000      -0.297867        -8.1054
  88   2.0000      -0.295239        -8.0339
  89   2.0000      -0.293204        -7.9785
  90   2.0000      -0.281652        -7.6641
  91   2.0000      -0.272142        -7.4054
  92   2.0000      -0.262631        -7.1466
  93   2.0000      -0.260634        -7.0922
  94   2.0000      -0.254179        -6.9166
  95   2.0000      -0.231332        -6.2949
  96   2.0000      -0.219845        -5.9823
  97   2.0000      -0.213776        -5.8171
  98   2.0000      -0.201345        -5.4789
  99   2.0000      -0.191016        -5.1978
 100   2.0000      -0.186188        -5.0664
 101   0.0000      -0.043445        -1.1822
 102   0.0000      -0.036536        -0.9942
 103   0.0000      -0.015775        -0.4293
 104   0.0000       0.002442         0.0664
 105   0.0000       0.009629         0.2620

MULLIKEN ATOMIC CHARGES
-----------------------
   0 C :   -0.346549
   1 C :    0.008827
   2 O :   -0.359321
   3 P :    0.593926
   4 S :   -0.312549
   5 O :   -0.358210
   6 C :   -0.000301
   7 C :   -0.330155
   8 S :   -0.109455
   9 C :   -0.347612
  10 S :   -0.115468
  11 P :    0.630984
  12 S :   -0.301127
  13 O :   -0.355594
  14 C :    0.006835
  15 C :   -0.337402
  16 O :   -0.388964
  17 C :    0.005534
  18 C :   -0.321807
  19 H :    0.111274
  20 H :    0.117946
  21 H :    0.147200
  22 H :    0.112611
  23 H :    0.104098
  24 H :    0.105039
  25 H :    0.107017
  26 H :    0.116729
  27 H :    0.106817
  28 H :    0.143760
  29 H :    0.180752
  30 H :    0.211375
  31 H :    0.113021
  32 H :    0.110591
  33 H :    0.137075
  34 H :    0.116195
  35 H :    0.127574
  36 H :    0.102664
  37 H :    0.111788
  38 H :    0.119965
  39 H :    0.113136
  40 H :    0.121779
Sum of atomic charges:    0.0000000

LOEWDIN ATOMIC CHARGES
----------------------
   0 C :   -0.374474
   1 C :   -0.114389
   2 O :   -0.239372
   3 P :    0.562197
   4 S :   -0.301172
   5 O :   -0.238326
   6 C :   -0.116311
   7 C :   -0.373774
   8 S :    0.080090
   9 C :   -0.482238
  10 S :    0.080278
  11 P :    0.581470
  12 S :   -0.292869
  13 O :   -0.228654
  14 C :   -0.106849
  15 C :   -0.370814
  16 O :   -0.254628
  17 C :   -0.115988
  18 C :   -0.371232
  19 H :    0.131233
  20 H :    0.123184
  21 H :    0.121466
  22 H :    0.112746
  23 H :    0.118648
  24 H :    0.118699
  25 H :    0.107158
  26 H :    0.125042
  27 H :    0.127937
  28 H :    0.113328
  29 H :    0.134694
  30 H :    0.120254
  31 H :    0.124450
  32 H :    0.114270
  33 H :    0.130873
  34 H :    0.132931
  35 H :    0.116485
  36 H :    0.117709
  37 H :    0.111859
  38 H :    0.123929
  39 H :    0.130870
  40 H :    0.119292

  Mayer bond orders larger than 0.100000
B(  0-C ,  1-C ) :   1.1607 B(  0-C , 19-H ) :   0.9358 B(  0-C , 20-H ) :   0.9424
B(  0-C , 21-H ) :   0.9215 B(  1-C ,  2-O ) :   0.9191 B(  1-C , 22-H ) :   0.9202
B(  1-C , 23-H ) :   0.9351 B(  2-O ,  3-P ) :   1.1213 B(  3-P ,  4-S ) :   1.6215
B(  3-P ,  5-O ) :   1.1248 B(  3-P ,  8-S ) :   0.9389 B(  4-S ,  8-S ) :   0.1243
B(  5-O ,  6-C ) :   0.9180 B(  6-C ,  7-C ) :   1.1661 B(  6-C , 24-H ) :   0.9347
B(  6-C , 25-H ) :   0.9138 B(  7-C , 26-H ) :   0.9428 B(  7-C , 27-H ) :   0.9377
B(  7-C , 28-H ) :   0.9259 B(  8-S ,  9-C ) :   1.0019 B(  9-C , 10-S ) :   1.0047
B(  9-C , 29-H ) :   0.9022 B(  9-C , 30-H ) :   0.8386 B( 10-S , 11-P ) :   0.9362
B( 10-S , 12-S ) :   0.1162 B( 11-P , 12-S ) :   1.6099 B( 11-P , 13-O ) :   1.1391
B( 11-P , 16-O ) :   1.0587 B( 12-S , 30-H ) :   0.1141 B( 13-O , 14-C ) :   0.9018
B( 14-C , 15-C ) :   1.1703 B( 14-C , 31-H ) :   0.9325 B( 14-C , 32-H ) :   0.9256
B( 15-C , 33-H ) :   0.9397 B( 15-C , 34-H ) :   0.9354 B( 15-C , 35-H ) :   0.9320
B( 16-O , 17-C ) :   0.9172 B( 17-C , 18-C ) :   1.1647 B( 17-C , 36-H ) :   0.9345
B( 17-C , 37-H ) :   0.9180 B( 18-C , 38-H ) :   0.9412 B( 18-C , 39-H ) :   0.9363
B( 18-C , 40-H ) :   0.9359

Dispersion correction           -0.068386689
FINAL SINGLE POINT ENERGY     -2929.513273586826

DIPOLE MOMENT
-------------

Method             : SCF
Type of density    : Electron Density
Multiplicity       :   1
Irrep              :   0
Energy             : -2929.6297288233781728 Eh
Relativity type    :
Basis              : AO
                                X                 Y                 Z
Electronic contribution:      7.790889706       4.667416628      -4.984778231
Nuclear contribution   :     -8.761713206      -5.291192842       5.685650479
                        -----------------------------------------
Total Dipole Moment    :     -0.970823500      -0.623776213       0.700872248
                        -----------------------------------------
Magnitude (a.u.)       :      1.350117380
Magnitude (Debye)      :      3.431725657

Rotational constants in cm-1:             0.011398             0.005849             0.005153
Rotational constants in MHz :           341.701539           175.341864           154.471877

                             ****ORCA TERMINATED NORMALLY****
TOTAL RUN TIME: 0 days 0 hours 0 minutes 21 seconds 658 msec
