                         Program Version 6.0.0  -   RELEASE  -
|  1> ! pbe def2-sv(p) def2/J RI DEFGRID1 loosescf d4 GCP(DFT/SV(P)) printgap
|  2> %output
|  3>     printlevel normal
|  4> end
|  5> * xyz 0 1
|  6> C -2.5603590926 0.6023237791 -0.0036295454
|  7> C -1.2167807897 -0.0620783726 -0.0003066934
|  8> C -1.1358256172 -1.4470503063 -8.77744e-05
|  9> C 0.0923415542 -2.0826809439 0.0023981274
| 10> C 1.2491467975 -1.3327577129 0.0016650973
| 11> C 1.18471437 0.0577155856 -8.97427e-05
| 12> C -0.0506269354 0.7115836833 0.002227124
| 13> C -0.1737179146 2.2098857048 0.0052000921
| 14> O 2.3871320883 0.7061133091 -0.0047888749
| 15> H -2.6854094223 1.2228527031 0.8824285503
| 16> H -2.6708982676 1.2430593056 -0.87694782
| 17> H -3.3516312181 -0.1418565855 -0.0179693072
| 18> H -2.0429733925 -2.0330020778 -0.0016585682
| 19> H 0.1494718471 -3.1604942384 0.003459646
| 20> H 2.2235896831 -1.7958682134 0.0012769945
| 21> H 0.7857509549 2.7181048736 0.0496846202
| 22> H -0.6887982195 2.5440794909 -0.8946740259
| 23> H -0.7605129203 2.5328885069 0.8638249541
| 24> H 2.2642828517 1.6664336358 -0.021313363
| 25> *
| 26>
| 27>                          ****END OF INPUT****

CARTESIAN COORDINATES (ANGSTROEM)
---------------------------------
  C     -2.560359    0.602324   -0.003630
  C     -1.216781   -0.062078   -0.000307
  C     -1.135826   -1.447050   -0.000088
  C      0.092342   -2.082681    0.002398
  C      1.249147   -1.332758    0.001665
  C      1.184714    0.057716   -0.000090
  C     -0.050627    0.711584    0.002227
  C     -0.173718    2.209886    0.005200
  O      2.387132    0.706113   -0.004789
  H     -2.685409    1.222853    0.882429
  H     -2.670898    1.243059   -0.876948
  H     -3.351631   -0.141857   -0.017969
  H     -2.042973   -2.033002   -0.001659
  H      0.149472   -3.160494    0.003460
  H      2.223590   -1.795868    0.001277
  H      0.785751    2.718105    0.049685
  H     -0.688798    2.544079   -0.894674
  H     -0.760513    2.532889    0.863825
  H      2.264283    1.666434   -0.021313

 Total Charge           Charge          ....    0
 Multiplicity           Mult            ....    1
 Number of Electrons    NEL             ....   66
 Basis Dimension        Dim             ....  146

ORBITAL ENERGIES
----------------

  NO   OCC          E(Eh)            E(eV)
   0   2.0000     -18.774153      -510.8707
   1   2.0000      -9.943849      -270.5859
   2   2.0000      -9.897990      -269.3380
   3   2.0000      -9.897041      -269.3122
   4   2.0000      -9.895905      -269.2813
   5   2.0000      -9.883653      -268.9479
   6   2.0000      -9.883217      -268.9360
   7   2.0000      -9.876360      -268.7494
   8   2.0000      -9.876226      -268.7458
   9   2.0000      -0.955116       -25.9900
  10   2.0000      -0.772539       -21.0218
  11   2.0000      -0.703443       -19.1417
  12   2.0000      -0.677958       -18.4482
  13   2.0000      -0.630020       -17.1437
  14   2.0000      -0.604527       -16.4500
  15   2.0000      -0.543583       -14.7917
  16   2.0000      -0.515103       -14.0167
  17   2.0000      -0.484015       -13.1707
  18   2.0000      -0.439696       -11.9647
  19   2.0000      -0.413650       -11.2560
  20   2.0000      -0.400354       -10.8942
  21   2.0000      -0.372071       -10.1246
  22   2.0000      -0.362556        -9.8656
  23   2.0000      -0.360859        -9.8195
  24   2.0000      -0.356185        -9.6923
  25   2.0000      -0.353219        -9.6116
  26   2.0000      -0.344862        -9.3842
  27   2.0000      -0.319944        -8.7061
  28   2.0000      -0.303444        -8.2571
  29   2.0000      -0.285635        -7.7725
  30   2.0000      -0.283095        -7.7034
  31   2.0000      -0.210655        -5.7322
  32   2.0000      -0.186452        -5.0736
  33   0.0000      -0.026465        -0.7201
  34   0.0000      -0.009298        -0.2530
  35   0.0000       0.012107         0.3294
  36   0.0000       0.048034         1.3071
  37   0.0000       0.058509         1.5921

MULLIKEN ATOMIC CHARGES
-----------------------
   0 C :   -0.211449
   1 C :   -0.025257
   2 C :   -0.140612
   3 C :   -0.036776
   4 C :   -0.122197
   5 C :    0.118422
   6 C :   -0.066267
   7 C :   -0.233623
   8 O :   -0.336612
   9 H :    0.107991
  10 H :    0.106672
  11 H :    0.103748
  12 H :    0.027555
  13 H :    0.046973
  14 H :    0.038092
  15 H :    0.077377
  16 H :    0.120006
  17 H :    0.118442
  18 H :    0.307514
Sum of atomic charges:   -0.0000000

LOEWDIN ATOMIC CHARGES
----------------------
   0 C :   -0.320340
   1 C :   -0.042164
   2 C :   -0.151061
   3 C :   -0.120087
   4 C :   -0.152198
   5 C :    0.025214
   6 C :   -0.095951
   7 C :   -0.321530
   8 O :   -0.240703
   9 H :    0.128506
  10 H :    0.128177
  11 H :    0.125651
  12 H :    0.118024
  13 H :    0.122946
  14 H :    0.128466
  15 H :    0.109602
  16 H :    0.134865
  17 H :    0.134838
  18 H :    0.287747

  Mayer bond orders larger than 0.100000
B(  0-C ,  1-C ) :   1.1440 B(  0-C ,  9-H ) :   0.9222 B(  0-C , 10-H ) :   0.9220
B(  0-C , 11-H ) :   0.9363 B(  1-C ,  2-C ) :   1.4044 B(  1-C ,  6-C ) :   1.3997
B(  2-C ,  3-C ) :   1.3312 B(  2-C , 12-H ) :   0.9618 B(  3-C ,  4-C ) :   1.3624
B(  3-C , 13-H ) :   0.9663 B(  4-C ,  5-C ) :   1.3600 B(  4-C , 14-H ) :   0.9620
B(  5-C ,  6-C ) :   1.3274 B(  5-C ,  8-O ) :   1.2059 B(  6-C ,  7-C ) :   1.1377
B(  7-C , 15-H ) :   0.9217 B(  7-C , 16-H ) :   0.9213 B(  7-C , 17-H ) :   0.9200
B(  8-O , 18-H ) :   0.8298

Dispersion correction           -0.019558035
FINAL SINGLE POINT ENERGY      -385.237781354404

DIPOLE MOMENT
-------------

Method             : SCF
Type of density    : Electron Density
Multiplicity       :   1
Irrep              :   0
Energy             :  -385.2968987297380750 Eh
Relativity type    :
Basis              : AO
                                X                 Y                 Z
Electronic contribution:      5.975454139      -3.775002694       0.001095578
Nuclear contribution   :     -6.322712180       4.510107044      -0.011224221
                        -----------------------------------------
Total Dipole Moment    :     -0.347258041       0.735104350      -0.010128642
                        -----------------------------------------
Magnitude (a.u.)       :      0.813061586
Magnitude (Debye)      :      2.066638312

Rotational constants in cm-1:             0.075721             0.059296             0.033670
Rotational constants in MHz :          2270.054319          1777.645184          1009.387852

                             ****ORCA TERMINATED NORMALLY****
TOTAL RUN TIME: 0 days 0 hours 0 minutes 7 seconds 726 msec
