                         Program Version 6.0.0  -   RELEASE  -
|  1> ! pbe def2-sv(p) def2/J RI DEFGRID1 loosescf d4 GCP(DFT/SV(P)) printgap
|  2> %output
|  3>     printlevel normal
|  4> end
|  5> * xyz 0 1
|  6> C 4.7710159074 -1.3549013876 -1.0223850207
|  7> C 4.7484210924 0.0532532117 -0.4642550569
|  8> O 3.5798813255 0.2993577429 0.3377172251
|  9> P 2.1145464841 0.3720486702 -0.282639649
| 10> S 2.0571374517 1.2434936342 -2.0431937649
| 11> O 1.3371163387 1.0584912153 0.9133678846
| 12> C 1.4544831245 2.4767929192 1.1607227352
| 13> C 0.5597532593 2.8121382733 2.3343597591
| 14> S 1.3879628137 -1.5896974833 -0.1362498499
| 15> C 0.1911668066 -1.5935102141 -1.5163944045
| 16> S -1.4991117199 -1.9190822864 -0.9751111475
| 17> P -1.8471902088 -0.1028781632 0.0813337004
| 18> S -1.3361353347 1.5344640005 -0.8601764492
| 19> O -1.1612134766 -0.243015627 1.4878812587
| 20> C -1.3828624934 -1.3620648779 2.3847304504
| 21> C -2.4333993948 -1.017727181 3.4193924594
| 22> O -3.3923138215 -0.2248524015 0.4277670494
| 23> C -4.3990615195 -0.0989413722 -0.597618961
| 24> C -5.738249914 0.085084115 0.0866091225
| 25> H 4.6309716307 -2.0804484055 -0.2251567137
| 26> H 3.9729536212 -1.4755252451 -1.753706084
| 27> H 5.7242863621 -1.5313121967 -1.5100337329
| 28> H 4.7695567739 0.7882106644 -1.2752957992
| 29> H 5.5774185428 0.2302876211 0.2222045545
| 30> H 2.5029020871 2.7057950215 1.3700577691
| 31> H 1.1424406997 3.008158866 0.254721194
| 32> H 0.8716881814 2.2523525147 3.2110828543
| 33> H 0.6213291488 3.8762534916 2.5373597704
| 34> H -0.4679271011 2.5498762258 2.0943315227
| 35> H 0.4528423476 -2.4076799456 -2.1871618369
| 36> H 0.2424682037 -0.6279031048 -2.0275966974
| 37> H -1.6763216066 -2.2361794167 1.7965977011
| 38> H -0.4072393139 -1.5384528778 2.8419469
| 39> H -3.3879010362 -0.8271330132 2.9363147811
| 40> H -2.5381969149 -1.8515427105 4.1064883225
| 41> H -2.1374926497 -0.1311523667 3.9733740032
| 42> H -4.1467052404 0.7597584199 -1.2283458943
| 43> H -4.380831965 -1.0070479604 -1.2059525111
| 44> H -5.9542152723 -0.7717736268 0.7179991962
| 45> H -5.72491021 0.9823808188 0.6989074084
| 46> H -6.5121159697 0.1786877867 -0.6680291974
| 47> *
| 48>
| 49>                          ****END OF INPUT****

CARTESIAN COORDINATES (ANGSTROEM)
---------------------------------
  C      4.771016   -1.354901   -1.022385
  C      4.748421    0.053253   -0.464255
  O      3.579881    0.299358    0.337717
  P      2.114546    0.372049   -0.282640
  S      2.057137    1.243494   -2.043194
  O      1.337116    1.058491    0.913368
  C      1.454483    2.476793    1.160723
  C      0.559753    2.812138    2.334360
  S      1.387963   -1.589697   -0.136250
  C      0.191167   -1.593510   -1.516394
  S     -1.499112   -1.919082   -0.975111
  P     -1.847190   -0.102878    0.081334
  S     -1.336135    1.534464   -0.860176
  O     -1.161213   -0.243016    1.487881
  C     -1.382862   -1.362065    2.384730
  C     -2.433399   -1.017727    3.419392
  O     -3.392314   -0.224852    0.427767
  C     -4.399062   -0.098941   -0.597619
  C     -5.738250    0.085084    0.086609
  H      4.630972   -2.080448   -0.225157
  H      3.972954   -1.475525   -1.753706
  H      5.724286   -1.531312   -1.510034
  H      4.769557    0.788211   -1.275296
  H      5.577419    0.230288    0.222205
  H      2.502902    2.705795    1.370058
  H      1.142441    3.008159    0.254721
  H      0.871688    2.252353    3.211083
  H      0.621329    3.876253    2.537360
  H     -0.467927    2.549876    2.094332
  H      0.452842   -2.407680   -2.187162
  H      0.242468   -0.627903   -2.027597
  H     -1.676322   -2.236179    1.796598
  H     -0.407239   -1.538453    2.841947
  H     -3.387901   -0.827133    2.936315
  H     -2.538197   -1.851543    4.106488
  H     -2.137493   -0.131152    3.973374
  H     -4.146705    0.759758   -1.228346
  H     -4.380832   -1.007048   -1.205953
  H     -5.954215   -0.771774    0.717999
  H     -5.724910    0.982381    0.698907
  H     -6.512116    0.178688   -0.668029

 Total Charge           Charge          ....    0
 Multiplicity           Mult            ....    1
 Number of Electrons    NEL             ....  202
 Basis Dimension        Dim             ....  334

ORBITAL ENERGIES
----------------

  NO   OCC          E(Eh)            E(eV)
   0   2.0000     -88.043374     -2395.7820
   1   2.0000     -88.041941     -2395.7430
   2   2.0000     -87.980237     -2394.0640
   3   2.0000     -87.979289     -2394.0382
   4   2.0000     -76.423989     -2079.6025
   5   2.0000     -76.418599     -2079.4558
   6   2.0000     -18.796115      -511.4683
   7   2.0000     -18.791443      -511.3412
   8   2.0000     -18.786666      -511.2112
   9   2.0000     -18.777161      -510.9525
  10   2.0000      -9.955120      -270.8926
  11   2.0000      -9.954953      -270.8880
  12   2.0000      -9.953492      -270.8483
  13   2.0000      -9.946739      -270.6645
  14   2.0000      -9.938531      -270.4412
  15   2.0000      -9.891077      -269.1499
  16   2.0000      -9.885996      -269.0116
  17   2.0000      -9.880337      -268.8576
  18   2.0000      -9.872582      -268.6466
  19   2.0000      -7.688622      -209.2180
  20   2.0000      -7.687226      -209.1801
  21   2.0000      -7.625209      -207.4925
  22   2.0000      -7.624262      -207.4667
  23   2.0000      -6.421585      -174.7402
  24   2.0000      -6.416365      -174.5982
  25   2.0000      -5.716403      -155.5512
  26   2.0000      -5.715063      -155.5148
  27   2.0000      -5.712933      -155.4568
  28   2.0000      -5.711797      -155.4259
  29   2.0000      -5.705872      -155.2647
  30   2.0000      -5.704077      -155.2158
  31   2.0000      -5.654207      -153.8588
  32   2.0000      -5.653117      -153.8291
  33   2.0000      -5.645717      -153.6278
  34   2.0000      -5.645373      -153.6184
  35   2.0000      -5.645066      -153.6100
  36   2.0000      -5.644308      -153.5894
  37   2.0000      -4.644452      -126.3820
  38   2.0000      -4.643487      -126.3557
  39   2.0000      -4.641593      -126.3042
  40   2.0000      -4.638722      -126.2260
  41   2.0000      -4.637919      -126.2042
  42   2.0000      -4.637176      -126.1840
  43   2.0000      -0.989739       -26.9322
  44   2.0000      -0.978461       -26.6253
  45   2.0000      -0.946757       -25.7626
  46   2.0000      -0.934606       -25.4319
  47   2.0000      -0.762343       -20.7444
  48   2.0000      -0.720571       -19.6077
  49   2.0000      -0.707117       -19.2416
  50   2.0000      -0.693339       -18.8667
  51   2.0000      -0.681068       -18.5328
  52   2.0000      -0.671375       -18.2690
  53   2.0000      -0.646320       -17.5873
  54   2.0000      -0.629909       -17.1407
  55   2.0000      -0.593503       -16.1500
  56   2.0000      -0.587292       -15.9810
  57   2.0000      -0.570411       -15.5217
  58   2.0000      -0.565945       -15.4001
  59   2.0000      -0.555353       -15.1119
  60   2.0000      -0.508140       -13.8272
  61   2.0000      -0.494993       -13.4694
  62   2.0000      -0.482213       -13.1217
  63   2.0000      -0.465542       -12.6680
  64   2.0000      -0.448476       -12.2037
  65   2.0000      -0.444995       -12.1089
  66   2.0000      -0.439330       -11.9548
  67   2.0000      -0.433333       -11.7916
  68   2.0000      -0.427430       -11.6310
  69   2.0000      -0.418264       -11.3816
  70   2.0000      -0.407750       -11.0954
  71   2.0000      -0.391564       -10.6550
  72   2.0000      -0.387120       -10.5341
  73   2.0000      -0.383242       -10.4286
  74   2.0000      -0.382085       -10.3971
  75   2.0000      -0.366539        -9.9740
  76   2.0000      -0.362212        -9.8563
  77   2.0000      -0.356338        -9.6965
  78   2.0000      -0.353571        -9.6212
  79   2.0000      -0.348136        -9.4733
  80   2.0000      -0.345879        -9.4118
  81   2.0000      -0.343208        -9.3392
  82   2.0000      -0.339923        -9.2498
  83   2.0000      -0.333607        -9.0779
  84   2.0000      -0.323731        -8.8092
  85   2.0000      -0.317227        -8.6322
  86   2.0000      -0.308806        -8.4030
  87   2.0000      -0.301425        -8.2022
  88   2.0000      -0.294215        -8.0060
  89   2.0000      -0.290344        -7.9007
  90   2.0000      -0.278990        -7.5917
  91   2.0000      -0.272074        -7.4035
  92   2.0000      -0.263492        -7.1700
  93   2.0000      -0.260983        -7.1017
  94   2.0000      -0.255705        -6.9581
  95   2.0000      -0.237677        -6.4675
  96   2.0000      -0.219941        -5.9849
  97   2.0000      -0.212514        -5.7828
  98   2.0000      -0.202018        -5.4972
  99   2.0000      -0.191420        -5.2088
 100   2.0000      -0.182506        -4.9662
 101   0.0000      -0.040085        -1.0908
 102   0.0000      -0.029482        -0.8022
 103   0.0000      -0.008228        -0.2239
 104   0.0000       0.014981         0.4077
 105   0.0000       0.021784         0.5928

MULLIKEN ATOMIC CHARGES
-----------------------
   0 C :   -0.311116
   1 C :   -0.001121
   2 O :   -0.380552
   3 P :    0.612357
   4 S :   -0.320240
   5 O :   -0.355246
   6 C :   -0.002773
   7 C :   -0.277862
   8 S :   -0.092277
   9 C :   -0.357351
  10 S :   -0.111848
  11 P :    0.595941
  12 S :   -0.293152
  13 O :   -0.339343
  14 C :   -0.009273
  15 C :   -0.291136
  16 O :   -0.384792
  17 C :   -0.013633
  18 C :   -0.282881
  19 H :    0.115498
  20 H :    0.120060
  21 H :    0.110792
  22 H :    0.109492
  23 H :    0.101606
  24 H :    0.094791
  25 H :    0.112008
  26 H :    0.104476
  27 H :    0.103069
  28 H :    0.124891
  29 H :    0.182685
  30 H :    0.210619
  31 H :    0.100190
  32 H :    0.110695
  33 H :    0.121689
  34 H :    0.108890
  35 H :    0.118946
  36 H :    0.107884
  37 H :    0.105237
  38 H :    0.115866
  39 H :    0.122646
  40 H :    0.114268
Sum of atomic charges:    0.0000000

LOEWDIN ATOMIC CHARGES
----------------------
   0 C :   -0.369265
   1 C :   -0.120673
   2 O :   -0.249577
   3 P :    0.568804
   4 S :   -0.312322
   5 O :   -0.234793
   6 C :   -0.116966
   7 C :   -0.352536
   8 S :    0.085638
   9 C :   -0.478338
  10 S :    0.062769
  11 P :    0.560906
  12 S :   -0.290564
  13 O :   -0.220610
  14 C :   -0.116015
  15 C :   -0.359759
  16 O :   -0.251360
  17 C :   -0.120881
  18 C :   -0.350540
  19 H :    0.123067
  20 H :    0.119274
  21 H :    0.129671
  22 H :    0.109341
  23 H :    0.116834
  24 H :    0.106458
  25 H :    0.110659
  26 H :    0.121471
  27 H :    0.126911
  28 H :    0.125978
  29 H :    0.137105
  30 H :    0.127488
  31 H :    0.102466
  32 H :    0.120163
  33 H :    0.125284
  34 H :    0.129254
  35 H :    0.127841
  36 H :    0.110930
  37 H :    0.108653
  38 H :    0.125493
  39 H :    0.129708
  40 H :    0.132035

  Mayer bond orders larger than 0.100000
B(  0-C ,  1-C ) :   1.1657 B(  0-C , 19-H ) :   0.9448 B(  0-C , 20-H ) :   0.9364
B(  0-C , 21-H ) :   0.9384 B(  1-C ,  2-O ) :   0.9137 B(  1-C , 22-H ) :   0.9132
B(  1-C , 23-H ) :   0.9339 B(  2-O ,  3-P ) :   1.0943 B(  3-P ,  4-S ) :   1.6056
B(  3-P ,  5-O ) :   1.1472 B(  3-P ,  8-S ) :   0.9653 B(  4-S ,  8-S ) :   0.1181
B(  5-O ,  6-C ) :   0.8957 B(  6-C ,  7-C ) :   1.1657 B(  6-C , 24-H ) :   0.9271
B(  6-C , 25-H ) :   0.9149 B(  7-C , 26-H ) :   0.9503 B(  7-C , 27-H ) :   0.9411
B(  7-C , 28-H ) :   0.9414 B(  8-S ,  9-C ) :   0.9932 B(  9-C , 10-S ) :   1.0033
B(  9-C , 29-H ) :   0.9118 B(  9-C , 30-H ) :   0.8464 B( 10-S , 11-P ) :   0.9430
B( 10-S , 12-S ) :   0.1049 B( 11-P , 12-S ) :   1.6603 B( 11-P , 13-O ) :   1.1480
B( 11-P , 16-O ) :   1.0738 B( 13-O , 14-C ) :   0.8883 B( 14-C , 15-C ) :   1.1636
B( 14-C , 31-H ) :   0.9102 B( 14-C , 32-H ) :   0.9326 B( 15-C , 33-H ) :   0.9411
B( 15-C , 34-H ) :   0.9401 B( 15-C , 35-H ) :   0.9474 B( 16-O , 17-C ) :   0.9047
B( 17-C , 18-C ) :   1.1596 B( 17-C , 36-H ) :   0.9100 B( 17-C , 37-H ) :   0.9279
B( 18-C , 38-H ) :   0.9508 B( 18-C , 39-H ) :   0.9508 B( 18-C , 40-H ) :   0.9418

Dispersion correction           -0.066793213
FINAL SINGLE POINT ENERGY     -2929.521430112388

DIPOLE MOMENT
-------------

Method             : SCF
Type of density    : Electron Density
Multiplicity       :   1
Irrep              :   0
Energy             : -2929.6399329092678272 Eh
Relativity type    :
Basis              : AO
                                X                 Y                 Z
Electronic contribution:      6.263863874      -1.517472556     -13.173823178
Nuclear contribution   :     -6.654176923       0.587158759      14.115446081
                        -----------------------------------------
Total Dipole Moment    :     -0.390313049      -0.930313797       0.941622903
                        -----------------------------------------
Magnitude (a.u.)       :      1.380029611
Magnitude (Debye)      :      3.507756506

Rotational constants in cm-1:             0.012956             0.005188             0.004964
Rotational constants in MHz :           388.411787           155.542721           148.807458

                             ****ORCA TERMINATED NORMALLY****
TOTAL RUN TIME: 0 days 0 hours 0 minutes 21 seconds 565 msec
