                         Program Version 6.0.1  -  RELEASE   -
|  1> ! r2scan-3c def2/J RI DEFGRID2 scfconv6 printgap
|  2> %output
|  3>     printlevel normal
|  4> end
|  5> * xyz 0 1
|  6> C 1.916961451 -3.3088779842 0.2410391552
|  7> C 2.8640067866 -2.8584293462 -0.8602446273
|  8> O 2.255933528 -1.8055788925 -1.6310681806
|  9> C 2.4379550548 -0.5598574755 -1.253625453
| 10> O 3.1644650038 -0.2060675102 -0.3489756663
| 11> C 1.5796483712 0.3973993813 -2.0599837262
| 12> C 0.3381672908 0.7208732532 -1.2218300612
| 13> H -0.2292753063 1.5357450744 -1.6763724457
| 14> C 0.7605000818 1.115091249 0.1847951498
| 15> O 0.6024353707 0.3853403242 1.1438011557
| 16> O 1.3078349076 2.2971235566 0.1966527566
| 17> C 1.8394590278 2.8107161112 1.4352549491
| 18> C 3.3571721294 2.7462665028 1.4071494368
| 19> S -0.7420065038 -0.7439193042 -1.0932382362
| 20> P -2.0368329991 -0.0164030476 0.4213472406
| 21> S -2.1420595157 1.9300939742 0.6080264971
| 22> O -3.4265281548 -0.690506567 -0.0084175782
| 23> C -4.1196054242 -0.2742366487 -1.1904169375
| 24> O -1.7899751189 -0.7770445661 1.7812429344
| 25> C -1.765071971 -2.2163371392 1.8632302311
| 26> H 2.3741579039 -4.1118408928 0.8092304114
| 27> H 1.7051360391 -2.4767303097 0.9115843979
| 28> H 0.9847650627 -3.6580440331 -0.1952675702
| 29> H 3.0506685719 -3.6571772696 -1.5777510618
| 30> H 3.8045503612 -2.4890771058 -0.4415427064
| 31> H 1.2822092267 -0.0698400546 -2.9972058723
| 32> H 2.1313619427 1.321007786 -2.2345297217
| 33> H 1.4776254397 3.838574776 1.4937492597
| 34> H 1.4282192368 2.2206358225 2.2589762533
| 35> H 3.7483599713 3.094149812 2.357196184
| 36> H 3.6794060078 1.7208099249 1.2379333117
| 37> H 3.7431139795 3.3705651554 0.6068547173
| 38> H -5.1020177296 -0.7350447753 -1.1297059594
| 39> H -3.5842027941 -0.6207140942 -2.07407012
| 40> H -4.2083062107 0.8130550046 -1.2079481015
| 41> H -1.4321450673 -2.436178549 2.8740475403
| 42> H -1.0628583844 -2.6183868783 1.1329003821
| 43> H -2.7633466054 -2.6107414117 1.6831313335
| 44> *
| 45>
| 46>                          ****END OF INPUT****

CARTESIAN COORDINATES (ANGSTROEM)
---------------------------------
  C      1.916961   -3.308878    0.241039
  C      2.864007   -2.858429   -0.860245
  O      2.255934   -1.805579   -1.631068
  C      2.437955   -0.559857   -1.253625
  O      3.164465   -0.206068   -0.348976
  C      1.579648    0.397399   -2.059984
  C      0.338167    0.720873   -1.221830
  H     -0.229275    1.535745   -1.676372
  C      0.760500    1.115091    0.184795
  O      0.602435    0.385340    1.143801
  O      1.307835    2.297124    0.196653
  C      1.839459    2.810716    1.435255
  C      3.357172    2.746267    1.407149
  S     -0.742007   -0.743919   -1.093238
  P     -2.036833   -0.016403    0.421347
  S     -2.142060    1.930094    0.608026
  O     -3.426528   -0.690507   -0.008418
  C     -4.119605   -0.274237   -1.190417
  O     -1.789975   -0.777045    1.781243
  C     -1.765072   -2.216337    1.863230
  H      2.374158   -4.111841    0.809230
  H      1.705136   -2.476730    0.911584
  H      0.984765   -3.658044   -0.195268
  H      3.050669   -3.657177   -1.577751
  H      3.804550   -2.489077   -0.441543
  H      1.282209   -0.069840   -2.997206
  H      2.131362    1.321008   -2.234530
  H      1.477625    3.838575    1.493749
  H      1.428219    2.220636    2.258976
  H      3.748360    3.094150    2.357196
  H      3.679406    1.720810    1.237933
  H      3.743114    3.370565    0.606855
  H     -5.102018   -0.735045   -1.129706
  H     -3.584203   -0.620714   -2.074070
  H     -4.208306    0.813055   -1.207948
  H     -1.432145   -2.436179    2.874048
  H     -1.062858   -2.618387    1.132900
  H     -2.763347   -2.610741    1.683131

 Total Charge           Charge          ....    0
 Multiplicity           Mult            ....    1
 Number of Electrons    NEL             ....  174
 Basis Dimension        Dim             ....  510

ORBITAL ENERGIES
----------------

  NO   OCC          E(Eh)            E(eV)
   0   2.0000     -88.572388     -2410.1772
   1   2.0000     -88.511294     -2408.5148
   2   2.0000     -76.909028     -2092.8011
   3   2.0000     -19.008193      -517.2392
   4   2.0000     -19.000180      -517.0212
   5   2.0000     -18.985630      -516.6253
   6   2.0000     -18.985559      -516.6233
   7   2.0000     -18.939185      -515.3614
   8   2.0000     -18.927620      -515.0467
   9   2.0000     -10.165277      -276.6112
  10   2.0000     -10.159531      -276.4549
  11   2.0000     -10.098411      -274.7917
  12   2.0000     -10.097199      -274.7588
  13   2.0000     -10.092131      -274.6208
  14   2.0000     -10.087392      -274.4919
  15   2.0000     -10.085173      -274.4315
  16   2.0000     -10.067981      -273.9637
  17   2.0000     -10.030775      -272.9513
  18   2.0000     -10.018779      -272.6248
  19   2.0000      -7.866791      -214.0663
  20   2.0000      -7.806219      -212.4180
  21   2.0000      -6.587132      -179.2450
  22   2.0000      -5.813661      -158.1978
  23   2.0000      -5.810625      -158.1152
  24   2.0000      -5.803910      -157.9324
  25   2.0000      -5.754111      -156.5773
  26   2.0000      -5.746466      -156.3693
  27   2.0000      -5.745980      -156.3561
  28   2.0000      -4.732855      -128.7875
  29   2.0000      -4.732233      -128.7706
  30   2.0000      -4.730599      -128.7261
  31   2.0000      -1.085806       -29.5463
  32   2.0000      -1.078125       -29.3373
  33   2.0000      -1.044457       -28.4211
  34   2.0000      -1.001814       -27.2607
  35   2.0000      -0.988869       -26.9085
  36   2.0000      -0.980881       -26.6911
  37   2.0000      -0.814114       -22.1532
  38   2.0000      -0.754769       -20.5383
  39   2.0000      -0.741059       -20.1652
  40   2.0000      -0.729035       -19.8381
  41   2.0000      -0.696133       -18.9427
  42   2.0000      -0.671517       -18.2729
  43   2.0000      -0.655938       -17.8490
  44   2.0000      -0.648654       -17.6508
  45   2.0000      -0.627933       -17.0869
  46   2.0000      -0.592276       -16.1166
  47   2.0000      -0.536192       -14.5905
  48   2.0000      -0.534749       -14.5513
  49   2.0000      -0.519327       -14.1316
  50   2.0000      -0.506153       -13.7731
  51   2.0000      -0.488623       -13.2961
  52   2.0000      -0.484193       -13.1756
  53   2.0000      -0.470428       -12.8010
  54   2.0000      -0.449395       -12.2287
  55   2.0000      -0.448503       -12.2044
  56   2.0000      -0.445127       -12.1125
  57   2.0000      -0.443214       -12.0605
  58   2.0000      -0.433437       -11.7944
  59   2.0000      -0.428299       -11.6546
  60   2.0000      -0.419618       -11.4184
  61   2.0000      -0.415024       -11.2934
  62   2.0000      -0.410083       -11.1589
  63   2.0000      -0.397110       -10.8059
  64   2.0000      -0.394243       -10.7279
  65   2.0000      -0.390879       -10.6364
  66   2.0000      -0.373795       -10.1715
  67   2.0000      -0.365813        -9.9543
  68   2.0000      -0.357508        -9.7283
  69   2.0000      -0.348847        -9.4926
  70   2.0000      -0.346617        -9.4319
  71   2.0000      -0.343107        -9.3364
  72   2.0000      -0.341664        -9.2972
  73   2.0000      -0.326467        -8.8836
  74   2.0000      -0.315573        -8.5872
  75   2.0000      -0.314530        -8.5588
  76   2.0000      -0.308117        -8.3843
  77   2.0000      -0.303011        -8.2454
  78   2.0000      -0.284622        -7.7450
  79   2.0000      -0.280574        -7.6348
  80   2.0000      -0.271986        -7.4011
  81   2.0000      -0.268542        -7.3074
  82   2.0000      -0.250876        -6.8267
  83   2.0000      -0.241359        -6.5677
  84   2.0000      -0.231864        -6.3094
  85   2.0000      -0.211047        -5.7429
  86   2.0000      -0.207949        -5.6586
  87   0.0000      -0.039289        -1.0691
  88   0.0000      -0.029893        -0.8134
  89   0.0000      -0.015828        -0.4307
  90   0.0000       0.006253         0.1701
  91   0.0000       0.021952         0.5973

MULLIKEN ATOMIC CHARGES
-----------------------
   0 C :   -0.481521
   1 C :   -0.137736
   2 O :   -0.143088
   3 C :    0.346761
   4 O :   -0.385872
   5 C :   -0.405065
   6 C :    0.014811
   7 H :    0.232263
   8 C :    0.286770
   9 O :   -0.409430
  10 O :   -0.129879
  11 C :   -0.174223
  12 C :   -0.466384
  13 S :   -0.214008
  14 P :    0.783844
  15 S :   -0.446470
  16 O :   -0.357526
  17 C :   -0.301494
  18 O :   -0.291096
  19 C :   -0.289413
  20 H :    0.146729
  21 H :    0.192156
  22 H :    0.150433
  23 H :    0.149305
  24 H :    0.171985
  25 H :    0.179960
  26 H :    0.194271
  27 H :    0.150036
  28 H :    0.187270
  29 H :    0.143829
  30 H :    0.188021
  31 H :    0.146375
  32 H :    0.150495
  33 H :    0.156601
  34 H :    0.175521
  35 H :    0.158897
  36 H :    0.161224
  37 H :    0.165646
Sum of atomic charges:    0.0000000

LOEWDIN ATOMIC CHARGES
----------------------
   0 C :   -0.394408
   1 C :    0.032374
   2 O :   -0.585468
   3 C :    0.353717
   4 O :   -0.425715
   5 C :   -0.198334
   6 C :   -0.196116
   7 H :    0.201449
   8 C :    0.320742
   9 O :   -0.456215
  10 O :   -0.562966
  11 C :    0.036656
  12 C :   -0.388711
  13 S :    0.207797
  14 P :    0.406060
  15 S :   -0.066244
  16 O :   -0.687781
  17 C :   -0.063309
  18 O :   -0.635070
  19 C :   -0.048717
  20 H :    0.158011
  21 H :    0.173283
  22 H :    0.156884
  23 H :    0.178733
  24 H :    0.190436
  25 H :    0.186350
  26 H :    0.194331
  27 H :    0.179047
  28 H :    0.196724
  29 H :    0.157063
  30 H :    0.177314
  31 H :    0.155642
  32 H :    0.176113
  33 H :    0.167853
  34 H :    0.176483
  35 H :    0.181455
  36 H :    0.172445
  37 H :    0.172095

  Mayer bond orders larger than 0.100000
B(  0-C ,  1-C ) :   0.9361 B(  0-C , 20-H ) :   0.9627 B(  0-C , 21-H ) :   0.9629
B(  0-C , 22-H ) :   0.9694 B(  1-C ,  2-O ) :   0.8077 B(  1-C , 23-H ) :   0.9620
B(  1-C , 24-H ) :   0.9689 B(  2-O ,  3-C ) :   1.0791 B(  3-C ,  4-O ) :   1.7846
B(  3-C ,  5-C ) :   0.9242 B(  4-O ,  8-C ) :   0.1006 B(  5-C ,  6-C ) :   0.8724
B(  5-C , 25-H ) :   0.9814 B(  5-C , 26-H ) :   0.9648 B(  6-C ,  7-H ) :   0.9293
B(  6-C ,  8-C ) :   0.8850 B(  6-C , 13-S ) :   0.9232 B(  8-C ,  9-O ) :   1.7208
B(  8-C , 10-O ) :   1.1263 B( 10-O , 11-C ) :   0.7836 B( 11-C , 12-C ) :   0.9371
B( 11-C , 27-H ) :   0.9583 B( 11-C , 28-H ) :   0.9759 B( 12-C , 29-H ) :   0.9680
B( 12-C , 30-H ) :   0.9624 B( 12-C , 31-H ) :   0.9733 B( 13-S , 14-P ) :   0.9860
B( 14-P , 15-S ) :   1.7659 B( 14-P , 16-O ) :   1.0043 B( 14-P , 18-O ) :   1.1876
B( 16-O , 17-C ) :   0.8343 B( 17-C , 32-H ) :   0.9685 B( 17-C , 33-H ) :   0.9570
B( 17-C , 34-H ) :   0.9587 B( 18-O , 19-C ) :   0.7956 B( 19-C , 35-H ) :   0.9653
B( 19-C , 36-H ) :   0.9590 B( 19-C , 37-H ) :   0.9625

Dispersion correction           -0.018152686
FINAL SINGLE POINT ENERGY     -1981.447626592046

DIPOLE MOMENT
-------------

Method             : SCF
Type of density    : Electron Density
Multiplicity       :   1
Irrep              :   0
Energy             : -1981.4669733617520251 Eh
Relativity type    :
Basis              : AO
                                X                 Y                 Z
Electronic contribution:    -11.910566304       5.978543182      -2.271452081
Nuclear contribution   :     12.280335206      -7.132718258       1.372342041
                        -----------------------------------------
Total Dipole Moment    :      0.369768901      -1.154175076      -0.899110040
                        -----------------------------------------
Magnitude (a.u.)       :      1.509055337
Magnitude (Debye)      :      3.835713837

Rotational constants in cm-1:             0.012576             0.008376             0.006438
Rotational constants in MHz :           377.013340           251.099200           193.016689

                             ****ORCA TERMINATED NORMALLY****
TOTAL RUN TIME: 0 days 0 hours 1 minutes 19 seconds 102 msec
