                         Program Version 6.0.1  -  RELEASE   -
|  1> ! r2scan-3c def2/J RI DEFGRID2 scfconv6 printgap
|  2> %output
|  3>     printlevel normal
|  4> end
|  5> %cpcm
|  6>     smd true
|  7>     smdsolvent "water"
|  8> end
|  9> * xyz 0 1
| 10> C 1.916961451 -3.3088779842 0.2410391552
| 11> C 2.8640067866 -2.8584293462 -0.8602446273
| 12> O 2.255933528 -1.8055788925 -1.6310681806
| 13> C 2.4379550548 -0.5598574755 -1.253625453
| 14> O 3.1644650038 -0.2060675102 -0.3489756663
| 15> C 1.5796483712 0.3973993813 -2.0599837262
| 16> C 0.3381672908 0.7208732532 -1.2218300612
| 17> H -0.2292753063 1.5357450744 -1.6763724457
| 18> C 0.7605000818 1.115091249 0.1847951498
| 19> O 0.6024353707 0.3853403242 1.1438011557
| 20> O 1.3078349076 2.2971235566 0.1966527566
| 21> C 1.8394590278 2.8107161112 1.4352549491
| 22> C 3.3571721294 2.7462665028 1.4071494368
| 23> S -0.7420065038 -0.7439193042 -1.0932382362
| 24> P -2.0368329991 -0.0164030476 0.4213472406
| 25> S -2.1420595157 1.9300939742 0.6080264971
| 26> O -3.4265281548 -0.690506567 -0.0084175782
| 27> C -4.1196054242 -0.2742366487 -1.1904169375
| 28> O -1.7899751189 -0.7770445661 1.7812429344
| 29> C -1.765071971 -2.2163371392 1.8632302311
| 30> H 2.3741579039 -4.1118408928 0.8092304114
| 31> H 1.7051360391 -2.4767303097 0.9115843979
| 32> H 0.9847650627 -3.6580440331 -0.1952675702
| 33> H 3.0506685719 -3.6571772696 -1.5777510618
| 34> H 3.8045503612 -2.4890771058 -0.4415427064
| 35> H 1.2822092267 -0.0698400546 -2.9972058723
| 36> H 2.1313619427 1.321007786 -2.2345297217
| 37> H 1.4776254397 3.838574776 1.4937492597
| 38> H 1.4282192368 2.2206358225 2.2589762533
| 39> H 3.7483599713 3.094149812 2.357196184
| 40> H 3.6794060078 1.7208099249 1.2379333117
| 41> H 3.7431139795 3.3705651554 0.6068547173
| 42> H -5.1020177296 -0.7350447753 -1.1297059594
| 43> H -3.5842027941 -0.6207140942 -2.07407012
| 44> H -4.2083062107 0.8130550046 -1.2079481015
| 45> H -1.4321450673 -2.436178549 2.8740475403
| 46> H -1.0628583844 -2.6183868783 1.1329003821
| 47> H -2.7633466054 -2.6107414117 1.6831313335
| 48> *
| 49>
| 50>                          ****END OF INPUT****

CARTESIAN COORDINATES (ANGSTROEM)
---------------------------------
  C      1.916961   -3.308878    0.241039
  C      2.864007   -2.858429   -0.860245
  O      2.255934   -1.805579   -1.631068
  C      2.437955   -0.559857   -1.253625
  O      3.164465   -0.206068   -0.348976
  C      1.579648    0.397399   -2.059984
  C      0.338167    0.720873   -1.221830
  H     -0.229275    1.535745   -1.676372
  C      0.760500    1.115091    0.184795
  O      0.602435    0.385340    1.143801
  O      1.307835    2.297124    0.196653
  C      1.839459    2.810716    1.435255
  C      3.357172    2.746267    1.407149
  S     -0.742007   -0.743919   -1.093238
  P     -2.036833   -0.016403    0.421347
  S     -2.142060    1.930094    0.608026
  O     -3.426528   -0.690507   -0.008418
  C     -4.119605   -0.274237   -1.190417
  O     -1.789975   -0.777045    1.781243
  C     -1.765072   -2.216337    1.863230
  H      2.374158   -4.111841    0.809230
  H      1.705136   -2.476730    0.911584
  H      0.984765   -3.658044   -0.195268
  H      3.050669   -3.657177   -1.577751
  H      3.804550   -2.489077   -0.441543
  H      1.282209   -0.069840   -2.997206
  H      2.131362    1.321008   -2.234530
  H      1.477625    3.838575    1.493749
  H      1.428219    2.220636    2.258976
  H      3.748360    3.094150    2.357196
  H      3.679406    1.720810    1.237933
  H      3.743114    3.370565    0.606855
  H     -5.102018   -0.735045   -1.129706
  H     -3.584203   -0.620714   -2.074070
  H     -4.208306    0.813055   -1.207948
  H     -1.432145   -2.436179    2.874048
  H     -1.062858   -2.618387    1.132900
  H     -2.763347   -2.610741    1.683131

 Total Charge           Charge          ....    0
 Multiplicity           Mult            ....    1
 Number of Electrons    NEL             ....  174
 Basis Dimension        Dim             ....  510

ORBITAL ENERGIES
----------------

  NO   OCC          E(Eh)            E(eV)
   0   2.0000     -88.578466     -2410.3426
   1   2.0000     -88.527505     -2408.9559
   2   2.0000     -76.920543     -2093.1144
   3   2.0000     -19.012937      -517.3683
   4   2.0000     -19.010451      -517.3007
   5   2.0000     -18.996951      -516.9333
   6   2.0000     -18.992294      -516.8066
   7   2.0000     -18.950310      -515.6642
   8   2.0000     -18.947704      -515.5932
   9   2.0000     -10.175690      -276.8946
  10   2.0000     -10.172180      -276.7991
  11   2.0000     -10.100824      -274.8574
  12   2.0000     -10.086995      -274.4811
  13   2.0000     -10.086241      -274.4606
  14   2.0000     -10.085051      -274.4282
  15   2.0000     -10.080563      -274.3061
  16   2.0000     -10.061873      -273.7975
  17   2.0000     -10.019417      -272.6422
  18   2.0000     -10.018565      -272.6190
  19   2.0000      -7.872805      -214.2299
  20   2.0000      -7.822775      -212.8685
  21   2.0000      -6.598803      -179.5626
  22   2.0000      -5.819715      -158.3625
  23   2.0000      -5.816684      -158.2800
  24   2.0000      -5.809845      -158.0939
  25   2.0000      -5.770534      -157.0242
  26   2.0000      -5.763047      -156.8205
  27   2.0000      -5.762575      -156.8076
  28   2.0000      -4.744490      -129.1041
  29   2.0000      -4.743820      -129.0859
  30   2.0000      -4.742399      -129.0472
  31   2.0000      -1.093766       -29.7629
  32   2.0000      -1.088176       -29.6108
  33   2.0000      -1.053537       -28.6682
  34   2.0000      -1.009854       -27.4795
  35   2.0000      -1.000563       -27.2267
  36   2.0000      -0.997313       -27.1383
  37   2.0000      -0.816575       -22.2201
  38   2.0000      -0.751335       -20.4449
  39   2.0000      -0.745716       -20.2920
  40   2.0000      -0.730138       -19.8681
  41   2.0000      -0.695906       -18.9366
  42   2.0000      -0.669657       -18.2223
  43   2.0000      -0.660016       -17.9599
  44   2.0000      -0.655198       -17.8289
  45   2.0000      -0.624532       -16.9944
  46   2.0000      -0.593718       -16.1559
  47   2.0000      -0.539870       -14.6906
  48   2.0000      -0.531572       -14.4648
  49   2.0000      -0.523843       -14.2545
  50   2.0000      -0.509547       -13.8655
  51   2.0000      -0.492221       -13.3940
  52   2.0000      -0.488755       -13.2997
  53   2.0000      -0.471535       -12.8311
  54   2.0000      -0.459703       -12.5092
  55   2.0000      -0.456857       -12.4317
  56   2.0000      -0.450886       -12.2692
  57   2.0000      -0.446976       -12.1628
  58   2.0000      -0.440080       -11.9752
  59   2.0000      -0.427522       -11.6335
  60   2.0000      -0.420457       -11.4412
  61   2.0000      -0.414014       -11.2659
  62   2.0000      -0.408612       -11.1189
  63   2.0000      -0.396907       -10.8004
  64   2.0000      -0.393440       -10.7060
  65   2.0000      -0.391931       -10.6650
  66   2.0000      -0.371055       -10.0969
  67   2.0000      -0.367604       -10.0030
  68   2.0000      -0.357224        -9.7205
  69   2.0000      -0.353577        -9.6213
  70   2.0000      -0.350659        -9.5419
  71   2.0000      -0.345950        -9.4138
  72   2.0000      -0.341728        -9.2989
  73   2.0000      -0.328046        -8.9266
  74   2.0000      -0.319565        -8.6958
  75   2.0000      -0.314979        -8.5710
  76   2.0000      -0.308936        -8.4066
  77   2.0000      -0.306765        -8.3475
  78   2.0000      -0.291361        -7.9283
  79   2.0000      -0.284646        -7.7456
  80   2.0000      -0.281916        -7.6713
  81   2.0000      -0.278082        -7.5670
  82   2.0000      -0.265363        -7.2209
  83   2.0000      -0.254328        -6.9206
  84   2.0000      -0.242609        -6.6017
  85   2.0000      -0.227199        -6.1824
  86   2.0000      -0.225060        -6.1242
  87   0.0000      -0.048264        -1.3133
  88   0.0000      -0.036265        -0.9868
  89   0.0000      -0.029748        -0.8095
  90   0.0000       0.001253         0.0341
  91   0.0000       0.012716         0.3460

MULLIKEN ATOMIC CHARGES
-----------------------
   0 C :   -0.502938
   1 C :   -0.138608
   2 O :   -0.154451
   3 C :    0.376524
   4 O :   -0.456905
   5 C :   -0.442346
   6 C :    0.038329
   7 H :    0.262156
   8 C :    0.273292
   9 O :   -0.461853
  10 O :   -0.150194
  11 C :   -0.158989
  12 C :   -0.501968
  13 S :   -0.202405
  14 P :    0.784365
  15 S :   -0.496496
  16 O :   -0.386619
  17 C :   -0.306541
  18 O :   -0.342090
  19 C :   -0.296400
  20 H :    0.171593
  21 H :    0.172347
  22 H :    0.169783
  23 H :    0.177388
  24 H :    0.176967
  25 H :    0.213695
  26 H :    0.230224
  27 H :    0.177434
  28 H :    0.185712
  29 H :    0.170673
  30 H :    0.171402
  31 H :    0.169749
  32 H :    0.178960
  33 H :    0.174356
  34 H :    0.176751
  35 H :    0.184034
  36 H :    0.179178
  37 H :    0.183891
Sum of atomic charges:    0.0000000

LOEWDIN ATOMIC CHARGES
----------------------
   0 C :   -0.394233
   1 C :    0.037511
   2 O :   -0.584963
   3 C :    0.360607
   4 O :   -0.474949
   5 C :   -0.185999
   6 C :   -0.189126
   7 H :    0.212646
   8 C :    0.321191
   9 O :   -0.503530
  10 O :   -0.568516
  11 C :    0.040526
  12 C :   -0.390374
  13 S :    0.221714
  14 P :    0.402676
  15 S :   -0.105594
  16 O :   -0.698299
  17 C :   -0.056854
  18 O :   -0.667947
  19 C :   -0.041172
  20 H :    0.167465
  21 H :    0.164461
  22 H :    0.162884
  23 H :    0.191032
  24 H :    0.192047
  25 H :    0.199743
  26 H :    0.206005
  27 H :    0.190648
  28 H :    0.195845
  29 H :    0.167736
  30 H :    0.169077
  31 H :    0.162658
  32 H :    0.188315
  33 H :    0.175707
  34 H :    0.177226
  35 H :    0.191812
  36 H :    0.180561
  37 H :    0.181462

  Mayer bond orders larger than 0.100000
B(  0-C ,  1-C ) :   0.9254 B(  0-C , 20-H ) :   0.9579 B(  0-C , 21-H ) :   0.9670
B(  0-C , 22-H ) :   0.9662 B(  1-C ,  2-O ) :   0.7920 B(  1-C , 23-H ) :   0.9516
B(  1-C , 24-H ) :   0.9650 B(  2-O ,  3-C ) :   1.0973 B(  3-C ,  4-O ) :   1.7263
B(  3-C ,  5-C ) :   0.8998 B(  5-C ,  6-C ) :   0.8449 B(  5-C , 25-H ) :   0.9755
B(  5-C , 26-H ) :   0.9680 B(  6-C ,  7-H ) :   0.9154 B(  6-C ,  8-C ) :   0.8887
B(  6-C , 13-S ) :   0.9025 B(  8-C ,  9-O ) :   1.6763 B(  8-C , 10-O ) :   1.1239
B( 10-O , 11-C ) :   0.7696 B( 11-C , 12-C ) :   0.9314 B( 11-C , 27-H ) :   0.9476
B( 11-C , 28-H ) :   0.9663 B( 12-C , 29-H ) :   0.9612 B( 12-C , 30-H ) :   0.9655
B( 12-C , 31-H ) :   0.9710 B( 13-S , 14-P ) :   1.0121 B( 14-P , 15-S ) :   1.7575
B( 14-P , 16-O ) :   1.0114 B( 14-P , 18-O ) :   1.1789 B( 16-O , 17-C ) :   0.8262
B( 17-C , 32-H ) :   0.9580 B( 17-C , 33-H ) :   0.9501 B( 17-C , 34-H ) :   0.9548
B( 18-O , 19-C ) :   0.7872 B( 19-C , 35-H ) :   0.9546 B( 19-C , 36-H ) :   0.9472
B( 19-C , 37-H ) :   0.9530

Dispersion correction           -0.018152686
FINAL SINGLE POINT ENERGY     -1981.462993514381

DIPOLE MOMENT
-------------

Method             : SCF
Type of density    : Electron Density
Multiplicity       :   1
Irrep              :   0
Energy             : -1981.4823402840872859 Eh
Relativity type    :
Basis              : AO
                                X                 Y                 Z
Electronic contribution:    -11.902429706       5.587112269      -3.066668418
Nuclear contribution   :     12.280335206      -7.132718258       1.372342041
                        -----------------------------------------
Total Dipole Moment    :      0.377905500      -1.545605988      -1.694326377
                        -----------------------------------------
Magnitude (a.u.)       :      2.324317601
Magnitude (Debye)      :      5.907945830

Rotational constants in cm-1:             0.012576             0.008376             0.006438
Rotational constants in MHz :           377.013340           251.099200           193.016689

                             ****ORCA TERMINATED NORMALLY****
TOTAL RUN TIME: 0 days 0 hours 2 minutes 2 seconds 2 msec
