                         Program Version 6.0.0  -   RELEASE  -
|  1> ! pbe def2-sv(p) def2/J RI DEFGRID1 loosescf d4 GCP(DFT/SV(P)) printgap
|  2> %output
|  3>     printlevel normal
|  4> end
|  5> * xyz 0 1
|  6> C 5.3331159849 -0.9915430566 -2.0282041793
|  7> C 3.8385462751 -1.0875790621 -1.7971443821
|  8> O 3.5295175091 -0.3626041439 -0.5926622356
|  9> P 2.0256930252 -0.0318515375 -0.1813742146
| 10> S 1.0132151082 0.8285797619 -1.62657115
| 11> O 2.2710537387 0.7412937553 1.1684850272
| 12> C 2.3688811441 2.1777638749 1.2462822639
| 13> C 3.5734587774 2.703721326 0.4959714708
| 14> S 1.2980997634 -1.8907069458 0.520070636
| 15> C -0.1210473911 -2.1469286115 -0.5998024955
| 16> S -1.7334256937 -2.1804520078 0.2343075126
| 17> P -2.1251178843 -0.1259993542 0.4200169694
| 18> S -0.8989084179 1.012375479 1.4577811443
| 19> O -3.6074865933 -0.1000540099 0.9901369029
| 20> C -3.917061798 -0.1514044604 2.3966805079
| 21> C -5.1857483046 0.6439243194 2.6325869212
| 22> O -2.3424067964 0.2552227977 -1.0948588985
| 23> C -2.5499521777 1.6234712565 -1.5159667726
| 24> C -2.315058757 1.68896308 -3.0096914069
| 25> H 5.8650445253 -1.3993166984 -1.1736242483
| 26> H 5.5928098641 -1.555724352 -2.9178131295
| 27> H 5.625721687 0.0458433721 -2.1624078856
| 28> H 3.5222889589 -2.1265455127 -1.6635346579
| 29> H 3.2740304686 -0.6447084031 -2.6249434716
| 30> H 1.4395760166 2.6084323404 0.8594636933
| 31> H 2.4339715692 2.3712048807 2.3177846022
| 32> H 3.4599037657 2.5073517852 -0.5698662551
| 33> H 3.65372297 3.7749333865 0.6518491981
| 34> H 4.4767709302 2.2139307344 0.8500419063
| 35> H -0.0091452113 -3.1315846196 -1.0449542289
| 36> H -0.1232295821 -1.3604164751 -1.3591768308
| 37> H -4.0471403583 -1.2015269047 2.6682637267
| 38> H -3.0741959313 0.2667753352 2.9577299635
| 39> H -5.4591879867 0.5733705854 3.6802085756
| 40> H -5.0280361115 1.687417273 2.3735925906
| 41> H -5.9905395128 0.2455551795 2.0216325112
| 42> H -3.5729783191 1.9019588612 -1.2535032486
| 43> H -1.848684923 2.265086191 -0.9718171424
| 44> H -1.2800186513 1.4399562172 -3.2317744714
| 45> H -2.9675596315 0.9852814524 -3.517685864
| 46> H -2.522525541 2.6952656234 -3.3579843411
| 47> *
| 48>
| 49>                          ****END OF INPUT****

CARTESIAN COORDINATES (ANGSTROEM)
---------------------------------
  C      5.333116   -0.991543   -2.028204
  C      3.838546   -1.087579   -1.797144
  O      3.529518   -0.362604   -0.592662
  P      2.025693   -0.031852   -0.181374
  S      1.013215    0.828580   -1.626571
  O      2.271054    0.741294    1.168485
  C      2.368881    2.177764    1.246282
  C      3.573459    2.703721    0.495971
  S      1.298100   -1.890707    0.520071
  C     -0.121047   -2.146929   -0.599802
  S     -1.733426   -2.180452    0.234308
  P     -2.125118   -0.125999    0.420017
  S     -0.898908    1.012375    1.457781
  O     -3.607487   -0.100054    0.990137
  C     -3.917062   -0.151404    2.396681
  C     -5.185748    0.643924    2.632587
  O     -2.342407    0.255223   -1.094859
  C     -2.549952    1.623471   -1.515967
  C     -2.315059    1.688963   -3.009691
  H      5.865045   -1.399317   -1.173624
  H      5.592810   -1.555724   -2.917813
  H      5.625722    0.045843   -2.162408
  H      3.522289   -2.126546   -1.663535
  H      3.274030   -0.644708   -2.624943
  H      1.439576    2.608432    0.859464
  H      2.433972    2.371205    2.317785
  H      3.459904    2.507352   -0.569866
  H      3.653723    3.774933    0.651849
  H      4.476771    2.213931    0.850042
  H     -0.009145   -3.131585   -1.044954
  H     -0.123230   -1.360416   -1.359177
  H     -4.047140   -1.201527    2.668264
  H     -3.074196    0.266775    2.957730
  H     -5.459188    0.573371    3.680209
  H     -5.028036    1.687417    2.373593
  H     -5.990540    0.245555    2.021633
  H     -3.572978    1.901959   -1.253503
  H     -1.848685    2.265086   -0.971817
  H     -1.280019    1.439956   -3.231774
  H     -2.967560    0.985281   -3.517686
  H     -2.522526    2.695266   -3.357984

 Total Charge           Charge          ....    0
 Multiplicity           Mult            ....    1
 Number of Electrons    NEL             ....  202
 Basis Dimension        Dim             ....  334

ORBITAL ENERGIES
----------------

  NO   OCC          E(Eh)            E(eV)
   0   2.0000     -88.038726     -2395.6555
   1   2.0000     -88.037840     -2395.6314
   2   2.0000     -87.987290     -2394.2559
   3   2.0000     -87.977279     -2393.9835
   4   2.0000     -76.423551     -2079.5906
   5   2.0000     -76.420169     -2079.4985
   6   2.0000     -18.787874      -511.2441
   7   2.0000     -18.786332      -511.2021
   8   2.0000     -18.785618      -511.1827
   9   2.0000     -18.784488      -511.1519
  10   2.0000      -9.954813      -270.8842
  11   2.0000      -9.948650      -270.7165
  12   2.0000      -9.948393      -270.7095
  13   2.0000      -9.947001      -270.6717
  14   2.0000      -9.944934      -270.6154
  15   2.0000      -9.886098      -269.0144
  16   2.0000      -9.885555      -268.9996
  17   2.0000      -9.879589      -268.8373
  18   2.0000      -9.878954      -268.8200
  19   2.0000      -7.684690      -209.1111
  20   2.0000      -7.683269      -209.0724
  21   2.0000      -7.632008      -207.6775
  22   2.0000      -7.622061      -207.4068
  23   2.0000      -6.420946      -174.7228
  24   2.0000      -6.418060      -174.6443
  25   2.0000      -5.712611      -155.4481
  26   2.0000      -5.711154      -155.4084
  27   2.0000      -5.709136      -155.3535
  28   2.0000      -5.707841      -155.3183
  29   2.0000      -5.701526      -155.1464
  30   2.0000      -5.700116      -155.1080
  31   2.0000      -5.660684      -154.0350
  32   2.0000      -5.653177      -153.8308
  33   2.0000      -5.651829      -153.7941
  34   2.0000      -5.650839      -153.7671
  35   2.0000      -5.642640      -153.5441
  36   2.0000      -5.642407      -153.5377
  37   2.0000      -4.643148      -126.3465
  38   2.0000      -4.642629      -126.3323
  39   2.0000      -4.641831      -126.3106
  40   2.0000      -4.640665      -126.2789
  41   2.0000      -4.639868      -126.2572
  42   2.0000      -4.638372      -126.2165
  43   2.0000      -0.982628       -26.7387
  44   2.0000      -0.982111       -26.7246
  45   2.0000      -0.940564       -25.5940
  46   2.0000      -0.939823       -25.5739
  47   2.0000      -0.758396       -20.6370
  48   2.0000      -0.720493       -19.6056
  49   2.0000      -0.707230       -19.2447
  50   2.0000      -0.685485       -18.6530
  51   2.0000      -0.684703       -18.6317
  52   2.0000      -0.669882       -18.2284
  53   2.0000      -0.647628       -17.6229
  54   2.0000      -0.630801       -17.1650
  55   2.0000      -0.598453       -16.2847
  56   2.0000      -0.584890       -15.9157
  57   2.0000      -0.565983       -15.4012
  58   2.0000      -0.561207       -15.2712
  59   2.0000      -0.556535       -15.1441
  60   2.0000      -0.504627       -13.7316
  61   2.0000      -0.498639       -13.5686
  62   2.0000      -0.478177       -13.0118
  63   2.0000      -0.471860       -12.8400
  64   2.0000      -0.449697       -12.2369
  65   2.0000      -0.440795       -11.9946
  66   2.0000      -0.434559       -11.8250
  67   2.0000      -0.431962       -11.7543
  68   2.0000      -0.429349       -11.6832
  69   2.0000      -0.415155       -11.2969
  70   2.0000      -0.403332       -10.9752
  71   2.0000      -0.394154       -10.7255
  72   2.0000      -0.388738       -10.5781
  73   2.0000      -0.379946       -10.3388
  74   2.0000      -0.377401       -10.2696
  75   2.0000      -0.370891       -10.0925
  76   2.0000      -0.364503        -9.9186
  77   2.0000      -0.354748        -9.6532
  78   2.0000      -0.353997        -9.6327
  79   2.0000      -0.347325        -9.4512
  80   2.0000      -0.343029        -9.3343
  81   2.0000      -0.340395        -9.2626
  82   2.0000      -0.337248        -9.1770
  83   2.0000      -0.332040        -9.0353
  84   2.0000      -0.328807        -8.9473
  85   2.0000      -0.312144        -8.4939
  86   2.0000      -0.308366        -8.3911
  87   2.0000      -0.296914        -8.0794
  88   2.0000      -0.295569        -8.0428
  89   2.0000      -0.287011        -7.8100
  90   2.0000      -0.281168        -7.6510
  91   2.0000      -0.271337        -7.3835
  92   2.0000      -0.267312        -7.2739
  93   2.0000      -0.259133        -7.0514
  94   2.0000      -0.255210        -6.9446
  95   2.0000      -0.235495        -6.4081
  96   2.0000      -0.222392        -6.0516
  97   2.0000      -0.209262        -5.6943
  98   2.0000      -0.204693        -5.5700
  99   2.0000      -0.190894        -5.1945
 100   2.0000      -0.183299        -4.9878
 101   0.0000      -0.036062        -0.9813
 102   0.0000      -0.029012        -0.7895
 103   0.0000      -0.009445        -0.2570
 104   0.0000       0.004587         0.1248
 105   0.0000       0.024983         0.6798

MULLIKEN ATOMIC CHARGES
-----------------------
   0 C :   -0.279255
   1 C :   -0.006704
   2 O :   -0.374120
   3 P :    0.630287
   4 S :   -0.339786
   5 O :   -0.360113
   6 C :   -0.002484
   7 C :   -0.306802
   8 S :   -0.074195
   9 C :   -0.362130
  10 S :   -0.088181
  11 P :    0.624329
  12 S :   -0.334426
  13 O :   -0.383916
  14 C :   -0.008502
  15 C :   -0.284456
  16 O :   -0.368840
  17 C :   -0.001681
  18 C :   -0.288353
  19 H :    0.117335
  20 H :    0.109650
  21 H :    0.117726
  22 H :    0.091656
  23 H :    0.099307
  24 H :    0.120769
  25 H :    0.107019
  26 H :    0.123712
  27 H :    0.110239
  28 H :    0.116627
  29 H :    0.181919
  30 H :    0.200473
  31 H :    0.101644
  32 H :    0.106823
  33 H :    0.111324
  34 H :    0.116837
  35 H :    0.115969
  36 H :    0.098971
  37 H :    0.109306
  38 H :    0.132519
  39 H :    0.112807
  40 H :    0.106695
Sum of atomic charges:   -0.0000000

LOEWDIN ATOMIC CHARGES
----------------------
   0 C :   -0.349978
   1 C :   -0.124619
   2 O :   -0.250781
   3 P :    0.577135
   4 S :   -0.307264
   5 O :   -0.229107
   6 C :   -0.113610
   7 C :   -0.366680
   8 S :    0.084900
   9 C :   -0.479508
  10 S :    0.079980
  11 P :    0.564247
  12 S :   -0.315725
  13 O :   -0.250735
  14 C :   -0.120651
  15 C :   -0.351780
  16 O :   -0.239993
  17 C :   -0.115914
  18 C :   -0.352898
  19 H :    0.127299
  20 H :    0.129577
  21 H :    0.127218
  22 H :    0.103924
  23 H :    0.104588
  24 H :    0.110566
  25 H :    0.121016
  26 H :    0.121461
  27 H :    0.129926
  28 H :    0.126175
  29 H :    0.136883
  30 H :    0.123606
  31 H :    0.112066
  32 H :    0.106520
  33 H :    0.130515
  34 H :    0.127139
  35 H :    0.126157
  36 H :    0.110386
  37 H :    0.109034
  38 H :    0.124352
  39 H :    0.125620
  40 H :    0.128953

  Mayer bond orders larger than 0.100000
B(  0-C ,  1-C ) :   1.1611 B(  0-C , 19-H ) :   0.9506 B(  0-C , 20-H ) :   0.9424
B(  0-C , 21-H ) :   0.9523 B(  1-C ,  2-O ) :   0.9149 B(  1-C , 22-H ) :   0.9217
B(  1-C , 23-H ) :   0.9106 B(  2-O ,  3-P ) :   1.0896 B(  3-P ,  4-S ) :   1.5723
B(  3-P ,  5-O ) :   1.1590 B(  3-P ,  8-S ) :   0.9582 B(  4-S ,  8-S ) :   0.1177
B(  4-S , 30-H ) :   0.1028 B(  5-O ,  6-C ) :   0.8959 B(  6-C ,  7-C ) :   1.1641
B(  6-C , 24-H ) :   0.9154 B(  6-C , 25-H ) :   0.9357 B(  7-C , 26-H ) :   0.9341
B(  7-C , 27-H ) :   0.9380 B(  7-C , 28-H ) :   0.9447 B(  8-S ,  9-C ) :   1.0038
B(  9-C , 10-S ) :   0.9964 B(  9-C , 29-H ) :   0.9122 B(  9-C , 30-H ) :   0.8516
B( 10-S , 11-P ) :   0.9789 B( 10-S , 12-S ) :   0.1146 B( 11-P , 12-S ) :   1.6297
B( 11-P , 13-O ) :   1.1013 B( 11-P , 16-O ) :   1.1327 B( 13-O , 14-C ) :   0.9068
B( 14-C , 15-C ) :   1.1619 B( 14-C , 31-H ) :   0.9328 B( 14-C , 32-H ) :   0.9009
B( 15-C , 33-H ) :   0.9418 B( 15-C , 34-H ) :   0.9508 B( 15-C , 35-H ) :   0.9510
B( 16-O , 17-C ) :   0.8903 B( 17-C , 18-C ) :   1.1651 B( 17-C , 36-H ) :   0.9313
B( 17-C , 37-H ) :   0.9090 B( 18-C , 38-H ) :   0.9440 B( 18-C , 39-H ) :   0.9489
B( 18-C , 40-H ) :   0.9410

Dispersion correction           -0.064650742
FINAL SINGLE POINT ENERGY     -2929.521068462622

DIPOLE MOMENT
-------------

Method             : SCF
Type of density    : Electron Density
Multiplicity       :   1
Irrep              :   0
Energy             : -2929.6396600730122373 Eh
Relativity type    :
Basis              : AO
                                X                 Y                 Z
Electronic contribution:     -3.315363224     -13.383590732       6.898520009
Nuclear contribution   :      3.305027232      13.500401260      -7.229956403
                        -----------------------------------------
Total Dipole Moment    :     -0.010335991       0.116810528      -0.331436393
                        -----------------------------------------
Magnitude (a.u.)       :      0.351570213
Magnitude (Debye)      :      0.893620465

Rotational constants in cm-1:             0.012574             0.004795             0.004676
Rotational constants in MHz :           376.963573           143.741199           140.172798

                             ****ORCA TERMINATED NORMALLY****
TOTAL RUN TIME: 0 days 0 hours 0 minutes 20 seconds 874 msec
