                         Program Version 6.0.0  -   RELEASE  -
|  1> ! pbe def2-sv(p) def2/J RI DEFGRID1 loosescf d4 GCP(DFT/SV(P)) printgap
|  2> %output
|  3>     printlevel normal
|  4> end
|  5> * xyz 0 1
|  6> C 4.6468709616 -1.3957575594 -0.8828381723
|  7> C 4.619575091 0.072698238 -0.5111691581
|  8> O 3.4669350548 0.4092022655 0.279999603
|  9> P 1.9868248058 0.3937056974 -0.3100994587
| 10> S 1.8820997495 1.0353270515 -2.1652946231
| 11> O 1.2309317676 1.2182920682 0.8088606206
| 12> C 1.3159866107 2.6578767025 0.8642838366
| 13> C 0.5050222129 3.1160806071 2.0571973147
| 14> S 1.2828916581 -1.5373259554 0.0991192588
| 15> C 0.0492875059 -1.7218206162 -1.2358551455
| 16> S -1.612249681 -2.0338313144 -0.6098927695
| 17> P -2.0099341988 -0.0938620396 0.1721052887
| 18> S -1.5018355556 1.4183383154 -0.9628769699
| 19> O -1.2937953717 0.0140599086 1.5695927376
| 20> C -1.4726857489 -0.9564127314 2.6345557359
| 21> C -0.2965544984 -0.8276871973 3.5793951738
| 22> O -3.5324676062 -0.2092196598 0.614802458
| 23> C -4.6053872197 -0.7176179791 -0.2003735147
| 24> C -4.7091698882 -0.017747684 -1.538916166
| 25> H 5.5910101609 -1.6251460058 -1.3661994485
| 26> H 4.5338939798 -2.013052608 0.0047387089
| 27> H 3.8342690114 -1.6175183619 -1.573344552
| 28> H 4.6132681846 0.6964769831 -1.4108025698
| 29> H 5.4619079357 0.3448262564 0.1262195839
| 30> H 2.3680955848 2.9418568481 0.9545465801
| 31> H 0.9129661941 3.0591627898 -0.0721824661
| 32> H 0.9199673957 2.6995064796 2.9702926084
| 33> H 0.5241610403 4.1997961162 2.1075012241
| 34> H -0.5226934498 2.7780979926 1.9477136818
| 35> H 0.3166401123 -2.5950104687 -1.8252735486
| 36> H 0.0560840426 -0.8143039368 -1.8465561301
| 37> H -2.4184456403 -0.7313164423 3.1306805481
| 38> H -1.5213634846 -1.9566445057 2.1935545535
| 39> H 0.632267513 -1.0177835415 3.0469986629
| 40> H -0.2605274438 0.1744726052 3.9966525498
| 41> H -0.4044787264 -1.5501937891 4.3817909234
| 42> H -4.448609947 -1.7910862074 -0.3360643435
| 43> H -5.4934259504 -0.5447543197 0.4101001646
| 44> H -5.5774182633 -0.3884953164 -2.0739553261
| 45> H -4.8022005739 1.0569510073 -1.4001333935
| 46> H -3.8172312703 -0.2091415974 -2.1341442312
| 47> *
| 48>
| 49>                          ****END OF INPUT****

CARTESIAN COORDINATES (ANGSTROEM)
---------------------------------
  C      4.646871   -1.395758   -0.882838
  C      4.619575    0.072698   -0.511169
  O      3.466935    0.409202    0.280000
  P      1.986825    0.393706   -0.310099
  S      1.882100    1.035327   -2.165295
  O      1.230932    1.218292    0.808861
  C      1.315987    2.657877    0.864284
  C      0.505022    3.116081    2.057197
  S      1.282892   -1.537326    0.099119
  C      0.049288   -1.721821   -1.235855
  S     -1.612250   -2.033831   -0.609893
  P     -2.009934   -0.093862    0.172105
  S     -1.501836    1.418338   -0.962877
  O     -1.293795    0.014060    1.569593
  C     -1.472686   -0.956413    2.634556
  C     -0.296554   -0.827687    3.579395
  O     -3.532468   -0.209220    0.614802
  C     -4.605387   -0.717618   -0.200374
  C     -4.709170   -0.017748   -1.538916
  H      5.591010   -1.625146   -1.366199
  H      4.533894   -2.013053    0.004739
  H      3.834269   -1.617518   -1.573345
  H      4.613268    0.696477   -1.410803
  H      5.461908    0.344826    0.126220
  H      2.368096    2.941857    0.954547
  H      0.912966    3.059163   -0.072182
  H      0.919967    2.699506    2.970293
  H      0.524161    4.199796    2.107501
  H     -0.522693    2.778098    1.947714
  H      0.316640   -2.595010   -1.825274
  H      0.056084   -0.814304   -1.846556
  H     -2.418446   -0.731316    3.130681
  H     -1.521363   -1.956645    2.193555
  H      0.632268   -1.017784    3.046999
  H     -0.260527    0.174473    3.996653
  H     -0.404479   -1.550194    4.381791
  H     -4.448610   -1.791086   -0.336064
  H     -5.493426   -0.544754    0.410100
  H     -5.577418   -0.388495   -2.073955
  H     -4.802201    1.056951   -1.400133
  H     -3.817231   -0.209142   -2.134144

 Total Charge           Charge          ....    0
 Multiplicity           Mult            ....    1
 Number of Electrons    NEL             ....  202
 Basis Dimension        Dim             ....  334

ORBITAL ENERGIES
----------------

  NO   OCC          E(Eh)            E(eV)
   0   2.0000     -88.047385     -2395.8912
   1   2.0000     -88.043487     -2395.7851
   2   2.0000     -87.980309     -2394.0659
   3   2.0000     -87.978992     -2394.0301
   4   2.0000     -76.423860     -2079.5990
   5   2.0000     -76.419612     -2079.4834
   6   2.0000     -18.794177      -511.4156
   7   2.0000     -18.787378      -511.2306
   8   2.0000     -18.787245      -511.2269
   9   2.0000     -18.778038      -510.9764
  10   2.0000      -9.959546      -271.0130
  11   2.0000      -9.957209      -270.9494
  12   2.0000      -9.950724      -270.7730
  13   2.0000      -9.947335      -270.6808
  14   2.0000      -9.939019      -270.4544
  15   2.0000      -9.882788      -268.9243
  16   2.0000      -9.882352      -268.9125
  17   2.0000      -9.881053      -268.8771
  18   2.0000      -9.873221      -268.6640
  19   2.0000      -7.692386      -209.3205
  20   2.0000      -7.688663      -209.2192
  21   2.0000      -7.625246      -207.4935
  22   2.0000      -7.623942      -207.4580
  23   2.0000      -6.421074      -174.7263
  24   2.0000      -6.417357      -174.6252
  25   2.0000      -5.720124      -155.6525
  26   2.0000      -5.716628      -155.5573
  27   2.0000      -5.716527      -155.5546
  28   2.0000      -5.713191      -155.4638
  29   2.0000      -5.709782      -155.3711
  30   2.0000      -5.705529      -155.2553
  31   2.0000      -5.654159      -153.8575
  32   2.0000      -5.653034      -153.8269
  33   2.0000      -5.646025      -153.6362
  34   2.0000      -5.645275      -153.6157
  35   2.0000      -5.644503      -153.5947
  36   2.0000      -5.643975      -153.5804
  37   2.0000      -4.643876      -126.3663
  38   2.0000      -4.643222      -126.3485
  39   2.0000      -4.641004      -126.2881
  40   2.0000      -4.639696      -126.2526
  41   2.0000      -4.638951      -126.2323
  42   2.0000      -4.638147      -126.2104
  43   2.0000      -0.987069       -26.8595
  44   2.0000      -0.979327       -26.6488
  45   2.0000      -0.942697       -25.6521
  46   2.0000      -0.935586       -25.4586
  47   2.0000      -0.764555       -20.8046
  48   2.0000      -0.719914       -19.5899
  49   2.0000      -0.707903       -19.2630
  50   2.0000      -0.688925       -18.7466
  51   2.0000      -0.681991       -18.5579
  52   2.0000      -0.672963       -18.3122
  53   2.0000      -0.647478       -17.6188
  54   2.0000      -0.631221       -17.1764
  55   2.0000      -0.594629       -16.1807
  56   2.0000      -0.586251       -15.9527
  57   2.0000      -0.568875       -15.4799
  58   2.0000      -0.566314       -15.4102
  59   2.0000      -0.556266       -15.1368
  60   2.0000      -0.505189       -13.7469
  61   2.0000      -0.495777       -13.4908
  62   2.0000      -0.473937       -12.8965
  63   2.0000      -0.466458       -12.6930
  64   2.0000      -0.454451       -12.3662
  65   2.0000      -0.445356       -12.1187
  66   2.0000      -0.434816       -11.8319
  67   2.0000      -0.432467       -11.7680
  68   2.0000      -0.424318       -11.5463
  69   2.0000      -0.419120       -11.4048
  70   2.0000      -0.414462       -11.2781
  71   2.0000      -0.398670       -10.8484
  72   2.0000      -0.388014       -10.5584
  73   2.0000      -0.385142       -10.4803
  74   2.0000      -0.382188       -10.3999
  75   2.0000      -0.364866        -9.9285
  76   2.0000      -0.355743        -9.6803
  77   2.0000      -0.350524        -9.5382
  78   2.0000      -0.348959        -9.4957
  79   2.0000      -0.346041        -9.4163
  80   2.0000      -0.343503        -9.3472
  81   2.0000      -0.341372        -9.2892
  82   2.0000      -0.337438        -9.1822
  83   2.0000      -0.333984        -9.0882
  84   2.0000      -0.324043        -8.8176
  85   2.0000      -0.318640        -8.6706
  86   2.0000      -0.308600        -8.3974
  87   2.0000      -0.297040        -8.0829
  88   2.0000      -0.296574        -8.0702
  89   2.0000      -0.290626        -7.9083
  90   2.0000      -0.277835        -7.5603
  91   2.0000      -0.272362        -7.4114
  92   2.0000      -0.263978        -7.1832
  93   2.0000      -0.261972        -7.1286
  94   2.0000      -0.255243        -6.9455
  95   2.0000      -0.239843        -6.5265
  96   2.0000      -0.220915        -6.0114
  97   2.0000      -0.211742        -5.7618
  98   2.0000      -0.201005        -5.4696
  99   2.0000      -0.191984        -5.2241
 100   2.0000      -0.181950        -4.9511
 101   0.0000      -0.041856        -1.1390
 102   0.0000      -0.031052        -0.8450
 103   0.0000      -0.013758        -0.3744
 104   0.0000       0.013218         0.3597
 105   0.0000       0.020782         0.5655

MULLIKEN ATOMIC CHARGES
-----------------------
   0 C :   -0.310448
   1 C :   -0.002755
   2 O :   -0.379847
   3 P :    0.614053
   4 S :   -0.320630
   5 O :   -0.353223
   6 C :   -0.002614
   7 C :   -0.284401
   8 S :   -0.092788
   9 C :   -0.351360
  10 S :   -0.120491
  11 P :    0.592894
  12 S :   -0.287885
  13 O :   -0.342973
  14 C :   -0.011106
  15 C :   -0.282098
  16 O :   -0.383548
  17 C :   -0.013633
  18 C :   -0.307948
  19 H :    0.111128
  20 H :    0.115100
  21 H :    0.119932
  22 H :    0.110044
  23 H :    0.101966
  24 H :    0.094625
  25 H :    0.113447
  26 H :    0.109222
  27 H :    0.103893
  28 H :    0.127621
  29 H :    0.183127
  30 H :    0.211522
  31 H :    0.104245
  32 H :    0.097588
  33 H :    0.125234
  34 H :    0.119672
  35 H :    0.104727
  36 H :    0.113038
  37 H :    0.109200
  38 H :    0.110672
  39 H :    0.127462
  40 H :    0.127337
Sum of atomic charges:   -0.0000000

LOEWDIN ATOMIC CHARGES
----------------------
   0 C :   -0.369113
   1 C :   -0.121104
   2 O :   -0.249444
   3 P :    0.569404
   4 S :   -0.312697
   5 O :   -0.232523
   6 C :   -0.116509
   7 C :   -0.352769
   8 S :    0.089446
   9 C :   -0.477685
  10 S :    0.065697
  11 P :    0.560685
  12 S :   -0.286976
  13 O :   -0.225668
  14 C :   -0.117765
  15 C :   -0.351732
  16 O :   -0.249115
  17 C :   -0.114877
  18 C :   -0.369104
  19 H :    0.129798
  20 H :    0.122975
  21 H :    0.119239
  22 H :    0.109434
  23 H :    0.117017
  24 H :    0.106167
  25 H :    0.110863
  26 H :    0.121312
  27 H :    0.127342
  28 H :    0.128327
  29 H :    0.137299
  30 H :    0.127877
  31 H :    0.113165
  32 H :    0.100625
  33 H :    0.124337
  34 H :    0.127113
  35 H :    0.127447
  36 H :    0.107442
  37 H :    0.121309
  38 H :    0.129742
  39 H :    0.130935
  40 H :    0.122088

  Mayer bond orders larger than 0.100000
B(  0-C ,  1-C ) :   1.1656 B(  0-C , 19-H ) :   0.9385 B(  0-C , 20-H ) :   0.9449
B(  0-C , 21-H ) :   0.9365 B(  1-C ,  2-O ) :   0.9140 B(  1-C , 22-H ) :   0.9131
B(  1-C , 23-H ) :   0.9338 B(  2-O ,  3-P ) :   1.0948 B(  3-P ,  4-S ) :   1.6050
B(  3-P ,  5-O ) :   1.1484 B(  3-P ,  8-S ) :   0.9625 B(  4-S ,  8-S ) :   0.1166
B(  5-O ,  6-C ) :   0.8950 B(  6-C ,  7-C ) :   1.1659 B(  6-C , 24-H ) :   0.9264
B(  6-C , 25-H ) :   0.9151 B(  7-C , 26-H ) :   0.9476 B(  7-C , 27-H ) :   0.9405
B(  7-C , 28-H ) :   0.9418 B(  8-S ,  9-C ) :   0.9931 B(  9-C , 10-S ) :   1.0058
B(  9-C , 29-H ) :   0.9112 B(  9-C , 30-H ) :   0.8445 B( 10-S , 11-P ) :   0.9317
B( 10-S , 12-S ) :   0.1049 B( 11-P , 12-S ) :   1.6593 B( 11-P , 13-O ) :   1.1389
B( 11-P , 16-O ) :   1.0798 B( 13-O , 14-C ) :   0.8881 B( 14-C , 15-C ) :   1.1665
B( 14-C , 31-H ) :   0.9309 B( 14-C , 32-H ) :   0.9095 B( 15-C , 33-H ) :   0.9436
B( 15-C , 34-H ) :   0.9473 B( 15-C , 35-H ) :   0.9404 B( 16-O , 17-C ) :   0.9161
B( 17-C , 18-C ) :   1.1660 B( 17-C , 36-H ) :   0.9266 B( 17-C , 37-H ) :   0.9335
B( 18-C , 38-H ) :   0.9348 B( 18-C , 39-H ) :   0.9429 B( 18-C , 40-H ) :   0.9321

Dispersion correction           -0.068327879
FINAL SINGLE POINT ENERGY     -2929.520116436539

DIPOLE MOMENT
-------------

Method             : SCF
Type of density    : Electron Density
Multiplicity       :   1
Irrep              :   0
Energy             : -2929.6376338095410574 Eh
Relativity type    :
Basis              : AO
                                X                 Y                 Z
Electronic contribution:     -0.737657924      -1.781487753      -9.837908812
Nuclear contribution   :      0.484610668       0.814542510      10.814784610
                        -----------------------------------------
Total Dipole Moment    :     -0.253047256      -0.966945244       0.976875798
                        -----------------------------------------
Magnitude (a.u.)       :      1.397605932
Magnitude (Debye)      :      3.552431963

Rotational constants in cm-1:             0.012122             0.005557             0.005397
Rotational constants in MHz :           363.406810           166.582982           161.785868

                             ****ORCA TERMINATED NORMALLY****
TOTAL RUN TIME: 0 days 0 hours 0 minutes 22 seconds 461 msec
