                         Program Version 6.0.0  -   RELEASE  -
|  1> ! pbe def2-sv(p) def2/J RI DEFGRID1 loosescf d4 GCP(DFT/SV(P)) printgap
|  2> %output
|  3>     printlevel normal
|  4> end
|  5> * xyz 0 1
|  6> C 5.7233687 -0.1970187787 -0.1343206957
|  7> C 4.3328337409 -0.6391776237 -0.5426969904
|  8> O 3.3914855178 0.3163855463 -0.0135723687
|  9> P 1.8956003091 0.381230041 -0.5514370077
| 10> S 1.7329926604 0.5311814461 -2.4934703556
| 11> O 1.3253364421 1.6091336057 0.248076244
| 12> C 1.4702678519 1.749551722 1.6840775418
| 13> C 2.6046531754 2.6966914126 2.0135006895
| 14> S 1.0869378349 -1.3964206172 0.2976020767
| 15> C -0.1319250018 -1.8630480207 -0.969548192
| 16> S -1.8106870571 -2.0047660275 -0.3195622975
| 17> P -2.1204677296 0.046704373 0.1492534638
| 18> S -1.5077110793 1.3494767823 -1.1781777885
| 19> O -1.4569234894 0.2546097567 1.566984035
| 20> C -1.8974384567 -0.5138534062 2.7243897521
| 21> C -0.6958220089 -0.8369129827 3.587247954
| 22> O -3.6667613137 0.1123278991 0.5122782765
| 23> C -4.6939490637 0.3396370585 -0.4692426578
| 24> C -4.8051017925 -0.7989508616 -1.4620632392
| 25> H 5.9373045983 0.7866015164 -0.5432459293
| 26> H 5.7976122656 -0.1542796293 0.9484028929
| 27> H 6.4481321302 -0.9080586733 -0.5166020826
| 28> H 4.087924437 -1.6218718699 -0.1306833991
| 29> H 4.2221819827 -0.6681035312 -1.6316868605
| 30> H 0.5060216654 2.14073868 2.0157580896
| 31> H 1.6370582902 0.7604816379 2.1196860955
| 32> H 2.6483587607 2.836741066 3.0890664828
| 33> H 3.5483433776 2.287049675 1.6633015002
| 34> H 2.4387338837 3.6564006672 1.5313906963
| 35> H 0.13063712 -2.8494456436 -1.3432760165
| 36> H -0.0971313568 -1.1170562637 -1.7687781901
| 37> H -2.6221529069 0.1060777854 3.2540909229
| 38> H -2.3889858534 -1.4252113847 2.3728415046
| 39> H -0.2125961455 0.0772292531 3.9193536454
| 40> H -1.0302249703 -1.3998363463 4.4527756096
| 41> H 0.0197792358 -1.4351050323 3.0284197109
| 42> H -5.6008213255 0.4446077696 0.1279992522
| 43> H -4.4749539008 1.2796449756 -0.9848521385
| 44> H -4.9004802677 -1.7487218958 -0.941830847
| 45> H -5.6759852773 -0.6414001858 -2.0902080362
| 46> H -3.9183073159 -0.8299954183 -2.0936261659
| 47> *
| 48>
| 49>                          ****END OF INPUT****

CARTESIAN COORDINATES (ANGSTROEM)
---------------------------------
  C      5.723369   -0.197019   -0.134321
  C      4.332834   -0.639178   -0.542697
  O      3.391486    0.316386   -0.013572
  P      1.895600    0.381230   -0.551437
  S      1.732993    0.531181   -2.493470
  O      1.325336    1.609134    0.248076
  C      1.470268    1.749552    1.684078
  C      2.604653    2.696691    2.013501
  S      1.086938   -1.396421    0.297602
  C     -0.131925   -1.863048   -0.969548
  S     -1.810687   -2.004766   -0.319562
  P     -2.120468    0.046704    0.149253
  S     -1.507711    1.349477   -1.178178
  O     -1.456923    0.254610    1.566984
  C     -1.897438   -0.513853    2.724390
  C     -0.695822   -0.836913    3.587248
  O     -3.666761    0.112328    0.512278
  C     -4.693949    0.339637   -0.469243
  C     -4.805102   -0.798951   -1.462063
  H      5.937305    0.786602   -0.543246
  H      5.797612   -0.154280    0.948403
  H      6.448132   -0.908059   -0.516602
  H      4.087924   -1.621872   -0.130683
  H      4.222182   -0.668104   -1.631687
  H      0.506022    2.140739    2.015758
  H      1.637058    0.760482    2.119686
  H      2.648359    2.836741    3.089066
  H      3.548343    2.287050    1.663302
  H      2.438734    3.656401    1.531391
  H      0.130637   -2.849446   -1.343276
  H     -0.097131   -1.117056   -1.768778
  H     -2.622153    0.106078    3.254091
  H     -2.388986   -1.425211    2.372842
  H     -0.212596    0.077229    3.919354
  H     -1.030225   -1.399836    4.452776
  H      0.019779   -1.435105    3.028420
  H     -5.600821    0.444608    0.127999
  H     -4.474954    1.279645   -0.984852
  H     -4.900480   -1.748722   -0.941831
  H     -5.675985   -0.641400   -2.090208
  H     -3.918307   -0.829995   -2.093626

 Total Charge           Charge          ....    0
 Multiplicity           Mult            ....    1
 Number of Electrons    NEL             ....  202
 Basis Dimension        Dim             ....  334

ORBITAL ENERGIES
----------------

  NO   OCC          E(Eh)            E(eV)
   0   2.0000     -88.042525     -2395.7589
   1   2.0000     -88.038806     -2395.6577
   2   2.0000     -87.979950     -2394.0561
   3   2.0000     -87.977511     -2393.9898
   4   2.0000     -76.422448     -2079.5605
   5   2.0000     -76.420052     -2079.4953
   6   2.0000     -18.792033      -511.3572
   7   2.0000     -18.790241      -511.3085
   8   2.0000     -18.789977      -511.3013
   9   2.0000     -18.783782      -511.1327
  10   2.0000      -9.956202      -270.9220
  11   2.0000      -9.952808      -270.8297
  12   2.0000      -9.952361      -270.8175
  13   2.0000      -9.949631      -270.7432
  14   2.0000      -9.949155      -270.7303
  15   2.0000      -9.889280      -269.1010
  16   2.0000      -9.887600      -269.0553
  17   2.0000      -9.883572      -268.9457
  18   2.0000      -9.881435      -268.8875
  19   2.0000      -7.687537      -209.1885
  20   2.0000      -7.683555      -209.0802
  21   2.0000      -7.624844      -207.4825
  22   2.0000      -7.622766      -207.4260
  23   2.0000      -6.419982      -174.6966
  24   2.0000      -6.417548      -174.6303
  25   2.0000      -5.715354      -155.5227
  26   2.0000      -5.711894      -155.4285
  27   2.0000      -5.711344      -155.4136
  28   2.0000      -5.707976      -155.3219
  29   2.0000      -5.704737      -155.2338
  30   2.0000      -5.700723      -155.1246
  31   2.0000      -5.653936      -153.8514
  32   2.0000      -5.651876      -153.7954
  33   2.0000      -5.645287      -153.6161
  34   2.0000      -5.645036      -153.6092
  35   2.0000      -5.643249      -153.5606
  36   2.0000      -5.642815      -153.5488
  37   2.0000      -4.642850      -126.3384
  38   2.0000      -4.641718      -126.3076
  39   2.0000      -4.640352      -126.2704
  40   2.0000      -4.640166      -126.2653
  41   2.0000      -4.639292      -126.2415
  42   2.0000      -4.637810      -126.2012
  43   2.0000      -0.987420       -26.8691
  44   2.0000      -0.984102       -26.7788
  45   2.0000      -0.943137       -25.6641
  46   2.0000      -0.939356       -25.5612
  47   2.0000      -0.759937       -20.6789
  48   2.0000      -0.718481       -19.5509
  49   2.0000      -0.710371       -19.3302
  50   2.0000      -0.689771       -18.7696
  51   2.0000      -0.688622       -18.7384
  52   2.0000      -0.674325       -18.3493
  53   2.0000      -0.646636       -17.5959
  54   2.0000      -0.630611       -17.1598
  55   2.0000      -0.593218       -16.1423
  56   2.0000      -0.583638       -15.8816
  57   2.0000      -0.573274       -15.5996
  58   2.0000      -0.565538       -15.3891
  59   2.0000      -0.562001       -15.2928
  60   2.0000      -0.508936       -13.8488
  61   2.0000      -0.501259       -13.6400
  62   2.0000      -0.476794       -12.9742
  63   2.0000      -0.472811       -12.8658
  64   2.0000      -0.448855       -12.2140
  65   2.0000      -0.444915       -12.1068
  66   2.0000      -0.440402       -11.9839
  67   2.0000      -0.437358       -11.9011
  68   2.0000      -0.431207       -11.7337
  69   2.0000      -0.421687       -11.4747
  70   2.0000      -0.409883       -11.1535
  71   2.0000      -0.392314       -10.6754
  72   2.0000      -0.384694       -10.4681
  73   2.0000      -0.383750       -10.4424
  74   2.0000      -0.377938       -10.2842
  75   2.0000      -0.364420        -9.9164
  76   2.0000      -0.363020        -9.8783
  77   2.0000      -0.360216        -9.8020
  78   2.0000      -0.354643        -9.6503
  79   2.0000      -0.352679        -9.5969
  80   2.0000      -0.347236        -9.4488
  81   2.0000      -0.345860        -9.4113
  82   2.0000      -0.339747        -9.2450
  83   2.0000      -0.336482        -9.1562
  84   2.0000      -0.333535        -9.0760
  85   2.0000      -0.315294        -8.5796
  86   2.0000      -0.312103        -8.4928
  87   2.0000      -0.303772        -8.2661
  88   2.0000      -0.296598        -8.0708
  89   2.0000      -0.292417        -7.9571
  90   2.0000      -0.287321        -7.8184
  91   2.0000      -0.271763        -7.3950
  92   2.0000      -0.266446        -7.2504
  93   2.0000      -0.260787        -7.0964
  94   2.0000      -0.255116        -6.9420
  95   2.0000      -0.233920        -6.3653
  96   2.0000      -0.219714        -5.9787
  97   2.0000      -0.211575        -5.7573
  98   2.0000      -0.198723        -5.4075
  99   2.0000      -0.188915        -5.1406
 100   2.0000      -0.182050        -4.9538
 101   0.0000      -0.037866        -1.0304
 102   0.0000      -0.029553        -0.8042
 103   0.0000      -0.007114        -0.1936
 104   0.0000       0.009487         0.2582
 105   0.0000       0.021675         0.5898

MULLIKEN ATOMIC CHARGES
-----------------------
   0 C :   -0.283104
   1 C :   -0.007621
   2 O :   -0.387195
   3 P :    0.602033
   4 S :   -0.291778
   5 O :   -0.338709
   6 C :   -0.022889
   7 C :   -0.284606
   8 S :   -0.128450
   9 C :   -0.345616
  10 S :   -0.106298
  11 P :    0.576890
  12 S :   -0.270804
  13 O :   -0.357836
  14 C :   -0.010598
  15 C :   -0.292258
  16 O :   -0.384233
  17 C :    0.002234
  18 C :   -0.321257
  19 H :    0.122673
  20 H :    0.113958
  21 H :    0.112063
  22 H :    0.098874
  23 H :    0.103851
  24 H :    0.117679
  25 H :    0.101971
  26 H :    0.104389
  27 H :    0.119625
  28 H :    0.121593
  29 H :    0.179917
  30 H :    0.206719
  31 H :    0.109175
  32 H :    0.103179
  33 H :    0.116870
  34 H :    0.109380
  35 H :    0.131140
  36 H :    0.103251
  37 H :    0.112503
  38 H :    0.116075
  39 H :    0.114468
  40 H :    0.132741
Sum of atomic charges:    0.0000000

LOEWDIN ATOMIC CHARGES
----------------------
   0 C :   -0.351055
   1 C :   -0.123060
   2 O :   -0.251681
   3 P :    0.568362
   4 S :   -0.296129
   5 O :   -0.222242
   6 C :   -0.113056
   7 C :   -0.358929
   8 S :    0.056783
   9 C :   -0.480970
  10 S :    0.070411
  11 P :    0.558362
  12 S :   -0.280336
  13 O :   -0.239898
  14 C :   -0.114071
  15 C :   -0.356311
  16 O :   -0.251386
  17 C :   -0.116167
  18 C :   -0.371685
  19 H :    0.129360
  20 H :    0.124626
  21 H :    0.130822
  22 H :    0.105838
  23 H :    0.108407
  24 H :    0.120525
  25 H :    0.102581
  26 H :    0.127037
  27 H :    0.124983
  28 H :    0.129880
  29 H :    0.136568
  30 H :    0.125845
  31 H :    0.117152
  32 H :    0.103880
  33 H :    0.124537
  34 H :    0.129838
  35 H :    0.122234
  36 H :    0.117932
  37 H :    0.113293
  38 H :    0.122365
  39 H :    0.131811
  40 H :    0.123544

  Mayer bond orders larger than 0.100000
B(  0-C ,  1-C ) :   1.1588 B(  0-C , 19-H ) :   0.9507 B(  0-C , 20-H ) :   0.9508
B(  0-C , 21-H ) :   0.9423 B(  1-C ,  2-O ) :   0.9085 B(  1-C , 22-H ) :   0.9255
B(  1-C , 23-H ) :   0.9086 B(  2-O ,  3-P ) :   1.0642 B(  3-P ,  4-S ) :   1.6483
B(  3-P ,  5-O ) :   1.1507 B(  3-P ,  8-S ) :   0.9450 B(  4-S ,  8-S ) :   0.1147
B(  5-O ,  6-C ) :   0.8922 B(  6-C ,  7-C ) :   1.1583 B(  6-C , 24-H ) :   0.9278
B(  6-C , 25-H ) :   0.9128 B(  7-C , 26-H ) :   0.9405 B(  7-C , 27-H ) :   0.9411
B(  7-C , 28-H ) :   0.9464 B(  8-S ,  9-C ) :   0.9953 B(  9-C , 10-S ) :   0.9989
B(  9-C , 29-H ) :   0.9114 B(  9-C , 30-H ) :   0.8453 B( 10-S , 11-P ) :   0.9376
B( 10-S , 12-S ) :   0.1079 B( 11-P , 12-S ) :   1.6775 B( 11-P , 13-O ) :   1.1173
B( 11-P , 16-O ) :   1.0789 B( 13-O , 14-C ) :   0.8860 B( 14-C , 15-C ) :   1.1661
B( 14-C , 31-H ) :   0.9341 B( 14-C , 32-H ) :   0.9100 B( 15-C , 33-H ) :   0.9450
B( 15-C , 34-H ) :   0.9386 B( 15-C , 35-H ) :   0.9368 B( 16-O , 17-C ) :   0.9071
B( 17-C , 18-C ) :   1.1665 B( 17-C , 36-H ) :   0.9345 B( 17-C , 37-H ) :   0.9174
B( 18-C , 38-H ) :   0.9436 B( 18-C , 39-H ) :   0.9371 B( 18-C , 40-H ) :   0.9341

Dispersion correction           -0.066825720
FINAL SINGLE POINT ENERGY     -2929.517423840369

DIPOLE MOMENT
-------------

Method             : SCF
Type of density    : Electron Density
Multiplicity       :   1
Irrep              :   0
Energy             : -2929.6365474219687712 Eh
Relativity type    :
Basis              : AO
                                X                 Y                 Z
Electronic contribution:     -6.463247615      -0.227111300     -14.261213671
Nuclear contribution   :      6.307861025      -0.701722650      15.960013531
                        -----------------------------------------
Total Dipole Moment    :     -0.155386589      -0.928833950       1.698799860
                        -----------------------------------------
Magnitude (a.u.)       :      1.942369291
Magnitude (Debye)      :      4.937110380

Rotational constants in cm-1:             0.012879             0.005254             0.004867
Rotational constants in MHz :           386.102734           157.507951           145.913746

                             ****ORCA TERMINATED NORMALLY****
TOTAL RUN TIME: 0 days 0 hours 0 minutes 21 seconds 628 msec
