                         Program Version 6.0.0  -   RELEASE  -
|  1> ! pbe def2-sv(p) def2/J RI DEFGRID1 loosescf d4 GCP(DFT/SV(P)) printgap
|  2> %output
|  3>     printlevel normal
|  4> end
|  5> * xyz 0 1
|  6> C 2.061278469 -2.3361061536 2.6032794295
|  7> C 1.1274962163 -1.5041639597 1.7470065852
|  8> O 1.8746874551 -0.5256536594 1.0037103884
|  9> P 2.2439533772 -0.7131404913 -0.5348867006
| 10> S 2.7241713886 -2.5289375193 -1.0820014495
| 11> O 3.3277113013 0.4223739797 -0.7391203814
| 12> C 4.7406126751 0.1609155847 -0.5931822358
| 13> C 5.1131025059 -0.117574278 0.847219444
| 14> S 0.647943571 0.1426909303 -1.6266246816
| 15> C 0.5006038837 1.7361097874 -0.7582950807
| 16> S -0.3218449826 1.6210305415 0.8532698991
| 17> P -2.1102557438 0.7330377898 0.1662429155
| 18> S -2.7833942957 1.3823605757 -1.5616894705
| 19> O -3.0673435448 0.8666291774 1.4257491337
| 20> C -3.6046396945 2.1285488032 1.8728294868
| 21> C -4.9393875661 2.4207122132 1.2149202307
| 22> O -1.753866753 -0.8102296384 0.2403877033
| 23> C -2.3938895538 -1.7769489151 -0.6140853197
| 24> C -3.8349962312 -1.9965317158 -0.2067610081
| 25> H 1.4754815815 -3.0127973368 3.2168384345
| 26> H 2.725663846 -2.9194851017 1.968919415
| 27> H 2.6538697318 -1.6896799576 3.2442647355
| 28> H 0.4257808337 -0.9288741643 2.3553473921
| 29> H 0.5680130532 -2.1393938446 1.0538413412
| 30> H 5.0021102724 -0.6876933 -1.2328632524
| 31> H 5.2126520765 1.0695961462 -0.9691292208
| 32> H 4.6607760678 -1.0538299277 1.1698330884
| 33> H 6.1923279986 -0.1996845839 0.930006968
| 34> H 4.7596216123 0.6848594881 1.4894152517
| 35> H -0.0929802798 2.3675125935 -1.4185610846
| 36> H 1.4885208242 2.1536940451 -0.5862900954
| 37> H -3.7121385061 2.0080271936 2.9523777533
| 38> H -2.8809855991 2.9218613999 1.6650103126
| 39> H -5.6402721446 1.6152588063 1.4158411153
| 40> H -5.3373337403 3.3492908889 1.6112054834
| 41> H -4.8170392993 2.5186003639 0.138508429
| 42> H -2.3272527057 -1.4262959553 -1.6497012684
| 43> H -1.7926986371 -2.6802803057 -0.4975528463
| 44> H -4.3981825972 -1.0753090149 -0.3526318344
| 45> H -4.2697562712 -2.7793217402 -0.8201449426
| 46> H -3.8892129578 -2.2802947762 0.8407923867
| 47> *
| 48>
| 49>                          ****END OF INPUT****

CARTESIAN COORDINATES (ANGSTROEM)
---------------------------------
  C      2.061278   -2.336106    2.603279
  C      1.127496   -1.504164    1.747007
  O      1.874687   -0.525654    1.003710
  P      2.243953   -0.713140   -0.534887
  S      2.724171   -2.528938   -1.082001
  O      3.327711    0.422374   -0.739120
  C      4.740613    0.160916   -0.593182
  C      5.113103   -0.117574    0.847219
  S      0.647944    0.142691   -1.626625
  C      0.500604    1.736110   -0.758295
  S     -0.321845    1.621031    0.853270
  P     -2.110256    0.733038    0.166243
  S     -2.783394    1.382361   -1.561689
  O     -3.067344    0.866629    1.425749
  C     -3.604640    2.128549    1.872829
  C     -4.939388    2.420712    1.214920
  O     -1.753867   -0.810230    0.240388
  C     -2.393890   -1.776949   -0.614085
  C     -3.834996   -1.996532   -0.206761
  H      1.475482   -3.012797    3.216838
  H      2.725664   -2.919485    1.968919
  H      2.653870   -1.689680    3.244265
  H      0.425781   -0.928874    2.355347
  H      0.568013   -2.139394    1.053841
  H      5.002110   -0.687693   -1.232863
  H      5.212652    1.069596   -0.969129
  H      4.660776   -1.053830    1.169833
  H      6.192328   -0.199685    0.930007
  H      4.759622    0.684859    1.489415
  H     -0.092980    2.367513   -1.418561
  H      1.488521    2.153694   -0.586290
  H     -3.712139    2.008027    2.952378
  H     -2.880986    2.921861    1.665010
  H     -5.640272    1.615259    1.415841
  H     -5.337334    3.349291    1.611205
  H     -4.817039    2.518600    0.138508
  H     -2.327253   -1.426296   -1.649701
  H     -1.792699   -2.680280   -0.497553
  H     -4.398183   -1.075309   -0.352632
  H     -4.269756   -2.779322   -0.820145
  H     -3.889213   -2.280295    0.840792

 Total Charge           Charge          ....    0
 Multiplicity           Mult            ....    1
 Number of Electrons    NEL             ....  202
 Basis Dimension        Dim             ....  334

ORBITAL ENERGIES
----------------

  NO   OCC          E(Eh)            E(eV)
   0   2.0000     -88.044448     -2395.8112
   1   2.0000     -88.039089     -2395.6654
   2   2.0000     -87.992179     -2394.3889
   3   2.0000     -87.987240     -2394.2545
   4   2.0000     -76.430738     -2079.7861
   5   2.0000     -76.424820     -2079.6251
   6   2.0000     -18.798326      -511.5284
   7   2.0000     -18.793756      -511.4041
   8   2.0000     -18.792110      -511.3593
   9   2.0000     -18.789007      -511.2749
  10   2.0000      -9.959502      -271.0118
  11   2.0000      -9.957385      -270.9542
  12   2.0000      -9.954690      -270.8809
  13   2.0000      -9.949366      -270.7360
  14   2.0000      -9.946459      -270.6569
  15   2.0000      -9.886373      -269.0219
  16   2.0000      -9.884626      -268.9743
  17   2.0000      -9.882995      -268.9300
  18   2.0000      -9.880037      -268.8495
  19   2.0000      -7.689712      -209.2477
  20   2.0000      -7.684083      -209.0945
  21   2.0000      -7.637042      -207.8145
  22   2.0000      -7.632472      -207.6901
  23   2.0000      -6.428042      -174.9159
  24   2.0000      -6.422760      -174.7722
  25   2.0000      -5.717532      -155.5820
  26   2.0000      -5.714214      -155.4917
  27   2.0000      -5.712339      -155.4407
  28   2.0000      -5.708453      -155.3349
  29   2.0000      -5.706670      -155.2864
  30   2.0000      -5.700809      -155.1269
  31   2.0000      -5.665842      -154.1754
  32   2.0000      -5.661391      -154.0543
  33   2.0000      -5.657619      -153.9516
  34   2.0000      -5.657402      -153.9457
  35   2.0000      -5.653124      -153.8293
  36   2.0000      -5.652608      -153.8153
  37   2.0000      -4.650449      -126.5451
  38   2.0000      -4.649887      -126.5299
  39   2.0000      -4.648619      -126.4954
  40   2.0000      -4.645143      -126.4008
  41   2.0000      -4.644717      -126.3892
  42   2.0000      -4.643206      -126.3481
  43   2.0000      -0.990739       -26.9594
  44   2.0000      -0.986536       -26.8450
  45   2.0000      -0.948996       -25.8235
  46   2.0000      -0.944759       -25.7082
  47   2.0000      -0.764535       -20.8041
  48   2.0000      -0.723150       -19.6779
  49   2.0000      -0.708659       -19.2836
  50   2.0000      -0.687621       -18.7111
  51   2.0000      -0.685732       -18.6597
  52   2.0000      -0.673571       -18.3288
  53   2.0000      -0.656236       -17.8571
  54   2.0000      -0.640381       -17.4257
  55   2.0000      -0.600096       -16.3295
  56   2.0000      -0.595840       -16.2136
  57   2.0000      -0.573861       -15.6156
  58   2.0000      -0.567110       -15.4318
  59   2.0000      -0.563733       -15.3400
  60   2.0000      -0.505041       -13.7429
  61   2.0000      -0.496234       -13.5032
  62   2.0000      -0.477116       -12.9830
  63   2.0000      -0.475955       -12.9514
  64   2.0000      -0.459223       -12.4961
  65   2.0000      -0.443189       -12.0598
  66   2.0000      -0.442070       -12.0293
  67   2.0000      -0.434026       -11.8105
  68   2.0000      -0.429073       -11.6757
  69   2.0000      -0.407398       -11.0859
  70   2.0000      -0.406945       -11.0735
  71   2.0000      -0.402219       -10.9449
  72   2.0000      -0.399231       -10.8636
  73   2.0000      -0.391598       -10.6559
  74   2.0000      -0.382996       -10.4218
  75   2.0000      -0.376049       -10.2328
  76   2.0000      -0.365125        -9.9355
  77   2.0000      -0.359735        -9.7889
  78   2.0000      -0.354395        -9.6436
  79   2.0000      -0.352813        -9.6005
  80   2.0000      -0.349273        -9.5042
  81   2.0000      -0.344347        -9.3702
  82   2.0000      -0.340063        -9.2536
  83   2.0000      -0.336890        -9.1673
  84   2.0000      -0.330687        -8.9985
  85   2.0000      -0.327483        -8.9113
  86   2.0000      -0.312930        -8.5152
  87   2.0000      -0.301460        -8.2031
  88   2.0000      -0.292823        -7.9681
  89   2.0000      -0.288797        -7.8586
  90   2.0000      -0.287166        -7.8142
  91   2.0000      -0.278169        -7.5694
  92   2.0000      -0.275209        -7.4888
  93   2.0000      -0.269446        -7.3320
  94   2.0000      -0.256963        -6.9923
  95   2.0000      -0.233005        -6.3404
  96   2.0000      -0.218814        -5.9542
  97   2.0000      -0.208895        -5.6843
  98   2.0000      -0.207304        -5.6410
  99   2.0000      -0.205853        -5.6015
 100   2.0000      -0.201301        -5.4777
 101   0.0000      -0.043106        -1.1730
 102   0.0000      -0.017457        -0.4750
 103   0.0000      -0.008833        -0.2404
 104   0.0000       0.001825         0.0497
 105   0.0000       0.009023         0.2455

MULLIKEN ATOMIC CHARGES
-----------------------
   0 C :   -0.288433
   1 C :   -0.016132
   2 O :   -0.373771
   3 P :    0.609250
   4 S :   -0.327269
   5 O :   -0.380650
   6 C :   -0.004109
   7 C :   -0.315453
   8 S :   -0.062547
   9 C :   -0.358064
  10 S :   -0.080630
  11 P :    0.605448
  12 S :   -0.328445
  13 O :   -0.368549
  14 C :   -0.012948
  15 C :   -0.296483
  16 O :   -0.359301
  17 C :   -0.012753
  18 C :   -0.303066
  19 H :    0.107435
  20 H :    0.125942
  21 H :    0.111889
  22 H :    0.104355
  23 H :    0.109904
  24 H :    0.114898
  25 H :    0.106046
  26 H :    0.132242
  27 H :    0.112973
  28 H :    0.116428
  29 H :    0.194938
  30 H :    0.188207
  31 H :    0.109116
  32 H :    0.103622
  33 H :    0.115234
  34 H :    0.108896
  35 H :    0.131553
  36 H :    0.119269
  37 H :    0.111218
  38 H :    0.122643
  39 H :    0.113287
  40 H :    0.113810
Sum of atomic charges:   -0.0000000

LOEWDIN ATOMIC CHARGES
----------------------
   0 C :   -0.361475
   1 C :   -0.120642
   2 O :   -0.245428
   3 P :    0.565454
   4 S :   -0.324796
   5 O :   -0.247405
   6 C :   -0.114205
   7 C :   -0.365573
   8 S :    0.097614
   9 C :   -0.477366
  10 S :    0.091813
  11 P :    0.568503
  12 S :   -0.316627
  13 O :   -0.243687
  14 C :   -0.115702
  15 C :   -0.364188
  16 O :   -0.235550
  17 C :   -0.120019
  18 C :   -0.364189
  19 H :    0.128563
  20 H :    0.123208
  21 H :    0.123571
  22 H :    0.110430
  23 H :    0.108433
  24 H :    0.113323
  25 H :    0.119029
  26 H :    0.125069
  27 H :    0.131067
  28 H :    0.126321
  29 H :    0.134214
  30 H :    0.135218
  31 H :    0.119773
  32 H :    0.107021
  33 H :    0.126057
  34 H :    0.129496
  35 H :    0.124750
  36 H :    0.111609
  37 H :    0.118428
  38 H :    0.121720
  39 H :    0.131110
  40 H :    0.125057

  Mayer bond orders larger than 0.100000
B(  0-C ,  1-C ) :   1.1654 B(  0-C , 19-H ) :   0.9405 B(  0-C , 20-H ) :   0.9329
B(  0-C , 21-H ) :   0.9448 B(  1-C ,  2-O ) :   0.8982 B(  1-C , 22-H ) :   0.9257
B(  1-C , 23-H ) :   0.9114 B(  2-O ,  3-P ) :   1.0971 B(  3-P ,  4-S ) :   1.6351
B(  3-P ,  5-O ) :   1.1017 B(  3-P ,  8-S ) :   0.9755 B(  5-O ,  6-C ) :   0.9050
B(  6-C ,  7-C ) :   1.1628 B(  6-C , 24-H ) :   0.9181 B(  6-C , 25-H ) :   0.9358
B(  7-C , 26-H ) :   0.9327 B(  7-C , 27-H ) :   0.9372 B(  7-C , 28-H ) :   0.9459
B(  8-S ,  9-C ) :   0.9894 B(  9-C , 10-S ) :   0.9920 B(  9-C , 29-H ) :   0.8878
B(  9-C , 30-H ) :   0.8966 B( 10-S , 11-P ) :   0.9694 B( 10-S , 12-S ) :   0.1113
B( 11-P , 12-S ) :   1.5967 B( 11-P , 13-O ) :   1.1174 B( 11-P , 16-O ) :   1.1198
B( 13-O , 14-C ) :   0.9044 B( 14-C , 15-C ) :   1.1673 B( 14-C , 31-H ) :   0.9359
B( 14-C , 32-H ) :   0.9162 B( 15-C , 33-H ) :   0.9467 B( 15-C , 34-H ) :   0.9391
B( 15-C , 35-H ) :   0.9311 B( 16-O , 17-C ) :   0.8996 B( 17-C , 18-C ) :   1.1637
B( 17-C , 36-H ) :   0.9144 B( 17-C , 37-H ) :   0.9299 B( 18-C , 38-H ) :   0.9350
B( 18-C , 39-H ) :   0.9396 B( 18-C , 40-H ) :   0.9464

Dispersion correction           -0.065731266
FINAL SINGLE POINT ENERGY     -2929.524883546461

DIPOLE MOMENT
-------------

Method             : SCF
Type of density    : Electron Density
Multiplicity       :   1
Irrep              :   0
Energy             : -2929.6445565433650700 Eh
Relativity type    :
Basis              : AO
                                X                 Y                 Z
Electronic contribution:      3.812175805       4.490344338     -14.583357942
Nuclear contribution   :     -3.867692068      -3.961872440      15.960489891
                        -----------------------------------------
Total Dipole Moment    :     -0.055516263       0.528471899       1.377131949
                        -----------------------------------------
Magnitude (a.u.)       :      1.476095189
Magnitude (Debye)      :      3.751935800

Rotational constants in cm-1:             0.014060             0.004613             0.004481
Rotational constants in MHz :           421.512692           138.279372           134.351710

                             ****ORCA TERMINATED NORMALLY****
TOTAL RUN TIME: 0 days 0 hours 0 minutes 21 seconds 564 msec
