                         Program Version 6.0.1  -  RELEASE   -
|  1> ! r2scan-3c def2/J RI DEFGRID2 scfconv6 printgap
|  2> %output
|  3>     printlevel normal
|  4> end
|  5> * xyz 0 1
|  6> C 4.9047388354 -2.7262430214 -2.0236923967
|  7> C 4.9388302921 -2.0692376985 -0.6533051404
|  8> O 3.6670637522 -2.206556889 0.0126411048
|  9> C 2.7430726334 -1.2949090629 -0.1915487812
| 10> O 2.8785713103 -0.3161180522 -0.8988656541
| 11> C 1.4826610909 -1.5866269147 0.5939765664
| 12> C 0.324942354 -0.8188315558 -0.0232140175
| 13> H 0.007997865 -1.239882982 -0.9818734961
| 14> C 0.6533182044 0.6463220755 -0.2398964885
| 15> O 0.3381361783 1.2491441913 -1.2441263115
| 16> O 1.1943613878 1.1969947542 0.824692882
| 17> C 1.5219006957 2.5980385735 0.7549412128
| 18> C 1.7685714838 3.0985397907 2.1646051877
| 19> S -1.1126357414 -0.8400102785 1.1022819876
| 20> P -2.4209608071 0.3180721372 -0.1075646082
| 21> S -2.4886102112 -0.1511756503 -2.0029938441
| 22> O -3.8047112402 0.1508960127 0.6699053515
| 23> C -4.527901071 -1.0866754181 0.6321436055
| 24> O -2.1026264072 1.8402723239 0.1915440467
| 25> C -2.2080430005 2.3841461034 1.5261056001
| 26> H 4.1916394801 -2.2145227616 -2.6668184426
| 27> H 5.8895033887 -2.6669960649 -2.4751561224
| 28> H 4.613894873 -3.7689379836 -1.9322217899
| 29> H 5.1753321706 -1.005078212 -0.7396804663
| 30> H 5.6469158414 -2.5669167994 0.0091718852
| 31> H 1.642944125 -1.2495434737 1.6211811207
| 32> H 1.2880591783 -2.6578689279 0.6092252369
| 33> H 2.4105990505 2.6967137225 0.1235430935
| 34> H 0.6942663874 3.1197843028 0.2630423585
| 35> H 0.8808146733 2.9624942344 2.7749600443
| 36> H 2.5916738459 2.5509038099 2.6130447183
| 37> H 2.0193670102 4.1532857572 2.1269544501
| 38> H -4.5636220018 -1.4676689896 -0.3894676773
| 39> H -5.5279710736 -0.8513927762 0.9868998507
| 40> H -4.0458160099 -1.8125349148 1.2857067192
| 41> H -1.6370972207 1.7713439526 2.2248780005
| 42> H -3.2534169735 2.4146975886 1.8253756233
| 43> H -1.7952346253 3.3875307262 1.4584586201
| 44> *
| 45>
| 46>                          ****END OF INPUT****

CARTESIAN COORDINATES (ANGSTROEM)
---------------------------------
  C      4.904739   -2.726243   -2.023692
  C      4.938830   -2.069238   -0.653305
  O      3.667064   -2.206557    0.012641
  C      2.743073   -1.294909   -0.191549
  O      2.878571   -0.316118   -0.898866
  C      1.482661   -1.586627    0.593977
  C      0.324942   -0.818832   -0.023214
  H      0.007998   -1.239883   -0.981873
  C      0.653318    0.646322   -0.239896
  O      0.338136    1.249144   -1.244126
  O      1.194361    1.196995    0.824693
  C      1.521901    2.598039    0.754941
  C      1.768571    3.098540    2.164605
  S     -1.112636   -0.840010    1.102282
  P     -2.420961    0.318072   -0.107565
  S     -2.488610   -0.151176   -2.002994
  O     -3.804711    0.150896    0.669905
  C     -4.527901   -1.086675    0.632144
  O     -2.102626    1.840272    0.191544
  C     -2.208043    2.384146    1.526106
  H      4.191639   -2.214523   -2.666818
  H      5.889503   -2.666996   -2.475156
  H      4.613895   -3.768938   -1.932222
  H      5.175332   -1.005078   -0.739680
  H      5.646916   -2.566917    0.009172
  H      1.642944   -1.249543    1.621181
  H      1.288059   -2.657869    0.609225
  H      2.410599    2.696714    0.123543
  H      0.694266    3.119784    0.263042
  H      0.880815    2.962494    2.774960
  H      2.591674    2.550904    2.613045
  H      2.019367    4.153286    2.126954
  H     -4.563622   -1.467669   -0.389468
  H     -5.527971   -0.851393    0.986900
  H     -4.045816   -1.812535    1.285707
  H     -1.637097    1.771344    2.224878
  H     -3.253417    2.414698    1.825376
  H     -1.795235    3.387531    1.458459

 Total Charge           Charge          ....    0
 Multiplicity           Mult            ....    1
 Number of Electrons    NEL             ....  174
 Basis Dimension        Dim             ....  510

ORBITAL ENERGIES
----------------

  NO   OCC          E(Eh)            E(eV)
   0   2.0000     -88.575340     -2410.2575
   1   2.0000     -88.509777     -2408.4735
   2   2.0000     -76.909199     -2092.8057
   3   2.0000     -19.012838      -517.3656
   4   2.0000     -18.992399      -516.8095
   5   2.0000     -18.991700      -516.7904
   6   2.0000     -18.990928      -516.7694
   7   2.0000     -18.945073      -515.5216
   8   2.0000     -18.915321      -514.7121
   9   2.0000     -10.170960      -276.7659
  10   2.0000     -10.148755      -276.1617
  11   2.0000     -10.102552      -274.9044
  12   2.0000     -10.095411      -274.7101
  13   2.0000     -10.091607      -274.6066
  14   2.0000     -10.090174      -274.5676
  15   2.0000     -10.088719      -274.5280
  16   2.0000     -10.066920      -273.9348
  17   2.0000     -10.036375      -273.1037
  18   2.0000     -10.032916      -273.0095
  19   2.0000      -7.869654      -214.1442
  20   2.0000      -7.804245      -212.3643
  21   2.0000      -6.587489      -179.2547
  22   2.0000      -5.816235      -158.2678
  23   2.0000      -5.813627      -158.1968
  24   2.0000      -5.806958      -158.0154
  25   2.0000      -5.752165      -156.5244
  26   2.0000      -5.744411      -156.3134
  27   2.0000      -5.744158      -156.3065
  28   2.0000      -4.733390      -128.8021
  29   2.0000      -4.732604      -128.7807
  30   2.0000      -4.730678      -128.7283
  31   2.0000      -1.090044       -29.6616
  32   2.0000      -1.069905       -29.1136
  33   2.0000      -1.049071       -28.5467
  34   2.0000      -1.007043       -27.4030
  35   2.0000      -0.993794       -27.0425
  36   2.0000      -0.967261       -26.3205
  37   2.0000      -0.812186       -22.1007
  38   2.0000      -0.761430       -20.7196
  39   2.0000      -0.743711       -20.2374
  40   2.0000      -0.731985       -19.9183
  41   2.0000      -0.700690       -19.0668
  42   2.0000      -0.676589       -18.4109
  43   2.0000      -0.656066       -17.8525
  44   2.0000      -0.643665       -17.5150
  45   2.0000      -0.629658       -17.1339
  46   2.0000      -0.594219       -16.1695
  47   2.0000      -0.541832       -14.7440
  48   2.0000      -0.535877       -14.5820
  49   2.0000      -0.529507       -14.4086
  50   2.0000      -0.499597       -13.5947
  51   2.0000      -0.493353       -13.4248
  52   2.0000      -0.478351       -13.0166
  53   2.0000      -0.465765       -12.6741
  54   2.0000      -0.462229       -12.5779
  55   2.0000      -0.458374       -12.4730
  56   2.0000      -0.447976       -12.1900
  57   2.0000      -0.442458       -12.0399
  58   2.0000      -0.431962       -11.7543
  59   2.0000      -0.430331       -11.7099
  60   2.0000      -0.421051       -11.4574
  61   2.0000      -0.417578       -11.3629
  62   2.0000      -0.412062       -11.2128
  63   2.0000      -0.398156       -10.8344
  64   2.0000      -0.392639       -10.6842
  65   2.0000      -0.384672       -10.4675
  66   2.0000      -0.376220       -10.2375
  67   2.0000      -0.368658       -10.0317
  68   2.0000      -0.363148        -9.8817
  69   2.0000      -0.358792        -9.7632
  70   2.0000      -0.348023        -9.4702
  71   2.0000      -0.344119        -9.3640
  72   2.0000      -0.339537        -9.2393
  73   2.0000      -0.327202        -8.9036
  74   2.0000      -0.320141        -8.7115
  75   2.0000      -0.318839        -8.6760
  76   2.0000      -0.316193        -8.6041
  77   2.0000      -0.306980        -8.3533
  78   2.0000      -0.287321        -7.8184
  79   2.0000      -0.286885        -7.8066
  80   2.0000      -0.276395        -7.5211
  81   2.0000      -0.263581        -7.1724
  82   2.0000      -0.252396        -6.8680
  83   2.0000      -0.246061        -6.6957
  84   2.0000      -0.227399        -6.1878
  85   2.0000      -0.205520        -5.5925
  86   2.0000      -0.199056        -5.4166
  87   0.0000      -0.043731        -1.1900
  88   0.0000      -0.028272        -0.7693
  89   0.0000      -0.013263        -0.3609
  90   0.0000       0.011036         0.3003
  91   0.0000       0.023967         0.6522

MULLIKEN ATOMIC CHARGES
-----------------------
   0 C :   -0.462985
   1 C :   -0.143114
   2 O :   -0.165145
   3 C :    0.394330
   4 O :   -0.400020
   5 C :   -0.378619
   6 C :   -0.123583
   7 H :    0.254390
   8 C :    0.264997
   9 O :   -0.354642
  10 O :   -0.114953
  11 C :   -0.143002
  12 C :   -0.461303
  13 S :   -0.227252
  14 P :    0.731260
  15 S :   -0.402737
  16 O :   -0.335953
  17 C :   -0.294214
  18 O :   -0.299703
  19 C :   -0.289743
  20 H :    0.174494
  21 H :    0.150120
  22 H :    0.153807
  23 H :    0.168764
  24 H :    0.151169
  25 H :    0.198285
  26 H :    0.180955
  27 H :    0.162315
  28 H :    0.173860
  29 H :    0.149869
  30 H :    0.152092
  31 H :    0.151119
  32 H :    0.180490
  33 H :    0.151544
  34 H :    0.153518
  35 H :    0.175381
  36 H :    0.166629
  37 H :    0.157582
Sum of atomic charges:    0.0000000

LOEWDIN ATOMIC CHARGES
----------------------
   0 C :   -0.386678
   1 C :    0.031832
   2 O :   -0.576557
   3 C :    0.378279
   4 O :   -0.416909
   5 C :   -0.209430
   6 C :   -0.189579
   7 H :    0.206514
   8 C :    0.322929
   9 O :   -0.405220
  10 O :   -0.596935
  11 C :    0.036114
  12 C :   -0.388383
  13 S :    0.177497
  14 P :    0.381677
  15 S :   -0.064267
  16 O :   -0.683967
  17 C :   -0.057721
  18 O :   -0.644252
  19 C :   -0.055106
  20 H :    0.166598
  21 H :    0.161061
  22 H :    0.158342
  23 H :    0.189012
  24 H :    0.179563
  25 H :    0.200500
  26 H :    0.187905
  27 H :    0.182222
  28 H :    0.188699
  29 H :    0.156207
  30 H :    0.158798
  31 H :    0.160266
  32 H :    0.179410
  33 H :    0.176876
  34 H :    0.167427
  35 H :    0.173778
  36 H :    0.174837
  37 H :    0.178661

  Mayer bond orders larger than 0.100000
B(  0-C ,  1-C ) :   0.9467 B(  0-C , 20-H ) :   0.9679 B(  0-C , 21-H ) :   0.9636
B(  0-C , 22-H ) :   0.9733 B(  1-C ,  2-O ) :   0.7957 B(  1-C , 23-H ) :   0.9646
B(  1-C , 24-H ) :   0.9611 B(  2-O ,  3-C ) :   1.1412 B(  3-C ,  4-O ) :   1.7527
B(  3-C ,  5-C ) :   0.9942 B(  4-O ,  8-C ) :   0.1092 B(  5-C ,  6-C ) :   0.9446
B(  5-C , 10-O ) :   0.1148 B(  5-C , 25-H ) :   0.9429 B(  5-C , 26-H ) :   0.9415
B(  6-C ,  7-H ) :   0.9887 B(  6-C ,  8-C ) :   0.8394 B(  6-C , 13-S ) :   0.8595
B(  8-C ,  9-O ) :   1.8682 B(  8-C , 10-O ) :   1.1165 B( 10-O , 11-C ) :   0.7627
B( 11-C , 12-C ) :   0.9291 B( 11-C , 27-H ) :   0.9430 B( 11-C , 28-H ) :   0.9661
B( 12-C , 29-H ) :   0.9790 B( 12-C , 30-H ) :   0.9708 B( 12-C , 31-H ) :   0.9717
B( 13-S , 14-P ) :   0.9609 B( 14-P , 15-S ) :   1.8941 B( 14-P , 16-O ) :   1.0350
B( 14-P , 18-O ) :   1.1258 B( 16-O , 17-C ) :   0.8280 B( 17-C , 32-H ) :   0.9575
B( 17-C , 33-H ) :   0.9679 B( 17-C , 34-H ) :   0.9578 B( 18-O , 19-C ) :   0.7932
B( 19-C , 35-H ) :   0.9572 B( 19-C , 36-H ) :   0.9581 B( 19-C , 37-H ) :   0.9645

Dispersion correction           -0.017194572
FINAL SINGLE POINT ENERGY     -1981.448674978104

DIPOLE MOMENT
-------------

Method             : SCF
Type of density    : Electron Density
Multiplicity       :   1
Irrep              :   0
Energy             : -1981.4683710919102850 Eh
Relativity type    :
Basis              : AO
                                X                 Y                 Z
Electronic contribution:    -16.516464781      -1.797366434      -6.272168508
Nuclear contribution   :     17.525925142       1.232091264       8.312618312
                        -----------------------------------------
Total Dipole Moment    :      1.009460361      -0.565275170       2.040449804
                        -----------------------------------------
Magnitude (a.u.)       :      2.345630329
Magnitude (Debye)      :      5.962118480

Rotational constants in cm-1:             0.015253             0.005890             0.005037
Rotational constants in MHz :           457.273497           176.584082           151.006678

                             ****ORCA TERMINATED NORMALLY****
TOTAL RUN TIME: 0 days 0 hours 1 minutes 22 seconds 165 msec
