                         Program Version 6.0.1  -  RELEASE   -
|  1> ! r2scan-3c def2/J RI DEFGRID2 scfconv6 printgap
|  2> %output
|  3>     printlevel normal
|  4> end
|  5> %cpcm
|  6>     smd true
|  7>     smdsolvent "water"
|  8> end
|  9> * xyz 0 1
| 10> C 4.9047388354 -2.7262430214 -2.0236923967
| 11> C 4.9388302921 -2.0692376985 -0.6533051404
| 12> O 3.6670637522 -2.206556889 0.0126411048
| 13> C 2.7430726334 -1.2949090629 -0.1915487812
| 14> O 2.8785713103 -0.3161180522 -0.8988656541
| 15> C 1.4826610909 -1.5866269147 0.5939765664
| 16> C 0.324942354 -0.8188315558 -0.0232140175
| 17> H 0.007997865 -1.239882982 -0.9818734961
| 18> C 0.6533182044 0.6463220755 -0.2398964885
| 19> O 0.3381361783 1.2491441913 -1.2441263115
| 20> O 1.1943613878 1.1969947542 0.824692882
| 21> C 1.5219006957 2.5980385735 0.7549412128
| 22> C 1.7685714838 3.0985397907 2.1646051877
| 23> S -1.1126357414 -0.8400102785 1.1022819876
| 24> P -2.4209608071 0.3180721372 -0.1075646082
| 25> S -2.4886102112 -0.1511756503 -2.0029938441
| 26> O -3.8047112402 0.1508960127 0.6699053515
| 27> C -4.527901071 -1.0866754181 0.6321436055
| 28> O -2.1026264072 1.8402723239 0.1915440467
| 29> C -2.2080430005 2.3841461034 1.5261056001
| 30> H 4.1916394801 -2.2145227616 -2.6668184426
| 31> H 5.8895033887 -2.6669960649 -2.4751561224
| 32> H 4.613894873 -3.7689379836 -1.9322217899
| 33> H 5.1753321706 -1.005078212 -0.7396804663
| 34> H 5.6469158414 -2.5669167994 0.0091718852
| 35> H 1.642944125 -1.2495434737 1.6211811207
| 36> H 1.2880591783 -2.6578689279 0.6092252369
| 37> H 2.4105990505 2.6967137225 0.1235430935
| 38> H 0.6942663874 3.1197843028 0.2630423585
| 39> H 0.8808146733 2.9624942344 2.7749600443
| 40> H 2.5916738459 2.5509038099 2.6130447183
| 41> H 2.0193670102 4.1532857572 2.1269544501
| 42> H -4.5636220018 -1.4676689896 -0.3894676773
| 43> H -5.5279710736 -0.8513927762 0.9868998507
| 44> H -4.0458160099 -1.8125349148 1.2857067192
| 45> H -1.6370972207 1.7713439526 2.2248780005
| 46> H -3.2534169735 2.4146975886 1.8253756233
| 47> H -1.7952346253 3.3875307262 1.4584586201
| 48> *
| 49>
| 50>                          ****END OF INPUT****

CARTESIAN COORDINATES (ANGSTROEM)
---------------------------------
  C      4.904739   -2.726243   -2.023692
  C      4.938830   -2.069238   -0.653305
  O      3.667064   -2.206557    0.012641
  C      2.743073   -1.294909   -0.191549
  O      2.878571   -0.316118   -0.898866
  C      1.482661   -1.586627    0.593977
  C      0.324942   -0.818832   -0.023214
  H      0.007998   -1.239883   -0.981873
  C      0.653318    0.646322   -0.239896
  O      0.338136    1.249144   -1.244126
  O      1.194361    1.196995    0.824693
  C      1.521901    2.598039    0.754941
  C      1.768571    3.098540    2.164605
  S     -1.112636   -0.840010    1.102282
  P     -2.420961    0.318072   -0.107565
  S     -2.488610   -0.151176   -2.002994
  O     -3.804711    0.150896    0.669905
  C     -4.527901   -1.086675    0.632144
  O     -2.102626    1.840272    0.191544
  C     -2.208043    2.384146    1.526106
  H      4.191639   -2.214523   -2.666818
  H      5.889503   -2.666996   -2.475156
  H      4.613895   -3.768938   -1.932222
  H      5.175332   -1.005078   -0.739680
  H      5.646916   -2.566917    0.009172
  H      1.642944   -1.249543    1.621181
  H      1.288059   -2.657869    0.609225
  H      2.410599    2.696714    0.123543
  H      0.694266    3.119784    0.263042
  H      0.880815    2.962494    2.774960
  H      2.591674    2.550904    2.613045
  H      2.019367    4.153286    2.126954
  H     -4.563622   -1.467669   -0.389468
  H     -5.527971   -0.851393    0.986900
  H     -4.045816   -1.812535    1.285707
  H     -1.637097    1.771344    2.224878
  H     -3.253417    2.414698    1.825376
  H     -1.795235    3.387531    1.458459

 Total Charge           Charge          ....    0
 Multiplicity           Mult            ....    1
 Number of Electrons    NEL             ....  174
 Basis Dimension        Dim             ....  510

ORBITAL ENERGIES
----------------

  NO   OCC          E(Eh)            E(eV)
   0   2.0000     -88.583821     -2410.4883
   1   2.0000     -88.529288     -2409.0044
   2   2.0000     -76.922209     -2093.1597
   3   2.0000     -19.011126      -517.3190
   4   2.0000     -19.005142      -517.1562
   5   2.0000     -19.000347      -517.0257
   6   2.0000     -18.998046      -516.9631
   7   2.0000     -18.953630      -515.7545
   8   2.0000     -18.942630      -515.4552
   9   2.0000     -10.175811      -276.8979
  10   2.0000     -10.170395      -276.7505
  11   2.0000     -10.096072      -274.7281
  12   2.0000     -10.087405      -274.4922
  13   2.0000     -10.086068      -274.4559
  14   2.0000     -10.085245      -274.4335
  15   2.0000     -10.083460      -274.3849
  16   2.0000     -10.060706      -273.7657
  17   2.0000     -10.019894      -272.6552
  18   2.0000     -10.019639      -272.6482
  19   2.0000      -7.877991      -214.3710
  20   2.0000      -7.824250      -212.9087
  21   2.0000      -6.600611      -179.6118
  22   2.0000      -5.824617      -158.4959
  23   2.0000      -5.822038      -158.4257
  24   2.0000      -5.815192      -158.2394
  25   2.0000      -5.772004      -157.0642
  26   2.0000      -5.764466      -156.8591
  27   2.0000      -5.764182      -156.8514
  28   2.0000      -4.746462      -129.1578
  29   2.0000      -4.745637      -129.1354
  30   2.0000      -4.743991      -129.0906
  31   2.0000      -1.091034       -29.6885
  32   2.0000      -1.084596       -29.5134
  33   2.0000      -1.056573       -28.7508
  34   2.0000      -1.013685       -27.5838
  35   2.0000      -1.000064       -27.2131
  36   2.0000      -0.992034       -26.9946
  37   2.0000      -0.816367       -22.2145
  38   2.0000      -0.754527       -20.5317
  39   2.0000      -0.742851       -20.2140
  40   2.0000      -0.730688       -19.8830
  41   2.0000      -0.699337       -19.0299
  42   2.0000      -0.673263       -18.3204
  43   2.0000      -0.661095       -17.9893
  44   2.0000      -0.647938       -17.6313
  45   2.0000      -0.623161       -16.9571
  46   2.0000      -0.593351       -16.1459
  47   2.0000      -0.544277       -14.8105
  48   2.0000      -0.533997       -14.5308
  49   2.0000      -0.527966       -14.3667
  50   2.0000      -0.500534       -13.6202
  51   2.0000      -0.494994       -13.4695
  52   2.0000      -0.479258       -13.0413
  53   2.0000      -0.470375       -12.7996
  54   2.0000      -0.467670       -12.7259
  55   2.0000      -0.458787       -12.4842
  56   2.0000      -0.451681       -12.2909
  57   2.0000      -0.446529       -12.1507
  58   2.0000      -0.441945       -12.0259
  59   2.0000      -0.428964       -11.6727
  60   2.0000      -0.419067       -11.4034
  61   2.0000      -0.417838       -11.3700
  62   2.0000      -0.411212       -11.1897
  63   2.0000      -0.395377       -10.7588
  64   2.0000      -0.390572       -10.6280
  65   2.0000      -0.383766       -10.4428
  66   2.0000      -0.367934       -10.0120
  67   2.0000      -0.367037        -9.9876
  68   2.0000      -0.360515        -9.8101
  69   2.0000      -0.356663        -9.7053
  70   2.0000      -0.344716        -9.3802
  71   2.0000      -0.342507        -9.3201
  72   2.0000      -0.337663        -9.1883
  73   2.0000      -0.331137        -9.0107
  74   2.0000      -0.323905        -8.8139
  75   2.0000      -0.320123        -8.7110
  76   2.0000      -0.313499        -8.5308
  77   2.0000      -0.308425        -8.3927
  78   2.0000      -0.292055        -7.9472
  79   2.0000      -0.287158        -7.8140
  80   2.0000      -0.283705        -7.7200
  81   2.0000      -0.277052        -7.5390
  82   2.0000      -0.264490        -7.1971
  83   2.0000      -0.260552        -7.0900
  84   2.0000      -0.247262        -6.7283
  85   2.0000      -0.225501        -6.1362
  86   2.0000      -0.220756        -6.0071
  87   0.0000      -0.054060        -1.4711
  88   0.0000      -0.033047        -0.8992
  89   0.0000      -0.028305        -0.7702
  90   0.0000       0.000052         0.0014
  91   0.0000       0.016520         0.4495

MULLIKEN ATOMIC CHARGES
-----------------------
   0 C :   -0.492845
   1 C :   -0.145910
   2 O :   -0.176564
   3 C :    0.429871
   4 O :   -0.470595
   5 C :   -0.382711
   6 C :   -0.121601
   7 H :    0.271432
   8 C :    0.258847
   9 O :   -0.437836
  10 O :   -0.131152
  11 C :   -0.126955
  12 C :   -0.505692
  13 S :   -0.204806
  14 P :    0.750863
  15 S :   -0.479061
  16 O :   -0.358049
  17 C :   -0.303956
  18 O :   -0.340307
  19 C :   -0.291800
  20 H :    0.169820
  21 H :    0.172398
  22 H :    0.167207
  23 H :    0.175505
  24 H :    0.177747
  25 H :    0.230930
  26 H :    0.211236
  27 H :    0.176992
  28 H :    0.175987
  29 H :    0.169665
  30 H :    0.166089
  31 H :    0.172297
  32 H :    0.179406
  33 H :    0.181125
  34 H :    0.176569
  35 H :    0.186107
  36 H :    0.183414
  37 H :    0.186334
Sum of atomic charges:    0.0000000

LOEWDIN ATOMIC CHARGES
----------------------
   0 C :   -0.390342
   1 C :    0.038096
   2 O :   -0.573254
   3 C :    0.391547
   4 O :   -0.466027
   5 C :   -0.199777
   6 C :   -0.186876
   7 H :    0.209501
   8 C :    0.323384
   9 O :   -0.477208
  10 O :   -0.593778
  11 C :    0.040696
  12 C :   -0.388486
  13 S :    0.200259
  14 P :    0.383007
  15 S :   -0.123892
  16 O :   -0.688986
  17 C :   -0.050919
  18 O :   -0.669806
  19 C :   -0.043109
  20 H :    0.163045
  21 H :    0.169026
  22 H :    0.162769
  23 H :    0.191316
  24 H :    0.191196
  25 H :    0.211804
  26 H :    0.203066
  27 H :    0.186559
  28 H :    0.190608
  29 H :    0.163094
  30 H :    0.163158
  31 H :    0.169485
  32 H :    0.179047
  33 H :    0.189720
  34 H :    0.177002
  35 H :    0.180624
  36 H :    0.182765
  37 H :    0.191686

  Mayer bond orders larger than 0.100000
B(  0-C ,  1-C ) :   0.9412 B(  0-C , 20-H ) :   0.9680 B(  0-C , 21-H ) :   0.9589
B(  0-C , 22-H ) :   0.9695 B(  1-C ,  2-O ) :   0.7788 B(  1-C , 23-H ) :   0.9614
B(  1-C , 24-H ) :   0.9514 B(  2-O ,  3-C ) :   1.1639 B(  3-C ,  4-O ) :   1.7028
B(  3-C ,  5-C ) :   0.9998 B(  4-O ,  8-C ) :   0.1149 B(  5-C ,  6-C ) :   0.9519
B(  5-C , 25-H ) :   0.9397 B(  5-C , 26-H ) :   0.9197 B(  6-C ,  7-H ) :   0.9685
B(  6-C ,  8-C ) :   0.8490 B(  6-C , 13-S ) :   0.8486 B(  8-C ,  9-O ) :   1.8036
B(  8-C , 10-O ) :   1.1278 B( 10-O , 11-C ) :   0.7514 B( 11-C , 12-C ) :   0.9351
B( 11-C , 27-H ) :   0.9339 B( 11-C , 28-H ) :   0.9553 B( 12-C , 29-H ) :   0.9739
B( 12-C , 30-H ) :   0.9677 B( 12-C , 31-H ) :   0.9638 B( 13-S , 14-P ) :   0.9866
B( 14-P , 15-S ) :   1.8468 B( 14-P , 16-O ) :   1.0491 B( 14-P , 18-O ) :   1.1323
B( 16-O , 17-C ) :   0.8176 B( 17-C , 32-H ) :   0.9547 B( 17-C , 33-H ) :   0.9571
B( 17-C , 34-H ) :   0.9496 B( 18-O , 19-C ) :   0.7845 B( 19-C , 35-H ) :   0.9478
B( 19-C , 36-H ) :   0.9495 B( 19-C , 37-H ) :   0.9527

Dispersion correction           -0.017194572
FINAL SINGLE POINT ENERGY     -1981.470068760945

DIPOLE MOMENT
-------------

Method             : SCF
Type of density    : Electron Density
Multiplicity       :   1
Irrep              :   0
Energy             : -1981.4897648747514722 Eh
Relativity type    :
Basis              : AO
                                X                 Y                 Z
Electronic contribution:    -16.311671020      -2.246700425      -5.002834818
Nuclear contribution   :     17.525925142       1.232091264       8.312618312
                        -----------------------------------------
Total Dipole Moment    :      1.214254122      -1.014609160       3.309783494
                        -----------------------------------------
Magnitude (a.u.)       :      3.668584414
Magnitude (Debye)      :      9.324800526

Rotational constants in cm-1:             0.015253             0.005890             0.005037
Rotational constants in MHz :           457.273497           176.584082           151.006678

                             ****ORCA TERMINATED NORMALLY****
TOTAL RUN TIME: 0 days 0 hours 1 minutes 44 seconds 402 msec
