                         Program Version 6.0.0  -   RELEASE  -
|  1> ! pbe def2-sv(p) def2/J RI DEFGRID1 loosescf d4 GCP(DFT/SV(P)) printgap
|  2> %output
|  3>     printlevel normal
|  4> end
|  5> * xyz 0 1
|  6> C -1.8442003926 -0.8434793398 0.4577481006
|  7> S -0.9005259577 0.4171661863 -0.4695558154
|  8> S 0.8994707508 0.4148674674 0.4710722337
|  9> C 1.8462876966 -0.8397892809 -0.4608768643
| 10> H -2.8496880231 -0.8115111628 0.0545300568
| 11> H -1.8439891697 -0.5810103249 1.5099128517
| 12> H -1.400913617 -1.819979631 0.2954173625
| 13> H 2.8461344522 -0.8205242988 -0.0432702548
| 14> H 1.8630019247 -0.5624765393 -1.5091695354
| 15> H 1.3941503062 -1.8152790036 -0.3183783428
| 16> *
| 17>
| 18>                          ****END OF INPUT****

CARTESIAN COORDINATES (ANGSTROEM)
---------------------------------
  C     -1.844200   -0.843479    0.457748
  S     -0.900526    0.417166   -0.469556
  S      0.899471    0.414867    0.471072
  C      1.846288   -0.839789   -0.460877
  H     -2.849688   -0.811511    0.054530
  H     -1.843989   -0.581010    1.509913
  H     -1.400914   -1.819980    0.295417
  H      2.846134   -0.820524   -0.043270
  H      1.863002   -0.562477   -1.509170
  H      1.394150   -1.815279   -0.318378

 Total Charge           Charge          ....    0
 Multiplicity           Mult            ....    1
 Number of Electrons    NEL             ....   50
 Basis Dimension        Dim             ....   76

ORBITAL ENERGIES
----------------

  NO   OCC          E(Eh)            E(eV)
   0   2.0000     -88.039540     -2395.6777
   1   2.0000     -88.039505     -2395.6767
   2   2.0000      -9.909542      -269.6523
   3   2.0000      -9.909517      -269.6517
   4   2.0000      -7.683173      -209.0698
   5   2.0000      -7.683137      -209.0688
   6   2.0000      -5.712639      -155.4488
   7   2.0000      -5.712460      -155.4439
   8   2.0000      -5.707642      -155.3128
   9   2.0000      -5.707582      -155.3112
  10   2.0000      -5.699067      -155.0795
  11   2.0000      -5.699031      -155.0785
  12   2.0000      -0.751186       -20.4408
  13   2.0000      -0.680893       -18.5280
  14   2.0000      -0.606087       -16.4925
  15   2.0000      -0.521150       -14.1812
  16   2.0000      -0.407250       -11.0818
  17   2.0000      -0.392219       -10.6728
  18   2.0000      -0.391206       -10.6453
  19   2.0000      -0.379432       -10.3249
  20   2.0000      -0.356930        -9.7126
  21   2.0000      -0.319912        -8.7053
  22   2.0000      -0.283315        -7.7094
  23   2.0000      -0.200884        -5.4663
  24   2.0000      -0.199964        -5.4413
  25   0.0000      -0.030166        -0.8209
  26   0.0000       0.021007         0.5716
  27   0.0000       0.022492         0.6120
  28   0.0000       0.046739         1.2718
  29   0.0000       0.080011         2.1772

MULLIKEN ATOMIC CHARGES
-----------------------
   0 C :   -0.359610
   1 S :   -0.081640
   2 S :   -0.081975
   3 C :   -0.359464
   4 H :    0.144542
   5 H :    0.151803
   6 H :    0.144996
   7 H :    0.144523
   8 H :    0.151889
   9 H :    0.144936
Sum of atomic charges:    0.0000000

LOEWDIN ATOMIC CHARGES
----------------------
   0 C :   -0.471679
   1 S :    0.091524
   2 S :    0.091604
   3 C :   -0.471667
   4 H :    0.130820
   5 H :    0.127229
   6 H :    0.121989
   7 H :    0.130860
   8 H :    0.127207
   9 H :    0.122112

  Mayer bond orders larger than 0.100000
B(  0-C ,  1-S ) :   0.9884 B(  0-C ,  4-H ) :   0.9375 B(  0-C ,  5-H ) :   0.9469
B(  0-C ,  6-H ) :   0.9471 B(  1-S ,  2-S ) :   1.1394 B(  2-S ,  3-C ) :   0.9882
B(  3-C ,  7-H ) :   0.9374 B(  3-C ,  8-H ) :   0.9471 B(  3-C ,  9-H ) :   0.9471

Dispersion correction           -0.008107068
FINAL SINGLE POINT ENERGY      -875.393579449778

DIPOLE MOMENT
-------------

Method             : SCF
Type of density    : Electron Density
Multiplicity       :   1
Irrep              :   0
Energy             :  -875.4217466688909326 Eh
Relativity type    :
Basis              : AO
                                X                 Y                 Z
Electronic contribution:     -0.007331806       5.291509732       0.008614066
Nuclear contribution   :      0.008188449      -6.038245904      -0.010323790
                        -----------------------------------------
Total Dipole Moment    :      0.000856643      -0.746736172      -0.001709725
                        -----------------------------------------
Magnitude (a.u.)       :      0.746738621
Magnitude (Debye)      :      1.898058732

Rotational constants in cm-1:             0.277194             0.091130             0.085260
Rotational constants in MHz :          8310.063178          2732.008659          2556.035107

                             ****ORCA TERMINATED NORMALLY****
TOTAL RUN TIME: 0 days 0 hours 0 minutes 4 seconds 407 msec
