                         Program Version 6.0.0  -   RELEASE  -
|  1> ! pbe def2-sv(p) def2/J RI DEFGRID1 loosescf d4 GCP(DFT/SV(P)) printgap
|  2> %output
|  3>     printlevel normal
|  4> end
|  5> * xyz 0 1
|  6> C 4.6870406972 -0.0383602723 -1.7980664802
|  7> C 4.4762286718 1.0400674868 -0.7549120981
|  8> O 3.5948136239 0.616067976 0.2982437298
|  9> P 2.0514383347 0.3298241992 0.061325142
| 10> S 1.1709582025 1.5891901002 -1.1578175449
| 11> O 1.4467632887 0.421572099 1.5156267898
| 12> C 1.6301858901 -0.5322990585 2.5964091131
| 13> C 3.0841347414 -0.8295493377 2.8875872923
| 14> S 1.975096224 -1.7220121455 -0.4923067538
| 15> C 0.2591314507 -1.7628472168 -1.0490990759
| 16> S -0.9276936906 -1.5255653825 0.3122889661
| 17> P -2.0375344079 0.1495753174 -0.3945426949
| 18> S -2.025192911 0.4086635356 -2.330971785
| 19> O -1.5970448939 1.4091802759 0.4374399185
| 20> C -1.6413798375 1.4554404601 1.8858173313
| 21> C -2.8824299611 2.1824981885 2.3586713696
| 22> O -3.4695789491 -0.160397721 0.2256669053
| 23> C -4.290808009 -1.223326883 -0.2991203482
| 24> C -5.6955334911 -1.0337084318 0.2357974936
| 25> H 4.9850699172 -0.9708604509 -1.3257620937
| 26> H 3.7654815986 -0.2031653674 -2.3544410771
| 27> H 5.460308437 0.2794451822 -2.490090525
| 28> H 4.0584015341 1.9416854579 -1.2139534345
| 29> H 5.4032026804 1.283705314 -0.2339876517
| 30> H 1.1432881706 -0.0418821597 3.4406903546
| 31> H 1.0872796285 -1.4459633336 2.337216836
| 32> H 3.6301020749 0.0928408915 3.0665974905
| 33> H 3.1421075417 -1.4596486985 3.7698295705
| 34> H 3.5395283259 -1.3517690472 2.04902246
| 35> H 0.0980275035 -2.7521657763 -1.4694704763
| 36> H 0.0825278471 -0.9830412151 -1.7956051488
| 37> H -1.6065178522 0.4327644904 2.272890032
| 38> H -0.729504248 1.9870172137 2.1666338938
| 39> H -2.9153145262 3.1791054136 1.9268635727
| 40> H -3.7736207186 1.6394857298 2.0557613482
| 41> H -2.8563131055 2.259674707 3.4410983773
| 42> H -4.2646694278 -1.1731014883 -1.3925971195
| 43> H -3.8640224366 -2.1759367435 0.0265151164
| 44> H -6.0917200747 -0.0751197732 -0.0873995232
| 45> H -6.3292232539 -1.8284192914 -0.1435069614
| 46> H -5.6884156454 -1.0663050907 1.3213864859
| 47> *
| 48>
| 49>                          ****END OF INPUT****

CARTESIAN COORDINATES (ANGSTROEM)
---------------------------------
  C      4.687041   -0.038360   -1.798066
  C      4.476229    1.040067   -0.754912
  O      3.594814    0.616068    0.298244
  P      2.051438    0.329824    0.061325
  S      1.170958    1.589190   -1.157818
  O      1.446763    0.421572    1.515627
  C      1.630186   -0.532299    2.596409
  C      3.084135   -0.829549    2.887587
  S      1.975096   -1.722012   -0.492307
  C      0.259131   -1.762847   -1.049099
  S     -0.927694   -1.525565    0.312289
  P     -2.037534    0.149575   -0.394543
  S     -2.025193    0.408664   -2.330972
  O     -1.597045    1.409180    0.437440
  C     -1.641380    1.455440    1.885817
  C     -2.882430    2.182498    2.358671
  O     -3.469579   -0.160398    0.225667
  C     -4.290808   -1.223327   -0.299120
  C     -5.695533   -1.033708    0.235797
  H      4.985070   -0.970860   -1.325762
  H      3.765482   -0.203165   -2.354441
  H      5.460308    0.279445   -2.490091
  H      4.058402    1.941685   -1.213953
  H      5.403203    1.283705   -0.233988
  H      1.143288   -0.041882    3.440690
  H      1.087280   -1.445963    2.337217
  H      3.630102    0.092841    3.066597
  H      3.142108   -1.459649    3.769830
  H      3.539528   -1.351769    2.049022
  H      0.098028   -2.752166   -1.469470
  H      0.082528   -0.983041   -1.795605
  H     -1.606518    0.432764    2.272890
  H     -0.729504    1.987017    2.166634
  H     -2.915315    3.179105    1.926864
  H     -3.773621    1.639486    2.055761
  H     -2.856313    2.259675    3.441098
  H     -4.264669   -1.173101   -1.392597
  H     -3.864022   -2.175937    0.026515
  H     -6.091720   -0.075120   -0.087400
  H     -6.329223   -1.828419   -0.143507
  H     -5.688416   -1.066305    1.321386

 Total Charge           Charge          ....    0
 Multiplicity           Mult            ....    1
 Number of Electrons    NEL             ....  202
 Basis Dimension        Dim             ....  334

ORBITAL ENERGIES
----------------

  NO   OCC          E(Eh)            E(eV)
   0   2.0000     -88.045095     -2395.8288
   1   2.0000     -88.040572     -2395.7058
   2   2.0000     -87.978204     -2394.0086
   3   2.0000     -87.976853     -2393.9719
   4   2.0000     -76.423376     -2079.5858
   5   2.0000     -76.420576     -2079.5096
   6   2.0000     -18.791594      -511.3453
   7   2.0000     -18.790754      -511.3224
   8   2.0000     -18.790381      -511.3123
   9   2.0000     -18.784439      -511.1506
  10   2.0000      -9.956299      -270.9247
  11   2.0000      -9.953918      -270.8599
  12   2.0000      -9.951517      -270.7946
  13   2.0000      -9.950395      -270.7640
  14   2.0000      -9.949970      -270.7525
  15   2.0000      -9.888688      -269.0849
  16   2.0000      -9.888025      -269.0668
  17   2.0000      -9.883100      -268.9328
  18   2.0000      -9.882088      -268.9053
  19   2.0000      -7.689946      -209.2541
  20   2.0000      -7.685201      -209.1249
  21   2.0000      -7.623464      -207.4450
  22   2.0000      -7.621763      -207.3987
  23   2.0000      -6.420615      -174.7138
  24   2.0000      -6.418088      -174.6451
  25   2.0000      -5.717764      -155.5883
  26   2.0000      -5.714299      -155.4940
  27   2.0000      -5.713002      -155.4587
  28   2.0000      -5.709600      -155.3661
  29   2.0000      -5.707168      -155.2999
  30   2.0000      -5.702409      -155.1704
  31   2.0000      -5.652556      -153.8139
  32   2.0000      -5.650810      -153.7664
  33   2.0000      -5.643961      -153.5800
  34   2.0000      -5.643519      -153.5680
  35   2.0000      -5.642224      -153.5327
  36   2.0000      -5.641973      -153.5259
  37   2.0000      -4.643419      -126.3538
  38   2.0000      -4.642497      -126.3288
  39   2.0000      -4.640871      -126.2845
  40   2.0000      -4.640755      -126.2814
  41   2.0000      -4.639863      -126.2571
  42   2.0000      -4.638336      -126.2155
  43   2.0000      -0.985867       -26.8268
  44   2.0000      -0.984443       -26.7880
  45   2.0000      -0.944620       -25.7044
  46   2.0000      -0.939950       -25.5773
  47   2.0000      -0.761378       -20.7182
  48   2.0000      -0.718573       -19.5534
  49   2.0000      -0.710593       -19.3362
  50   2.0000      -0.690550       -18.7908
  51   2.0000      -0.689221       -18.7547
  52   2.0000      -0.675774       -18.3888
  53   2.0000      -0.646590       -17.5946
  54   2.0000      -0.630555       -17.1583
  55   2.0000      -0.595661       -16.2087
  56   2.0000      -0.584989       -15.9184
  57   2.0000      -0.577756       -15.7215
  58   2.0000      -0.566675       -15.4200
  59   2.0000      -0.562883       -15.3168
  60   2.0000      -0.506984       -13.7957
  61   2.0000      -0.491256       -13.3678
  62   2.0000      -0.477745       -13.0001
  63   2.0000      -0.470950       -12.8152
  64   2.0000      -0.448549       -12.2056
  65   2.0000      -0.445758       -12.1297
  66   2.0000      -0.442046       -12.0287
  67   2.0000      -0.439000       -11.9458
  68   2.0000      -0.431485       -11.7413
  69   2.0000      -0.422000       -11.4832
  70   2.0000      -0.410602       -11.1731
  71   2.0000      -0.399834       -10.8800
  72   2.0000      -0.385936       -10.5018
  73   2.0000      -0.384338       -10.4584
  74   2.0000      -0.378478       -10.2989
  75   2.0000      -0.366199        -9.9648
  76   2.0000      -0.362895        -9.8749
  77   2.0000      -0.360142        -9.8000
  78   2.0000      -0.354124        -9.6362
  79   2.0000      -0.353171        -9.6103
  80   2.0000      -0.348462        -9.4821
  81   2.0000      -0.346283        -9.4228
  82   2.0000      -0.339965        -9.2509
  83   2.0000      -0.337429        -9.1819
  84   2.0000      -0.334438        -9.1005
  85   2.0000      -0.314529        -8.5588
  86   2.0000      -0.313053        -8.5186
  87   2.0000      -0.297188        -8.0869
  88   2.0000      -0.294444        -8.0122
  89   2.0000      -0.289925        -7.8893
  90   2.0000      -0.287490        -7.8230
  91   2.0000      -0.273513        -7.4427
  92   2.0000      -0.268766        -7.3135
  93   2.0000      -0.260473        -7.0878
  94   2.0000      -0.255370        -6.9490
  95   2.0000      -0.236721        -6.4415
  96   2.0000      -0.220667        -6.0047
  97   2.0000      -0.210763        -5.7351
  98   2.0000      -0.197391        -5.3713
  99   2.0000      -0.188762        -5.1365
 100   2.0000      -0.181545        -4.9401
 101   0.0000      -0.040367        -1.0985
 102   0.0000      -0.030427        -0.8280
 103   0.0000      -0.008066        -0.2195
 104   0.0000       0.008575         0.2333
 105   0.0000       0.020681         0.5628

MULLIKEN ATOMIC CHARGES
-----------------------
   0 C :   -0.320255
   1 C :    0.000220
   2 O :   -0.374644
   3 P :    0.584279
   4 S :   -0.279685
   5 O :   -0.358372
   6 C :   -0.007985
   7 C :   -0.299227
   8 S :   -0.115631
   9 C :   -0.337315
  10 S :   -0.135932
  11 P :    0.604278
  12 S :   -0.290139
  13 O :   -0.338256
  14 C :   -0.021083
  15 C :   -0.284670
  16 O :   -0.386750
  17 C :   -0.008242
  18 C :   -0.282540
  19 H :    0.114594
  20 H :    0.131745
  21 H :    0.114321
  22 H :    0.113929
  23 H :    0.103160
  24 H :    0.103119
  25 H :    0.113365
  26 H :    0.121648
  27 H :    0.112220
  28 H :    0.119132
  29 H :    0.180164
  30 H :    0.208099
  31 H :    0.097541
  32 H :    0.120247
  33 H :    0.122139
  34 H :    0.120292
  35 H :    0.104699
  36 H :    0.104060
  37 H :    0.098855
  38 H :    0.122648
  39 H :    0.112099
  40 H :    0.113871
Sum of atomic charges:    0.0000000

LOEWDIN ATOMIC CHARGES
----------------------
   0 C :   -0.371470
   1 C :   -0.118120
   2 O :   -0.242918
   3 P :    0.562223
   4 S :   -0.287793
   5 O :   -0.235818
   6 C :   -0.117373
   7 C :   -0.366156
   8 S :    0.072403
   9 C :   -0.478680
  10 S :    0.055784
  11 P :    0.568940
  12 S :   -0.294623
  13 O :   -0.221676
  14 C :   -0.112970
  15 C :   -0.359366
  16 O :   -0.251693
  17 C :   -0.123435
  18 C :   -0.350901
  19 H :    0.121967
  20 H :    0.123106
  21 H :    0.131790
  22 H :    0.113081
  23 H :    0.117822
  24 H :    0.118011
  25 H :    0.102137
  26 H :    0.128524
  27 H :    0.131067
  28 H :    0.118180
  29 H :    0.136768
  30 H :    0.126281
  31 H :    0.100965
  32 H :    0.122484
  33 H :    0.130206
  34 H :    0.125103
  35 H :    0.127263
  36 H :    0.108551
  37 H :    0.105480
  38 H :    0.129349
  39 H :    0.130910
  40 H :    0.124598

  Mayer bond orders larger than 0.100000
B(  0-C ,  1-C ) :   1.1657 B(  0-C , 19-H ) :   0.9449 B(  0-C , 20-H ) :   0.9338
B(  0-C , 21-H ) :   0.9376 B(  1-C ,  2-O ) :   0.9052 B(  1-C , 22-H ) :   0.9145
B(  1-C , 23-H ) :   0.9339 B(  2-O ,  3-P ) :   1.0885 B(  3-P ,  4-S ) :   1.6595
B(  3-P ,  5-O ) :   1.1273 B(  3-P ,  8-S ) :   0.9299 B(  4-S ,  8-S ) :   0.1070
B(  5-O ,  6-C ) :   0.8970 B(  6-C ,  7-C ) :   1.1739 B(  6-C , 24-H ) :   0.9326
B(  6-C , 25-H ) :   0.9095 B(  7-C , 26-H ) :   0.9426 B(  7-C , 27-H ) :   0.9353
B(  7-C , 28-H ) :   0.9376 B(  8-S ,  9-C ) :   1.0024 B(  9-C , 10-S ) :   0.9947
B(  9-C , 29-H ) :   0.9107 B(  9-C , 30-H ) :   0.8451 B( 10-S , 11-P ) :   0.9392
B( 10-S , 12-S ) :   0.1138 B( 11-P , 12-S ) :   1.6521 B( 11-P , 13-O ) :   1.1513
B( 11-P , 16-O ) :   1.0647 B( 13-O , 14-C ) :   0.8939 B( 14-C , 15-C ) :   1.1586
B( 14-C , 31-H ) :   0.9156 B( 14-C , 32-H ) :   0.9284 B( 15-C , 33-H ) :   0.9464
B( 15-C , 34-H ) :   0.9409 B( 15-C , 35-H ) :   0.9403 B( 16-O , 17-C ) :   0.9085
B( 17-C , 18-C ) :   1.1585 B( 17-C , 36-H ) :   0.9091 B( 17-C , 37-H ) :   0.9248
B( 18-C , 38-H ) :   0.9509 B( 18-C , 39-H ) :   0.9422 B( 18-C , 40-H ) :   0.9509

Dispersion correction           -0.067286140
FINAL SINGLE POINT ENERGY     -2929.515875470243

DIPOLE MOMENT
-------------

Method             : SCF
Type of density    : Electron Density
Multiplicity       :   1
Irrep              :   0
Energy             : -2929.6350104507614560 Eh
Relativity type    :
Basis              : AO
                                X                 Y                 Z
Electronic contribution:      1.956705655       1.571125210     -13.229268800
Nuclear contribution   :     -1.635790207      -2.639616843      14.858152839
                        -----------------------------------------
Total Dipole Moment    :      0.320915448      -1.068491633       1.628884039
                        -----------------------------------------
Magnitude (a.u.)       :      1.974316162
Magnitude (Debye)      :      5.018312871

Rotational constants in cm-1:             0.013422             0.005085             0.004794
Rotational constants in MHz :           402.389214           152.458285           143.706278

                             ****ORCA TERMINATED NORMALLY****
TOTAL RUN TIME: 0 days 0 hours 0 minutes 21 seconds 610 msec
