                         Program Version 6.0.0  -   RELEASE  -
|  1> ! pbe def2-sv(p) def2/J RI DEFGRID1 loosescf d4 GCP(DFT/SV(P)) printgap
|  2> %output
|  3>     printlevel normal
|  4> end
|  5> * xyz 0 1
|  6> C 3.635140054 0.0606689733 -2.8584408814
|  7> C 4.5414255669 -0.4614018702 -1.7605541177
|  8> O 3.8238394533 -1.2506627192 -0.7988553963
|  9> P 2.7993859107 -0.6036253004 0.221024406
| 10> S 3.3143937043 1.1894007099 0.8454232933
| 11> O 2.8597732825 -1.7947941321 1.2582201084
| 12> C 1.8451371418 -2.1073251911 2.2301794479
| 13> C 1.4845167084 -0.9262829081 3.1087880768
| 14> S 0.881513899 -0.7564620206 -0.7173830011
| 15> C 0.2475421948 0.9104453262 -0.3790837358
| 16> S -1.071555618 0.9263236697 0.8488746733
| 17> P -2.6664417883 0.459101073 -0.4937485644
| 18> S -2.4900880554 1.2706985483 -2.2679665244
| 19> O -3.9633225036 0.7709409314 0.3684167477
| 20> C -4.1907938176 1.9775755687 1.1211668838
| 21> C -4.0701182649 3.2265350888 0.2739146018
| 22> O -2.7741648278 -1.1026955518 -0.6735525779
| 23> C -3.1492304552 -2.0674713373 0.3398529791
| 24> C -1.9443906526 -2.5365144347 1.1309540856
| 25> H 4.2364004009 0.5367584296 -3.6263313473
| 26> H 3.0672579303 -0.7548508257 -3.2996186828
| 27> H 2.9401369818 0.7952105726 -2.4526313814
| 28> H 5.0313491138 0.3681776503 -1.239703241
| 29> H 5.2940569071 -1.1461057465 -2.1537731915
| 30> H 0.9650244288 -2.4816439032 1.7005190843
| 31> H 2.292820532 -2.9137786225 2.8136089272
| 32> H 2.3788346249 -0.505771581 3.562691366
| 33> H 0.9968923891 -0.1458730215 2.5239730394
| 34> H 0.8063288149 -1.2529676945 3.8906040067
| 35> H -0.1499809046 1.3157083306 -1.3117877447
| 36> H 1.0642151544 1.5253416243 0.0093237074
| 37> H -5.2051774925 1.8524890436 1.5042034052
| 38> H -3.478886013 2.0021741489 1.9506016845
| 39> H -4.7305234762 3.1662566594 -0.5881211929
| 40> H -4.3343378136 4.0941411293 0.8698928846
| 41> H -3.0483479591 3.3413753387 -0.0852669637
| 42> H -3.9077781645 -1.6249880872 0.987279952
| 43> H -3.5859786383 -2.8845875599 -0.2368269567
| 44> H -2.2386580028 -3.3666308104 1.7653654182
| 45> H -1.1653227168 -2.8658643694 0.446906433
| 46> H -1.5575779596 -1.7337252277 1.7539240143
| 47> *
| 48>
| 49>                          ****END OF INPUT****

CARTESIAN COORDINATES (ANGSTROEM)
---------------------------------
  C      3.635140    0.060669   -2.858441
  C      4.541426   -0.461402   -1.760554
  O      3.823839   -1.250663   -0.798855
  P      2.799386   -0.603625    0.221024
  S      3.314394    1.189401    0.845423
  O      2.859773   -1.794794    1.258220
  C      1.845137   -2.107325    2.230179
  C      1.484517   -0.926283    3.108788
  S      0.881514   -0.756462   -0.717383
  C      0.247542    0.910445   -0.379084
  S     -1.071556    0.926324    0.848875
  P     -2.666442    0.459101   -0.493749
  S     -2.490088    1.270699   -2.267967
  O     -3.963323    0.770941    0.368417
  C     -4.190794    1.977576    1.121167
  C     -4.070118    3.226535    0.273915
  O     -2.774165   -1.102696   -0.673553
  C     -3.149230   -2.067471    0.339853
  C     -1.944391   -2.536514    1.130954
  H      4.236400    0.536758   -3.626331
  H      3.067258   -0.754851   -3.299619
  H      2.940137    0.795211   -2.452631
  H      5.031349    0.368178   -1.239703
  H      5.294057   -1.146106   -2.153773
  H      0.965024   -2.481644    1.700519
  H      2.292821   -2.913779    2.813609
  H      2.378835   -0.505772    3.562691
  H      0.996892   -0.145873    2.523973
  H      0.806329   -1.252968    3.890604
  H     -0.149981    1.315708   -1.311788
  H      1.064215    1.525342    0.009324
  H     -5.205177    1.852489    1.504203
  H     -3.478886    2.002174    1.950602
  H     -4.730523    3.166257   -0.588121
  H     -4.334338    4.094141    0.869893
  H     -3.048348    3.341375   -0.085267
  H     -3.907778   -1.624988    0.987280
  H     -3.585979   -2.884588   -0.236827
  H     -2.238658   -3.366631    1.765365
  H     -1.165323   -2.865864    0.446906
  H     -1.557578   -1.733725    1.753924

 Total Charge           Charge          ....    0
 Multiplicity           Mult            ....    1
 Number of Electrons    NEL             ....  202
 Basis Dimension        Dim             ....  334

ORBITAL ENERGIES
----------------

  NO   OCC          E(Eh)            E(eV)
   0   2.0000     -88.049204     -2395.9407
   1   2.0000     -88.046337     -2395.8626
   2   2.0000     -87.993219     -2394.4172
   3   2.0000     -87.984865     -2394.1899
   4   2.0000     -76.430149     -2079.7701
   5   2.0000     -76.429588     -2079.7548
   6   2.0000     -18.801672      -511.6195
   7   2.0000     -18.793765      -511.4044
   8   2.0000     -18.792285      -511.3641
   9   2.0000     -18.789202      -511.2802
  10   2.0000      -9.964311      -271.1427
  11   2.0000      -9.959138      -271.0019
  12   2.0000      -9.958656      -270.9888
  13   2.0000      -9.950816      -270.7755
  14   2.0000      -9.949947      -270.7518
  15   2.0000      -9.890024      -269.1212
  16   2.0000      -9.886583      -269.0276
  17   2.0000      -9.886517      -269.0258
  18   2.0000      -9.881805      -268.8976
  19   2.0000      -7.693528      -209.3515
  20   2.0000      -7.690826      -209.2780
  21   2.0000      -7.638065      -207.8423
  22   2.0000      -7.630143      -207.6267
  23   2.0000      -6.427456      -174.9000
  24   2.0000      -6.426808      -174.8823
  25   2.0000      -5.721079      -155.6785
  26   2.0000      -5.718541      -155.6094
  27   2.0000      -5.718129      -155.5982
  28   2.0000      -5.715317      -155.5217
  29   2.0000      -5.710877      -155.4009
  30   2.0000      -5.708090      -155.3250
  31   2.0000      -5.666871      -154.2034
  32   2.0000      -5.659243      -153.9958
  33   2.0000      -5.658721      -153.9816
  34   2.0000      -5.658329      -153.9710
  35   2.0000      -5.650735      -153.7643
  36   2.0000      -5.650108      -153.7473
  37   2.0000      -4.650456      -126.5453
  38   2.0000      -4.649350      -126.5153
  39   2.0000      -4.649023      -126.5064
  40   2.0000      -4.648879      -126.5024
  41   2.0000      -4.647415      -126.4626
  42   2.0000      -4.647305      -126.4596
  43   2.0000      -0.993570       -27.0364
  44   2.0000      -0.990093       -26.9418
  45   2.0000      -0.949155       -25.8278
  46   2.0000      -0.945489       -25.7281
  47   2.0000      -0.764858       -20.8128
  48   2.0000      -0.724786       -19.7224
  49   2.0000      -0.715545       -19.4710
  50   2.0000      -0.695283       -18.9196
  51   2.0000      -0.684579       -18.6283
  52   2.0000      -0.682393       -18.5689
  53   2.0000      -0.654482       -17.8094
  54   2.0000      -0.640912       -17.4401
  55   2.0000      -0.601985       -16.3809
  56   2.0000      -0.593939       -16.1619
  57   2.0000      -0.584814       -15.9136
  58   2.0000      -0.573093       -15.5947
  59   2.0000      -0.562568       -15.3083
  60   2.0000      -0.507119       -13.7994
  61   2.0000      -0.495863       -13.4931
  62   2.0000      -0.476901       -12.9771
  63   2.0000      -0.468517       -12.7490
  64   2.0000      -0.459742       -12.5102
  65   2.0000      -0.450798       -12.2668
  66   2.0000      -0.444099       -12.0845
  67   2.0000      -0.436976       -11.8907
  68   2.0000      -0.427575       -11.6349
  69   2.0000      -0.427011       -11.6196
  70   2.0000      -0.416052       -11.3214
  71   2.0000      -0.413497       -11.2518
  72   2.0000      -0.404737       -11.0134
  73   2.0000      -0.391300       -10.6478
  74   2.0000      -0.379621       -10.3300
  75   2.0000      -0.375007       -10.2044
  76   2.0000      -0.360824        -9.8185
  77   2.0000      -0.360656        -9.8140
  78   2.0000      -0.356804        -9.7091
  79   2.0000      -0.350919        -9.5490
  80   2.0000      -0.348778        -9.4907
  81   2.0000      -0.346728        -9.4350
  82   2.0000      -0.345303        -9.3962
  83   2.0000      -0.340517        -9.2659
  84   2.0000      -0.338053        -9.1989
  85   2.0000      -0.324834        -8.8392
  86   2.0000      -0.313427        -8.5288
  87   2.0000      -0.303511        -8.2590
  88   2.0000      -0.301001        -8.1906
  89   2.0000      -0.296015        -8.0550
  90   2.0000      -0.289651        -7.8818
  91   2.0000      -0.280942        -7.6448
  92   2.0000      -0.272464        -7.4141
  93   2.0000      -0.266992        -7.2652
  94   2.0000      -0.259239        -7.0542
  95   2.0000      -0.238063        -6.4780
  96   2.0000      -0.223086        -6.0705
  97   2.0000      -0.214055        -5.8247
  98   2.0000      -0.207982        -5.6595
  99   2.0000      -0.203154        -5.5281
 100   2.0000      -0.197705        -5.3798
 101   0.0000      -0.046378        -1.2620
 102   0.0000      -0.038546        -1.0489
 103   0.0000      -0.016037        -0.4364
 104   0.0000      -0.000442        -0.0120
 105   0.0000       0.008989         0.2446

MULLIKEN ATOMIC CHARGES
-----------------------
   0 C :   -0.312109
   1 C :   -0.004506
   2 O :   -0.353997
   3 P :    0.590614
   4 S :   -0.322560
   5 O :   -0.354663
   6 C :   -0.016745
   7 C :   -0.320734
   8 S :   -0.090536
   9 C :   -0.369767
  10 S :   -0.125062
  11 P :    0.615724
  12 S :   -0.304368
  13 O :   -0.384371
  14 C :   -0.012887
  15 C :   -0.308956
  16 O :   -0.350692
  17 C :    0.003731
  18 C :   -0.344410
  19 H :    0.112791
  20 H :    0.120957
  21 H :    0.121615
  22 H :    0.114072
  23 H :    0.106968
  24 H :    0.123666
  25 H :    0.109785
  26 H :    0.128732
  27 H :    0.127642
  28 H :    0.110846
  29 H :    0.198391
  30 H :    0.194773
  31 H :    0.110377
  32 H :    0.114888
  33 H :    0.128481
  34 H :    0.113201
  35 H :    0.127744
  36 H :    0.106103
  37 H :    0.111389
  38 H :    0.109425
  39 H :    0.141483
  40 H :    0.132965
Sum of atomic charges:    0.0000000

LOEWDIN ATOMIC CHARGES
----------------------
   0 C :   -0.366990
   1 C :   -0.120086
   2 O :   -0.234035
   3 P :    0.572037
   4 S :   -0.303495
   5 O :   -0.231771
   6 C :   -0.115731
   7 C :   -0.369876
   8 S :    0.083729
   9 C :   -0.496007
  10 S :    0.074957
  11 P :    0.568118
  12 S :   -0.300586
  13 O :   -0.243923
  14 C :   -0.114569
  15 C :   -0.368518
  16 O :   -0.234099
  17 C :   -0.109493
  18 C :   -0.373355
  19 H :    0.130672
  20 H :    0.126542
  21 H :    0.120000
  22 H :    0.110051
  23 H :    0.119741
  24 H :    0.111082
  25 H :    0.122486
  26 H :    0.130962
  27 H :    0.111760
  28 H :    0.129610
  29 H :    0.125560
  30 H :    0.123471
  31 H :    0.121723
  32 H :    0.108336
  33 H :    0.131536
  34 H :    0.131199
  35 H :    0.122645
  36 H :    0.111178
  37 H :    0.123191
  38 H :    0.128779
  39 H :    0.126714
  40 H :    0.116458

  Mayer bond orders larger than 0.100000
B(  0-C ,  1-C ) :   1.1617 B(  0-C , 19-H ) :   0.9389 B(  0-C , 20-H ) :   0.9445
B(  0-C , 21-H ) :   0.9400 B(  1-C ,  2-O ) :   0.9137 B(  1-C , 22-H ) :   0.9144
B(  1-C , 23-H ) :   0.9336 B(  2-O ,  3-P ) :   1.1318 B(  3-P ,  4-S ) :   1.5875
B(  3-P ,  5-O ) :   1.1356 B(  3-P ,  8-S ) :   0.9387 B(  4-S ,  8-S ) :   0.1268
B(  4-S , 30-H ) :   0.1237 B(  5-O ,  6-C ) :   0.9148 B(  6-C ,  7-C ) :   1.1658
B(  6-C , 24-H ) :   0.9169 B(  6-C , 25-H ) :   0.9321 B(  7-C , 26-H ) :   0.9407
B(  7-C , 27-H ) :   0.9266 B(  7-C , 28-H ) :   0.9348 B(  8-S ,  9-C ) :   1.0019
B(  9-C , 10-S ) :   1.0109 B(  9-C , 29-H ) :   0.8528 B(  9-C , 30-H ) :   0.8455
B( 10-S , 11-P ) :   0.9293 B( 10-S , 12-S ) :   0.1114 B( 11-P , 12-S ) :   1.6461
B( 11-P , 13-O ) :   1.0881 B( 11-P , 16-O ) :   1.1423 B( 12-S , 29-H ) :   0.1119
B( 13-O , 14-C ) :   0.9082 B( 14-C , 15-C ) :   1.1672 B( 14-C , 31-H ) :   0.9329
B( 14-C , 32-H ) :   0.9259 B( 15-C , 33-H ) :   0.9433 B( 15-C , 34-H ) :   0.9349
B( 15-C , 35-H ) :   0.9318 B( 16-O , 17-C ) :   0.9030 B( 17-C , 18-C ) :   1.1642
B( 17-C , 36-H ) :   0.9215 B( 17-C , 37-H ) :   0.9341 B( 18-C , 38-H ) :   0.9362
B( 18-C , 39-H ) :   0.9328 B( 18-C , 40-H ) :   0.9323

Dispersion correction           -0.064680292
FINAL SINGLE POINT ENERGY     -2929.516748930176

DIPOLE MOMENT
-------------

Method             : SCF
Type of density    : Electron Density
Multiplicity       :   1
Irrep              :   0
Energy             : -2929.6369564684991929 Eh
Relativity type    :
Basis              : AO
                                X                 Y                 Z
Electronic contribution:      3.495497060       1.810114236      -7.333009107
Nuclear contribution   :     -4.199526444      -2.510521349       8.525019905
                        -----------------------------------------
Total Dipole Moment    :     -0.704029384      -0.700407112       1.192010799
                        -----------------------------------------
Magnitude (a.u.)       :      1.551488718
Magnitude (Debye)      :      3.943570919

Rotational constants in cm-1:             0.012392             0.004509             0.004175
Rotational constants in MHz :           371.491119           135.184698           125.176625

                             ****ORCA TERMINATED NORMALLY****
TOTAL RUN TIME: 0 days 0 hours 0 minutes 21 seconds 141 msec
