                         Program Version 6.0.0  -   RELEASE  -
|  1> ! r2scan-3c def2/J RI DEFGRID2 scfconv6 printgap
|  2> %output
|  3>     printlevel normal
|  4> end
|  5> * xyz 0 1
|  6> C 4.1058046777 -0.6456809209 -2.2754749828
|  7> C 4.3631470824 -0.8319123002 -0.7934380218
|  8> O 3.144730242 -0.8389242273 -0.0326978889
|  9> P 2.2854085517 0.4888403413 0.1887042681
| 10> S 3.3316274787 2.1305186612 0.397913097
| 11> O 1.3673121283 0.0881749725 1.4167670668
| 12> C 1.7983022374 0.2691503548 2.7832596781
| 13> C 2.9339070331 -0.6621608312 3.1502215357
| 14> S 0.825069451 0.4764857254 -1.3415952828
| 15> C 0.2399716577 -1.2381806195 -1.1593966957
| 16> S -0.9332287231 -1.4797610466 0.1969169479
| 17> P -2.3748730962 -0.0602016569 -0.4642104981
| 18> S -2.6381104475 0.0832620714 -2.3945116788
| 19> O -1.9282813644 1.3137805017 0.1780410295
| 20> C -1.7300223848 1.5090332988 1.5970583908
| 21> C -2.9542283497 2.1343796467 2.2326712569
| 22> O -3.6685054484 -0.4272695467 0.3862606006
| 23> C -4.6443221461 -1.3845170274 -0.0670691924
| 24> C -4.0842861074 -2.7896861826 -0.1451629986
| 25> H 3.4315828091 -1.4122332859 -2.6489862932
| 26> H 3.6584500335 0.3322069677 -2.4540998581
| 27> H 5.046470773 -0.7037747371 -2.8136336402
| 28> H 5.0029202323 -0.0283137404 -0.4147761382
| 29> H 4.8157324716 -1.8011833426 -0.5798567016
| 30> H 2.0963117773 1.3142208979 2.9146630528
| 31> H 0.9013727754 0.0598127759 3.3677616827
| 32> H 2.6686757866 -1.6886817527 2.9117196242
| 33> H 3.8320581147 -0.3899261475 2.5983475826
| 34> H 3.1354226262 -0.5779455248 4.2135401449
| 35> H 1.0815223797 -1.8987707694 -0.9672468043
| 36> H -0.2521686318 -1.4730292606 -2.1023796918
| 37> H -1.4923228631 0.5450819325 2.0567127866
| 38> H -0.8627439341 2.1708133776 1.6642432823
| 39> H -3.8022587245 1.459087626 2.1582515999
| 40> H -2.7460273401 2.3384809339 3.2783328185
| 41> H -3.199810103 3.0643890175 1.7271555411
| 42> H -5.4430768154 -1.309751105 0.6722252965
| 43> H -5.0110802614 -1.0617805973 -1.0460433694
| 44> H -3.6090928377 -3.0622824539 0.7937667633
| 45> H -4.8916359049 -3.4834847178 -0.3563221247
| 46> H -3.3481499748 -2.8528335774 -0.9447408791
| 47> *
| 48>
| 49>                          ****END OF INPUT****

CARTESIAN COORDINATES (ANGSTROEM)
---------------------------------
  C      4.105805   -0.645681   -2.275475
  C      4.363147   -0.831912   -0.793438
  O      3.144730   -0.838924   -0.032698
  P      2.285409    0.488840    0.188704
  S      3.331627    2.130519    0.397913
  O      1.367312    0.088175    1.416767
  C      1.798302    0.269150    2.783260
  C      2.933907   -0.662161    3.150222
  S      0.825069    0.476486   -1.341595
  C      0.239972   -1.238181   -1.159397
  S     -0.933229   -1.479761    0.196917
  P     -2.374873   -0.060202   -0.464210
  S     -2.638110    0.083262   -2.394512
  O     -1.928281    1.313781    0.178041
  C     -1.730022    1.509033    1.597058
  C     -2.954228    2.134380    2.232671
  O     -3.668505   -0.427270    0.386261
  C     -4.644322   -1.384517   -0.067069
  C     -4.084286   -2.789686   -0.145163
  H      3.431583   -1.412233   -2.648986
  H      3.658450    0.332207   -2.454100
  H      5.046471   -0.703775   -2.813634
  H      5.002920   -0.028314   -0.414776
  H      4.815732   -1.801183   -0.579857
  H      2.096312    1.314221    2.914663
  H      0.901373    0.059813    3.367762
  H      2.668676   -1.688682    2.911720
  H      3.832058   -0.389926    2.598348
  H      3.135423   -0.577946    4.213540
  H      1.081522   -1.898771   -0.967247
  H     -0.252169   -1.473029   -2.102380
  H     -1.492323    0.545082    2.056713
  H     -0.862744    2.170813    1.664243
  H     -3.802259    1.459088    2.158252
  H     -2.746027    2.338481    3.278333
  H     -3.199810    3.064389    1.727156
  H     -5.443077   -1.309751    0.672225
  H     -5.011080   -1.061781   -1.046043
  H     -3.609093   -3.062282    0.793767
  H     -4.891636   -3.483485   -0.356322
  H     -3.348150   -2.852834   -0.944741

 Total Charge           Charge          ....    0
 Multiplicity           Mult            ....    1
 Number of Electrons    NEL             ....  202
 Basis Dimension        Dim             ....  539

ORBITAL ENERGIES
----------------

  NO   OCC          E(Eh)            E(eV)
   0   2.0000     -88.573504     -2410.2076
   1   2.0000     -88.572729     -2410.1865
   2   2.0000     -88.522701     -2408.8252
   3   2.0000     -88.520084     -2408.7539
   4   2.0000     -76.914503     -2092.9500
   5   2.0000     -76.913870     -2092.9328
   6   2.0000     -18.995351      -516.8898
   7   2.0000     -18.994347      -516.8624
   8   2.0000     -18.991725      -516.7911
   9   2.0000     -18.986722      -516.6550
  10   2.0000     -10.108593      -275.0688
  11   2.0000     -10.102455      -274.9018
  12   2.0000     -10.101523      -274.8764
  13   2.0000     -10.100711      -274.8543
  14   2.0000     -10.098304      -274.7888
  15   2.0000     -10.033340      -273.0211
  16   2.0000     -10.030624      -272.9471
  17   2.0000     -10.030541      -272.9449
  18   2.0000     -10.028818      -272.8980
  19   2.0000      -7.867413      -214.0832
  20   2.0000      -7.867388      -214.0825
  21   2.0000      -7.817299      -212.7195
  22   2.0000      -7.814822      -212.6521
  23   2.0000      -6.592975      -179.4040
  24   2.0000      -6.592192      -179.3827
  25   2.0000      -5.814792      -158.2285
  26   2.0000      -5.814287      -158.2148
  27   2.0000      -5.811268      -158.1326
  28   2.0000      -5.810977      -158.1247
  29   2.0000      -5.804463      -157.9475
  30   2.0000      -5.804302      -157.9431
  31   2.0000      -5.764904      -156.8710
  32   2.0000      -5.762548      -156.8069
  33   2.0000      -5.757685      -156.6746
  34   2.0000      -5.757265      -156.6631
  35   2.0000      -5.755051      -156.6029
  36   2.0000      -5.754803      -156.5961
  37   2.0000      -4.738326      -128.9364
  38   2.0000      -4.738079      -128.9297
  39   2.0000      -4.738047      -128.9288
  40   2.0000      -4.737094      -128.9029
  41   2.0000      -4.736677      -128.8915
  42   2.0000      -4.735668      -128.8641
  43   2.0000      -1.051995       -28.6262
  44   2.0000      -1.050240       -28.5785
  45   2.0000      -1.013752       -27.5856
  46   2.0000      -1.009152       -27.4604
  47   2.0000      -0.800919       -21.7941
  48   2.0000      -0.758838       -20.6490
  49   2.0000      -0.749748       -20.4017
  50   2.0000      -0.734812       -19.9953
  51   2.0000      -0.734676       -19.9916
  52   2.0000      -0.712221       -19.3805
  53   2.0000      -0.689643       -18.7661
  54   2.0000      -0.669478       -18.2174
  55   2.0000      -0.633019       -17.2253
  56   2.0000      -0.625062       -17.0088
  57   2.0000      -0.609170       -16.5764
  58   2.0000      -0.606656       -16.5080
  59   2.0000      -0.593994       -16.1634
  60   2.0000      -0.526245       -14.3199
  61   2.0000      -0.520034       -14.1508
  62   2.0000      -0.495771       -13.4906
  63   2.0000      -0.493809       -13.4372
  64   2.0000      -0.480856       -13.0848
  65   2.0000      -0.466868       -12.7041
  66   2.0000      -0.461574       -12.5601
  67   2.0000      -0.452755       -12.3201
  68   2.0000      -0.445539       -12.1237
  69   2.0000      -0.440619       -11.9899
  70   2.0000      -0.426661       -11.6100
  71   2.0000      -0.415591       -11.3088
  72   2.0000      -0.413775       -11.2594
  73   2.0000      -0.407988       -11.1019
  74   2.0000      -0.395558       -10.7637
  75   2.0000      -0.388129       -10.5615
  76   2.0000      -0.383092       -10.4245
  77   2.0000      -0.377218       -10.2646
  78   2.0000      -0.373715       -10.1693
  79   2.0000      -0.368374       -10.0240
  80   2.0000      -0.365956        -9.9582
  81   2.0000      -0.361037        -9.8243
  82   2.0000      -0.359586        -9.7848
  83   2.0000      -0.356515        -9.7013
  84   2.0000      -0.345130        -9.3915
  85   2.0000      -0.336600        -9.1593
  86   2.0000      -0.328548        -8.9402
  87   2.0000      -0.312010        -8.4902
  88   2.0000      -0.310636        -8.4528
  89   2.0000      -0.307546        -8.3688
  90   2.0000      -0.306414        -8.3379
  91   2.0000      -0.291817        -7.9407
  92   2.0000      -0.284011        -7.7283
  93   2.0000      -0.279456        -7.6044
  94   2.0000      -0.274905        -7.4805
  95   2.0000      -0.241700        -6.5770
  96   2.0000      -0.229511        -6.2453
  97   2.0000      -0.223035        -6.0691
  98   2.0000      -0.220632        -6.0037
  99   2.0000      -0.215866        -5.8740
 100   2.0000      -0.213347        -5.8055
 101   0.0000      -0.043276        -1.1776
 102   0.0000      -0.021715        -0.5909
 103   0.0000      -0.010704        -0.2913
 104   0.0000       0.003088         0.0840
 105   0.0000       0.007846         0.2135

MULLIKEN ATOMIC CHARGES
-----------------------
   0 C :   -0.429682
   1 C :   -0.156946
   2 O :   -0.297544
   3 P :    0.656255
   4 S :   -0.462231
   5 O :   -0.246916
   6 C :   -0.166040
   7 C :   -0.439483
   8 S :   -0.105369
   9 C :   -0.266682
  10 S :   -0.151453
  11 P :    0.651516
  12 S :   -0.435822
  13 O :   -0.258487
  14 C :   -0.104698
  15 C :   -0.481831
  16 O :   -0.290519
  17 C :   -0.167453
  18 C :   -0.444785
  19 H :    0.146970
  20 H :    0.176784
  21 H :    0.147710
  22 H :    0.170672
  23 H :    0.147977
  24 H :    0.174759
  25 H :    0.148694
  26 H :    0.156752
  27 H :    0.166457
  28 H :    0.147713
  29 H :    0.200009
  30 H :    0.215762
  31 H :    0.157925
  32 H :    0.166318
  33 H :    0.164513
  34 H :    0.144163
  35 H :    0.160789
  36 H :    0.147783
  37 H :    0.176344
  38 H :    0.152647
  39 H :    0.147974
  40 H :    0.179454
Sum of atomic charges:   -0.0000000

LOEWDIN ATOMIC CHARGES
----------------------
   0 C :   -0.402193
   1 C :    0.016803
   2 O :   -0.687928
   3 P :    0.369126
   4 S :   -0.112636
   5 O :   -0.693683
   6 C :    0.018527
   7 C :   -0.397579
   8 S :    0.197410
   9 C :   -0.415686
  10 S :    0.150806
  11 P :    0.377196
  12 S :   -0.095078
  13 O :   -0.652513
  14 C :    0.019407
  15 C :   -0.393168
  16 O :   -0.672776
  17 C :    0.021438
  18 C :   -0.409469
  19 H :    0.156658
  20 H :    0.168084
  21 H :    0.159919
  22 H :    0.180634
  23 H :    0.178362
  24 H :    0.180736
  25 H :    0.178353
  26 H :    0.161714
  27 H :    0.165212
  28 H :    0.159436
  29 H :    0.189691
  30 H :    0.191501
  31 H :    0.175269
  32 H :    0.184962
  33 H :    0.165325
  34 H :    0.157812
  35 H :    0.163101
  36 H :    0.179017
  37 H :    0.181032
  38 H :    0.159669
  39 H :    0.159292
  40 H :    0.166216

  Mayer bond orders larger than 0.100000
B(  0-C ,  1-C ) :   0.9347 B(  0-C , 19-H ) :   0.9698 B(  0-C , 20-H ) :   0.9592
B(  0-C , 21-H ) :   0.9602 B(  1-C ,  2-O ) :   0.8059 B(  1-C , 22-H ) :   0.9595
B(  1-C , 23-H ) :   0.9601 B(  2-O ,  3-P ) :   1.0194 B(  3-P ,  4-S ) :   1.8185
B(  3-P ,  5-O ) :   1.1159 B(  3-P ,  8-S ) :   1.0744 B(  5-O ,  6-C ) :   0.7860
B(  6-C ,  7-C ) :   0.9251 B(  6-C , 24-H ) :   0.9603 B(  6-C , 25-H ) :   0.9623
B(  7-C , 26-H ) :   0.9738 B(  7-C , 27-H ) :   0.9607 B(  7-C , 28-H ) :   0.9613
B(  8-S ,  9-C ) :   0.9061 B(  9-C , 10-S ) :   0.9159 B(  9-C , 29-H ) :   0.9146
B(  9-C , 30-H ) :   0.9156 B( 10-S , 11-P ) :   1.0151 B( 11-P , 12-S ) :   1.8340
B( 11-P , 13-O ) :   1.1463 B( 11-P , 16-O ) :   1.0331 B( 13-O , 14-C ) :   0.7369
B( 14-C , 15-C ) :   0.9329 B( 14-C , 31-H ) :   0.9678 B( 14-C , 32-H ) :   0.9543
B( 15-C , 33-H ) :   0.9700 B( 15-C , 34-H ) :   0.9657 B( 15-C , 35-H ) :   0.9736
B( 16-O , 17-C ) :   0.8183 B( 17-C , 18-C ) :   0.9156 B( 17-C , 36-H ) :   0.9615
B( 17-C , 37-H ) :   0.9697 B( 18-C , 38-H ) :   0.9669 B( 18-C , 39-H ) :   0.9564
B( 18-C , 40-H ) :   0.9644

Dispersion correction           -0.021713770
FINAL SINGLE POINT ENERGY     -2932.459540203591

DIPOLE MOMENT
-------------

Method             : SCF
Type of density    : Electron Density
Multiplicity       :   1
Irrep              :   0
Energy             : -2932.4842561168993598 Eh
Relativity type    :
Basis              : AO
                                X                 Y                 Z
Electronic contribution:     -0.979297644       8.614911246     -12.067570751
Nuclear contribution   :      0.996500125     -10.229201824      13.527222769
                        -----------------------------------------
Total Dipole Moment    :      0.017202480      -1.614290578       1.459652017
                        -----------------------------------------
Magnitude (a.u.)       :      2.176422295
Magnitude (Debye)      :      5.532025837

Rotational constants in cm-1:             0.012720             0.004937             0.004485
Rotational constants in MHz :           381.322495           147.999659           134.471340

                             ****ORCA TERMINATED NORMALLY****
TOTAL RUN TIME: 0 days 0 hours 1 minutes 20 seconds 471 msec
