                         Program Version 6.0.0  -   RELEASE  -
|  1> ! r2scan-3c def2/J RI DEFGRID2 scfconv6 printgap
|  2> %output
|  3>     printlevel normal
|  4> end
|  5> %cpcm
|  6>     smd true
|  7>     smdsolvent "water"
|  8> end
|  9> * xyz 0 1
| 10> C 4.1058046777 -0.6456809209 -2.2754749828
| 11> C 4.3631470824 -0.8319123002 -0.7934380218
| 12> O 3.144730242 -0.8389242273 -0.0326978889
| 13> P 2.2854085517 0.4888403413 0.1887042681
| 14> S 3.3316274787 2.1305186612 0.397913097
| 15> O 1.3673121283 0.0881749725 1.4167670668
| 16> C 1.7983022374 0.2691503548 2.7832596781
| 17> C 2.9339070331 -0.6621608312 3.1502215357
| 18> S 0.825069451 0.4764857254 -1.3415952828
| 19> C 0.2399716577 -1.2381806195 -1.1593966957
| 20> S -0.9332287231 -1.4797610466 0.1969169479
| 21> P -2.3748730962 -0.0602016569 -0.4642104981
| 22> S -2.6381104475 0.0832620714 -2.3945116788
| 23> O -1.9282813644 1.3137805017 0.1780410295
| 24> C -1.7300223848 1.5090332988 1.5970583908
| 25> C -2.9542283497 2.1343796467 2.2326712569
| 26> O -3.6685054484 -0.4272695467 0.3862606006
| 27> C -4.6443221461 -1.3845170274 -0.0670691924
| 28> C -4.0842861074 -2.7896861826 -0.1451629986
| 29> H 3.4315828091 -1.4122332859 -2.6489862932
| 30> H 3.6584500335 0.3322069677 -2.4540998581
| 31> H 5.046470773 -0.7037747371 -2.8136336402
| 32> H 5.0029202323 -0.0283137404 -0.4147761382
| 33> H 4.8157324716 -1.8011833426 -0.5798567016
| 34> H 2.0963117773 1.3142208979 2.9146630528
| 35> H 0.9013727754 0.0598127759 3.3677616827
| 36> H 2.6686757866 -1.6886817527 2.9117196242
| 37> H 3.8320581147 -0.3899261475 2.5983475826
| 38> H 3.1354226262 -0.5779455248 4.2135401449
| 39> H 1.0815223797 -1.8987707694 -0.9672468043
| 40> H -0.2521686318 -1.4730292606 -2.1023796918
| 41> H -1.4923228631 0.5450819325 2.0567127866
| 42> H -0.8627439341 2.1708133776 1.6642432823
| 43> H -3.8022587245 1.459087626 2.1582515999
| 44> H -2.7460273401 2.3384809339 3.2783328185
| 45> H -3.199810103 3.0643890175 1.7271555411
| 46> H -5.4430768154 -1.309751105 0.6722252965
| 47> H -5.0110802614 -1.0617805973 -1.0460433694
| 48> H -3.6090928377 -3.0622824539 0.7937667633
| 49> H -4.8916359049 -3.4834847178 -0.3563221247
| 50> H -3.3481499748 -2.8528335774 -0.9447408791
| 51> *
| 52>
| 53>                          ****END OF INPUT****

CARTESIAN COORDINATES (ANGSTROEM)
---------------------------------
  C      4.105805   -0.645681   -2.275475
  C      4.363147   -0.831912   -0.793438
  O      3.144730   -0.838924   -0.032698
  P      2.285409    0.488840    0.188704
  S      3.331627    2.130519    0.397913
  O      1.367312    0.088175    1.416767
  C      1.798302    0.269150    2.783260
  C      2.933907   -0.662161    3.150222
  S      0.825069    0.476486   -1.341595
  C      0.239972   -1.238181   -1.159397
  S     -0.933229   -1.479761    0.196917
  P     -2.374873   -0.060202   -0.464210
  S     -2.638110    0.083262   -2.394512
  O     -1.928281    1.313781    0.178041
  C     -1.730022    1.509033    1.597058
  C     -2.954228    2.134380    2.232671
  O     -3.668505   -0.427270    0.386261
  C     -4.644322   -1.384517   -0.067069
  C     -4.084286   -2.789686   -0.145163
  H      3.431583   -1.412233   -2.648986
  H      3.658450    0.332207   -2.454100
  H      5.046471   -0.703775   -2.813634
  H      5.002920   -0.028314   -0.414776
  H      4.815732   -1.801183   -0.579857
  H      2.096312    1.314221    2.914663
  H      0.901373    0.059813    3.367762
  H      2.668676   -1.688682    2.911720
  H      3.832058   -0.389926    2.598348
  H      3.135423   -0.577946    4.213540
  H      1.081522   -1.898771   -0.967247
  H     -0.252169   -1.473029   -2.102380
  H     -1.492323    0.545082    2.056713
  H     -0.862744    2.170813    1.664243
  H     -3.802259    1.459088    2.158252
  H     -2.746027    2.338481    3.278333
  H     -3.199810    3.064389    1.727156
  H     -5.443077   -1.309751    0.672225
  H     -5.011080   -1.061781   -1.046043
  H     -3.609093   -3.062282    0.793767
  H     -4.891636   -3.483485   -0.356322
  H     -3.348150   -2.852834   -0.944741

 Total Charge           Charge          ....    0
 Multiplicity           Mult            ....    1
 Number of Electrons    NEL             ....  202
 Basis Dimension        Dim             ....  539

ORBITAL ENERGIES
----------------

  NO   OCC          E(Eh)            E(eV)
   0   2.0000     -88.577309     -2410.3111
   1   2.0000     -88.574215     -2410.2269
   2   2.0000     -88.529955     -2409.0225
   3   2.0000     -88.529730     -2409.0164
   4   2.0000     -76.919527     -2093.0867
   5   2.0000     -76.918013     -2093.0456
   6   2.0000     -18.995556      -516.8954
   7   2.0000     -18.992652      -516.8163
   8   2.0000     -18.991933      -516.7968
   9   2.0000     -18.990527      -516.7585
  10   2.0000     -10.105145      -274.9750
  11   2.0000     -10.090893      -274.5872
  12   2.0000     -10.090389      -274.5734
  13   2.0000     -10.089244      -274.5423
  14   2.0000     -10.088530      -274.5228
  15   2.0000     -10.018597      -272.6199
  16   2.0000     -10.018276      -272.6112
  17   2.0000     -10.018094      -272.6062
  18   2.0000     -10.017895      -272.6008
  19   2.0000      -7.871419      -214.1922
  20   2.0000      -7.868773      -214.1202
  21   2.0000      -7.825082      -212.9313
  22   2.0000      -7.824720      -212.9214
  23   2.0000      -6.597917      -179.5385
  24   2.0000      -6.596489      -179.4996
  25   2.0000      -5.818750      -158.3362
  26   2.0000      -5.815677      -158.2526
  27   2.0000      -5.814958      -158.2330
  28   2.0000      -5.812660      -158.1705
  29   2.0000      -5.808445      -158.0558
  30   2.0000      -5.805789      -157.9835
  31   2.0000      -5.772682      -157.0827
  32   2.0000      -5.772224      -157.0702
  33   2.0000      -5.765275      -156.8811
  34   2.0000      -5.765149      -156.8777
  35   2.0000      -5.765102      -156.8764
  36   2.0000      -5.764717      -156.8659
  37   2.0000      -4.743722      -129.0832
  38   2.0000      -4.742775      -129.0575
  39   2.0000      -4.741741      -129.0293
  40   2.0000      -4.741572      -129.0247
  41   2.0000      -4.741517      -129.0232
  42   2.0000      -4.740359      -128.9917
  43   2.0000      -1.052499       -28.6399
  44   2.0000      -1.050054       -28.5734
  45   2.0000      -1.011476       -27.5236
  46   2.0000      -1.010953       -27.5094
  47   2.0000      -0.800880       -21.7931
  48   2.0000      -0.754605       -20.5339
  49   2.0000      -0.742920       -20.2159
  50   2.0000      -0.725618       -19.7451
  51   2.0000      -0.723039       -19.6749
  52   2.0000      -0.709892       -19.3171
  53   2.0000      -0.692397       -18.8411
  54   2.0000      -0.674995       -18.3675
  55   2.0000      -0.628990       -17.1157
  56   2.0000      -0.620332       -16.8801
  57   2.0000      -0.601916       -16.3790
  58   2.0000      -0.599118       -16.3028
  59   2.0000      -0.590331       -16.0637
  60   2.0000      -0.522019       -14.2049
  61   2.0000      -0.513590       -13.9755
  62   2.0000      -0.490116       -13.3367
  63   2.0000      -0.488583       -13.2950
  64   2.0000      -0.477760       -13.0005
  65   2.0000      -0.462529       -12.5861
  66   2.0000      -0.454469       -12.3667
  67   2.0000      -0.446714       -12.1557
  68   2.0000      -0.438806       -11.9405
  69   2.0000      -0.433796       -11.8042
  70   2.0000      -0.421991       -11.4830
  71   2.0000      -0.408218       -11.1082
  72   2.0000      -0.407159       -11.0794
  73   2.0000      -0.403202       -10.9717
  74   2.0000      -0.393580       -10.7099
  75   2.0000      -0.385722       -10.4960
  76   2.0000      -0.379202       -10.3186
  77   2.0000      -0.370745       -10.0885
  78   2.0000      -0.364921        -9.9300
  79   2.0000      -0.362279        -9.8581
  80   2.0000      -0.353428        -9.6173
  81   2.0000      -0.352972        -9.6049
  82   2.0000      -0.350690        -9.5428
  83   2.0000      -0.347318        -9.4510
  84   2.0000      -0.341595        -9.2953
  85   2.0000      -0.332085        -9.0365
  86   2.0000      -0.324722        -8.8361
  87   2.0000      -0.307078        -8.3560
  88   2.0000      -0.303754        -8.2656
  89   2.0000      -0.302544        -8.2326
  90   2.0000      -0.301446        -8.2028
  91   2.0000      -0.286909        -7.8072
  92   2.0000      -0.282304        -7.6819
  93   2.0000      -0.277525        -7.5518
  94   2.0000      -0.276105        -7.5132
  95   2.0000      -0.245872        -6.6905
  96   2.0000      -0.236280        -6.4295
  97   2.0000      -0.232261        -6.3201
  98   2.0000      -0.230362        -6.2685
  99   2.0000      -0.223818        -6.0904
 100   2.0000      -0.219172        -5.9640
 101   0.0000      -0.046689        -1.2705
 102   0.0000      -0.027038        -0.7358
 103   0.0000      -0.014609        -0.3975
 104   0.0000       0.000400         0.0109
 105   0.0000       0.006891         0.1875

MULLIKEN ATOMIC CHARGES
-----------------------
   0 C :   -0.469865
   1 C :   -0.149407
   2 O :   -0.308497
   3 P :    0.692441
   4 S :   -0.525421
   5 O :   -0.267975
   6 C :   -0.161828
   7 C :   -0.479363
   8 S :   -0.153036
   9 C :   -0.266912
  10 S :   -0.144449
  11 P :    0.663066
  12 S :   -0.495004
  13 O :   -0.291547
  14 C :   -0.095291
  15 C :   -0.527749
  16 O :   -0.308724
  17 C :   -0.159916
  18 C :   -0.481750
  19 H :    0.168762
  20 H :    0.166259
  21 H :    0.170590
  22 H :    0.173082
  23 H :    0.174995
  24 H :    0.177760
  25 H :    0.179643
  26 H :    0.169880
  27 H :    0.168246
  28 H :    0.172227
  29 H :    0.238317
  30 H :    0.234228
  31 H :    0.177161
  32 H :    0.179924
  33 H :    0.170373
  34 H :    0.170970
  35 H :    0.168359
  36 H :    0.175802
  37 H :    0.179920
  38 H :    0.167940
  39 H :    0.172399
  40 H :    0.174387
Sum of atomic charges:   -0.0000000

LOEWDIN ATOMIC CHARGES
----------------------
   0 C :   -0.406495
   1 C :    0.023641
   2 O :   -0.688020
   3 P :    0.374890
   4 S :   -0.155052
   5 O :   -0.699649
   6 C :    0.025060
   7 C :   -0.401365
   8 S :    0.169601
   9 C :   -0.404358
  10 S :    0.161631
  11 P :    0.379325
  12 S :   -0.140087
  13 O :   -0.678975
  14 C :    0.024502
  15 C :   -0.395794
  16 O :   -0.677409
  17 C :    0.027135
  18 C :   -0.411780
  19 H :    0.162913
  20 H :    0.161568
  21 H :    0.167768
  22 H :    0.181078
  23 H :    0.190259
  24 H :    0.182035
  25 H :    0.190741
  26 H :    0.164680
  27 H :    0.163314
  28 H :    0.168531
  29 H :    0.203934
  30 H :    0.198028
  31 H :    0.183296
  32 H :    0.190183
  33 H :    0.165777
  34 H :    0.168645
  35 H :    0.163959
  36 H :    0.191063
  37 H :    0.181718
  38 H :    0.163717
  39 H :    0.168236
  40 H :    0.161758

  Mayer bond orders larger than 0.100000
B(  0-C ,  1-C ) :   0.9224 B(  0-C , 19-H ) :   0.9664 B(  0-C , 20-H ) :   0.9623
B(  0-C , 21-H ) :   0.9558 B(  1-C ,  2-O ) :   0.7933 B(  1-C , 22-H ) :   0.9594
B(  1-C , 23-H ) :   0.9501 B(  2-O ,  3-P ) :   1.0359 B(  3-P ,  4-S ) :   1.7725
B(  3-P ,  5-O ) :   1.1315 B(  3-P ,  8-S ) :   1.0814 B(  5-O ,  6-C ) :   0.7758
B(  6-C ,  7-C ) :   0.9094 B(  6-C , 24-H ) :   0.9577 B(  6-C , 25-H ) :   0.9529
B(  7-C , 26-H ) :   0.9721 B(  7-C , 27-H ) :   0.9596 B(  7-C , 28-H ) :   0.9557
B(  8-S ,  9-C ) :   0.8984 B(  9-C , 10-S ) :   0.9078 B(  9-C , 29-H ) :   0.9032
B(  9-C , 30-H ) :   0.9085 B( 10-S , 11-P ) :   1.0331 B( 11-P , 12-S ) :   1.8083
B( 11-P , 13-O ) :   1.1486 B( 11-P , 16-O ) :   1.0449 B( 13-O , 14-C ) :   0.7245
B( 14-C , 15-C ) :   0.9280 B( 14-C , 31-H ) :   0.9552 B( 14-C , 32-H ) :   0.9467
B( 15-C , 33-H ) :   0.9687 B( 15-C , 34-H ) :   0.9589 B( 15-C , 35-H ) :   0.9726
B( 16-O , 17-C ) :   0.8063 B( 17-C , 18-C ) :   0.9043 B( 17-C , 36-H ) :   0.9506
B( 17-C , 37-H ) :   0.9683 B( 18-C , 38-H ) :   0.9640 B( 18-C , 39-H ) :   0.9513
B( 18-C , 40-H ) :   0.9658

Dispersion correction           -0.021713770
FINAL SINGLE POINT ENERGY     -2932.471045489413

DIPOLE MOMENT
-------------

Method             : SCF
Type of density    : Electron Density
Multiplicity       :   1
Irrep              :   0
Energy             : -2932.4957614027212003 Eh
Relativity type    :
Basis              : AO
                                X                 Y                 Z
Electronic contribution:     -0.917254869       7.738700377     -11.397937922
Nuclear contribution   :      0.996500125     -10.229201824      13.527222769
                        -----------------------------------------
Total Dipole Moment    :      0.079245256      -2.490501447       2.129284847
                        -----------------------------------------
Magnitude (a.u.)       :      3.277610597
Magnitude (Debye)      :      8.331024060

Rotational constants in cm-1:             0.012720             0.004937             0.004485
Rotational constants in MHz :           381.322495           147.999659           134.471340

                             ****ORCA TERMINATED NORMALLY****
TOTAL RUN TIME: 0 days 0 hours 1 minutes 50 seconds 754 msec
