                         Program Version 6.0.0  -   RELEASE  -
|  1> ! pbe def2-sv(p) def2/J RI DEFGRID1 loosescf d4 GCP(DFT/SV(P)) printgap
|  2> %output
|  3>     printlevel normal
|  4> end
|  5> * xyz 0 1
|  6> C 4.2242656457 -0.8179372471 -2.3288424982
|  7> C 4.4743478749 0.2722730868 -1.307463945
|  8> O 3.5711148813 0.2056530198 -0.1882412816
|  9> P 2.0034800677 0.4566530376 -0.3257467371
| 10> S 1.5190248335 1.8655999865 -1.5880353366
| 11> O 1.6236134877 0.8004285168 1.1639240693
| 12> C 2.176278287 0.1067198304 2.3124061763
| 13> C 1.6434600699 0.7917157989 3.5518838553
| 14> S 1.2506823617 -1.4976683541 -0.7566503859
| 15> C 0.0032705318 -1.0849748256 -2.0054125885
| 16> S -1.7185761807 -1.3570877818 -1.4870365545
| 17> P -1.7331908347 -0.3738774881 0.4097883334
| 18> S -0.948254386 -1.3238610148 1.9266068495
| 19> O -3.284387146 -0.0853647617 0.5847334995
| 20> C -4.20653119 -1.1545250744 0.8805576926
| 21> C -5.5176688546 -0.530726214 1.312497425
| 22> O -1.1257929926 1.0594940258 0.1633689308
| 23> C -1.8234017047 2.0717486358 -0.6140288488
| 24> C -2.5629999303 3.0204346944 0.3037915233
| 25> H 3.2740337938 -0.6475663382 -2.8323291774
| 26> H 5.0200126232 -0.8011741303 -3.0665891308
| 27> H 4.198853284 -1.7918473228 -1.8464938779
| 28> H 4.3761335039 1.2600084419 -1.7681924102
| 29> H 5.4586079044 0.1738235987 -0.8473891439
| 30> H 1.8561760694 -0.9380303515 2.2698284856
| 31> H 3.2647164722 0.160830954 2.2541256936
| 32> H 2.0701891202 0.3167967321 4.4291686548
| 33> H 1.9077474223 1.84528156 3.5406388993
| 34> H 0.5611798061 0.6970515282 3.5868490222
| 35> H 0.1496253432 -1.75137374 -2.8521627601
| 36> H 0.1389717133 -0.0393603942 -2.297920461
| 37> H -4.3276094517 -1.758582404 -0.0228610552
| 38> H -3.7749917123 -1.776704204 1.6715462007
| 39> H -5.9068416514 0.103126987 0.521038956
| 40> H -6.2316248076 -1.3195106592 1.5248661862
| 41> H -5.3703652582 0.0684982494 2.206664151
| 42> H -1.0342087135 2.5851415769 -1.1676538055
| 43> H -2.5041561899 1.5769227907 -1.3107463131
| 44> H -3.0176829034 3.8044258783 -0.2936257116
| 45> H -3.3361537611 2.4889237855 0.8524785121
| 46> H -1.8695165504 3.4654221931 1.0123689429
| 47> *
| 48>
| 49>                          ****END OF INPUT****

CARTESIAN COORDINATES (ANGSTROEM)
---------------------------------
  C      4.224266   -0.817937   -2.328842
  C      4.474348    0.272273   -1.307464
  O      3.571115    0.205653   -0.188241
  P      2.003480    0.456653   -0.325747
  S      1.519025    1.865600   -1.588035
  O      1.623613    0.800429    1.163924
  C      2.176278    0.106720    2.312406
  C      1.643460    0.791716    3.551884
  S      1.250682   -1.497668   -0.756650
  C      0.003271   -1.084975   -2.005413
  S     -1.718576   -1.357088   -1.487037
  P     -1.733191   -0.373877    0.409788
  S     -0.948254   -1.323861    1.926607
  O     -3.284387   -0.085365    0.584733
  C     -4.206531   -1.154525    0.880558
  C     -5.517669   -0.530726    1.312497
  O     -1.125793    1.059494    0.163369
  C     -1.823402    2.071749   -0.614029
  C     -2.563000    3.020435    0.303792
  H      3.274034   -0.647566   -2.832329
  H      5.020013   -0.801174   -3.066589
  H      4.198853   -1.791847   -1.846494
  H      4.376134    1.260008   -1.768192
  H      5.458608    0.173824   -0.847389
  H      1.856176   -0.938030    2.269828
  H      3.264716    0.160831    2.254126
  H      2.070189    0.316797    4.429169
  H      1.907747    1.845282    3.540639
  H      0.561180    0.697052    3.586849
  H      0.149625   -1.751374   -2.852163
  H      0.138972   -0.039360   -2.297920
  H     -4.327609   -1.758582   -0.022861
  H     -3.774992   -1.776704    1.671546
  H     -5.906842    0.103127    0.521039
  H     -6.231625   -1.319511    1.524866
  H     -5.370365    0.068498    2.206664
  H     -1.034209    2.585142   -1.167654
  H     -2.504156    1.576923   -1.310746
  H     -3.017683    3.804426   -0.293626
  H     -3.336154    2.488924    0.852479
  H     -1.869517    3.465422    1.012369

 Total Charge           Charge          ....    0
 Multiplicity           Mult            ....    1
 Number of Electrons    NEL             ....  202
 Basis Dimension        Dim             ....  334

ORBITAL ENERGIES
----------------

  NO   OCC          E(Eh)            E(eV)
   0   2.0000     -88.040199     -2395.6956
   1   2.0000     -88.036231     -2395.5876
   2   2.0000     -87.989203     -2394.3079
   3   2.0000     -87.980094     -2394.0601
   4   2.0000     -76.424663     -2079.6208
   5   2.0000     -76.423471     -2079.5884
   6   2.0000     -18.793222      -511.3896
   7   2.0000     -18.791057      -511.3307
   8   2.0000     -18.789347      -511.2841
   9   2.0000     -18.782627      -511.1013
  10   2.0000      -9.954892      -270.8864
  11   2.0000      -9.953931      -270.8602
  12   2.0000      -9.952571      -270.8232
  13   2.0000      -9.944907      -270.6147
  14   2.0000      -9.942914      -270.5604
  15   2.0000      -9.890376      -269.1308
  16   2.0000      -9.883628      -268.9472
  17   2.0000      -9.879398      -268.8321
  18   2.0000      -9.873847      -268.6810
  19   2.0000      -7.684706      -209.1115
  20   2.0000      -7.681621      -209.0275
  21   2.0000      -7.634286      -207.7395
  22   2.0000      -7.625205      -207.4924
  23   2.0000      -6.422073      -174.7535
  24   2.0000      -6.420997      -174.7242
  25   2.0000      -5.712528      -155.4458
  26   2.0000      -5.709462      -155.3623
  27   2.0000      -5.709318      -155.3584
  28   2.0000      -5.706101      -155.2709
  29   2.0000      -5.701667      -155.1503
  30   2.0000      -5.698659      -155.0684
  31   2.0000      -5.663094      -154.1006
  32   2.0000      -5.654910      -153.8779
  33   2.0000      -5.654449      -153.8654
  34   2.0000      -5.654212      -153.8589
  35   2.0000      -5.645776      -153.6294
  36   2.0000      -5.645251      -153.6151
  37   2.0000      -4.644890      -126.3939
  38   2.0000      -4.644190      -126.3748
  39   2.0000      -4.643497      -126.3560
  40   2.0000      -4.642842      -126.3382
  41   2.0000      -4.642694      -126.3341
  42   2.0000      -4.640809      -126.2828
  43   2.0000      -0.988056       -26.8864
  44   2.0000      -0.983674       -26.7671
  45   2.0000      -0.944005       -25.6877
  46   2.0000      -0.937676       -25.5155
  47   2.0000      -0.757746       -20.6193
  48   2.0000      -0.718159       -19.5421
  49   2.0000      -0.707773       -19.2595
  50   2.0000      -0.690193       -18.7811
  51   2.0000      -0.685651       -18.6575
  52   2.0000      -0.670068       -18.2335
  53   2.0000      -0.646953       -17.6045
  54   2.0000      -0.637206       -17.3392
  55   2.0000      -0.593238       -16.1428
  56   2.0000      -0.584144       -15.8954
  57   2.0000      -0.566939       -15.4272
  58   2.0000      -0.564666       -15.3654
  59   2.0000      -0.560588       -15.2544
  60   2.0000      -0.508824       -13.8458
  61   2.0000      -0.499015       -13.5789
  62   2.0000      -0.478399       -13.0179
  63   2.0000      -0.470411       -12.8005
  64   2.0000      -0.450776       -12.2662
  65   2.0000      -0.443323       -12.0634
  66   2.0000      -0.440771       -11.9940
  67   2.0000      -0.435817       -11.8592
  68   2.0000      -0.426383       -11.6025
  69   2.0000      -0.416023       -11.3205
  70   2.0000      -0.405139       -11.0244
  71   2.0000      -0.389278       -10.5928
  72   2.0000      -0.387044       -10.5320
  73   2.0000      -0.386481       -10.5167
  74   2.0000      -0.378562       -10.3012
  75   2.0000      -0.362585        -9.8664
  76   2.0000      -0.361200        -9.8288
  77   2.0000      -0.356949        -9.7131
  78   2.0000      -0.350903        -9.5485
  79   2.0000      -0.349807        -9.5187
  80   2.0000      -0.346183        -9.4201
  81   2.0000      -0.341172        -9.2838
  82   2.0000      -0.336820        -9.1653
  83   2.0000      -0.335856        -9.1391
  84   2.0000      -0.325918        -8.8687
  85   2.0000      -0.317255        -8.6329
  86   2.0000      -0.309271        -8.4157
  87   2.0000      -0.301571        -8.2062
  88   2.0000      -0.298877        -8.1328
  89   2.0000      -0.293265        -7.9801
  90   2.0000      -0.288486        -7.8501
  91   2.0000      -0.268687        -7.3113
  92   2.0000      -0.263938        -7.1821
  93   2.0000      -0.257044        -6.9945
  94   2.0000      -0.255458        -6.9514
  95   2.0000      -0.237431        -6.4608
  96   2.0000      -0.221748        -6.0341
  97   2.0000      -0.209223        -5.6933
  98   2.0000      -0.206524        -5.6198
  99   2.0000      -0.192441        -5.2366
 100   2.0000      -0.185575        -5.0497
 101   0.0000      -0.046221        -1.2577
 102   0.0000      -0.032074        -0.8728
 103   0.0000      -0.011445        -0.3114
 104   0.0000       0.006796         0.1849
 105   0.0000       0.016145         0.4393

MULLIKEN ATOMIC CHARGES
-----------------------
   0 C :   -0.311418
   1 C :    0.001626
   2 O :   -0.389963
   3 P :    0.637740
   4 S :   -0.319036
   5 O :   -0.354767
   6 C :   -0.016080
   7 C :   -0.281867
   8 S :   -0.096504
   9 C :   -0.342020
  10 S :   -0.123569
  11 P :    0.603908
  12 S :   -0.302825
  13 O :   -0.384125
  14 C :   -0.016526
  15 C :   -0.282770
  16 O :   -0.350184
  17 C :   -0.018456
  18 C :   -0.290882
  19 H :    0.118704
  20 H :    0.111760
  21 H :    0.120096
  22 H :    0.111994
  23 H :    0.103821
  24 H :    0.113780
  25 H :    0.105668
  26 H :    0.103798
  27 H :    0.111710
  28 H :    0.127522
  29 H :    0.179824
  30 H :    0.193377
  31 H :    0.106356
  32 H :    0.108230
  33 H :    0.116622
  34 H :    0.113746
  35 H :    0.123518
  36 H :    0.123150
  37 H :    0.096800
  38 H :    0.107438
  39 H :    0.117666
  40 H :    0.122139
Sum of atomic charges:    0.0000000

LOEWDIN ATOMIC CHARGES
----------------------
   0 C :   -0.370736
   1 C :   -0.115837
   2 O :   -0.249861
   3 P :    0.580639
   4 S :   -0.289859
   5 O :   -0.227893
   6 C :   -0.118168
   7 C :   -0.353086
   8 S :    0.086144
   9 C :   -0.482376
  10 S :    0.042627
  11 P :    0.565154
  12 S :   -0.298582
  13 O :   -0.248636
  14 C :   -0.121276
  15 C :   -0.350646
  16 O :   -0.228135
  17 C :   -0.121709
  18 C :   -0.357799
  19 H :    0.118644
  20 H :    0.130096
  21 H :    0.124302
  22 H :    0.111553
  23 H :    0.118249
  24 H :    0.107262
  25 H :    0.109241
  26 H :    0.127969
  27 H :    0.125301
  28 H :    0.126392
  29 H :    0.136942
  30 H :    0.118500
  31 H :    0.109324
  32 H :    0.110067
  33 H :    0.126377
  34 H :    0.131872
  35 H :    0.129612
  36 H :    0.111759
  37 H :    0.104626
  38 H :    0.129116
  39 H :    0.122903
  40 H :    0.129926

  Mayer bond orders larger than 0.100000
B(  0-C ,  1-C ) :   1.1670 B(  0-C , 19-H ) :   0.9386 B(  0-C , 20-H ) :   0.9366
B(  0-C , 21-H ) :   0.9420 B(  1-C ,  2-O ) :   0.9129 B(  1-C , 22-H ) :   0.9188
B(  1-C , 23-H ) :   0.9344 B(  2-O ,  3-P ) :   1.0748 B(  3-P ,  4-S ) :   1.5914
B(  3-P ,  5-O ) :   1.1567 B(  3-P ,  8-S ) :   0.9509 B(  4-S ,  8-S ) :   0.1164
B(  4-S , 30-H ) :   0.1203 B(  5-O ,  6-C ) :   0.8845 B(  6-C ,  7-C ) :   1.1710
B(  6-C , 24-H ) :   0.9106 B(  6-C , 25-H ) :   0.9236 B(  7-C , 26-H ) :   0.9405
B(  7-C , 27-H ) :   0.9497 B(  7-C , 28-H ) :   0.9394 B(  8-S ,  9-C ) :   1.0204
B(  9-C , 10-S ) :   0.9828 B(  9-C , 29-H ) :   0.9119 B(  9-C , 30-H ) :   0.8512
B( 10-S , 11-P ) :   0.9582 B( 10-S , 12-S ) :   0.1097 B( 11-P , 12-S ) :   1.6598
B( 11-P , 13-O ) :   1.0630 B( 11-P , 16-O ) :   1.1380 B( 13-O , 14-C ) :   0.9087
B( 14-C , 15-C ) :   1.1605 B( 14-C , 31-H ) :   0.9273 B( 14-C , 32-H ) :   0.9082
B( 15-C , 33-H ) :   0.9509 B( 15-C , 34-H ) :   0.9415 B( 15-C , 35-H ) :   0.9506
B( 16-O , 17-C ) :   0.8839 B( 17-C , 18-C ) :   1.1687 B( 17-C , 36-H ) :   0.9076
B( 17-C , 37-H ) :   0.9141 B( 18-C , 38-H ) :   0.9401 B( 18-C , 39-H ) :   0.9436
B( 18-C , 40-H ) :   0.9465

Dispersion correction           -0.067347041
FINAL SINGLE POINT ENERGY     -2929.514855770244

DIPOLE MOMENT
-------------

Method             : SCF
Type of density    : Electron Density
Multiplicity       :   1
Irrep              :   0
Energy             : -2929.6341469431158657 Eh
Relativity type    :
Basis              : AO
                                X                 Y                 Z
Electronic contribution:      4.868938643      -7.334853476      -5.561930510
Nuclear contribution   :     -5.014635041       7.266983171       5.225207694
                        -----------------------------------------
Total Dipole Moment    :     -0.145696397      -0.067870306      -0.336722816
                        -----------------------------------------
Magnitude (a.u.)       :      0.373116702
Magnitude (Debye)      :      0.948387288

Rotational constants in cm-1:             0.012555             0.005390             0.005144
Rotational constants in MHz :           376.381568           161.597841           154.220783

                             ****ORCA TERMINATED NORMALLY****
TOTAL RUN TIME: 0 days 0 hours 0 minutes 21 seconds 563 msec
