                         Program Version 6.0.0  -   RELEASE  -
|  1> ! pbe def2-sv(p) def2/J RI DEFGRID1 loosescf d4 GCP(DFT/SV(P)) printgap
|  2> %output
|  3>     printlevel normal
|  4> end
|  5> * xyz 0 1
|  6> C -3.0786976663 0.3751688244 0.0053677299
|  7> C -1.6169488716 0.045498065 -0.0043313764
|  8> C -1.1903683439 -1.2772301371 -0.0029312183
|  9> C 0.158209531 -1.5784840307 -0.0003523726
| 10> C 1.1269992141 -0.5849791135 0.0007640991
| 11> C 0.697029971 0.7443672192 -0.000426087
| 12> C -0.6596437289 1.0462521129 -0.0027470086
| 13> O 1.5677692864 1.796986733 -0.0004324571
| 14> C 2.5905787848 -0.926913394 0.0020581822
| 15> H -3.5110499544 0.1254026597 0.973597755
| 16> H -3.2384488995 1.4334511123 -0.1811434529
| 17> H -3.6038804512 -0.2015133651 -0.7531959967
| 18> H -1.9192554672 -2.0739139979 -0.0043297302
| 19> H 0.47141959 -2.6126644617 5.83525e-05
| 20> H -0.9451382585 2.0875813487 -0.0041048828
| 21> H 2.4813598276 1.4765699797 -0.0002144804
| 22> H 3.0852834068 -0.5307272698 -0.8850406634
| 23> H 3.0845260244 -0.5273278849 0.8880659748
| 24> H 2.7184867407 -2.0056551914 0.0041325577
| 25> *
| 26>
| 27>                          ****END OF INPUT****

CARTESIAN COORDINATES (ANGSTROEM)
---------------------------------
  C     -3.078698    0.375169    0.005368
  C     -1.616949    0.045498   -0.004331
  C     -1.190368   -1.277230   -0.002931
  C      0.158210   -1.578484   -0.000352
  C      1.126999   -0.584979    0.000764
  C      0.697030    0.744367   -0.000426
  C     -0.659644    1.046252   -0.002747
  O      1.567769    1.796987   -0.000432
  C      2.590579   -0.926913    0.002058
  H     -3.511050    0.125403    0.973598
  H     -3.238449    1.433451   -0.181143
  H     -3.603880   -0.201513   -0.753196
  H     -1.919255   -2.073914   -0.004330
  H      0.471420   -2.612664    0.000058
  H     -0.945138    2.087581   -0.004105
  H      2.481360    1.476570   -0.000214
  H      3.085283   -0.530727   -0.885041
  H      3.084526   -0.527328    0.888066
  H      2.718487   -2.005655    0.004133

 Total Charge           Charge          ....    0
 Multiplicity           Mult            ....    1
 Number of Electrons    NEL             ....   66
 Basis Dimension        Dim             ....  146

ORBITAL ENERGIES
----------------

  NO   OCC          E(Eh)            E(eV)
   0   2.0000     -18.777707      -510.9674
   1   2.0000      -9.943142      -270.5666
   2   2.0000      -9.895410      -269.2678
   3   2.0000      -9.894867      -269.2530
   4   2.0000      -9.893957      -269.2283
   5   2.0000      -9.885448      -268.9967
   6   2.0000      -9.878727      -268.8138
   7   2.0000      -9.876933      -268.7650
   8   2.0000      -9.876029      -268.7404
   9   2.0000      -0.957771       -26.0623
  10   2.0000      -0.770776       -20.9739
  11   2.0000      -0.707997       -19.2656
  12   2.0000      -0.659958       -17.9584
  13   2.0000      -0.650442       -17.6994
  14   2.0000      -0.585194       -15.9239
  15   2.0000      -0.542616       -14.7653
  16   2.0000      -0.537113       -14.6156
  17   2.0000      -0.463799       -12.6206
  18   2.0000      -0.436953       -11.8901
  19   2.0000      -0.418559       -11.3896
  20   2.0000      -0.392853       -10.6901
  21   2.0000      -0.381363       -10.3774
  22   2.0000      -0.372112       -10.1257
  23   2.0000      -0.360684        -9.8147
  24   2.0000      -0.352425        -9.5900
  25   2.0000      -0.340870        -9.2756
  26   2.0000      -0.340216        -9.2577
  27   2.0000      -0.320496        -8.7211
  28   2.0000      -0.304101        -8.2750
  29   2.0000      -0.286070        -7.7843
  30   2.0000      -0.282666        -7.6917
  31   2.0000      -0.211951        -5.7675
  32   2.0000      -0.186633        -5.0785
  33   0.0000      -0.022966        -0.6249
  34   0.0000      -0.015608        -0.4247
  35   0.0000       0.019266         0.5243
  36   0.0000       0.054229         1.4757
  37   0.0000       0.067409         1.8343

MULLIKEN ATOMIC CHARGES
-----------------------
   0 C :   -0.223470
   1 C :    0.073747
   2 C :   -0.107754
   3 C :   -0.138378
   4 C :    0.000757
   5 C :    0.158327
   6 C :   -0.209225
   7 O :   -0.336185
   8 C :   -0.285975
   9 H :    0.116732
  10 H :    0.101497
  11 H :    0.110437
  12 H :    0.025456
  13 H :    0.030097
  14 H :    0.025753
  15 H :    0.311656
  16 H :    0.117785
  17 H :    0.117681
  18 H :    0.111063
Sum of atomic charges:    0.0000000

LOEWDIN ATOMIC CHARGES
----------------------
   0 C :   -0.321410
   1 C :   -0.044622
   2 C :   -0.149142
   3 C :   -0.118454
   4 C :   -0.100852
   5 C :    0.027750
   6 C :   -0.150727
   7 O :   -0.237562
   8 C :   -0.335540
   9 H :    0.132849
  10 H :    0.124049
  11 H :    0.129354
  12 H :    0.118343
  13 H :    0.119563
  14 H :    0.126807
  15 H :    0.294275
  16 H :    0.125894
  17 H :    0.125842
  18 H :    0.133585

  Mayer bond orders larger than 0.100000
B(  0-C ,  1-C ) :   1.0977 B(  0-C ,  9-H ) :   0.9344 B(  0-C , 10-H ) :   0.9458
B(  0-C , 11-H ) :   0.9392 B(  1-C ,  2-C ) :   1.3646 B(  1-C ,  6-C ) :   1.3712
B(  2-C ,  3-C ) :   1.3587 B(  2-C , 12-H ) :   0.9690 B(  3-C ,  4-C ) :   1.3929
B(  3-C , 13-H ) :   0.9571 B(  4-C ,  5-C ) :   1.3206 B(  4-C ,  8-C ) :   1.0850
B(  5-C ,  6-C ) :   1.3419 B(  5-C ,  7-O ) :   1.2298 B(  6-C , 14-H ) :   0.9637
B(  7-O , 15-H ) :   0.8317 B(  8-C , 16-H ) :   0.9314 B(  8-C , 17-H ) :   0.9313
B(  8-C , 18-H ) :   0.9333

Dispersion correction           -0.018956648
FINAL SINGLE POINT ENERGY      -385.240647261412

DIPOLE MOMENT
-------------

Method             : SCF
Type of density    : Electron Density
Multiplicity       :   1
Irrep              :   0
Energy             :  -385.2996631943299235 Eh
Relativity type    :
Basis              : AO
                                X                 Y                 Z
Electronic contribution:      1.723837925       2.329676542      -0.021912563
Nuclear contribution   :     -1.268340042      -2.627257481       0.035480230
                        -----------------------------------------
Total Dipole Moment    :      0.455497883      -0.297580940       0.013567667
                        -----------------------------------------
Magnitude (a.u.)       :      0.544258044
Magnitude (Debye)      :      1.383394008

Rotational constants in cm-1:             0.102283             0.043701             0.030973
Rotational constants in MHz :          3066.357263          1310.131584           928.545859

                             ****ORCA TERMINATED NORMALLY****
TOTAL RUN TIME: 0 days 0 hours 0 minutes 9 seconds 102 msec
