                         Program Version 6.0.0  -   RELEASE  -
|  1> ! pbe def2-sv(p) def2/J RI DEFGRID1 loosescf d4 GCP(DFT/SV(P)) printgap
|  2> %output
|  3>     printlevel normal
|  4> end
|  5> * xyz 0 1
|  6> C 3.99165735 -1.9686553042 -1.6758737334
|  7> C 4.6040824211 -0.6783981671 -1.1679938569
|  8> O 3.8714287311 -0.1320555751 -0.0573834921
|  9> P 2.3963100331 0.4163379367 -0.2140105772
| 10> S 2.0018613566 1.3135880193 -1.9161068103
| 11> O 2.4441744991 1.3065676499 1.0935492904
| 12> C 1.3573591309 2.1436916224 1.522226642
| 13> C 1.8658221919 3.0041199956 2.660342349
| 14> S 1.1400132509 -1.2123164394 0.3169488136
| 15> C 0.0910784347 -1.3556380456 -1.1779468581
| 16> S -1.6082257507 -1.7755785721 -0.7552047491
| 17> P -2.1139935699 0.0230610736 0.2636127504
| 18> S -1.4223408128 1.6852801988 -0.5119030843
| 19> O -1.6243279895 -0.1467047288 1.7540532009
| 20> C -1.6560630083 -1.3612785859 2.5463392604
| 21> C -3.0266362084 -1.9985213931 2.5999784901
| 22> O -3.6947388815 -0.0337495654 0.4004470592
| 23> C -4.5812974072 0.4832357398 -0.6063008959
| 24> C -4.5091298872 -0.305004223 -1.8982403999
| 25> H 3.8485037837 -2.6676955656 -0.8555835123
| 26> H 3.0285752542 -1.7585190951 -2.1404622604
| 27> H 4.648968739 -2.4113256312 -2.41735796
| 28> H 4.6373717649 0.0709140316 -1.9652139345
| 29> H 5.6051538935 -0.8367423028 -0.7648828211
| 30> H 1.0188080395 2.7518354085 0.6761840377
| 31> H 0.5247331374 1.5089424552 1.8441435374
| 32> H 2.6887898319 3.623912709 2.3161870776
| 33> H 1.0593843152 3.6382387206 3.0135813727
| 34> H 2.2149028681 2.3721847077 3.4716865835
| 35> H 0.4570390998 -2.1724004807 -1.7950157524
| 36> H 0.1253453744 -0.4021237675 -1.7134328813
| 37> H -0.9145515996 -2.0516627459 2.1331382232
| 38> H -1.3306806935 -1.0209493952 3.5305313655
| 39> H -2.9968688086 -2.8366132589 3.2894733271
| 40> H -3.7647032742 -1.2772695156 2.9407595018
| 41> H -3.3147521987 -2.3600534208 1.6151661436
| 42> H -5.5669789747 0.4106437438 -0.1445858985
| 43> H -4.3298871506 1.5339286017 -0.7827189115
| 44> H -4.6402428184 -1.3662728461 -1.7035653135
| 45> H -5.2891083951 0.0381364249 -2.5704108172
| 46> H -3.5426267756 -0.1509219318 -2.3757019077
| 47> *
| 48>
| 49>                          ****END OF INPUT****

CARTESIAN COORDINATES (ANGSTROEM)
---------------------------------
  C      3.991657   -1.968655   -1.675874
  C      4.604082   -0.678398   -1.167994
  O      3.871429   -0.132056   -0.057383
  P      2.396310    0.416338   -0.214011
  S      2.001861    1.313588   -1.916107
  O      2.444174    1.306568    1.093549
  C      1.357359    2.143692    1.522227
  C      1.865822    3.004120    2.660342
  S      1.140013   -1.212316    0.316949
  C      0.091078   -1.355638   -1.177947
  S     -1.608226   -1.775579   -0.755205
  P     -2.113994    0.023061    0.263613
  S     -1.422341    1.685280   -0.511903
  O     -1.624328   -0.146705    1.754053
  C     -1.656063   -1.361279    2.546339
  C     -3.026636   -1.998521    2.599978
  O     -3.694739   -0.033750    0.400447
  C     -4.581297    0.483236   -0.606301
  C     -4.509130   -0.305004   -1.898240
  H      3.848504   -2.667696   -0.855584
  H      3.028575   -1.758519   -2.140462
  H      4.648969   -2.411326   -2.417358
  H      4.637372    0.070914   -1.965214
  H      5.605154   -0.836742   -0.764883
  H      1.018808    2.751835    0.676184
  H      0.524733    1.508942    1.844144
  H      2.688790    3.623913    2.316187
  H      1.059384    3.638239    3.013581
  H      2.214903    2.372185    3.471687
  H      0.457039   -2.172400   -1.795016
  H      0.125345   -0.402124   -1.713433
  H     -0.914552   -2.051663    2.133138
  H     -1.330681   -1.020949    3.530531
  H     -2.996869   -2.836613    3.289473
  H     -3.764703   -1.277270    2.940760
  H     -3.314752   -2.360053    1.615166
  H     -5.566979    0.410644   -0.144586
  H     -4.329887    1.533929   -0.782719
  H     -4.640243   -1.366273   -1.703565
  H     -5.289108    0.038136   -2.570411
  H     -3.542627   -0.150922   -2.375702

 Total Charge           Charge          ....    0
 Multiplicity           Mult            ....    1
 Number of Electrons    NEL             ....  202
 Basis Dimension        Dim             ....  334

ORBITAL ENERGIES
----------------

  NO   OCC          E(Eh)            E(eV)
   0   2.0000     -88.050709     -2395.9816
   1   2.0000     -88.041523     -2395.7316
   2   2.0000     -87.984486     -2394.1796
   3   2.0000     -87.982806     -2394.1339
   4   2.0000     -76.428903     -2079.7362
   5   2.0000     -76.421591     -2079.5372
   6   2.0000     -18.796439      -511.4771
   7   2.0000     -18.794574      -511.4264
   8   2.0000     -18.783890      -511.1356
   9   2.0000     -18.782436      -511.0961
  10   2.0000      -9.957594      -270.9599
  11   2.0000      -9.955996      -270.9164
  12   2.0000      -9.955152      -270.8935
  13   2.0000      -9.949653      -270.7438
  14   2.0000      -9.936220      -270.3783
  15   2.0000      -9.890075      -269.1226
  16   2.0000      -9.886326      -269.0206
  17   2.0000      -9.884578      -268.9731
  18   2.0000      -9.876355      -268.7493
  19   2.0000      -7.695431      -209.4033
  20   2.0000      -7.686086      -209.1490
  21   2.0000      -7.629402      -207.6066
  22   2.0000      -7.627730      -207.5611
  23   2.0000      -6.425992      -174.8601
  24   2.0000      -6.419022      -174.6705
  25   2.0000      -5.723302      -155.7390
  26   2.0000      -5.719749      -155.6423
  27   2.0000      -5.713968      -155.4850
  28   2.0000      -5.712659      -155.4493
  29   2.0000      -5.710588      -155.3930
  30   2.0000      -5.703146      -155.1905
  31   2.0000      -5.658220      -153.9680
  32   2.0000      -5.656725      -153.9273
  33   2.0000      -5.650014      -153.7447
  34   2.0000      -5.649697      -153.7361
  35   2.0000      -5.648215      -153.6958
  36   2.0000      -5.647919      -153.6877
  37   2.0000      -4.648745      -126.4988
  38   2.0000      -4.647887      -126.4754
  39   2.0000      -4.646218      -126.4300
  40   2.0000      -4.641148      -126.2921
  41   2.0000      -4.641003      -126.2881
  42   2.0000      -4.639657      -126.2515
  43   2.0000      -0.989774       -26.9331
  44   2.0000      -0.982800       -26.7434
  45   2.0000      -0.948517       -25.8105
  46   2.0000      -0.937608       -25.5136
  47   2.0000      -0.763748       -20.7826
  48   2.0000      -0.720299       -19.6003
  49   2.0000      -0.710758       -19.3407
  50   2.0000      -0.693201       -18.8630
  51   2.0000      -0.681737       -18.5510
  52   2.0000      -0.675521       -18.3819
  53   2.0000      -0.650715       -17.7068
  54   2.0000      -0.632880       -17.2215
  55   2.0000      -0.600973       -16.3533
  56   2.0000      -0.593477       -16.1493
  57   2.0000      -0.579574       -15.7710
  58   2.0000      -0.564549       -15.3622
  59   2.0000      -0.554406       -15.0862
  60   2.0000      -0.500233       -13.6120
  61   2.0000      -0.491390       -13.3714
  62   2.0000      -0.474315       -12.9068
  63   2.0000      -0.463711       -12.6182
  64   2.0000      -0.451238       -12.2788
  65   2.0000      -0.448581       -12.2065
  66   2.0000      -0.443867       -12.0782
  67   2.0000      -0.434404       -11.8207
  68   2.0000      -0.432062       -11.7570
  69   2.0000      -0.420045       -11.4300
  70   2.0000      -0.414672       -11.2838
  71   2.0000      -0.400963       -10.9107
  72   2.0000      -0.391098       -10.6423
  73   2.0000      -0.383603       -10.4384
  74   2.0000      -0.382180       -10.3997
  75   2.0000      -0.369211       -10.0467
  76   2.0000      -0.367991       -10.0136
  77   2.0000      -0.360260        -9.8032
  78   2.0000      -0.355449        -9.6723
  79   2.0000      -0.349184        -9.5018
  80   2.0000      -0.346576        -9.4308
  81   2.0000      -0.345178        -9.3928
  82   2.0000      -0.339657        -9.2425
  83   2.0000      -0.336598        -9.1593
  84   2.0000      -0.332149        -9.0382
  85   2.0000      -0.316615        -8.6155
  86   2.0000      -0.306281        -8.3343
  87   2.0000      -0.296720        -8.0742
  88   2.0000      -0.294835        -8.0229
  89   2.0000      -0.294002        -8.0002
  90   2.0000      -0.287454        -7.8220
  91   2.0000      -0.276821        -7.5327
  92   2.0000      -0.264756        -7.2044
  93   2.0000      -0.261474        -7.1151
  94   2.0000      -0.253525        -6.8988
  95   2.0000      -0.237272        -6.4565
  96   2.0000      -0.221161        -6.0181
  97   2.0000      -0.212142        -5.7727
  98   2.0000      -0.203108        -5.5268
  99   2.0000      -0.197698        -5.3796
 100   2.0000      -0.189417        -5.1543
 101   0.0000      -0.045344        -1.2339
 102   0.0000      -0.035463        -0.9650
 103   0.0000      -0.012702        -0.3456
 104   0.0000       0.009414         0.2562
 105   0.0000       0.015211         0.4139

MULLIKEN ATOMIC CHARGES
-----------------------
   0 C :   -0.324032
   1 C :    0.004847
   2 O :   -0.358633
   3 P :    0.607900
   4 S :   -0.314309
   5 O :   -0.360184
   6 C :   -0.035819
   7 C :   -0.272286
   8 S :   -0.126844
   9 C :   -0.351981
  10 S :   -0.111866
  11 P :    0.595142
  12 S :   -0.302235
  13 O :   -0.353826
  14 C :   -0.003855
  15 C :   -0.304962
  16 O :   -0.372561
  17 C :   -0.000843
  18 C :   -0.320486
  19 H :    0.120675
  20 H :    0.119861
  21 H :    0.112536
  22 H :    0.111628
  23 H :    0.106228
  24 H :    0.118973
  25 H :    0.118899
  26 H :    0.114379
  27 H :    0.111331
  28 H :    0.109232
  29 H :    0.185533
  30 H :    0.215089
  31 H :    0.114429
  32 H :    0.109255
  33 H :    0.114539
  34 H :    0.122586
  35 H :    0.118319
  36 H :    0.105093
  37 H :    0.115048
  38 H :    0.115837
  39 H :    0.115536
  40 H :    0.131828
Sum of atomic charges:    0.0000000

LOEWDIN ATOMIC CHARGES
----------------------
   0 C :   -0.370075
   1 C :   -0.116373
   2 O :   -0.237418
   3 P :    0.568239
   4 S :   -0.300152
   5 O :   -0.234815
   6 C :   -0.126179
   7 C :   -0.350439
   8 S :    0.064149
   9 C :   -0.479431
  10 S :    0.081310
  11 P :    0.568361
  12 S :   -0.292702
  13 O :   -0.234038
  14 C :   -0.115609
  15 C :   -0.366446
  16 O :   -0.241643
  17 C :   -0.117580
  18 C :   -0.371145
  19 H :    0.125136
  20 H :    0.117961
  21 H :    0.130420
  22 H :    0.110993
  23 H :    0.119557
  24 H :    0.109114
  25 H :    0.107481
  26 H :    0.125936
  27 H :    0.130475
  28 H :    0.123751
  29 H :    0.132524
  30 H :    0.124758
  31 H :    0.102995
  32 H :    0.122454
  33 H :    0.132051
  34 H :    0.128905
  35 H :    0.117149
  36 H :    0.118824
  37 H :    0.113656
  38 H :    0.122459
  39 H :    0.132419
  40 H :    0.122969

  Mayer bond orders larger than 0.100000
B(  0-C ,  1-C ) :   1.1611 B(  0-C , 19-H ) :   0.9431 B(  0-C , 20-H ) :   0.9346
B(  0-C , 21-H ) :   0.9377 B(  1-C ,  2-O ) :   0.9197 B(  1-C , 22-H ) :   0.9174
B(  1-C , 23-H ) :   0.9346 B(  2-O ,  3-P ) :   1.1215 B(  3-P ,  4-S ) :   1.6170
B(  3-P ,  5-O ) :   1.1430 B(  3-P ,  8-S ) :   0.9362 B(  4-S ,  8-S ) :   0.1245
B(  5-O ,  6-C ) :   0.9007 B(  6-C ,  7-C ) :   1.1538 B(  6-C , 24-H ) :   0.9162
B(  6-C , 25-H ) :   0.9187 B(  7-C , 26-H ) :   0.9508 B(  7-C , 27-H ) :   0.9433
B(  7-C , 28-H ) :   0.9504 B(  8-S ,  9-C ) :   0.9933 B(  9-C , 10-S ) :   1.0081
B(  9-C , 29-H ) :   0.9019 B(  9-C , 30-H ) :   0.8438 B( 10-S , 11-P ) :   0.9319
B( 10-S , 12-S ) :   0.1061 B( 11-P , 12-S ) :   1.6431 B( 11-P , 13-O ) :   1.1281
B( 11-P , 16-O ) :   1.0942 B( 13-O , 14-C ) :   0.8959 B( 14-C , 15-C ) :   1.1718
B( 14-C , 31-H ) :   0.9120 B( 14-C , 32-H ) :   0.9340 B( 15-C , 33-H ) :   0.9357
B( 15-C , 34-H ) :   0.9426 B( 15-C , 35-H ) :   0.9379 B( 16-O , 17-C ) :   0.9039
B( 17-C , 18-C ) :   1.1657 B( 17-C , 36-H ) :   0.9339 B( 17-C , 37-H ) :   0.9157
B( 18-C , 38-H ) :   0.9446 B( 18-C , 39-H ) :   0.9374 B( 18-C , 40-H ) :   0.9343

Dispersion correction           -0.066541046
FINAL SINGLE POINT ENERGY     -2929.520232819196

DIPOLE MOMENT
-------------

Method             : SCF
Type of density    : Electron Density
Multiplicity       :   1
Irrep              :   0
Energy             : -2929.6387742491597237 Eh
Relativity type    :
Basis              : AO
                                X                 Y                 Z
Electronic contribution:      5.015333900       4.136478977      -4.793016584
Nuclear contribution   :     -5.712906015      -5.410379061       5.341467666
                        -----------------------------------------
Total Dipole Moment    :     -0.697572114      -1.273900085       0.548451082
                        -----------------------------------------
Magnitude (a.u.)       :      1.552490538
Magnitude (Debye)      :      3.946117344

Rotational constants in cm-1:             0.011996             0.005110             0.004853
Rotational constants in MHz :           359.618367           153.203078           145.501430

                             ****ORCA TERMINATED NORMALLY****
TOTAL RUN TIME: 0 days 0 hours 0 minutes 21 seconds 110 msec
