                         Program Version 6.0.1  -  RELEASE   -
|  1> ! pbe def2-sv(p) def2/J RI DEFGRID1 loosescf d4 GCP(DFT/SV(P)) printgap
|  2> %output
|  3>     printlevel normal
|  4> end
|  5> * xyz 0 1
|  6> C 5.5578305187 -0.5686408625 -0.7106534087
|  7> C 4.7983001052 -1.6529233312 -1.4569671626
|  8> O 3.5652965061 -1.9767431177 -0.7842865628
|  9> C 2.4836679348 -1.2846447265 -1.0805250403
| 10> O 2.4395742527 -0.3795498653 -1.8832556634
| 11> C 1.2829248707 -1.8079270933 -0.3132381066
| 12> C 0.2013947309 -0.7439416589 -0.2297083728
| 13> H 0.0921863113 -0.254532989 -1.2082489741
| 14> C 0.4864396795 0.3532902641 0.7699010972
| 15> O -0.4131588859 0.9603562067 1.323482512
| 16> O 1.753610429 0.5799392398 0.956489867
| 17> C 2.1201055406 1.6557502842 1.8527221451
| 18> C 3.6038873157 1.9158329645 1.6968175284
| 19> S -1.4214968346 -1.4583664103 0.2153494878
| 20> P -2.5931373263 0.3024986067 0.0797773263
| 21> S -2.0052460311 1.7066426429 -1.1674995257
| 22> O -3.9845597922 -0.3538885338 -0.3734337788
| 23> C -4.1393122667 -0.9444727891 -1.6662005731
| 24> O -3.1383376902 0.7167052174 1.5091918682
| 25> C -2.8707936723 1.9523472656 2.1754947607
| 26> H 5.7381694462 -0.8764770988 0.3153768568
| 27> H 6.5080802551 -0.3916775336 -1.2034035504
| 28> H 4.9823859223 0.3535715883 -0.711014195
| 29> H 5.3542073022 -2.5905233181 -1.4717832334
| 30> H 4.5655139214 -1.3306214195 -2.4757596512
| 31> H 1.6002738184 -2.1444339502 0.6723541844
| 32> H 0.8914729673 -2.6699061103 -0.8577292771
| 33> H 1.52036296 2.5340685902 1.5969190586
| 34> H 1.8676195654 1.3429447261 2.8699689424
| 35> H 3.8985405752 2.7110822728 2.3731941582
| 36> H 4.1677237915 1.0180602958 1.9305777996
| 37> H 3.8237904473 2.2171285217 0.6766556159
| 38> H -3.5926499763 -1.8865657522 -1.7183979778
| 39> H -3.7778414748 -0.2604882441 -2.436921642
| 40> H -5.2063660141 -1.1154742867 -1.7828672917
| 41> H -2.1438116224 1.7775321485 2.9660321659
| 42> H -3.8209730517 2.288153295 2.5854689826
| 43> H -2.478388655 2.6889155925 1.4724295201
| 44> *
| 45>
| 46>                          ****END OF INPUT****

CARTESIAN COORDINATES (ANGSTROEM)
---------------------------------
  C      5.557831   -0.568641   -0.710653
  C      4.798300   -1.652923   -1.456967
  O      3.565297   -1.976743   -0.784287
  C      2.483668   -1.284645   -1.080525
  O      2.439574   -0.379550   -1.883256
  C      1.282925   -1.807927   -0.313238
  C      0.201395   -0.743942   -0.229708
  H      0.092186   -0.254533   -1.208249
  C      0.486440    0.353290    0.769901
  O     -0.413159    0.960356    1.323483
  O      1.753610    0.579939    0.956490
  C      2.120106    1.655750    1.852722
  C      3.603887    1.915833    1.696818
  S     -1.421497   -1.458366    0.215349
  P     -2.593137    0.302499    0.079777
  S     -2.005246    1.706643   -1.167500
  O     -3.984560   -0.353889   -0.373434
  C     -4.139312   -0.944473   -1.666201
  O     -3.138338    0.716705    1.509192
  C     -2.870794    1.952347    2.175495
  H      5.738169   -0.876477    0.315377
  H      6.508080   -0.391678   -1.203404
  H      4.982386    0.353572   -0.711014
  H      5.354207   -2.590523   -1.471783
  H      4.565514   -1.330621   -2.475760
  H      1.600274   -2.144434    0.672354
  H      0.891473   -2.669906   -0.857729
  H      1.520363    2.534069    1.596919
  H      1.867620    1.342945    2.869969
  H      3.898541    2.711082    2.373194
  H      4.167724    1.018060    1.930578
  H      3.823790    2.217129    0.676656
  H     -3.592650   -1.886566   -1.718398
  H     -3.777841   -0.260488   -2.436922
  H     -5.206366   -1.115474   -1.782867
  H     -2.143812    1.777532    2.966032
  H     -3.820973    2.288153    2.585469
  H     -2.478389    2.688916    1.472430

 Total Charge           Charge          ....    0
 Multiplicity           Mult            ....    1
 Number of Electrons    NEL             ....  174
 Basis Dimension        Dim             ....  316

ORBITAL ENERGIES
----------------

  NO   OCC          E(Eh)            E(eV)
   0   2.0000     -88.033446     -2395.5119
   1   2.0000     -87.968409     -2393.7421
   2   2.0000     -76.414539     -2079.3453
   3   2.0000     -18.826978      -512.3081
   4   2.0000     -18.810156      -511.8504
   5   2.0000     -18.775494      -510.9072
   6   2.0000     -18.769630      -510.7476
   7   2.0000     -18.754863      -510.3458
   8   2.0000     -18.746977      -510.1312
   9   2.0000     -10.026871      -272.8450
  10   2.0000     -10.019200      -272.6363
  11   2.0000      -9.963445      -271.1191
  12   2.0000      -9.955759      -270.9100
  13   2.0000      -9.944991      -270.6170
  14   2.0000      -9.929181      -270.1868
  15   2.0000      -9.928216      -270.1605
  16   2.0000      -9.919874      -269.9335
  17   2.0000      -9.900684      -269.4113
  18   2.0000      -9.895495      -269.2701
  19   2.0000      -7.678500      -208.9426
  20   2.0000      -7.613517      -207.1743
  21   2.0000      -6.410284      -174.4327
  22   2.0000      -5.706359      -155.2779
  23   2.0000      -5.703196      -155.1919
  24   2.0000      -5.695338      -154.9780
  25   2.0000      -5.642630      -153.5438
  26   2.0000      -5.634354      -153.3186
  27   2.0000      -5.633260      -153.2888
  28   2.0000      -4.632580      -126.0589
  29   2.0000      -4.632435      -126.0550
  30   2.0000      -4.630943      -126.0144
  31   2.0000      -1.035447       -28.1759
  32   2.0000      -1.018200       -27.7066
  33   2.0000      -0.968608       -26.3572
  34   2.0000      -0.935118       -25.4459
  35   2.0000      -0.924253       -25.1502
  36   2.0000      -0.922745       -25.1092
  37   2.0000      -0.766971       -20.8703
  38   2.0000      -0.721736       -19.6394
  39   2.0000      -0.717155       -19.5148
  40   2.0000      -0.688453       -18.7338
  41   2.0000      -0.656440       -17.8626
  42   2.0000      -0.625757       -17.0277
  43   2.0000      -0.616351       -16.7718
  44   2.0000      -0.607818       -16.5396
  45   2.0000      -0.602214       -16.3871
  46   2.0000      -0.565310       -15.3829
  47   2.0000      -0.525395       -14.2967
  48   2.0000      -0.507810       -13.8182
  49   2.0000      -0.499864       -13.6020
  50   2.0000      -0.480085       -13.0638
  51   2.0000      -0.473528       -12.8853
  52   2.0000      -0.458624       -12.4798
  53   2.0000      -0.454237       -12.3604
  54   2.0000      -0.446353       -12.1459
  55   2.0000      -0.432734       -11.7753
  56   2.0000      -0.427862       -11.6427
  57   2.0000      -0.416059       -11.3215
  58   2.0000      -0.410007       -11.1569
  59   2.0000      -0.405618       -11.0374
  60   2.0000      -0.398454       -10.8425
  61   2.0000      -0.397458       -10.8154
  62   2.0000      -0.385307       -10.4847
  63   2.0000      -0.383626       -10.4390
  64   2.0000      -0.380522       -10.3545
  65   2.0000      -0.372717       -10.1421
  66   2.0000      -0.369298       -10.0491
  67   2.0000      -0.360308        -9.8045
  68   2.0000      -0.354291        -9.6407
  69   2.0000      -0.348026        -9.4703
  70   2.0000      -0.339497        -9.2382
  71   2.0000      -0.332898        -9.0586
  72   2.0000      -0.330690        -8.9985
  73   2.0000      -0.316969        -8.6252
  74   2.0000      -0.305079        -8.3016
  75   2.0000      -0.300500        -8.1770
  76   2.0000      -0.289816        -7.8863
  77   2.0000      -0.283041        -7.7019
  78   2.0000      -0.275503        -7.4968
  79   2.0000      -0.267736        -7.2855
  80   2.0000      -0.257724        -7.0130
  81   2.0000      -0.244419        -6.6510
  82   2.0000      -0.239230        -6.5098
  83   2.0000      -0.233382        -6.3507
  84   2.0000      -0.215504        -5.8642
  85   2.0000      -0.190614        -5.1869
  86   2.0000      -0.182016        -4.9529
  87   0.0000      -0.048214        -1.3120
  88   0.0000      -0.028565        -0.7773
  89   0.0000      -0.025370        -0.6904
  90   0.0000       0.013375         0.3639
  91   0.0000       0.025623         0.6972

MULLIKEN ATOMIC CHARGES
-----------------------
   0 C :   -0.317966
   1 C :   -0.013682
   2 O :   -0.231809
   3 C :    0.118407
   4 O :   -0.200139
   5 C :   -0.075425
   6 C :   -0.333445
   7 H :    0.177045
   8 C :    0.236678
   9 O :   -0.200293
  10 O :   -0.214831
  11 C :   -0.033349
  12 C :   -0.291162
  13 S :   -0.099751
  14 P :    0.629318
  15 S :   -0.350266
  16 O :   -0.374300
  17 C :   -0.098601
  18 O :   -0.367924
  19 C :   -0.082791
  20 H :    0.117059
  21 H :    0.115545
  22 H :    0.135155
  23 H :    0.105930
  24 H :    0.111688
  25 H :    0.114251
  26 H :    0.130336
  27 H :    0.123173
  28 H :    0.110849
  29 H :    0.116701
  30 H :    0.120281
  31 H :    0.138804
  32 H :    0.106930
  33 H :    0.111752
  34 H :    0.120313
  35 H :    0.112323
  36 H :    0.117079
  37 H :    0.116115
Sum of atomic charges:   -0.0000000

LOEWDIN ATOMIC CHARGES
----------------------
   0 C :   -0.356418
   1 C :   -0.109267
   2 O :   -0.059395
   3 C :    0.033910
   4 O :   -0.162568
   5 C :   -0.251538
   6 C :   -0.275150
   7 H :    0.153195
   8 C :    0.031237
   9 O :   -0.155836
  10 O :   -0.034869
  11 C :   -0.101645
  12 C :   -0.351248
  13 S :    0.097796
  14 P :    0.586262
  15 S :   -0.341861
  16 O :   -0.259371
  17 C :   -0.221493
  18 O :   -0.238233
  19 C :   -0.207692
  20 H :    0.124246
  21 H :    0.132480
  22 H :    0.130325
  23 H :    0.119137
  24 H :    0.121650
  25 H :    0.138941
  26 H :    0.151464
  27 H :    0.125579
  28 H :    0.119888
  29 H :    0.134391
  30 H :    0.127081
  31 H :    0.132116
  32 H :    0.102657
  33 H :    0.107350
  34 H :    0.119790
  35 H :    0.111749
  36 H :    0.116000
  37 H :    0.109338

  Mayer bond orders larger than 0.100000
B(  0-C ,  1-C ) :   1.1756 B(  0-C , 20-H ) :   0.9457 B(  0-C , 21-H ) :   0.9414
B(  0-C , 22-H ) :   0.9392 B(  1-C ,  2-O ) :   0.9126 B(  1-C , 23-H ) :   0.9372
B(  1-C , 24-H ) :   0.9133 B(  2-O ,  3-C ) :   1.2392 B(  3-C ,  4-O ) :   2.0394
B(  3-C ,  5-C ) :   1.0001 B(  5-C ,  6-C ) :   1.0496 B(  5-C , 25-H ) :   0.9063
B(  5-C , 26-H ) :   0.8756 B(  6-C ,  7-H ) :   0.8226 B(  6-C ,  8-C ) :   0.9186
B(  6-C , 13-S ) :   1.0344 B(  8-C ,  9-O ) :   1.9431 B(  8-C , 10-O ) :   1.2868
B(  9-O , 14-P ) :   0.1064 B( 10-O , 11-C ) :   0.8877 B( 11-C , 12-C ) :   1.1596
B( 11-C , 27-H ) :   0.9257 B( 11-C , 28-H ) :   0.9340 B( 12-C , 29-H ) :   0.9393
B( 12-C , 30-H ) :   0.9452 B( 12-C , 31-H ) :   0.9408 B( 13-S , 14-P ) :   0.9269
B( 13-S , 15-S ) :   0.1156 B( 14-P , 15-S ) :   1.5779 B( 14-P , 16-O ) :   1.0851
B( 14-P , 18-O ) :   1.1377 B( 16-O , 17-C ) :   0.9457 B( 17-C , 32-H ) :   0.9440
B( 17-C , 33-H ) :   0.9335 B( 17-C , 34-H ) :   0.9596 B( 18-O , 19-C ) :   0.9270
B( 19-C , 35-H ) :   0.9547 B( 19-C , 36-H ) :   0.9543 B( 19-C , 37-H ) :   0.9336

Dispersion correction           -0.050314362
FINAL SINGLE POINT ENERGY     -1979.017125630025

DIPOLE MOMENT
-------------

Method             : SCF
Type of density    : Electron Density
Multiplicity       :   1
Irrep              :   0
Energy             : -1979.1494868730719645 Eh
Relativity type    :
Basis              : AO
                                X                 Y                 Z
Electronic contribution:    -22.947639258      -3.434170111      -2.517279250
Nuclear contribution   :     24.926487189       2.915690312       3.338073143
                        -----------------------------------------
Total Dipole Moment    :      1.978847931      -0.518479799       0.820793893
                        -----------------------------------------
Magnitude (a.u.)       :      2.204169470
Magnitude (Debye)      :      5.602553550

Rotational constants in cm-1:             0.017100             0.005604             0.004809
Rotational constants in MHz :           512.637140           167.992709           144.155990

                             ****ORCA TERMINATED NORMALLY****
TOTAL RUN TIME: 0 days 0 hours 0 minutes 43 seconds 449 msec
