                         Program Version 6.0.1  -  RELEASE   -
|  1> ! pbe def2-sv(p) def2/J RI DEFGRID1 loosescf d4 GCP(DFT/SV(P)) printgap
|  2> %output
|  3>     printlevel normal
|  4> end
|  5> * xyz 0 1
|  6> C 3.0840794627 -4.4355216328 -0.9886434893
|  7> C 3.8295683027 -3.194057976 -1.4520126534
|  8> O 3.4897992991 -2.0592997348 -0.6315779578
|  9> C 2.4270080046 -1.3487365567 -0.9530352258
| 10> O 1.7222779151 -1.5550877698 -1.9151683588
| 11> C 2.2149260067 -0.2140838686 0.0330635383
| 12> C 0.7861371989 0.2969643975 -0.0512567143
| 13> H 0.5158309351 0.454508013 -1.1042556611
| 14> C 0.5387849185 1.5998281755 0.681348954
| 15> O -0.4737450547 1.8001530109 1.3226949172
| 16> O 1.5008632469 2.4647116343 0.5187082846
| 17> C 1.333158402 3.7727015609 1.111644398
| 18> C 2.603609171 4.5611771292 0.8679050719
| 19> S -0.3831279604 -0.936891626 0.616199266
| 20> P -2.1839362893 0.0894678223 0.1533144293
| 21> S -2.1315447134 1.4234568192 -1.2782011724
| 22> O -3.1370480299 -1.1568522236 -0.2103416493
| 23> C -2.9447759374 -1.9076326335 -1.4107281761
| 24> O -2.9048372289 0.5721586225 1.4706827545
| 25> C -3.0751063939 -0.2823137759 2.6185044821
| 26> H 3.2983916099 -4.6319848314 0.0580751701
| 27> H 2.0124920942 -4.2931775732 -1.1089220051
| 28> H 3.39649206 -5.2862712444 -1.5850933952
| 29> H 3.584178841 -2.960046335 -2.4917583353
| 30> H 4.9068359478 -3.3068701969 -1.3302679241
| 31> H 2.8993376333 0.596608643 -0.2262786692
| 32> H 2.4545356738 -0.5684283251 1.0353111474
| 33> H 0.4613062064 4.2439340846 0.6477259011
| 34> H 1.127587199 3.6410066959 2.1779741069
| 35> H 2.4917361631 5.5540711534 1.2902212056
| 36> H 3.4482662226 4.0659005127 1.3367470577
| 37> H 2.7900239915 4.6457230034 -0.1983462033
| 38> H -2.0085458056 -2.4646365804 -1.3593733059
| 39> H -2.9260692794 -1.237763513 -2.2721368933
| 40> H -3.7922452033 -2.5851415475 -1.4722832063
| 41> H -3.5219815669 0.3542637823 3.3775940002
| 42> H -2.1059311632 -0.6550339678 2.9502702451
| 43> H -3.7322718004 -1.1130071653 2.3671819412
| 44> *
| 45>
| 46>                          ****END OF INPUT****

CARTESIAN COORDINATES (ANGSTROEM)
---------------------------------
  C      3.084079   -4.435522   -0.988643
  C      3.829568   -3.194058   -1.452013
  O      3.489799   -2.059300   -0.631578
  C      2.427008   -1.348737   -0.953035
  O      1.722278   -1.555088   -1.915168
  C      2.214926   -0.214084    0.033064
  C      0.786137    0.296964   -0.051257
  H      0.515831    0.454508   -1.104256
  C      0.538785    1.599828    0.681349
  O     -0.473745    1.800153    1.322695
  O      1.500863    2.464712    0.518708
  C      1.333158    3.772702    1.111644
  C      2.603609    4.561177    0.867905
  S     -0.383128   -0.936892    0.616199
  P     -2.183936    0.089468    0.153314
  S     -2.131545    1.423457   -1.278201
  O     -3.137048   -1.156852   -0.210342
  C     -2.944776   -1.907633   -1.410728
  O     -2.904837    0.572159    1.470683
  C     -3.075106   -0.282314    2.618504
  H      3.298392   -4.631985    0.058075
  H      2.012492   -4.293178   -1.108922
  H      3.396492   -5.286271   -1.585093
  H      3.584179   -2.960046   -2.491758
  H      4.906836   -3.306870   -1.330268
  H      2.899338    0.596609   -0.226279
  H      2.454536   -0.568428    1.035311
  H      0.461306    4.243934    0.647726
  H      1.127587    3.641007    2.177974
  H      2.491736    5.554071    1.290221
  H      3.448266    4.065901    1.336747
  H      2.790024    4.645723   -0.198346
  H     -2.008546   -2.464637   -1.359373
  H     -2.926069   -1.237764   -2.272137
  H     -3.792245   -2.585142   -1.472283
  H     -3.521982    0.354264    3.377594
  H     -2.105931   -0.655034    2.950270
  H     -3.732272   -1.113007    2.367182

 Total Charge           Charge          ....    0
 Multiplicity           Mult            ....    1
 Number of Electrons    NEL             ....  174
 Basis Dimension        Dim             ....  316

ORBITAL ENERGIES
----------------

  NO   OCC          E(Eh)            E(eV)
   0   2.0000     -88.032671     -2395.4908
   1   2.0000     -87.968842     -2393.7539
   2   2.0000     -76.414316     -2079.3392
   3   2.0000     -18.817245      -512.0433
   4   2.0000     -18.807967      -511.7908
   5   2.0000     -18.778645      -510.9929
   6   2.0000     -18.775571      -510.9093
   7   2.0000     -18.746093      -510.1071
   8   2.0000     -18.741860      -509.9919
   9   2.0000     -10.017155      -272.5807
  10   2.0000     -10.016306      -272.5575
  11   2.0000      -9.955463      -270.9019
  12   2.0000      -9.953084      -270.8372
  13   2.0000      -9.942018      -270.5361
  14   2.0000      -9.939897      -270.4784
  15   2.0000      -9.929591      -270.1979
  16   2.0000      -9.918413      -269.8938
  17   2.0000      -9.895103      -269.2594
  18   2.0000      -9.891242      -269.1544
  19   2.0000      -7.677507      -208.9156
  20   2.0000      -7.614167      -207.1920
  21   2.0000      -6.410652      -174.4427
  22   2.0000      -5.705225      -155.2471
  23   2.0000      -5.702263      -155.1665
  24   2.0000      -5.694451      -154.9539
  25   2.0000      -5.643454      -153.5662
  26   2.0000      -5.634768      -153.3298
  27   2.0000      -5.633916      -153.3067
  28   2.0000      -4.633350      -126.0799
  29   2.0000      -4.632694      -126.0620
  30   2.0000      -4.631001      -126.0160
  31   2.0000      -1.024707       -27.8837
  32   2.0000      -1.016574       -27.6624
  33   2.0000      -0.972420       -26.4609
  34   2.0000      -0.927588       -25.2409
  35   2.0000      -0.923185       -25.1211
  36   2.0000      -0.922683       -25.1075
  37   2.0000      -0.763756       -20.7829
  38   2.0000      -0.717109       -19.5135
  39   2.0000      -0.712562       -19.3898
  40   2.0000      -0.687626       -18.7112
  41   2.0000      -0.656531       -17.8651
  42   2.0000      -0.625340       -17.0164
  43   2.0000      -0.620560       -16.8863
  44   2.0000      -0.608375       -16.5547
  45   2.0000      -0.596869       -16.2416
  46   2.0000      -0.561161       -15.2700
  47   2.0000      -0.517894       -14.0926
  48   2.0000      -0.504012       -13.7149
  49   2.0000      -0.500477       -13.6187
  50   2.0000      -0.478118       -13.0103
  51   2.0000      -0.464090       -12.6285
  52   2.0000      -0.461859       -12.5678
  53   2.0000      -0.451385       -12.2828
  54   2.0000      -0.446657       -12.1542
  55   2.0000      -0.430643       -11.7184
  56   2.0000      -0.421313       -11.4645
  57   2.0000      -0.415575       -11.3084
  58   2.0000      -0.413528       -11.2527
  59   2.0000      -0.408288       -11.1101
  60   2.0000      -0.400207       -10.8902
  61   2.0000      -0.392166       -10.6714
  62   2.0000      -0.389882       -10.6092
  63   2.0000      -0.384382       -10.4596
  64   2.0000      -0.375431       -10.2160
  65   2.0000      -0.368263       -10.0209
  66   2.0000      -0.363249        -9.8845
  67   2.0000      -0.359591        -9.7850
  68   2.0000      -0.350190        -9.5292
  69   2.0000      -0.343401        -9.3444
  70   2.0000      -0.333102        -9.0642
  71   2.0000      -0.329488        -8.9658
  72   2.0000      -0.322656        -8.7799
  73   2.0000      -0.312170        -8.4946
  74   2.0000      -0.308956        -8.4071
  75   2.0000      -0.299721        -8.1558
  76   2.0000      -0.289144        -7.8680
  77   2.0000      -0.284271        -7.7354
  78   2.0000      -0.271223        -7.3804
  79   2.0000      -0.266686        -7.2569
  80   2.0000      -0.259741        -7.0679
  81   2.0000      -0.246961        -6.7201
  82   2.0000      -0.233090        -6.3427
  83   2.0000      -0.229477        -6.2444
  84   2.0000      -0.213042        -5.7972
  85   2.0000      -0.190978        -5.1968
  86   2.0000      -0.183453        -4.9920
  87   0.0000      -0.040460        -1.1010
  88   0.0000      -0.028480        -0.7750
  89   0.0000      -0.020765        -0.5650
  90   0.0000       0.012963         0.3527
  91   0.0000       0.031121         0.8469

MULLIKEN ATOMIC CHARGES
-----------------------
   0 C :   -0.305076
   1 C :   -0.013385
   2 O :   -0.230343
   3 C :    0.135566
   4 O :   -0.194742
   5 C :   -0.126113
   6 C :   -0.304926
   7 H :    0.166231
   8 C :    0.226370
   9 O :   -0.184771
  10 O :   -0.228618
  11 C :   -0.028804
  12 C :   -0.274922
  13 S :   -0.111822
  14 P :    0.627654
  15 S :   -0.331081
  16 O :   -0.395941
  17 C :   -0.099701
  18 O :   -0.352489
  19 C :   -0.102044
  20 H :    0.115142
  21 H :    0.129756
  22 H :    0.114915
  23 H :    0.110932
  24 H :    0.104699
  25 H :    0.139424
  26 H :    0.115208
  27 H :    0.122119
  28 H :    0.111006
  29 H :    0.115891
  30 H :    0.114950
  31 H :    0.120382
  32 H :    0.114128
  33 H :    0.116551
  34 H :    0.117330
  35 H :    0.129414
  36 H :    0.116388
  37 H :    0.120721
Sum of atomic charges:   -0.0000000

LOEWDIN ATOMIC CHARGES
----------------------
   0 C :   -0.355447
   1 C :   -0.110470
   2 O :   -0.060272
   3 C :    0.030807
   4 O :   -0.157832
   5 C :   -0.255133
   6 C :   -0.269722
   7 H :    0.149332
   8 C :    0.013210
   9 O :   -0.155667
  10 O :   -0.046762
  11 C :   -0.102246
  12 C :   -0.350865
  13 S :    0.091611
  14 P :    0.588897
  15 S :   -0.322403
  16 O :   -0.268660
  17 C :   -0.220428
  18 O :   -0.230903
  19 C :   -0.208149
  20 H :    0.125423
  21 H :    0.131866
  22 H :    0.131584
  23 H :    0.121025
  24 H :    0.118612
  25 H :    0.155355
  26 H :    0.138712
  27 H :    0.125611
  28 H :    0.119830
  29 H :    0.133510
  30 H :    0.126342
  31 H :    0.129243
  32 H :    0.106767
  33 H :    0.110550
  34 H :    0.118185
  35 H :    0.125541
  36 H :    0.108889
  37 H :    0.114054

  Mayer bond orders larger than 0.100000
B(  0-C ,  1-C ) :   1.1750 B(  0-C , 20-H ) :   0.9488 B(  0-C , 21-H ) :   0.9458
B(  0-C , 22-H ) :   0.9440 B(  1-C ,  2-O ) :   0.9118 B(  1-C , 23-H ) :   0.9137
B(  1-C , 24-H ) :   0.9373 B(  2-O ,  3-C ) :   1.2424 B(  3-C ,  4-O ) :   2.0409
B(  3-C ,  5-C ) :   0.9952 B(  5-C ,  6-C ) :   1.0908 B(  5-C , 25-H ) :   0.8681
B(  5-C , 26-H ) :   0.9030 B(  6-C ,  7-H ) :   0.8255 B(  6-C ,  8-C ) :   0.9041
B(  6-C , 13-S ) :   1.0240 B(  8-C ,  9-O ) :   2.0152 B(  8-C , 10-O ) :   1.2624
B( 10-O , 11-C ) :   0.8911 B( 11-C , 12-C ) :   1.1529 B( 11-C , 27-H ) :   0.9318
B( 11-C , 28-H ) :   0.9299 B( 12-C , 29-H ) :   0.9427 B( 12-C , 30-H ) :   0.9504
B( 12-C , 31-H ) :   0.9487 B( 13-S , 14-P ) :   0.9405 B( 13-S , 15-S ) :   0.1122
B( 14-P , 15-S ) :   1.6213 B( 14-P , 16-O ) :   1.0524 B( 14-P , 18-O ) :   1.1358
B( 16-O , 17-C ) :   0.9396 B( 17-C , 32-H ) :   0.9433 B( 17-C , 33-H ) :   0.9361
B( 17-C , 34-H ) :   0.9587 B( 18-O , 19-C ) :   0.9233 B( 19-C , 35-H ) :   0.9603
B( 19-C , 36-H ) :   0.9391 B( 19-C , 37-H ) :   0.9472

Dispersion correction           -0.049154056
FINAL SINGLE POINT ENERGY     -1979.016755382849

DIPOLE MOMENT
-------------

Method             : SCF
Type of density    : Electron Density
Multiplicity       :   1
Irrep              :   0
Energy             : -1979.1480821628756530 Eh
Relativity type    :
Basis              : AO
                                X                 Y                 Z
Electronic contribution:    -14.702226476       4.617387104      -0.967476890
Nuclear contribution   :     16.381072862      -5.296473477       1.853412190
                        -----------------------------------------
Total Dipole Moment    :      1.678846386      -0.679086373       0.885935300
                        -----------------------------------------
Magnitude (a.u.)       :      2.016076597
Magnitude (Debye)      :      5.124459463

Rotational constants in cm-1:             0.010009             0.007313             0.004975
Rotational constants in MHz :           300.070122           219.249120           149.159459

                             ****ORCA TERMINATED NORMALLY****
TOTAL RUN TIME: 0 days 0 hours 0 minutes 42 seconds 260 msec
