                         Program Version 6.0.0  -   RELEASE  -
|  1> ! pbe def2-sv(p) def2/J RI DEFGRID1 loosescf d4 GCP(DFT/SV(P)) printgap
|  2> %output
|  3>     printlevel normal
|  4> end
|  5> * xyz 0 1
|  6> C 3.6362224193 0.136799179 2.758158067
|  7> C 3.599224807 -1.1388642905 1.9417974901
|  8> O 3.6807782972 -0.8748671407 0.5202205341
|  9> P 2.4806325734 -0.4071715092 -0.399158675
| 10> S 2.9393624216 -0.5606236559 -2.2931030077
| 11> O 2.0358796141 1.0556133294 0.0730549372
| 12> C 2.3718215527 2.2415804739 -0.6624048366
| 13> C 3.8149605091 2.6362423365 -0.4229399128
| 14> S 0.8335593462 -1.5430371314 0.2883982703
| 15> C -0.1850317457 -1.2886390483 -1.1813774852
| 16> S -0.8404181845 0.402685414 -1.3416627848
| 17> P -2.5589747143 0.234200779 -0.1219586476
| 18> S -3.6104726488 1.8830369898 -0.0040604812
| 19> O -2.1064466419 -0.3779393115 1.2798156537
| 20> C -1.8615685378 0.45213628 2.4268386596
| 21> C -0.6217895934 1.304488525 2.2562403501
| 22> O -3.2066250911 -1.0363713213 -0.8217937631
| 23> C -4.1438903211 -1.9275063687 -0.1755527692
| 24> C -5.4099266861 -1.218746433 0.2569358545
| 25> H 2.7667379024 0.7526674921 2.5432097766
| 26> H 3.6381436903 -0.1192178764 3.8130746918
| 27> H 4.5352391432 0.7020781925 2.5268817533
| 28> H 2.6875997483 -1.7099094877 2.1381769238
| 29> H 4.472606599 -1.7636447355 2.1364625675
| 30> H 2.1891890467 2.0601617437 -1.7264386562
| 31> H 1.6737896346 2.9961654553 -0.2971650936
| 32> H 4.4720561523 1.8353189302 -0.7619619351
| 33> H 4.0405674328 3.5389533307 -0.9816087878
| 34> H 3.9885744428 2.8135565432 0.6348799082
| 35> H -1.009740195 -1.993226081 -1.1310091095
| 36> H 0.4270176634 -1.4570295153 -2.0683842644
| 37> H -2.7383302817 1.0880981913 2.585961885
| 38> H -1.7549357909 -0.2580053601 3.2475704001
| 39> H -0.7639446561 1.995029754 1.4244618943
| 40> H -0.4473535982 1.8749142941 3.1627174842
| 41> H 0.2425408489 0.6792276733 2.0486027448
| 42> H -4.3491365404 -2.6772895567 -0.9418078445
| 43> H -3.6448243734 -2.3914400968 0.6782802082
| 44> H -6.1090699252 -1.9441706925 0.6609568192
| 45> H -5.1842104918 -0.4763309608 1.0211178767
| 46> H -5.8666834233 -0.7102199848 -0.5889291322
| 47> *
| 48>
| 49>                          ****END OF INPUT****

CARTESIAN COORDINATES (ANGSTROEM)
---------------------------------
  C      3.636222    0.136799    2.758158
  C      3.599225   -1.138864    1.941797
  O      3.680778   -0.874867    0.520221
  P      2.480633   -0.407172   -0.399159
  S      2.939362   -0.560624   -2.293103
  O      2.035880    1.055613    0.073055
  C      2.371822    2.241580   -0.662405
  C      3.814961    2.636242   -0.422940
  S      0.833559   -1.543037    0.288398
  C     -0.185032   -1.288639   -1.181377
  S     -0.840418    0.402685   -1.341663
  P     -2.558975    0.234201   -0.121959
  S     -3.610473    1.883037   -0.004060
  O     -2.106447   -0.377939    1.279816
  C     -1.861569    0.452136    2.426839
  C     -0.621790    1.304489    2.256240
  O     -3.206625   -1.036371   -0.821794
  C     -4.143890   -1.927506   -0.175553
  C     -5.409927   -1.218746    0.256936
  H      2.766738    0.752667    2.543210
  H      3.638144   -0.119218    3.813075
  H      4.535239    0.702078    2.526882
  H      2.687600   -1.709909    2.138177
  H      4.472607   -1.763645    2.136463
  H      2.189189    2.060162   -1.726439
  H      1.673790    2.996165   -0.297165
  H      4.472056    1.835319   -0.761962
  H      4.040567    3.538953   -0.981609
  H      3.988574    2.813557    0.634880
  H     -1.009740   -1.993226   -1.131009
  H      0.427018   -1.457030   -2.068384
  H     -2.738330    1.088098    2.585962
  H     -1.754936   -0.258005    3.247570
  H     -0.763945    1.995030    1.424462
  H     -0.447354    1.874914    3.162717
  H      0.242541    0.679228    2.048603
  H     -4.349137   -2.677290   -0.941808
  H     -3.644824   -2.391440    0.678280
  H     -6.109070   -1.944171    0.660957
  H     -5.184210   -0.476331    1.021118
  H     -5.866683   -0.710220   -0.588929

 Total Charge           Charge          ....    0
 Multiplicity           Mult            ....    1
 Number of Electrons    NEL             ....  202
 Basis Dimension        Dim             ....  334

ORBITAL ENERGIES
----------------

  NO   OCC          E(Eh)            E(eV)
   0   2.0000     -88.046281     -2395.8611
   1   2.0000     -88.040487     -2395.7035
   2   2.0000     -87.989699     -2394.3214
   3   2.0000     -87.985974     -2394.2201
   4   2.0000     -76.429888     -2079.7630
   5   2.0000     -76.427520     -2079.6986
   6   2.0000     -18.800275      -511.5815
   7   2.0000     -18.795280      -511.4456
   8   2.0000     -18.794177      -511.4155
   9   2.0000     -18.792915      -511.3812
  10   2.0000      -9.967655      -271.2337
  11   2.0000      -9.958943      -270.9966
  12   2.0000      -9.956682      -270.9351
  13   2.0000      -9.952264      -270.8149
  14   2.0000      -9.949477      -270.7390
  15   2.0000      -9.896696      -269.3028
  16   2.0000      -9.885914      -269.0094
  17   2.0000      -9.884974      -268.9838
  18   2.0000      -9.879670      -268.8395
  19   2.0000      -7.691432      -209.2945
  20   2.0000      -7.685620      -209.1364
  21   2.0000      -7.634901      -207.7562
  22   2.0000      -7.631158      -207.6544
  23   2.0000      -6.427709      -174.9069
  24   2.0000      -6.424817      -174.8282
  25   2.0000      -5.719109      -155.6249
  26   2.0000      -5.716118      -155.5435
  27   2.0000      -5.713877      -155.4825
  28   2.0000      -5.709906      -155.3744
  29   2.0000      -5.708366      -155.3325
  30   2.0000      -5.702433      -155.1711
  31   2.0000      -5.663938      -154.1236
  32   2.0000      -5.660154      -154.0206
  33   2.0000      -5.655713      -153.8998
  34   2.0000      -5.654691      -153.8720
  35   2.0000      -5.651713      -153.7909
  36   2.0000      -5.651322      -153.7803
  37   2.0000      -4.650567      -126.5483
  38   2.0000      -4.649183      -126.5107
  39   2.0000      -4.648166      -126.4830
  40   2.0000      -4.647685      -126.4699
  41   2.0000      -4.646623      -126.4410
  42   2.0000      -4.645045      -126.3981
  43   2.0000      -0.989856       -26.9353
  44   2.0000      -0.988896       -26.9092
  45   2.0000      -0.950188       -25.8559
  46   2.0000      -0.946338       -25.7512
  47   2.0000      -0.765910       -20.8415
  48   2.0000      -0.726432       -19.7672
  49   2.0000      -0.713304       -19.4100
  50   2.0000      -0.694104       -18.8875
  51   2.0000      -0.688464       -18.7341
  52   2.0000      -0.675643       -18.3852
  53   2.0000      -0.656956       -17.8767
  54   2.0000      -0.641232       -17.4488
  55   2.0000      -0.599687       -16.3183
  56   2.0000      -0.592963       -16.1353
  57   2.0000      -0.581519       -15.8239
  58   2.0000      -0.579471       -15.7682
  59   2.0000      -0.563928       -15.3453
  60   2.0000      -0.503903       -13.7119
  61   2.0000      -0.498788       -13.5727
  62   2.0000      -0.482793       -13.1375
  63   2.0000      -0.472211       -12.8495
  64   2.0000      -0.461125       -12.5479
  65   2.0000      -0.452800       -12.3213
  66   2.0000      -0.445116       -12.1122
  67   2.0000      -0.434729       -11.8296
  68   2.0000      -0.429090       -11.6761
  69   2.0000      -0.417822       -11.3695
  70   2.0000      -0.413362       -11.2481
  71   2.0000      -0.407791       -11.0966
  72   2.0000      -0.398815       -10.8523
  73   2.0000      -0.390306       -10.6208
  74   2.0000      -0.387652       -10.5485
  75   2.0000      -0.376803       -10.2533
  76   2.0000      -0.365522        -9.9464
  77   2.0000      -0.359727        -9.7887
  78   2.0000      -0.355528        -9.6744
  79   2.0000      -0.353414        -9.6169
  80   2.0000      -0.351983        -9.5780
  81   2.0000      -0.348411        -9.4807
  82   2.0000      -0.347170        -9.4470
  83   2.0000      -0.338496        -9.2110
  84   2.0000      -0.329150        -8.9566
  85   2.0000      -0.325294        -8.8517
  86   2.0000      -0.318403        -8.6642
  87   2.0000      -0.311469        -8.4755
  88   2.0000      -0.297108        -8.0847
  89   2.0000      -0.294403        -8.0111
  90   2.0000      -0.284738        -7.7481
  91   2.0000      -0.280443        -7.6312
  92   2.0000      -0.277331        -7.5465
  93   2.0000      -0.270263        -7.3542
  94   2.0000      -0.256684        -6.9847
  95   2.0000      -0.231508        -6.2996
  96   2.0000      -0.220599        -6.0028
  97   2.0000      -0.211182        -5.7466
  98   2.0000      -0.204966        -5.5774
  99   2.0000      -0.203741        -5.5441
 100   2.0000      -0.200441        -5.4543
 101   0.0000      -0.042964        -1.1691
 102   0.0000      -0.023213        -0.6317
 103   0.0000      -0.010904        -0.2967
 104   0.0000      -0.000386        -0.0105
 105   0.0000       0.008968         0.2440

MULLIKEN ATOMIC CHARGES
-----------------------
   0 C :   -0.324510
   1 C :   -0.027270
   2 O :   -0.366584
   3 P :    0.624796
   4 S :   -0.310224
   5 O :   -0.377489
   6 C :   -0.010921
   7 C :   -0.309247
   8 S :   -0.110571
   9 C :   -0.358591
  10 S :   -0.054880
  11 P :    0.609765
  12 S :   -0.315590
  13 O :   -0.385644
  14 C :    0.001487
  15 C :   -0.347866
  16 O :   -0.382987
  17 C :   -0.003972
  18 C :   -0.312132
  19 H :    0.145896
  20 H :    0.114216
  21 H :    0.125608
  22 H :    0.121704
  23 H :    0.117942
  24 H :    0.115955
  25 H :    0.109546
  26 H :    0.125809
  27 H :    0.114234
  28 H :    0.112611
  29 H :    0.188580
  30 H :    0.197797
  31 H :    0.109461
  32 H :    0.098513
  33 H :    0.125949
  34 H :    0.106222
  35 H :    0.149544
  36 H :    0.108731
  37 H :    0.106944
  38 H :    0.110565
  39 H :    0.128950
  40 H :    0.127648
Sum of atomic charges:   -0.0000000

LOEWDIN ATOMIC CHARGES
----------------------
   0 C :   -0.365199
   1 C :   -0.112802
   2 O :   -0.241386
   3 P :    0.572730
   4 S :   -0.302244
   5 O :   -0.244878
   6 C :   -0.123172
   7 C :   -0.363634
   8 S :    0.082453
   9 C :   -0.480881
  10 S :    0.100587
  11 P :    0.567052
  12 S :   -0.317118
  13 O :   -0.248860
  14 C :   -0.120317
  15 C :   -0.375223
  16 O :   -0.247549
  17 C :   -0.112363
  18 C :   -0.366705
  19 H :    0.127451
  20 H :    0.131988
  21 H :    0.129601
  22 H :    0.106511
  23 H :    0.125598
  24 H :    0.109423
  25 H :    0.119190
  26 H :    0.124742
  27 H :    0.131709
  28 H :    0.121943
  29 H :    0.134190
  30 H :    0.131848
  31 H :    0.108376
  32 H :    0.116006
  33 H :    0.121745
  34 H :    0.127664
  35 H :    0.116126
  36 H :    0.120549
  37 H :    0.111395
  38 H :    0.129617
  39 H :    0.122070
  40 H :    0.131764

  Mayer bond orders larger than 0.100000
B(  0-C ,  1-C ) :   1.1606 B(  0-C , 19-H ) :   0.9316 B(  0-C , 20-H ) :   0.9366
B(  0-C , 21-H ) :   0.9416 B(  1-C ,  2-O ) :   0.9061 B(  1-C , 22-H ) :   0.9160
B(  1-C , 23-H ) :   0.9343 B(  2-O ,  3-P ) :   1.1279 B(  3-P ,  4-S ) :   1.6290
B(  3-P ,  5-O ) :   1.0800 B(  3-P ,  8-S ) :   0.9587 B(  4-S ,  8-S ) :   0.1005
B(  5-O ,  6-C ) :   0.9008 B(  6-C ,  7-C ) :   1.1620 B(  6-C , 24-H ) :   0.9102
B(  6-C , 25-H ) :   0.9313 B(  7-C , 26-H ) :   0.9371 B(  7-C , 27-H ) :   0.9404
B(  7-C , 28-H ) :   0.9455 B(  8-S ,  9-C ) :   1.0053 B(  9-C , 10-S ) :   0.9860
B(  9-C , 29-H ) :   0.8919 B(  9-C , 30-H ) :   0.8706 B( 10-S , 11-P ) :   0.9864
B( 11-P , 12-S ) :   1.6517 B( 11-P , 13-O ) :   1.0669 B( 11-P , 16-O ) :   1.0955
B( 13-O , 14-C ) :   0.9047 B( 14-C , 15-C ) :   1.1633 B( 14-C , 31-H ) :   0.9145
B( 14-C , 32-H ) :   0.9320 B( 15-C , 33-H ) :   0.9317 B( 15-C , 34-H ) :   0.9378
B( 15-C , 35-H ) :   0.9205 B( 16-O , 17-C ) :   0.9025 B( 17-C , 18-C ) :   1.1714
B( 17-C , 36-H ) :   0.9342 B( 17-C , 37-H ) :   0.9278 B( 18-C , 38-H ) :   0.9357
B( 18-C , 39-H ) :   0.9357 B( 18-C , 40-H ) :   0.9447

Dispersion correction           -0.065842233
FINAL SINGLE POINT ENERGY     -2929.517895380034

DIPOLE MOMENT
-------------

Method             : SCF
Type of density    : Electron Density
Multiplicity       :   1
Irrep              :   0
Energy             : -2929.6392847326687843 Eh
Relativity type    :
Basis              : AO
                                X                 Y                 Z
Electronic contribution:     -2.945895383      -5.318592768     -17.592570553
Nuclear contribution   :      3.159514056       4.667716185      19.458931174
                        -----------------------------------------
Total Dipole Moment    :      0.213618673      -0.650876584       1.866360621
                        -----------------------------------------
Magnitude (a.u.)       :      1.988108456
Magnitude (Debye)      :      5.053370096

Rotational constants in cm-1:             0.013420             0.004586             0.004485
Rotational constants in MHz :           402.313705           137.499619           134.446264

                             ****ORCA TERMINATED NORMALLY****
TOTAL RUN TIME: 0 days 0 hours 0 minutes 21 seconds 507 msec
