                         Program Version 6.0.0  -   RELEASE  -
|  1> ! pbe def2-sv(p) def2/J RI DEFGRID1 loosescf d4 GCP(DFT/SV(P)) printgap
|  2> %output
|  3>     printlevel normal
|  4> end
|  5> * xyz 0 1
|  6> C 4.3279737913 -0.7127888359 -2.969607477
|  7> C 4.4150317228 -0.1498513737 -1.5644391
|  8> O 3.4224978539 -0.7575938757 -0.7142335332
|  9> P 2.0672446387 0.0186029863 -0.3468002735
| 10> S 1.1067543246 0.6781185267 -1.9200943905
| 11> O 2.4907407775 1.226411439 0.5877457153
| 12> C 2.8005583783 1.1517770502 1.9982297901
| 13> C 3.932411393 0.193289413 2.3027534818
| 14> S 1.2153120965 -1.5190502034 0.8038280822
| 15> C -0.1512882691 -1.9880585657 -0.3065735714
| 16> S -1.7947390306 -1.7634029221 0.4156268379
| 17> P -1.9785739569 0.3561921409 0.2888276666
| 18> S -0.6385285205 1.3718575533 1.2987283586
| 19> O -3.4696930761 0.5870496107 0.7739951094
| 20> C -3.8365543502 0.4259517298 2.161259532
| 21> C -5.1621744016 1.1271877577 2.3761640356
| 22> O -2.0272916538 0.7746631763 -1.2245376611
| 23> C -3.1661396457 0.6563623389 -2.1149855866
| 24> C -3.5488922737 -0.7823424254 -2.389913042
| 25> H 3.3705209471 -0.4540629107 -3.4166662262
| 26> H 5.1272629036 -0.2959234267 -3.5739345582
| 27> H 4.4215203181 -1.7944765326 -2.9398075902
| 28> H 4.2741937433 0.9363981676 -1.5659763937
| 29> H 5.3726696363 -0.3933154957 -1.0997271551
| 30> H 3.0603729425 2.1817052892 2.248311605
| 31> H 1.8854173956 0.8728039591 2.527780912
| 32> H 4.1430707331 0.2287881497 3.3670079629
| 33> H 3.6518367597 -0.8237559609 2.0324040933
| 34> H 4.825896095 0.4747159812 1.7506895321
| 35> H -0.0630977359 -3.0521147701 -0.5082078872
| 36> H -0.068900395 -1.3959085768 -1.2225918654
| 37> H -3.9096946326 -0.6446285013 2.368338981
| 38> H -3.0456179519 0.8594179016 2.7820559399
| 39> H -5.0663716296 2.1855858317 2.1496744769
| 40> H -5.9214212172 0.6948521082 1.7311510854
| 41> H -5.4609565722 1.0092175861 3.4124208263
| 42> H -3.998159672 1.208804134 -1.6756340233
| 43> H -2.8169767916 1.1591813047 -3.0185984684
| 44> H -4.3307488635 -0.7963741847 -3.1430085941
| 45> H -2.6907820661 -1.3380938792 -2.7601260193
| 46> H -3.918884221 -1.2598132907 -1.4854802015
| 47> *
| 48>
| 49>                          ****END OF INPUT****

CARTESIAN COORDINATES (ANGSTROEM)
---------------------------------
  C      4.327974   -0.712789   -2.969607
  C      4.415032   -0.149851   -1.564439
  O      3.422498   -0.757594   -0.714234
  P      2.067245    0.018603   -0.346800
  S      1.106754    0.678119   -1.920094
  O      2.490741    1.226411    0.587746
  C      2.800558    1.151777    1.998230
  C      3.932411    0.193289    2.302753
  S      1.215312   -1.519050    0.803828
  C     -0.151288   -1.988059   -0.306574
  S     -1.794739   -1.763403    0.415627
  P     -1.978574    0.356192    0.288828
  S     -0.638529    1.371858    1.298728
  O     -3.469693    0.587050    0.773995
  C     -3.836554    0.425952    2.161260
  C     -5.162174    1.127188    2.376164
  O     -2.027292    0.774663   -1.224538
  C     -3.166140    0.656362   -2.114986
  C     -3.548892   -0.782342   -2.389913
  H      3.370521   -0.454063   -3.416666
  H      5.127263   -0.295923   -3.573935
  H      4.421520   -1.794477   -2.939808
  H      4.274194    0.936398   -1.565976
  H      5.372670   -0.393315   -1.099727
  H      3.060373    2.181705    2.248312
  H      1.885417    0.872804    2.527781
  H      4.143071    0.228788    3.367008
  H      3.651837   -0.823756    2.032404
  H      4.825896    0.474716    1.750690
  H     -0.063098   -3.052115   -0.508208
  H     -0.068900   -1.395909   -1.222592
  H     -3.909695   -0.644629    2.368339
  H     -3.045618    0.859418    2.782056
  H     -5.066372    2.185586    2.149674
  H     -5.921421    0.694852    1.731151
  H     -5.460957    1.009218    3.412421
  H     -3.998160    1.208804   -1.675634
  H     -2.816977    1.159181   -3.018598
  H     -4.330749   -0.796374   -3.143009
  H     -2.690782   -1.338094   -2.760126
  H     -3.918884   -1.259813   -1.485480

 Total Charge           Charge          ....    0
 Multiplicity           Mult            ....    1
 Number of Electrons    NEL             ....  202
 Basis Dimension        Dim             ....  334

ORBITAL ENERGIES
----------------

  NO   OCC          E(Eh)            E(eV)
   0   2.0000     -88.038340     -2395.6450
   1   2.0000     -88.036656     -2395.5992
   2   2.0000     -87.973946     -2393.8928
   3   2.0000     -87.973131     -2393.8706
   4   2.0000     -76.421469     -2079.5339
   5   2.0000     -76.415558     -2079.3730
   6   2.0000     -18.793153      -511.3877
   7   2.0000     -18.785884      -511.1899
   8   2.0000     -18.782550      -511.0992
   9   2.0000     -18.774222      -510.8726
  10   2.0000      -9.954452      -270.8744
  11   2.0000      -9.954057      -270.8637
  12   2.0000      -9.954007      -270.8623
  13   2.0000      -9.948659      -270.7168
  14   2.0000      -9.943896      -270.5872
  15   2.0000      -9.890079      -269.1227
  16   2.0000      -9.886033      -269.0126
  17   2.0000      -9.885979      -269.0112
  18   2.0000      -9.872945      -268.6565
  19   2.0000      -7.683493      -209.0785
  20   2.0000      -7.681977      -209.0372
  21   2.0000      -7.618890      -207.3205
  22   2.0000      -7.618423      -207.3078
  23   2.0000      -6.418794      -174.6643
  24   2.0000      -6.413204      -174.5122
  25   2.0000      -5.711116      -155.4074
  26   2.0000      -5.709868      -155.3734
  27   2.0000      -5.708105      -155.3254
  28   2.0000      -5.706677      -155.2866
  29   2.0000      -5.700604      -155.1213
  30   2.0000      -5.698657      -155.0683
  31   2.0000      -5.647848      -153.6858
  32   2.0000      -5.647454      -153.6750
  33   2.0000      -5.639783      -153.4663
  34   2.0000      -5.639625      -153.4620
  35   2.0000      -5.638728      -153.4376
  36   2.0000      -5.637757      -153.4112
  37   2.0000      -4.642020      -126.3158
  38   2.0000      -4.640537      -126.2754
  39   2.0000      -4.638677      -126.2248
  40   2.0000      -4.636078      -126.1541
  41   2.0000      -4.634875      -126.1214
  42   2.0000      -4.633517      -126.0844
  43   2.0000      -0.986918       -26.8554
  44   2.0000      -0.972313       -26.4580
  45   2.0000      -0.942829       -25.6557
  46   2.0000      -0.931105       -25.3367
  47   2.0000      -0.758433       -20.6380
  48   2.0000      -0.717942       -19.5362
  49   2.0000      -0.706580       -19.2270
  50   2.0000      -0.692777       -18.8514
  51   2.0000      -0.686091       -18.6695
  52   2.0000      -0.669005       -18.2046
  53   2.0000      -0.644600       -17.5405
  54   2.0000      -0.628362       -17.0986
  55   2.0000      -0.588926       -16.0255
  56   2.0000      -0.583118       -15.8675
  57   2.0000      -0.573365       -15.6020
  58   2.0000      -0.572729       -15.5848
  59   2.0000      -0.554984       -15.1019
  60   2.0000      -0.506047       -13.7702
  61   2.0000      -0.490322       -13.3423
  62   2.0000      -0.473152       -12.8751
  63   2.0000      -0.467147       -12.7117
  64   2.0000      -0.451480       -12.2854
  65   2.0000      -0.446229       -12.1425
  66   2.0000      -0.443231       -12.0609
  67   2.0000      -0.431575       -11.7437
  68   2.0000      -0.424633       -11.5548
  69   2.0000      -0.412720       -11.2307
  70   2.0000      -0.402083       -10.9412
  71   2.0000      -0.397457       -10.8154
  72   2.0000      -0.395001       -10.7485
  73   2.0000      -0.377457       -10.2711
  74   2.0000      -0.376161       -10.2359
  75   2.0000      -0.365739        -9.9523
  76   2.0000      -0.359613        -9.7856
  77   2.0000      -0.352782        -9.5997
  78   2.0000      -0.351268        -9.5585
  79   2.0000      -0.349038        -9.4978
  80   2.0000      -0.346653        -9.4329
  81   2.0000      -0.342065        -9.3081
  82   2.0000      -0.340058        -9.2534
  83   2.0000      -0.335195        -9.1211
  84   2.0000      -0.329560        -8.9678
  85   2.0000      -0.319375        -8.6906
  86   2.0000      -0.305628        -8.3166
  87   2.0000      -0.301372        -8.2008
  88   2.0000      -0.297648        -8.0994
  89   2.0000      -0.290485        -7.9045
  90   2.0000      -0.271496        -7.3878
  91   2.0000      -0.270513        -7.3610
  92   2.0000      -0.263348        -7.1661
  93   2.0000      -0.258102        -7.0233
  94   2.0000      -0.254367        -6.9217
  95   2.0000      -0.237540        -6.4638
  96   2.0000      -0.214649        -5.8409
  97   2.0000      -0.201212        -5.4753
  98   2.0000      -0.192590        -5.2406
  99   2.0000      -0.181706        -4.9445
 100   2.0000      -0.175708        -4.7813
 101   0.0000      -0.037724        -1.0265
 102   0.0000      -0.028520        -0.7761
 103   0.0000      -0.008157        -0.2220
 104   0.0000       0.005653         0.1538
 105   0.0000       0.028052         0.7633

MULLIKEN ATOMIC CHARGES
-----------------------
   0 C :   -0.279817
   1 C :   -0.018846
   2 O :   -0.380967
   3 P :    0.608404
   4 S :   -0.302565
   5 O :   -0.368722
   6 C :   -0.012978
   7 C :   -0.321451
   8 S :   -0.083291
   9 C :   -0.344551
  10 S :   -0.122421
  11 P :    0.616390
  12 S :   -0.308898
  13 O :   -0.388864
  14 C :   -0.011833
  15 C :   -0.281708
  16 O :   -0.346928
  17 C :    0.006386
  18 C :   -0.318520
  19 H :    0.123016
  20 H :    0.102163
  21 H :    0.108028
  22 H :    0.104144
  23 H :    0.099831
  24 H :    0.109721
  25 H :    0.127693
  26 H :    0.114710
  27 H :    0.133324
  28 H :    0.117056
  29 H :    0.183313
  30 H :    0.192954
  31 H :    0.105525
  32 H :    0.106857
  33 H :    0.122925
  34 H :    0.113929
  35 H :    0.113303
  36 H :    0.109416
  37 H :    0.113842
  38 H :    0.112004
  39 H :    0.124342
  40 H :    0.123085
Sum of atomic charges:    0.0000000

LOEWDIN ATOMIC CHARGES
----------------------
   0 C :   -0.361623
   1 C :   -0.120291
   2 O :   -0.264171
   3 P :    0.570530
   4 S :   -0.298477
   5 O :   -0.236972
   6 C :   -0.117612
   7 C :   -0.367417
   8 S :    0.088081
   9 C :   -0.480215
  10 S :    0.060240
  11 P :    0.566576
  12 S :   -0.305045
  13 O :   -0.251049
  14 C :   -0.120002
  15 C :   -0.350815
  16 O :   -0.225086
  17 C :   -0.105778
  18 C :   -0.368713
  19 H :    0.123616
  20 H :    0.125868
  21 H :    0.123709
  22 H :    0.108731
  23 H :    0.112934
  24 H :    0.122750
  25 H :    0.110924
  26 H :    0.132312
  27 H :    0.119987
  28 H :    0.125483
  29 H :    0.138217
  30 H :    0.121198
  31 H :    0.109878
  32 H :    0.109918
  33 H :    0.130138
  34 H :    0.125356
  35 H :    0.131748
  36 H :    0.114578
  37 H :    0.124475
  38 H :    0.130596
  39 H :    0.127714
  40 H :    0.117706

  Mayer bond orders larger than 0.100000
B(  0-C ,  1-C ) :   1.1687 B(  0-C , 19-H ) :   0.9329 B(  0-C , 20-H ) :   0.9407
B(  0-C , 21-H ) :   0.9475 B(  1-C ,  2-O ) :   0.9082 B(  1-C , 22-H ) :   0.9134
B(  1-C , 23-H ) :   0.9332 B(  2-O ,  3-P ) :   1.0735 B(  3-P ,  4-S ) :   1.6134
B(  3-P ,  5-O ) :   1.1149 B(  3-P ,  8-S ) :   0.9593 B(  4-S ,  8-S ) :   0.1112
B(  4-S , 30-H ) :   0.1195 B(  5-O ,  6-C ) :   0.9055 B(  6-C ,  7-C ) :   1.1610
B(  6-C , 24-H ) :   0.9356 B(  6-C , 25-H ) :   0.9138 B(  7-C , 26-H ) :   0.9366
B(  7-C , 27-H ) :   0.9356 B(  7-C , 28-H ) :   0.9439 B(  8-S ,  9-C ) :   1.0033
B(  9-C , 10-S ) :   0.9972 B(  9-C , 29-H ) :   0.9122 B(  9-C , 30-H ) :   0.8459
B( 10-S , 11-P ) :   0.9436 B( 10-S , 12-S ) :   0.1153 B( 11-P , 12-S ) :   1.6630
B( 11-P , 13-O ) :   1.0715 B( 11-P , 16-O ) :   1.1449 B( 13-O , 14-C ) :   0.9022
B( 14-C , 15-C ) :   1.1607 B( 14-C , 31-H ) :   0.9299 B( 14-C , 32-H ) :   0.9059
B( 15-C , 33-H ) :   0.9506 B( 15-C , 34-H ) :   0.9512 B( 15-C , 35-H ) :   0.9415
B( 16-O , 17-C ) :   0.8967 B( 17-C , 18-C ) :   1.1700 B( 17-C , 36-H ) :   0.9276
B( 17-C , 37-H ) :   0.9335 B( 18-C , 38-H ) :   0.9358 B( 18-C , 39-H ) :   0.9448
B( 18-C , 40-H ) :   0.9379

Dispersion correction           -0.066396901
FINAL SINGLE POINT ENERGY     -2929.506128760243

DIPOLE MOMENT
-------------

Method             : SCF
Type of density    : Electron Density
Multiplicity       :   1
Irrep              :   0
Energy             : -2929.6243815521902434 Eh
Relativity type    :
Basis              : AO
                                X                 Y                 Z
Electronic contribution:      0.686269000       0.089073213       2.176171469
Nuclear contribution   :     -1.157044648      -0.682072434      -1.887858752
                        -----------------------------------------
Total Dipole Moment    :     -0.470775647      -0.592999220       0.288312717
                        -----------------------------------------
Magnitude (a.u.)       :      0.810186403
Magnitude (Debye)      :      2.059330179

Rotational constants in cm-1:             0.013319             0.005070             0.004467
Rotational constants in MHz :           399.308343           151.996951           133.929901

                             ****ORCA TERMINATED NORMALLY****
TOTAL RUN TIME: 0 days 0 hours 0 minutes 20 seconds 848 msec
