                         Program Version 6.0.1  -  RELEASE   -
|  1> ! pbe def2-sv(p) def2/J RI DEFGRID1 loosescf d4 GCP(DFT/SV(P)) printgap
|  2> %output
|  3>     printlevel normal
|  4> end
|  5> * xyz 0 1
|  6> C 5.1260712653 -1.8198205803 0.8696180009
|  7> C 4.5867054638 -1.4920863333 -0.5097291735
|  8> O 3.1531072659 -1.6412628627 -0.4843399261
|  9> C 2.4258740514 -0.9006731054 -1.2890995545
| 10> O 2.8721695102 -0.0997914564 -2.0831612847
| 11> C 0.9446723252 -1.1846852411 -1.1168523373
| 12> C 0.162560172 0.1045613393 -1.3219889766
| 13> H 0.4909260877 0.5733694871 -2.2579989406
| 14> C 0.3734833999 1.1255155528 -0.220713995
| 15> O -0.4626144114 1.9633958552 0.0551649541
| 16> O 1.5481521103 1.0128879505 0.3418278541
| 17> C 1.8930726507 1.9462344713 1.3857636876
| 18> C 2.4308139586 3.2429861389 0.8051838185
| 19> S -1.6253042597 -0.1560956739 -1.5250225915
| 20> P -2.2614165507 -0.1071739246 0.5029766883
| 21> S -0.9773767552 -0.6526218214 1.8755024302
| 22> O -2.9724965082 1.2599981357 0.8383853869
| 23> C -3.8917451844 1.9072327716 -0.0629155965
| 24> O -3.5487142289 -1.0587413912 0.4196908997
| 25> C -3.4229919748 -2.4681473719 0.1999024734
| 26> H 4.8492037207 -2.8330571563 1.1443128634
| 27> H 6.2073715723 -1.7315152629 0.8625979225
| 28> H 4.7153702162 -1.1354890151 1.6064121985
| 29> H 4.9779311444 -2.1814324663 -1.2634798408
| 30> H 4.822590111 -0.4672221782 -0.8113718685
| 31> H 0.7739168773 -1.6093076865 -0.1267872453
| 32> H 0.6452716025 -1.9096846042 -1.8763580196
| 33> H 1.0014641788 2.1238538111 1.9944800875
| 34> H 2.6479692875 1.4219040182 1.9716399423
| 35> H 1.6504085453 3.7563498525 0.2480856569
| 36> H 2.76728455 3.883155154 1.613768636
| 37> H 3.2632795173 3.0356140703 0.1378133699
| 38> H -3.3445027223 2.2904829281 -0.9238500383
| 39> H -4.319722233 2.7246300303 0.5113509886
| 40> H -4.6626983887 1.2074150191 -0.3803332034
| 41> H -2.6812758475 -2.8880956646 0.8809499699
| 42> H -3.1333700143 -2.6569360529 -0.8333871771
| 43> H -4.4058029805 -2.8840615574 0.4059671048
| 44> *
| 45>
| 46>                          ****END OF INPUT****

CARTESIAN COORDINATES (ANGSTROEM)
---------------------------------
  C      5.126071   -1.819821    0.869618
  C      4.586705   -1.492086   -0.509729
  O      3.153107   -1.641263   -0.484340
  C      2.425874   -0.900673   -1.289100
  O      2.872170   -0.099791   -2.083161
  C      0.944672   -1.184685   -1.116852
  C      0.162560    0.104561   -1.321989
  H      0.490926    0.573369   -2.257999
  C      0.373483    1.125516   -0.220714
  O     -0.462614    1.963396    0.055165
  O      1.548152    1.012888    0.341828
  C      1.893073    1.946234    1.385764
  C      2.430814    3.242986    0.805184
  S     -1.625304   -0.156096   -1.525023
  P     -2.261417   -0.107174    0.502977
  S     -0.977377   -0.652622    1.875502
  O     -2.972497    1.259998    0.838385
  C     -3.891745    1.907233   -0.062916
  O     -3.548714   -1.058741    0.419691
  C     -3.422992   -2.468147    0.199902
  H      4.849204   -2.833057    1.144313
  H      6.207372   -1.731515    0.862598
  H      4.715370   -1.135489    1.606412
  H      4.977931   -2.181432   -1.263480
  H      4.822590   -0.467222   -0.811372
  H      0.773917   -1.609308   -0.126787
  H      0.645272   -1.909685   -1.876358
  H      1.001464    2.123854    1.994480
  H      2.647969    1.421904    1.971640
  H      1.650409    3.756350    0.248086
  H      2.767285    3.883155    1.613769
  H      3.263280    3.035614    0.137813
  H     -3.344503    2.290483   -0.923850
  H     -4.319722    2.724630    0.511351
  H     -4.662698    1.207415   -0.380333
  H     -2.681276   -2.888096    0.880950
  H     -3.133370   -2.656936   -0.833387
  H     -4.405803   -2.884062    0.405967

 Total Charge           Charge          ....    0
 Multiplicity           Mult            ....    1
 Number of Electrons    NEL             ....  174
 Basis Dimension        Dim             ....  316

ORBITAL ENERGIES
----------------

  NO   OCC          E(Eh)            E(eV)
   0   2.0000     -88.039726     -2395.6827
   1   2.0000     -87.981240     -2394.0913
   2   2.0000     -76.423801     -2079.5973
   3   2.0000     -18.810403      -511.8571
   4   2.0000     -18.800918      -511.5990
   5   2.0000     -18.788596      -511.2637
   6   2.0000     -18.786321      -511.2018
   7   2.0000     -18.738146      -509.8909
   8   2.0000     -18.736483      -509.8456
   9   2.0000     -10.017932      -272.6018
  10   2.0000     -10.008226      -272.3377
  11   2.0000      -9.948402      -270.7098
  12   2.0000      -9.948110      -270.7018
  13   2.0000      -9.946007      -270.6446
  14   2.0000      -9.943273      -270.5702
  15   2.0000      -9.942308      -270.5439
  16   2.0000      -9.903126      -269.4778
  17   2.0000      -9.890589      -269.1366
  18   2.0000      -9.885529      -268.9989
  19   2.0000      -7.684664      -209.1103
  20   2.0000      -7.626414      -207.5253
  21   2.0000      -6.420561      -174.7123
  22   2.0000      -5.712587      -155.4474
  23   2.0000      -5.709153      -155.3539
  24   2.0000      -5.701620      -155.1490
  25   2.0000      -5.655514      -153.8944
  26   2.0000      -5.646880      -153.6594
  27   2.0000      -5.646449      -153.6477
  28   2.0000      -4.643243      -126.3491
  29   2.0000      -4.642529      -126.3296
  30   2.0000      -4.640935      -126.2863
  31   2.0000      -1.019250       -27.7352
  32   2.0000      -1.008911       -27.4539
  33   2.0000      -0.982040       -26.7227
  34   2.0000      -0.937737       -25.5171
  35   2.0000      -0.920368       -25.0445
  36   2.0000      -0.913508       -24.8578
  37   2.0000      -0.763539       -20.7770
  38   2.0000      -0.713648       -19.4193
  39   2.0000      -0.706488       -19.2245
  40   2.0000      -0.691025       -18.8038
  41   2.0000      -0.658651       -17.9228
  42   2.0000      -0.632903       -17.2222
  43   2.0000      -0.622306       -16.9338
  44   2.0000      -0.616340       -16.7715
  45   2.0000      -0.590620       -16.0716
  46   2.0000      -0.562883       -15.3168
  47   2.0000      -0.512717       -13.9517
  48   2.0000      -0.509594       -13.8668
  49   2.0000      -0.499029       -13.5793
  50   2.0000      -0.478282       -13.0147
  51   2.0000      -0.470316       -12.7980
  52   2.0000      -0.458663       -12.4808
  53   2.0000      -0.446897       -12.1607
  54   2.0000      -0.431422       -11.7396
  55   2.0000      -0.428375       -11.6567
  56   2.0000      -0.424131       -11.5412
  57   2.0000      -0.419658       -11.4195
  58   2.0000      -0.412098       -11.2138
  59   2.0000      -0.411167       -11.1884
  60   2.0000      -0.404736       -11.0134
  61   2.0000      -0.399274       -10.8648
  62   2.0000      -0.387957       -10.5568
  63   2.0000      -0.385413       -10.4876
  64   2.0000      -0.370566       -10.0836
  65   2.0000      -0.364483        -9.9181
  66   2.0000      -0.360599        -9.8124
  67   2.0000      -0.351474        -9.5641
  68   2.0000      -0.345118        -9.3911
  69   2.0000      -0.341478        -9.2921
  70   2.0000      -0.338371        -9.2075
  71   2.0000      -0.325963        -8.8699
  72   2.0000      -0.318142        -8.6571
  73   2.0000      -0.313966        -8.5435
  74   2.0000      -0.300576        -8.1791
  75   2.0000      -0.298675        -8.1274
  76   2.0000      -0.293074        -7.9749
  77   2.0000      -0.290699        -7.9103
  78   2.0000      -0.272013        -7.4019
  79   2.0000      -0.261932        -7.1275
  80   2.0000      -0.257585        -7.0092
  81   2.0000      -0.255313        -6.9474
  82   2.0000      -0.235931        -6.4200
  83   2.0000      -0.227193        -6.1822
  84   2.0000      -0.214741        -5.8434
  85   2.0000      -0.199083        -5.4173
  86   2.0000      -0.197028        -5.3614
  87   0.0000      -0.043123        -1.1734
  88   0.0000      -0.027471        -0.7475
  89   0.0000      -0.013956        -0.3798
  90   0.0000       0.009060         0.2465
  91   0.0000       0.023055         0.6273

MULLIKEN ATOMIC CHARGES
-----------------------
   0 C :   -0.282359
   1 C :   -0.028089
   2 O :   -0.226132
   3 C :    0.113056
   4 O :   -0.216534
   5 C :   -0.045652
   6 C :   -0.302648
   7 H :    0.166468
   8 C :    0.173015
   9 O :   -0.195877
  10 O :   -0.214375
  11 C :   -0.008641
  12 C :   -0.308024
  13 S :   -0.091812
  14 P :    0.608190
  15 S :   -0.316449
  16 O :   -0.349060
  17 C :   -0.101582
  18 O :   -0.387236
  19 C :   -0.100571
  20 H :    0.117340
  21 H :    0.111571
  22 H :    0.116917
  23 H :    0.105026
  24 H :    0.112941
  25 H :    0.118577
  26 H :    0.115248
  27 H :    0.120124
  28 H :    0.104221
  29 H :    0.128728
  30 H :    0.113828
  31 H :    0.119138
  32 H :    0.128051
  33 H :    0.130442
  34 H :    0.117326
  35 H :    0.116538
  36 H :    0.113609
  37 H :    0.124687
Sum of atomic charges:   -0.0000000

LOEWDIN ATOMIC CHARGES
----------------------
   0 C :   -0.350394
   1 C :   -0.108256
   2 O :   -0.055223
   3 C :    0.026940
   4 O :   -0.177685
   5 C :   -0.259291
   6 C :   -0.266009
   7 H :    0.157833
   8 C :    0.003162
   9 O :   -0.172369
  10 O :   -0.028925
  11 C :   -0.105778
  12 C :   -0.356780
  13 S :    0.103371
  14 P :    0.583875
  15 S :   -0.304754
  16 O :   -0.227424
  17 C :   -0.207250
  18 O :   -0.262317
  19 C :   -0.217663
  20 H :    0.127709
  21 H :    0.130152
  22 H :    0.126098
  23 H :    0.116944
  24 H :    0.119023
  25 H :    0.133466
  26 H :    0.143911
  27 H :    0.125558
  28 H :    0.117517
  29 H :    0.131442
  30 H :    0.131286
  31 H :    0.127144
  32 H :    0.116189
  33 H :    0.126624
  34 H :    0.111843
  35 H :    0.110762
  36 H :    0.107047
  37 H :    0.122224

  Mayer bond orders larger than 0.100000
B(  0-C ,  1-C ) :   1.1596 B(  0-C , 20-H ) :   0.9480 B(  0-C , 21-H ) :   0.9440
B(  0-C , 22-H ) :   0.9511 B(  1-C ,  2-O ) :   0.9066 B(  1-C , 23-H ) :   0.9361
B(  1-C , 24-H ) :   0.9171 B(  2-O ,  3-C ) :   1.2458 B(  3-C ,  4-O ) :   2.0381
B(  3-C ,  5-C ) :   0.9915 B(  5-C ,  6-C ) :   1.0316 B(  5-C , 25-H ) :   0.8860
B(  5-C , 26-H ) :   0.8789 B(  6-C ,  7-H ) :   0.8476 B(  6-C ,  8-C ) :   0.9057
B(  6-C , 13-S ) :   1.0120 B(  8-C ,  9-O ) :   2.0073 B(  8-C , 10-O ) :   1.2641
B( 10-O , 11-C ) :   0.9037 B( 11-C , 12-C ) :   1.1728 B( 11-C , 27-H ) :   0.9126
B( 11-C , 28-H ) :   0.9361 B( 12-C , 29-H ) :   0.9442 B( 12-C , 30-H ) :   0.9440
B( 12-C , 31-H ) :   0.9468 B( 13-S , 14-P ) :   0.9521 B( 13-S , 15-S ) :   0.1121
B( 14-P , 15-S ) :   1.6061 B( 14-P , 16-O ) :   1.1474 B( 14-P , 18-O ) :   1.0694
B( 16-O , 17-C ) :   0.9171 B( 17-C , 32-H ) :   0.9425 B( 17-C , 33-H ) :   0.9595
B( 17-C , 34-H ) :   0.9453 B( 18-O , 19-C ) :   0.9341 B( 19-C , 35-H ) :   0.9354
B( 19-C , 36-H ) :   0.9462 B( 19-C , 37-H ) :   0.9587

Dispersion correction           -0.052023789
FINAL SINGLE POINT ENERGY     -1979.018637335540

DIPOLE MOMENT
-------------

Method             : SCF
Type of density    : Electron Density
Multiplicity       :   1
Irrep              :   0
Energy             : -1979.1489328534062224 Eh
Relativity type    :
Basis              : AO
                                X                 Y                 Z
Electronic contribution:    -17.034659698      -1.154354810      -2.512206750
Nuclear contribution   :     17.364600380       0.815904203       2.251201523
                        -----------------------------------------
Total Dipole Moment    :      0.329940682      -0.338450608      -0.261005227
                        -----------------------------------------
Magnitude (a.u.)       :      0.539938326
Magnitude (Debye)      :      1.372414158

Rotational constants in cm-1:             0.015680             0.006251             0.005611
Rotational constants in MHz :           470.082592           187.398152           168.220038

                             ****ORCA TERMINATED NORMALLY****
TOTAL RUN TIME: 0 days 0 hours 0 minutes 45 seconds 509 msec
