                         Program Version 6.0.0  -   RELEASE  -
|  1> ! r2scan-3c def2/J RI DEFGRID2 scfconv6 printgap
|  2> %output
|  3>     printlevel normal
|  4> end
|  5> * xyz 0 1
|  6> C 4.2596999074 -0.5847996402 -2.5890027428
|  7> C 4.5921923919 -1.2393580435 -1.26364646
|  8> O 3.4119602115 -1.5827402118 -0.5169596717
|  9> P 2.4441048911 -0.485441507 0.101300312
| 10> S 3.3396421892 1.0900513975 0.861042329
| 11> O 1.5753129711 -1.3466730143 1.1061819969
| 12> C 1.9259706646 -1.487026971 2.4973322642
| 13> C 3.1969045112 -2.2900089965 2.6787057349
| 14> S 1.0027945999 -0.1375047043 -1.402673868
| 15> C 0.3259365484 1.3788959707 -0.6734434002
| 16> S -0.6485048106 1.0781590888 0.8311132626
| 17> P -2.5292232442 0.7203582748 -0.0755806974
| 18> S -2.6028457231 0.5091734493 -2.026749735
| 19> O -3.2876481301 1.9825501134 0.5067562217
| 20> C -4.5253171547 2.4671640842 -0.0550042871
| 21> C -5.6738773863 1.5099800852 0.1859618098
| 22> O -3.1856462764 -0.4683467217 0.7534740134
| 23> C -3.0659794773 -1.8446569104 0.359098506
| 24> C -1.6842854094 -2.3968030505 0.6445379721
| 25> H 3.5592564743 -1.1991920559 -3.1492434755
| 26> H 3.8086353525 0.3921983033 -2.4195580564
| 27> H 5.1700548305 -0.45641361 -3.1657752246
| 28> H 5.2071774712 -0.5724872077 -0.6506513012
| 29> H 5.1014919249 -2.1939726389 -1.4019063533
| 30> H 2.0306880195 -0.4869521589 2.9301937519
| 31> H 1.0632727584 -1.9896054979 2.9360738135
| 32> H 3.1146315266 -3.2430043014 2.1627480204
| 33> H 4.0433165017 -1.7396474512 2.269377789
| 34> H 3.3672276696 -2.4624799871 3.7367842917
| 35> H -0.3017084641 1.8356024129 -1.4361784058
| 36> H 1.1486036783 2.0332225352 -0.3857892649
| 37> H -4.6813046764 3.4222732538 0.4482051302
| 38> H -4.376874793 2.6298645876 -1.1273486913
| 39> H -5.7461626412 1.2698788903 1.2434349702
| 40> H -6.5996845732 1.9697839703 -0.1455390552
| 41> H -5.5151628025 0.5900365586 -0.3747602427
| 42> H -3.8300478387 -2.3556286551 0.946864568
| 43> H -3.3003390294 -1.9235130389 -0.7078205809
| 44> H -1.4152706257 -2.2146267226 1.6820255246
| 45> H -1.6738319507 -3.4645207101 0.4507277815
| 46> H -0.9440261397 -1.9189602471 0.003700332
| 47> *
| 48>
| 49>                          ****END OF INPUT****

CARTESIAN COORDINATES (ANGSTROEM)
---------------------------------
  C      4.259700   -0.584800   -2.589003
  C      4.592192   -1.239358   -1.263646
  O      3.411960   -1.582740   -0.516960
  P      2.444105   -0.485442    0.101300
  S      3.339642    1.090051    0.861042
  O      1.575313   -1.346673    1.106182
  C      1.925971   -1.487027    2.497332
  C      3.196905   -2.290009    2.678706
  S      1.002795   -0.137505   -1.402674
  C      0.325937    1.378896   -0.673443
  S     -0.648505    1.078159    0.831113
  P     -2.529223    0.720358   -0.075581
  S     -2.602846    0.509173   -2.026750
  O     -3.287648    1.982550    0.506756
  C     -4.525317    2.467164   -0.055004
  C     -5.673877    1.509980    0.185962
  O     -3.185646   -0.468347    0.753474
  C     -3.065979   -1.844657    0.359099
  C     -1.684285   -2.396803    0.644538
  H      3.559256   -1.199192   -3.149243
  H      3.808635    0.392198   -2.419558
  H      5.170055   -0.456414   -3.165775
  H      5.207177   -0.572487   -0.650651
  H      5.101492   -2.193973   -1.401906
  H      2.030688   -0.486952    2.930194
  H      1.063273   -1.989605    2.936074
  H      3.114632   -3.243004    2.162748
  H      4.043317   -1.739647    2.269378
  H      3.367228   -2.462480    3.736784
  H     -0.301708    1.835602   -1.436178
  H      1.148604    2.033223   -0.385789
  H     -4.681305    3.422273    0.448205
  H     -4.376875    2.629865   -1.127349
  H     -5.746163    1.269879    1.243435
  H     -6.599685    1.969784   -0.145539
  H     -5.515163    0.590037   -0.374760
  H     -3.830048   -2.355629    0.946865
  H     -3.300339   -1.923513   -0.707821
  H     -1.415271   -2.214627    1.682026
  H     -1.673832   -3.464521    0.450728
  H     -0.944026   -1.918960    0.003700

 Total Charge           Charge          ....    0
 Multiplicity           Mult            ....    1
 Number of Electrons    NEL             ....  202
 Basis Dimension        Dim             ....  539

ORBITAL ENERGIES
----------------

  NO   OCC          E(Eh)            E(eV)
   0   2.0000     -88.573783     -2410.2152
   1   2.0000     -88.572071     -2410.1686
   2   2.0000     -88.524097     -2408.8631
   3   2.0000     -88.522892     -2408.8303
   4   2.0000     -76.913937     -2092.9346
   5   2.0000     -76.913473     -2092.9220
   6   2.0000     -18.994669      -516.8712
   7   2.0000     -18.991420      -516.7828
   8   2.0000     -18.989653      -516.7347
   9   2.0000     -18.987603      -516.6790
  10   2.0000     -10.102739      -274.9095
  11   2.0000     -10.100192      -274.8402
  12   2.0000     -10.097449      -274.7656
  13   2.0000     -10.096793      -274.7477
  14   2.0000     -10.096088      -274.7285
  15   2.0000     -10.029277      -272.9105
  16   2.0000     -10.029084      -272.9052
  17   2.0000     -10.028538      -272.8904
  18   2.0000     -10.022814      -272.7346
  19   2.0000      -7.867992      -214.0990
  20   2.0000      -7.866290      -214.0526
  21   2.0000      -7.818823      -212.7610
  22   2.0000      -7.817638      -212.7287
  23   2.0000      -6.592681      -179.3960
  24   2.0000      -6.592080      -179.3796
  25   2.0000      -5.814848      -158.2301
  26   2.0000      -5.813247      -158.1865
  27   2.0000      -5.811897      -158.1498
  28   2.0000      -5.810317      -158.1068
  29   2.0000      -5.805103      -157.9649
  30   2.0000      -5.803158      -157.9119
  31   2.0000      -5.766427      -156.9125
  32   2.0000      -5.765165      -156.8781
  33   2.0000      -5.759166      -156.7149
  34   2.0000      -5.758812      -156.7052
  35   2.0000      -5.757942      -156.6816
  36   2.0000      -5.757744      -156.6762
  37   2.0000      -4.738067      -128.9294
  38   2.0000      -4.737536      -128.9149
  39   2.0000      -4.737290      -128.9082
  40   2.0000      -4.736959      -128.8992
  41   2.0000      -4.736552      -128.8881
  42   2.0000      -4.736120      -128.8764
  43   2.0000      -1.051283       -28.6069
  44   2.0000      -1.048530       -28.5320
  45   2.0000      -1.012622       -27.5549
  46   2.0000      -1.009740       -27.4764
  47   2.0000      -0.799095       -21.7445
  48   2.0000      -0.758171       -20.6309
  49   2.0000      -0.747098       -20.3296
  50   2.0000      -0.732141       -19.9226
  51   2.0000      -0.729418       -19.8485
  52   2.0000      -0.710690       -19.3388
  53   2.0000      -0.686968       -18.6934
  54   2.0000      -0.669416       -18.2157
  55   2.0000      -0.636495       -17.3199
  56   2.0000      -0.627434       -17.0734
  57   2.0000      -0.606592       -16.5062
  58   2.0000      -0.603559       -16.4237
  59   2.0000      -0.587406       -15.9841
  60   2.0000      -0.520526       -14.1642
  61   2.0000      -0.516039       -14.0421
  62   2.0000      -0.494426       -13.4540
  63   2.0000      -0.491273       -13.3682
  64   2.0000      -0.475773       -12.9465
  65   2.0000      -0.460919       -12.5422
  66   2.0000      -0.459321       -12.4988
  67   2.0000      -0.455779       -12.4024
  68   2.0000      -0.446437       -12.1482
  69   2.0000      -0.432164       -11.7598
  70   2.0000      -0.421932       -11.4813
  71   2.0000      -0.412430       -11.2228
  72   2.0000      -0.409890       -11.1537
  73   2.0000      -0.406714       -11.0673
  74   2.0000      -0.401664       -10.9298
  75   2.0000      -0.392884       -10.6909
  76   2.0000      -0.381340       -10.3768
  77   2.0000      -0.372244       -10.1293
  78   2.0000      -0.369342       -10.0503
  79   2.0000      -0.365370        -9.9422
  80   2.0000      -0.362754        -9.8710
  81   2.0000      -0.359650        -9.7866
  82   2.0000      -0.355589        -9.6761
  83   2.0000      -0.352664        -9.5965
  84   2.0000      -0.348029        -9.4703
  85   2.0000      -0.332565        -9.0496
  86   2.0000      -0.322760        -8.7827
  87   2.0000      -0.311611        -8.4794
  88   2.0000      -0.307928        -8.3791
  89   2.0000      -0.300008        -8.1636
  90   2.0000      -0.298724        -8.1287
  91   2.0000      -0.289852        -7.8873
  92   2.0000      -0.286795        -7.8041
  93   2.0000      -0.280316        -7.6278
  94   2.0000      -0.275855        -7.5064
  95   2.0000      -0.242340        -6.5944
  96   2.0000      -0.231567        -6.3012
  97   2.0000      -0.226931        -6.1751
  98   2.0000      -0.220918        -6.0115
  99   2.0000      -0.217787        -5.9263
 100   2.0000      -0.215306        -5.8588
 101   0.0000      -0.044382        -1.2077
 102   0.0000      -0.029087        -0.7915
 103   0.0000      -0.005273        -0.1435
 104   0.0000       0.004116         0.1120
 105   0.0000       0.017077         0.4647

MULLIKEN ATOMIC CHARGES
-----------------------
   0 C :   -0.452527
   1 C :   -0.150674
   2 O :   -0.305810
   3 P :    0.686207
   4 S :   -0.487785
   5 O :   -0.277314
   6 C :   -0.149044
   7 C :   -0.443299
   8 S :   -0.100215
   9 C :   -0.246223
  10 S :   -0.102221
  11 P :    0.661165
  12 S :   -0.476299
  13 O :   -0.291061
  14 C :   -0.156210
  15 C :   -0.434566
  16 O :   -0.280402
  17 C :   -0.153041
  18 C :   -0.442766
  19 H :    0.157270
  20 H :    0.177388
  21 H :    0.148146
  22 H :    0.170820
  23 H :    0.148740
  24 H :    0.173404
  25 H :    0.149797
  26 H :    0.156908
  27 H :    0.167528
  28 H :    0.147282
  29 H :    0.204874
  30 H :    0.218072
  31 H :    0.149936
  32 H :    0.170098
  33 H :    0.156489
  34 H :    0.146810
  35 H :    0.164517
  36 H :    0.146215
  37 H :    0.169243
  38 H :    0.146717
  39 H :    0.145133
  40 H :    0.186697
Sum of atomic charges:   -0.0000000

LOEWDIN ATOMIC CHARGES
----------------------
   0 C :   -0.406475
   1 C :    0.020298
   2 O :   -0.660507
   3 P :    0.376371
   4 S :   -0.136386
   5 O :   -0.675839
   6 C :    0.019197
   7 C :   -0.399195
   8 S :    0.164509
   9 C :   -0.420576
  10 S :    0.185857
  11 P :    0.386225
  12 S :   -0.125421
  13 O :   -0.668235
  14 C :    0.022602
  15 C :   -0.399430
  16 O :   -0.664927
  17 C :    0.019332
  18 C :   -0.405138
  19 H :    0.161057
  20 H :    0.165926
  21 H :    0.159563
  22 H :    0.179308
  23 H :    0.179769
  24 H :    0.180927
  25 H :    0.179540
  26 H :    0.161216
  27 H :    0.164730
  28 H :    0.159458
  29 H :    0.191886
  30 H :    0.192128
  31 H :    0.180384
  32 H :    0.179086
  33 H :    0.161682
  34 H :    0.159093
  35 H :    0.163882
  36 H :    0.178321
  37 H :    0.179764
  38 H :    0.159223
  39 H :    0.158624
  40 H :    0.172169

  Mayer bond orders larger than 0.100000
B(  0-C ,  1-C ) :   0.9229 B(  0-C , 19-H ) :   0.9682 B(  0-C , 20-H ) :   0.9618
B(  0-C , 21-H ) :   0.9584 B(  1-C ,  2-O ) :   0.8139 B(  1-C , 22-H ) :   0.9665
B(  1-C , 23-H ) :   0.9583 B(  2-O ,  3-P ) :   1.0626 B(  3-P ,  4-S ) :   1.7420
B(  3-P ,  5-O ) :   1.1421 B(  3-P ,  8-S ) :   1.0976 B(  5-O ,  6-C ) :   0.7914
B(  6-C ,  7-C ) :   0.9208 B(  6-C , 24-H ) :   0.9636 B(  6-C , 25-H ) :   0.9624
B(  7-C , 26-H ) :   0.9723 B(  7-C , 27-H ) :   0.9601 B(  7-C , 28-H ) :   0.9617
B(  8-S ,  9-C ) :   0.9188 B(  9-C , 10-S ) :   0.8959 B(  9-C , 29-H ) :   0.9067
B(  9-C , 30-H ) :   0.9065 B( 10-S , 11-P ) :   1.0944 B( 11-P , 12-S ) :   1.7357
B( 11-P , 13-O ) :   1.1826 B( 11-P , 16-O ) :   1.0685 B( 13-O , 14-C ) :   0.8130
B( 14-C , 15-C ) :   0.9283 B( 14-C , 31-H ) :   0.9608 B( 14-C , 32-H ) :   0.9663
B( 15-C , 33-H ) :   0.9707 B( 15-C , 34-H ) :   0.9618 B( 15-C , 35-H ) :   0.9604
B( 16-O , 17-C ) :   0.7998 B( 17-C , 18-C ) :   0.9378 B( 17-C , 36-H ) :   0.9608
B( 17-C , 37-H ) :   0.9622 B( 18-C , 38-H ) :   0.9685 B( 18-C , 39-H ) :   0.9611
B( 18-C , 40-H ) :   0.9510

Dispersion correction           -0.021325840
FINAL SINGLE POINT ENERGY     -2932.464789787643

DIPOLE MOMENT
-------------

Method             : SCF
Type of density    : Electron Density
Multiplicity       :   1
Irrep              :   0
Energy             : -2932.4899131652082360 Eh
Relativity type    :
Basis              : AO
                                X                 Y                 Z
Electronic contribution:      0.502717423      10.761386727      -3.307390598
Nuclear contribution   :     -0.699984549     -11.635755304       3.662500174
                        -----------------------------------------
Total Dipole Moment    :     -0.197267127      -0.874368577       0.355109577
                        -----------------------------------------
Magnitude (a.u.)       :      0.964125272
Magnitude (Debye)      :      2.450611687

Rotational constants in cm-1:             0.014565             0.004283             0.004046
Rotational constants in MHz :           436.654404           128.393371           121.285533

                             ****ORCA TERMINATED NORMALLY****
TOTAL RUN TIME: 0 days 0 hours 1 minutes 16 seconds 390 msec
