                         Program Version 6.0.0  -   RELEASE  -
|  1> ! r2scan-3c def2/J RI DEFGRID2 scfconv6 printgap
|  2> %output
|  3>     printlevel normal
|  4> end
|  5> %cpcm
|  6>     smd true
|  7>     smdsolvent "water"
|  8> end
|  9> * xyz 0 1
| 10> C 4.2596999074 -0.5847996402 -2.5890027428
| 11> C 4.5921923919 -1.2393580435 -1.26364646
| 12> O 3.4119602115 -1.5827402118 -0.5169596717
| 13> P 2.4441048911 -0.485441507 0.101300312
| 14> S 3.3396421892 1.0900513975 0.861042329
| 15> O 1.5753129711 -1.3466730143 1.1061819969
| 16> C 1.9259706646 -1.487026971 2.4973322642
| 17> C 3.1969045112 -2.2900089965 2.6787057349
| 18> S 1.0027945999 -0.1375047043 -1.402673868
| 19> C 0.3259365484 1.3788959707 -0.6734434002
| 20> S -0.6485048106 1.0781590888 0.8311132626
| 21> P -2.5292232442 0.7203582748 -0.0755806974
| 22> S -2.6028457231 0.5091734493 -2.026749735
| 23> O -3.2876481301 1.9825501134 0.5067562217
| 24> C -4.5253171547 2.4671640842 -0.0550042871
| 25> C -5.6738773863 1.5099800852 0.1859618098
| 26> O -3.1856462764 -0.4683467217 0.7534740134
| 27> C -3.0659794773 -1.8446569104 0.359098506
| 28> C -1.6842854094 -2.3968030505 0.6445379721
| 29> H 3.5592564743 -1.1991920559 -3.1492434755
| 30> H 3.8086353525 0.3921983033 -2.4195580564
| 31> H 5.1700548305 -0.45641361 -3.1657752246
| 32> H 5.2071774712 -0.5724872077 -0.6506513012
| 33> H 5.1014919249 -2.1939726389 -1.4019063533
| 34> H 2.0306880195 -0.4869521589 2.9301937519
| 35> H 1.0632727584 -1.9896054979 2.9360738135
| 36> H 3.1146315266 -3.2430043014 2.1627480204
| 37> H 4.0433165017 -1.7396474512 2.269377789
| 38> H 3.3672276696 -2.4624799871 3.7367842917
| 39> H -0.3017084641 1.8356024129 -1.4361784058
| 40> H 1.1486036783 2.0332225352 -0.3857892649
| 41> H -4.6813046764 3.4222732538 0.4482051302
| 42> H -4.376874793 2.6298645876 -1.1273486913
| 43> H -5.7461626412 1.2698788903 1.2434349702
| 44> H -6.5996845732 1.9697839703 -0.1455390552
| 45> H -5.5151628025 0.5900365586 -0.3747602427
| 46> H -3.8300478387 -2.3556286551 0.946864568
| 47> H -3.3003390294 -1.9235130389 -0.7078205809
| 48> H -1.4152706257 -2.2146267226 1.6820255246
| 49> H -1.6738319507 -3.4645207101 0.4507277815
| 50> H -0.9440261397 -1.9189602471 0.003700332
| 51> *
| 52>
| 53>                          ****END OF INPUT****

CARTESIAN COORDINATES (ANGSTROEM)
---------------------------------
  C      4.259700   -0.584800   -2.589003
  C      4.592192   -1.239358   -1.263646
  O      3.411960   -1.582740   -0.516960
  P      2.444105   -0.485442    0.101300
  S      3.339642    1.090051    0.861042
  O      1.575313   -1.346673    1.106182
  C      1.925971   -1.487027    2.497332
  C      3.196905   -2.290009    2.678706
  S      1.002795   -0.137505   -1.402674
  C      0.325937    1.378896   -0.673443
  S     -0.648505    1.078159    0.831113
  P     -2.529223    0.720358   -0.075581
  S     -2.602846    0.509173   -2.026750
  O     -3.287648    1.982550    0.506756
  C     -4.525317    2.467164   -0.055004
  C     -5.673877    1.509980    0.185962
  O     -3.185646   -0.468347    0.753474
  C     -3.065979   -1.844657    0.359099
  C     -1.684285   -2.396803    0.644538
  H      3.559256   -1.199192   -3.149243
  H      3.808635    0.392198   -2.419558
  H      5.170055   -0.456414   -3.165775
  H      5.207177   -0.572487   -0.650651
  H      5.101492   -2.193973   -1.401906
  H      2.030688   -0.486952    2.930194
  H      1.063273   -1.989605    2.936074
  H      3.114632   -3.243004    2.162748
  H      4.043317   -1.739647    2.269378
  H      3.367228   -2.462480    3.736784
  H     -0.301708    1.835602   -1.436178
  H      1.148604    2.033223   -0.385789
  H     -4.681305    3.422273    0.448205
  H     -4.376875    2.629865   -1.127349
  H     -5.746163    1.269879    1.243435
  H     -6.599685    1.969784   -0.145539
  H     -5.515163    0.590037   -0.374760
  H     -3.830048   -2.355629    0.946865
  H     -3.300339   -1.923513   -0.707821
  H     -1.415271   -2.214627    1.682026
  H     -1.673832   -3.464521    0.450728
  H     -0.944026   -1.918960    0.003700

 Total Charge           Charge          ....    0
 Multiplicity           Mult            ....    1
 Number of Electrons    NEL             ....  202
 Basis Dimension        Dim             ....  539

ORBITAL ENERGIES
----------------

  NO   OCC          E(Eh)            E(eV)
   0   2.0000     -88.579053     -2410.3586
   1   2.0000     -88.578697     -2410.3489
   2   2.0000     -88.531816     -2409.0732
   3   2.0000     -88.529748     -2409.0169
   4   2.0000     -76.919933     -2093.0978
   5   2.0000     -76.919094     -2093.0750
   6   2.0000     -18.996773      -516.9285
   7   2.0000     -18.995376      -516.8905
   8   2.0000     -18.992965      -516.8248
   9   2.0000     -18.992802      -516.8204
  10   2.0000     -10.105031      -274.9719
  11   2.0000     -10.090335      -274.5720
  12   2.0000     -10.089372      -274.5458
  13   2.0000     -10.089251      -274.5425
  14   2.0000     -10.089147      -274.5397
  15   2.0000     -10.018873      -272.6274
  16   2.0000     -10.018724      -272.6234
  17   2.0000     -10.018672      -272.6219
  18   2.0000     -10.016764      -272.5700
  19   2.0000      -7.873330      -214.2442
  20   2.0000      -7.872996      -214.2351
  21   2.0000      -7.826770      -212.9772
  22   2.0000      -7.824754      -212.9224
  23   2.0000      -6.598600      -179.5570
  24   2.0000      -6.597874      -179.5373
  25   2.0000      -5.820166      -158.3748
  26   2.0000      -5.819912      -158.3679
  27   2.0000      -5.817230      -158.2949
  28   2.0000      -5.816977      -158.2880
  29   2.0000      -5.810467      -158.1108
  30   2.0000      -5.809952      -158.0968
  31   2.0000      -5.774343      -157.1279
  32   2.0000      -5.772239      -157.0706
  33   2.0000      -5.767099      -156.9308
  34   2.0000      -5.766761      -156.9215
  35   2.0000      -5.765041      -156.8747
  36   2.0000      -5.764869      -156.8701
  37   2.0000      -4.743788      -129.0850
  38   2.0000      -4.743464      -129.0762
  39   2.0000      -4.743208      -129.0692
  40   2.0000      -4.742732      -129.0563
  41   2.0000      -4.742690      -129.0551
  42   2.0000      -4.741821      -129.0315
  43   2.0000      -1.053598       -28.6699
  44   2.0000      -1.052757       -28.6470
  45   2.0000      -1.014294       -27.6003
  46   2.0000      -1.013369       -27.5752
  47   2.0000      -0.803331       -21.8597
  48   2.0000      -0.756815       -20.5940
  49   2.0000      -0.742519       -20.2050
  50   2.0000      -0.723936       -19.6993
  51   2.0000      -0.723375       -19.6840
  52   2.0000      -0.710631       -19.3372
  53   2.0000      -0.690934       -18.8013
  54   2.0000      -0.676243       -18.4015
  55   2.0000      -0.636265       -17.3136
  56   2.0000      -0.625023       -17.0077
  57   2.0000      -0.599962       -16.3258
  58   2.0000      -0.599095       -16.3022
  59   2.0000      -0.588282       -16.0080
  60   2.0000      -0.517959       -14.0944
  61   2.0000      -0.513412       -13.9707
  62   2.0000      -0.492352       -13.3976
  63   2.0000      -0.489129       -13.3099
  64   2.0000      -0.476743       -12.9728
  65   2.0000      -0.458892       -12.4871
  66   2.0000      -0.455171       -12.3858
  67   2.0000      -0.453465       -12.3394
  68   2.0000      -0.444243       -12.0885
  69   2.0000      -0.429739       -11.6938
  70   2.0000      -0.420415       -11.4401
  71   2.0000      -0.408137       -11.1060
  72   2.0000      -0.407539       -11.0897
  73   2.0000      -0.405465       -11.0333
  74   2.0000      -0.402064       -10.9407
  75   2.0000      -0.392389       -10.6774
  76   2.0000      -0.381273       -10.3750
  77   2.0000      -0.367344        -9.9959
  78   2.0000      -0.365453        -9.9445
  79   2.0000      -0.363182        -9.8827
  80   2.0000      -0.354728        -9.6526
  81   2.0000      -0.352561        -9.5937
  82   2.0000      -0.349567        -9.5122
  83   2.0000      -0.347544        -9.4571
  84   2.0000      -0.345506        -9.4017
  85   2.0000      -0.330484        -8.9929
  86   2.0000      -0.321930        -8.7602
  87   2.0000      -0.307145        -8.3579
  88   2.0000      -0.304867        -8.2959
  89   2.0000      -0.300479        -8.1765
  90   2.0000      -0.297576        -8.0974
  91   2.0000      -0.289325        -7.8729
  92   2.0000      -0.287711        -7.8290
  93   2.0000      -0.280613        -7.6359
  94   2.0000      -0.278215        -7.5706
  95   2.0000      -0.247420        -6.7327
  96   2.0000      -0.239172        -6.5082
  97   2.0000      -0.234562        -6.3828
  98   2.0000      -0.228904        -6.2288
  99   2.0000      -0.225730        -6.1424
 100   2.0000      -0.222258        -6.0479
 101   0.0000      -0.051462        -1.4003
 102   0.0000      -0.036296        -0.9877
 103   0.0000      -0.009980        -0.2716
 104   0.0000      -0.001452        -0.0395
 105   0.0000       0.013274         0.3612

MULLIKEN ATOMIC CHARGES
-----------------------
   0 C :   -0.488185
   1 C :   -0.151597
   2 O :   -0.330403
   3 P :    0.723559
   4 S :   -0.531351
   5 O :   -0.304973
   6 C :   -0.148432
   7 C :   -0.484106
   8 S :   -0.115710
   9 C :   -0.254536
  10 S :   -0.128009
  11 P :    0.699307
  12 S :   -0.512648
  13 O :   -0.326518
  14 C :   -0.152620
  15 C :   -0.474582
  16 O :   -0.304138
  17 C :   -0.149448
  18 C :   -0.484946
  19 H :    0.169737
  20 H :    0.172770
  21 H :    0.173260
  22 H :    0.178240
  23 H :    0.176013
  24 H :    0.176954
  25 H :    0.179042
  26 H :    0.170332
  27 H :    0.168638
  28 H :    0.172318
  29 H :    0.226158
  30 H :    0.235121
  31 H :    0.175197
  32 H :    0.176085
  33 H :    0.168980
  34 H :    0.172071
  35 H :    0.167429
  36 H :    0.174782
  37 H :    0.174322
  38 H :    0.169635
  39 H :    0.171677
  40 H :    0.170577
Sum of atomic charges:   -0.0000000

LOEWDIN ATOMIC CHARGES
----------------------
   0 C :   -0.409667
   1 C :    0.026262
   2 O :   -0.671268
   3 P :    0.381490
   4 S :   -0.162096
   5 O :   -0.690093
   6 C :    0.023219
   7 C :   -0.402323
   8 S :    0.155541
   9 C :   -0.414627
  10 S :    0.171561
  11 P :    0.390873
  12 S :   -0.147127
  13 O :   -0.685962
  14 C :    0.027339
  15 C :   -0.402521
  16 O :   -0.675452
  17 C :    0.025535
  18 C :   -0.409939
  19 H :    0.163755
  20 H :    0.161638
  21 H :    0.168734
  22 H :    0.181799
  23 H :    0.191350
  24 H :    0.181981
  25 H :    0.191002
  26 H :    0.164452
  27 H :    0.162772
  28 H :    0.168839
  29 H :    0.198901
  30 H :    0.197098
  31 H :    0.190880
  32 H :    0.181485
  33 H :    0.164362
  34 H :    0.168749
  35 H :    0.162609
  36 H :    0.190602
  37 H :    0.181661
  38 H :    0.164519
  39 H :    0.168254
  40 H :    0.163813

  Mayer bond orders larger than 0.100000
B(  0-C ,  1-C ) :   0.9086 B(  0-C , 19-H ) :   0.9657 B(  0-C , 20-H ) :   0.9632
B(  0-C , 21-H ) :   0.9530 B(  1-C ,  2-O ) :   0.8017 B(  1-C , 22-H ) :   0.9652
B(  1-C , 23-H ) :   0.9485 B(  2-O ,  3-P ) :   1.0725 B(  3-P ,  4-S ) :   1.7022
B(  3-P ,  5-O ) :   1.1498 B(  3-P ,  8-S ) :   1.1048 B(  5-O ,  6-C ) :   0.7785
B(  6-C ,  7-C ) :   0.9097 B(  6-C , 24-H ) :   0.9595 B(  6-C , 25-H ) :   0.9521
B(  7-C , 26-H ) :   0.9713 B(  7-C , 27-H ) :   0.9591 B(  7-C , 28-H ) :   0.9556
B(  8-S ,  9-C ) :   0.9121 B(  9-C , 10-S ) :   0.8880 B(  9-C , 29-H ) :   0.9011
B(  9-C , 30-H ) :   0.9027 B( 10-S , 11-P ) :   1.0955 B( 11-P , 12-S ) :   1.7091
B( 11-P , 13-O ) :   1.1842 B( 11-P , 16-O ) :   1.0766 B( 13-O , 14-C ) :   0.8016
B( 14-C , 15-C ) :   0.9159 B( 14-C , 31-H ) :   0.9512 B( 14-C , 32-H ) :   0.9617
B( 15-C , 33-H ) :   0.9700 B( 15-C , 34-H ) :   0.9555 B( 15-C , 35-H ) :   0.9589
B( 16-O , 17-C ) :   0.7880 B( 17-C , 18-C ) :   0.9245 B( 17-C , 36-H ) :   0.9513
B( 17-C , 37-H ) :   0.9599 B( 18-C , 38-H ) :   0.9652 B( 18-C , 39-H ) :   0.9548
B( 18-C , 40-H ) :   0.9555

Dispersion correction           -0.021325840
FINAL SINGLE POINT ENERGY     -2932.472127543194

DIPOLE MOMENT
-------------

Method             : SCF
Type of density    : Electron Density
Multiplicity       :   1
Irrep              :   0
Energy             : -2932.4972509207595976 Eh
Relativity type    :
Basis              : AO
                                X                 Y                 Z
Electronic contribution:      0.419685303      10.505755262      -3.226076706
Nuclear contribution   :     -0.699984549     -11.635755304       3.662500174
                        -----------------------------------------
Total Dipole Moment    :     -0.280299247      -1.130000042       0.436423468
                        -----------------------------------------
Magnitude (a.u.)       :      1.243355623
Magnitude (Debye)      :      3.160358837

Rotational constants in cm-1:             0.014565             0.004283             0.004046
Rotational constants in MHz :           436.654404           128.393371           121.285533

                             ****ORCA TERMINATED NORMALLY****
TOTAL RUN TIME: 0 days 0 hours 1 minutes 52 seconds 644 msec
