                         Program Version 6.0.0  -   RELEASE  -
|  1> ! pbe def2-sv(p) def2/J RI DEFGRID1 loosescf d4 GCP(DFT/SV(P)) printgap
|  2> %output
|  3>     printlevel normal
|  4> end
|  5> * xyz 0 1
|  6> C 4.6114175429 -1.2155589825 -1.4557464877
|  7> C 4.3386590427 -1.3262434508 0.0301381359
|  8> O 3.5660149411 -0.2281488896 0.5471494918
|  9> P 2.1747181554 0.292426853 -0.0234251609
| 10> S 2.2337206389 1.357141309 -1.6748849659
| 11> O 1.6355178683 1.050258842 1.2625885312
| 12> C 1.8000379262 2.4665582913 1.4436491018
| 13> C 3.2493424066 2.8278986699 1.6875095208
| 14> S 1.0052265238 -1.4573290394 -0.0390636454
| 15> C -0.0617417389 -1.1476054811 -1.4947351617
| 16> S -1.7936207319 -1.516735324 -1.1717759314
| 17> P -2.3561318462 0.2261861417 -0.078809589
| 18> S -1.1448511077 1.75756954 -0.2584264024
| 19> O -2.6355092053 -0.2083146411 1.4273540457
| 20> C -1.6093850804 -0.5043239679 2.3890755902
| 21> C -1.4441626105 -2.0035357716 2.5509312411
| 22> O -3.7991749835 0.5786493285 -0.5836246473
| 23> C -4.8303321787 -0.3627929696 -0.9791508516
| 24> C -5.0996625196 -1.418529904 0.0698596065
| 25> H 5.0824388332 -0.2630352353 -1.6867095207
| 26> H 5.2666712229 -2.0245839518 -1.7620646819
| 27> H 3.6802326516 -1.2795897438 -2.0169220295
| 28> H 5.2633982598 -1.2808750828 0.6083151327
| 29> H 3.805229943 -2.2534890498 0.2578592474
| 30> H 1.4068217355 2.9784337305 0.5582365594
| 31> H 1.1676483476 2.6993519341 2.3015658389
| 32> H 3.839861635 2.5804232879 0.8058019697
| 33> H 3.3285420137 3.8930251918 1.8806274831
| 34> H 3.6356863988 2.2710305384 2.5369704309
| 35> H 0.2421723867 -1.8222584356 -2.2908373739
| 36> H 0.055198582 -0.1019704236 -1.7918693124
| 37> H -0.6721389971 -0.0256622511 2.0839052942
| 38> H -1.95479374 -0.0435458629 3.316838339
| 39> H -0.7140421316 -2.1958559104 3.3303347435
| 40> H -2.3939445427 -2.4516679158 2.8279713178
| 41> H -1.0932525507 -2.4561061751 1.6262199412
| 42> H -5.6978313044 0.2787847445 -1.1407275791
| 43> H -4.5243290123 -0.819734603 -1.9232804187
| 44> H -4.2321284251 -2.065854356 0.1822366268
| 45> H -5.3217514384 -0.9517209714 1.0258235069
| 46> H -5.9481023496 -2.0187965165 -0.2439753807
| 47> *
| 48>
| 49>                          ****END OF INPUT****

CARTESIAN COORDINATES (ANGSTROEM)
---------------------------------
  C      4.611418   -1.215559   -1.455746
  C      4.338659   -1.326243    0.030138
  O      3.566015   -0.228149    0.547149
  P      2.174718    0.292427   -0.023425
  S      2.233721    1.357141   -1.674885
  O      1.635518    1.050259    1.262589
  C      1.800038    2.466558    1.443649
  C      3.249342    2.827899    1.687510
  S      1.005227   -1.457329   -0.039064
  C     -0.061742   -1.147605   -1.494735
  S     -1.793621   -1.516735   -1.171776
  P     -2.356132    0.226186   -0.078810
  S     -1.144851    1.757570   -0.258426
  O     -2.635509   -0.208315    1.427354
  C     -1.609385   -0.504324    2.389076
  C     -1.444163   -2.003536    2.550931
  O     -3.799175    0.578649   -0.583625
  C     -4.830332   -0.362793   -0.979151
  C     -5.099663   -1.418530    0.069860
  H      5.082439   -0.263035   -1.686710
  H      5.266671   -2.024584   -1.762065
  H      3.680233   -1.279590   -2.016922
  H      5.263398   -1.280875    0.608315
  H      3.805230   -2.253489    0.257859
  H      1.406822    2.978434    0.558237
  H      1.167648    2.699352    2.301566
  H      3.839862    2.580423    0.805802
  H      3.328542    3.893025    1.880627
  H      3.635686    2.271031    2.536970
  H      0.242172   -1.822258   -2.290837
  H      0.055199   -0.101970   -1.791869
  H     -0.672139   -0.025662    2.083905
  H     -1.954794   -0.043546    3.316838
  H     -0.714042   -2.195856    3.330335
  H     -2.393945   -2.451668    2.827971
  H     -1.093253   -2.456106    1.626220
  H     -5.697831    0.278785   -1.140728
  H     -4.524329   -0.819735   -1.923280
  H     -4.232128   -2.065854    0.182237
  H     -5.321751   -0.951721    1.025824
  H     -5.948102   -2.018797   -0.243975

 Total Charge           Charge          ....    0
 Multiplicity           Mult            ....    1
 Number of Electrons    NEL             ....  202
 Basis Dimension        Dim             ....  334

ORBITAL ENERGIES
----------------

  NO   OCC          E(Eh)            E(eV)
   0   2.0000     -88.048924     -2395.9330
   1   2.0000     -88.046215     -2395.8593
   2   2.0000     -87.983678     -2394.1576
   3   2.0000     -87.978062     -2394.0048
   4   2.0000     -76.425255     -2079.6369
   5   2.0000     -76.423883     -2079.5996
   6   2.0000     -18.792546      -511.3712
   7   2.0000     -18.789337      -511.2838
   8   2.0000     -18.785391      -511.1765
   9   2.0000     -18.782563      -511.0995
  10   2.0000      -9.960629      -271.0425
  11   2.0000      -9.957611      -270.9604
  12   2.0000      -9.955725      -270.9091
  13   2.0000      -9.945324      -270.6260
  14   2.0000      -9.941790      -270.5299
  15   2.0000      -9.892007      -269.1752
  16   2.0000      -9.882838      -268.9257
  17   2.0000      -9.879377      -268.8315
  18   2.0000      -9.876371      -268.7497
  19   2.0000      -7.693742      -209.3574
  20   2.0000      -7.691024      -209.2834
  21   2.0000      -7.628546      -207.5833
  22   2.0000      -7.622927      -207.4304
  23   2.0000      -6.422294      -174.7595
  24   2.0000      -6.421323      -174.7331
  25   2.0000      -5.721670      -155.6946
  26   2.0000      -5.718783      -155.6160
  27   2.0000      -5.717938      -155.5930
  28   2.0000      -5.715482      -155.5262
  29   2.0000      -5.711024      -155.4049
  30   2.0000      -5.708155      -155.3268
  31   2.0000      -5.657538      -153.9494
  32   2.0000      -5.652004      -153.7988
  33   2.0000      -5.649352      -153.7267
  34   2.0000      -5.648471      -153.7027
  35   2.0000      -5.643489      -153.5671
  36   2.0000      -5.642965      -153.5529
  37   2.0000      -4.644602      -126.3860
  38   2.0000      -4.644223      -126.3757
  39   2.0000      -4.644004      -126.3698
  40   2.0000      -4.643210      -126.3482
  41   2.0000      -4.642934      -126.3406
  42   2.0000      -4.641560      -126.3033
  43   2.0000      -0.985208       -26.8089
  44   2.0000      -0.982438       -26.7335
  45   2.0000      -0.942180       -25.6380
  46   2.0000      -0.939734       -25.5715
  47   2.0000      -0.764265       -20.7967
  48   2.0000      -0.720974       -19.6187
  49   2.0000      -0.710759       -19.3407
  50   2.0000      -0.690046       -18.7771
  51   2.0000      -0.684294       -18.6206
  52   2.0000      -0.674466       -18.3531
  53   2.0000      -0.649086       -17.6625
  54   2.0000      -0.634927       -17.2773
  55   2.0000      -0.598885       -16.2965
  56   2.0000      -0.592366       -16.1191
  57   2.0000      -0.574915       -15.6442
  58   2.0000      -0.569016       -15.4837
  59   2.0000      -0.561968       -15.2919
  60   2.0000      -0.497567       -13.5395
  61   2.0000      -0.489722       -13.3260
  62   2.0000      -0.475055       -12.9269
  63   2.0000      -0.464860       -12.6495
  64   2.0000      -0.455585       -12.3971
  65   2.0000      -0.451517       -12.2864
  66   2.0000      -0.439404       -11.9568
  67   2.0000      -0.432555       -11.7704
  68   2.0000      -0.430634       -11.7181
  69   2.0000      -0.416148       -11.3240
  70   2.0000      -0.407654       -11.0928
  71   2.0000      -0.400655       -10.9024
  72   2.0000      -0.399301       -10.8655
  73   2.0000      -0.387085       -10.5331
  74   2.0000      -0.382472       -10.4076
  75   2.0000      -0.370863       -10.0917
  76   2.0000      -0.364740        -9.9251
  77   2.0000      -0.356352        -9.6968
  78   2.0000      -0.355589        -9.6761
  79   2.0000      -0.346842        -9.4381
  80   2.0000      -0.345579        -9.4037
  81   2.0000      -0.342109        -9.3093
  82   2.0000      -0.339840        -9.2475
  83   2.0000      -0.336188        -9.1481
  84   2.0000      -0.332058        -9.0358
  85   2.0000      -0.315773        -8.5926
  86   2.0000      -0.310604        -8.4520
  87   2.0000      -0.294912        -8.0250
  88   2.0000      -0.291853        -7.9417
  89   2.0000      -0.288716        -7.8564
  90   2.0000      -0.281648        -7.6640
  91   2.0000      -0.276777        -7.5315
  92   2.0000      -0.269537        -7.3345
  93   2.0000      -0.259092        -7.0502
  94   2.0000      -0.258403        -7.0315
  95   2.0000      -0.236353        -6.4315
  96   2.0000      -0.222747        -6.0613
  97   2.0000      -0.210138        -5.7181
  98   2.0000      -0.200923        -5.4674
  99   2.0000      -0.193835        -5.2745
 100   2.0000      -0.185430        -5.0458
 101   0.0000      -0.045057        -1.2261
 102   0.0000      -0.036040        -0.9807
 103   0.0000      -0.013403        -0.3647
 104   0.0000       0.008340         0.2269
 105   0.0000       0.016029         0.4362

MULLIKEN ATOMIC CHARGES
-----------------------
   0 C :   -0.309334
   1 C :   -0.004681
   2 O :   -0.374906
   3 P :    0.623129
   4 S :   -0.314274
   5 O :   -0.356198
   6 C :   -0.008713
   7 C :   -0.297122
   8 S :   -0.121149
   9 C :   -0.329060
  10 S :   -0.137691
  11 P :    0.595489
  12 S :   -0.299854
  13 O :   -0.372424
  14 C :   -0.025690
  15 C :   -0.296968
  16 O :   -0.356209
  17 C :   -0.008936
  18 C :   -0.319890
  19 H :    0.126034
  20 H :    0.109560
  21 H :    0.120023
  22 H :    0.107310
  23 H :    0.108712
  24 H :    0.123434
  25 H :    0.102054
  26 H :    0.121501
  27 H :    0.109709
  28 H :    0.111230
  29 H :    0.181648
  30 H :    0.216878
  31 H :    0.127495
  32 H :    0.102624
  33 H :    0.106969
  34 H :    0.108939
  35 H :    0.124147
  36 H :    0.115562
  37 H :    0.116408
  38 H :    0.129260
  39 H :    0.128620
  40 H :    0.116363
Sum of atomic charges:   -0.0000000

LOEWDIN ATOMIC CHARGES
----------------------
   0 C :   -0.369457
   1 C :   -0.115748
   2 O :   -0.245733
   3 P :    0.573730
   4 S :   -0.302247
   5 O :   -0.236191
   6 C :   -0.120706
   7 C :   -0.364731
   8 S :    0.081644
   9 C :   -0.475468
  10 S :    0.069004
  11 P :    0.562149
  12 S :   -0.291171
  13 O :   -0.244902
  14 C :   -0.122207
  15 C :   -0.363672
  16 O :   -0.232214
  17 C :   -0.112464
  18 C :   -0.368587
  19 H :    0.129449
  20 H :    0.128900
  21 H :    0.118980
  22 H :    0.120503
  23 H :    0.107156
  24 H :    0.109394
  25 H :    0.117338
  26 H :    0.121625
  27 H :    0.129475
  28 H :    0.123992
  29 H :    0.135748
  30 H :    0.127963
  31 H :    0.108592
  32 H :    0.117541
  33 H :    0.129054
  34 H :    0.121911
  35 H :    0.111115
  36 H :    0.125284
  37 H :    0.111959
  38 H :    0.118449
  39 H :    0.131619
  40 H :    0.132924

  Mayer bond orders larger than 0.100000
B(  0-C ,  1-C ) :   1.1637 B(  0-C , 19-H ) :   0.9433 B(  0-C , 20-H ) :   0.9350
B(  0-C , 21-H ) :   0.9350 B(  1-C ,  2-O ) :   0.9180 B(  1-C , 22-H ) :   0.9342
B(  1-C , 23-H ) :   0.9263 B(  2-O ,  3-P ) :   1.1003 B(  3-P ,  4-S ) :   1.6041
B(  3-P ,  5-O ) :   1.1254 B(  3-P ,  8-S ) :   0.9526 B(  4-S ,  8-S ) :   0.1146
B(  5-O ,  6-C ) :   0.9005 B(  6-C ,  7-C ) :   1.1615 B(  6-C , 24-H ) :   0.9124
B(  6-C , 25-H ) :   0.9344 B(  7-C , 26-H ) :   0.9349 B(  7-C , 27-H ) :   0.9397
B(  7-C , 28-H ) :   0.9457 B(  8-S ,  9-C ) :   0.9828 B(  9-C , 10-S ) :   1.0248
B(  9-C , 29-H ) :   0.9079 B(  9-C , 30-H ) :   0.8424 B( 10-S , 11-P ) :   0.9134
B( 10-S , 12-S ) :   0.1077 B( 11-P , 12-S ) :   1.6672 B( 11-P , 13-O ) :   1.0894
B( 11-P , 16-O ) :   1.1524 B( 13-O , 14-C ) :   0.9036 B( 14-C , 15-C ) :   1.1678
B( 14-C , 31-H ) :   0.8963 B( 14-C , 32-H ) :   0.9348 B( 15-C , 33-H ) :   0.9413
B( 15-C , 34-H ) :   0.9455 B( 15-C , 35-H ) :   0.9314 B( 16-O , 17-C ) :   0.9009
B( 17-C , 18-C ) :   1.1675 B( 17-C , 36-H ) :   0.9342 B( 17-C , 37-H ) :   0.9240
B( 18-C , 38-H ) :   0.9366 B( 18-C , 39-H ) :   0.9414 B( 18-C , 40-H ) :   0.9338

Dispersion correction           -0.067430808
FINAL SINGLE POINT ENERGY     -2929.515377404285

DIPOLE MOMENT
-------------

Method             : SCF
Type of density    : Electron Density
Multiplicity       :   1
Irrep              :   0
Energy             : -2929.6338722211116874 Eh
Relativity type    :
Basis              : AO
                                X                 Y                 Z
Electronic contribution:     -4.251918611       5.950017384      -9.396802493
Nuclear contribution   :      4.095707258      -7.348825684      10.059629964
                        -----------------------------------------
Total Dipole Moment    :     -0.156211353      -1.398808300       0.662827471
                        -----------------------------------------
Magnitude (a.u.)       :      1.555765697
Magnitude (Debye)      :      3.954442137

Rotational constants in cm-1:             0.013697             0.004952             0.004702
Rotational constants in MHz :           410.627488           148.456383           140.948370

                             ****ORCA TERMINATED NORMALLY****
TOTAL RUN TIME: 0 days 0 hours 0 minutes 21 seconds 422 msec
