                         Program Version 6.0.0  -   RELEASE  -
|  1> ! pbe def2-sv(p) def2/J RI DEFGRID1 loosescf d4 GCP(DFT/SV(P)) printgap
|  2> %output
|  3>     printlevel normal
|  4> end
|  5> * xyz 0 1
|  6> C 2.7160602793 -0.1532545507 3.3684213236
|  7> C 1.4322617485 -0.5128439223 2.6506032352
|  8> O 1.3154171963 0.1821478171 1.3940685777
|  9> P 2.2222776771 -0.1635964467 0.1428969893
| 10> S 2.8830082044 -2.0075940042 0.0146623425
| 11> O 3.3471741674 0.9521687318 0.2576034599
| 12> C 4.5819112023 0.8840394201 -0.4776608136
| 13> C 4.3718001094 1.0688163934 -1.9666617915
| 14> S 0.9658360672 0.524671413 -1.4106483712
| 15> C 0.0929268249 -1.0425746416 -1.6811441407
| 16> S -0.8448962114 -1.5995640476 -0.2324708701
| 17> P -2.1571351202 0.0616396351 -0.1365325398
| 18> S -2.7155623766 0.7980794326 -1.8688794865
| 19> O -1.3958120994 1.0528036722 0.8300604212
| 20> C -1.4536308161 2.4837319668 0.6772687306
| 21> C -2.7698618968 3.0276194669 1.1910881217
| 22> O -3.2923906717 -0.4584102334 0.8440392601
| 23> C -4.222488769 -1.5007915424 0.486481655
| 24> C -5.4647931755 -0.9278921961 -0.168155345
| 25> H 2.726995828 -0.6248223318 4.3460455739
| 26> H 3.5706187765 -0.5089696923 2.7936803343
| 27> H 2.7938448248 0.9247096633 3.4829433166
| 28> H 0.5478837658 -0.1978653569 3.206652613
| 29> H 1.3817806574 -1.5898253003 2.4577215022
| 30> H 5.1840732706 1.6878819518 -0.0521653518
| 31> H 5.0517552104 -0.0834873295 -0.2737598991
| 32> H 5.3361102777 1.1314807137 -2.4606719787
| 33> H 3.8210980056 0.221710625 -2.3737277365
| 34> H 3.806384766 1.9771805091 -2.1594661517
| 35> H 0.8116667249 -1.83082607 -1.9021249892
| 36> H -0.5870928196 -0.8748236378 -2.5158082179
| 37> H -0.6022351767 2.8478192036 1.2541228506
| 38> H -1.3147876846 2.731959429 -0.3805145714
| 39> H -2.7657365544 4.1108616682 1.1238959784
| 40> H -3.5862374489 2.6359956045 0.5851576581
| 41> H -2.9237167988 2.726306387 2.2236861755
| 42> H -3.7239909883 -2.2177815166 -0.1725349185
| 43> H -4.4612644075 -1.9858437026 1.4348812102
| 44> H -5.2076000214 -0.4356870892 -1.1033574684
| 45> H -6.1635789952 -1.7325953913 -0.3726213507
| 46> H -5.934228892 -0.2032303222 0.4912099757
| 47> *
| 48>
| 49>                          ****END OF INPUT****

CARTESIAN COORDINATES (ANGSTROEM)
---------------------------------
  C      2.716060   -0.153255    3.368421
  C      1.432262   -0.512844    2.650603
  O      1.315417    0.182148    1.394069
  P      2.222278   -0.163596    0.142897
  S      2.883008   -2.007594    0.014662
  O      3.347174    0.952169    0.257603
  C      4.581911    0.884039   -0.477661
  C      4.371800    1.068816   -1.966662
  S      0.965836    0.524671   -1.410648
  C      0.092927   -1.042575   -1.681144
  S     -0.844896   -1.599564   -0.232471
  P     -2.157135    0.061640   -0.136533
  S     -2.715562    0.798079   -1.868879
  O     -1.395812    1.052804    0.830060
  C     -1.453631    2.483732    0.677269
  C     -2.769862    3.027619    1.191088
  O     -3.292391   -0.458410    0.844039
  C     -4.222489   -1.500792    0.486482
  C     -5.464793   -0.927892   -0.168155
  H      2.726996   -0.624822    4.346046
  H      3.570619   -0.508970    2.793680
  H      2.793845    0.924710    3.482943
  H      0.547884   -0.197865    3.206653
  H      1.381781   -1.589825    2.457722
  H      5.184073    1.687882   -0.052165
  H      5.051755   -0.083487   -0.273760
  H      5.336110    1.131481   -2.460672
  H      3.821098    0.221711   -2.373728
  H      3.806385    1.977181   -2.159466
  H      0.811667   -1.830826   -1.902125
  H     -0.587093   -0.874824   -2.515808
  H     -0.602235    2.847819    1.254123
  H     -1.314788    2.731959   -0.380515
  H     -2.765737    4.110862    1.123896
  H     -3.586237    2.635996    0.585158
  H     -2.923717    2.726306    2.223686
  H     -3.723991   -2.217782   -0.172535
  H     -4.461264   -1.985844    1.434881
  H     -5.207600   -0.435687   -1.103357
  H     -6.163579   -1.732595   -0.372621
  H     -5.934229   -0.203230    0.491210

 Total Charge           Charge          ....    0
 Multiplicity           Mult            ....    1
 Number of Electrons    NEL             ....  202
 Basis Dimension        Dim             ....  334

ORBITAL ENERGIES
----------------

  NO   OCC          E(Eh)            E(eV)
   0   2.0000     -88.042253     -2395.7515
   1   2.0000     -88.041180     -2395.7223
   2   2.0000     -87.989898     -2394.3268
   3   2.0000     -87.988842     -2394.2981
   4   2.0000     -76.426093     -2079.6597
   5   2.0000     -76.426008     -2079.6574
   6   2.0000     -18.795066      -511.4397
   7   2.0000     -18.794327      -511.4196
   8   2.0000     -18.786260      -511.2001
   9   2.0000     -18.785785      -511.1872
  10   2.0000      -9.955670      -270.9076
  11   2.0000      -9.953784      -270.8562
  12   2.0000      -9.953640      -270.8523
  13   2.0000      -9.947127      -270.6751
  14   2.0000      -9.946287      -270.6522
  15   2.0000      -9.884744      -268.9775
  16   2.0000      -9.881996      -268.9028
  17   2.0000      -9.881509      -268.8895
  18   2.0000      -9.880486      -268.8617
  19   2.0000      -7.687121      -209.1772
  20   2.0000      -7.686149      -209.1507
  21   2.0000      -7.634814      -207.7539
  22   2.0000      -7.633737      -207.7246
  23   2.0000      -6.423576      -174.7944
  24   2.0000      -6.423545      -174.7935
  25   2.0000      -5.714959      -155.5119
  26   2.0000      -5.713948      -155.4844
  27   2.0000      -5.711797      -155.4259
  28   2.0000      -5.710701      -155.3961
  29   2.0000      -5.703961      -155.2127
  30   2.0000      -5.703150      -155.1906
  31   2.0000      -5.663560      -154.1133
  32   2.0000      -5.662490      -154.0842
  33   2.0000      -5.655495      -153.8938
  34   2.0000      -5.655127      -153.8838
  35   2.0000      -5.654314      -153.8617
  36   2.0000      -5.654122      -153.8565
  37   2.0000      -4.645902      -126.4214
  38   2.0000      -4.645877      -126.4207
  39   2.0000      -4.645396      -126.4077
  40   2.0000      -4.645337      -126.4060
  41   2.0000      -4.644253      -126.3766
  42   2.0000      -4.644167      -126.3742
  43   2.0000      -0.986967       -26.8567
  44   2.0000      -0.985770       -26.8242
  45   2.0000      -0.945307       -25.7231
  46   2.0000      -0.943786       -25.6817
  47   2.0000      -0.764729       -20.8093
  48   2.0000      -0.720154       -19.5964
  49   2.0000      -0.706976       -19.2378
  50   2.0000      -0.686204       -18.6726
  51   2.0000      -0.684074       -18.6146
  52   2.0000      -0.672975       -18.3126
  53   2.0000      -0.652262       -17.7489
  54   2.0000      -0.639903       -17.4127
  55   2.0000      -0.602020       -16.3818
  56   2.0000      -0.594549       -16.1785
  57   2.0000      -0.571008       -15.5379
  58   2.0000      -0.568750       -15.4765
  59   2.0000      -0.560719       -15.2579
  60   2.0000      -0.500479       -13.6187
  61   2.0000      -0.491045       -13.3620
  62   2.0000      -0.474264       -12.9054
  63   2.0000      -0.472037       -12.8448
  64   2.0000      -0.454041       -12.3551
  65   2.0000      -0.440139       -11.9768
  66   2.0000      -0.439283       -11.9535
  67   2.0000      -0.438102       -11.9214
  68   2.0000      -0.425998       -11.5920
  69   2.0000      -0.412334       -11.2202
  70   2.0000      -0.404090       -10.9959
  71   2.0000      -0.396522       -10.7899
  72   2.0000      -0.390927       -10.6377
  73   2.0000      -0.386834       -10.5263
  74   2.0000      -0.386017       -10.5041
  75   2.0000      -0.376106       -10.2344
  76   2.0000      -0.369977       -10.0676
  77   2.0000      -0.357055        -9.7160
  78   2.0000      -0.351361        -9.5610
  79   2.0000      -0.349553        -9.5118
  80   2.0000      -0.347677        -9.4608
  81   2.0000      -0.346433        -9.4269
  82   2.0000      -0.340699        -9.2709
  83   2.0000      -0.335593        -9.1319
  84   2.0000      -0.331696        -9.0259
  85   2.0000      -0.322710        -8.7814
  86   2.0000      -0.308508        -8.3949
  87   2.0000      -0.297550        -8.0967
  88   2.0000      -0.296228        -8.0608
  89   2.0000      -0.286089        -7.7849
  90   2.0000      -0.281113        -7.6495
  91   2.0000      -0.276331        -7.5194
  92   2.0000      -0.268169        -7.2972
  93   2.0000      -0.264829        -7.2064
  94   2.0000      -0.257805        -7.0152
  95   2.0000      -0.232167        -6.3176
  96   2.0000      -0.218158        -5.9364
  97   2.0000      -0.214865        -5.8468
  98   2.0000      -0.209004        -5.6873
  99   2.0000      -0.201033        -5.4704
 100   2.0000      -0.200245        -5.4489
 101   0.0000      -0.044412        -1.2085
 102   0.0000      -0.022740        -0.6188
 103   0.0000      -0.000560        -0.0152
 104   0.0000       0.002084         0.0567
 105   0.0000       0.013000         0.3538

MULLIKEN ATOMIC CHARGES
-----------------------
   0 C :   -0.304313
   1 C :   -0.001340
   2 O :   -0.351987
   3 P :    0.614023
   4 S :   -0.339329
   5 O :   -0.370793
   6 C :   -0.004658
   7 C :   -0.314918
   8 S :   -0.074933
   9 C :   -0.359942
  10 S :   -0.081125
  11 P :    0.613958
  12 S :   -0.339177
  13 O :   -0.350057
  14 C :   -0.004932
  15 C :   -0.298988
  16 O :   -0.368225
  17 C :   -0.012689
  18 C :   -0.295465
  19 H :    0.110886
  20 H :    0.119865
  21 H :    0.114273
  22 H :    0.104955
  23 H :    0.111628
  24 H :    0.105881
  25 H :    0.111092
  26 H :    0.113635
  27 H :    0.126686
  28 H :    0.119078
  29 H :    0.189883
  30 H :    0.192362
  31 H :    0.103547
  32 H :    0.113597
  33 H :    0.109944
  34 H :    0.120374
  35 H :    0.112951
  36 H :    0.103876
  37 H :    0.108154
  38 H :    0.130752
  39 H :    0.107895
  40 H :    0.113574
Sum of atomic charges:   -0.0000000

LOEWDIN ATOMIC CHARGES
----------------------
   0 C :   -0.364346
   1 C :   -0.117208
   2 O :   -0.231898
   3 P :    0.573119
   4 S :   -0.326145
   5 O :   -0.244289
   6 C :   -0.118929
   7 C :   -0.369221
   8 S :    0.098581
   9 C :   -0.481056
  10 S :    0.087016
  11 P :    0.570466
  12 S :   -0.320535
  13 O :   -0.227742
  14 C :   -0.118676
  15 C :   -0.363174
  16 O :   -0.244162
  17 C :   -0.116331
  18 C :   -0.364395
  19 H :    0.129644
  20 H :    0.121430
  21 H :    0.125172
  22 H :    0.118633
  23 H :    0.109746
  24 H :    0.119006
  25 H :    0.110620
  26 H :    0.131343
  27 H :    0.121230
  28 H :    0.124916
  29 H :    0.130172
  30 H :    0.130480
  31 H :    0.117676
  32 H :    0.108018
  33 H :    0.129322
  34 H :    0.122092
  35 H :    0.124660
  36 H :    0.106493
  37 H :    0.119321
  38 H :    0.124384
  39 H :    0.128949
  40 H :    0.125620

  Mayer bond orders larger than 0.100000
B(  0-C ,  1-C ) :   1.1623 B(  0-C , 19-H ) :   0.9401 B(  0-C , 20-H ) :   0.9371
B(  0-C , 21-H ) :   0.9465 B(  1-C ,  2-O ) :   0.9056 B(  1-C , 22-H ) :   0.9334
B(  1-C , 23-H ) :   0.9166 B(  2-O ,  3-P ) :   1.1355 B(  3-P ,  4-S ) :   1.5827
B(  3-P ,  5-O ) :   1.1125 B(  3-P ,  8-S ) :   0.9537 B(  4-S ,  8-S ) :   0.1081
B(  5-O ,  6-C ) :   0.9081 B(  6-C ,  7-C ) :   1.1661 B(  6-C , 24-H ) :   0.9340
B(  6-C , 25-H ) :   0.9163 B(  7-C , 26-H ) :   0.9378 B(  7-C , 27-H ) :   0.9355
B(  7-C , 28-H ) :   0.9446 B(  8-S ,  9-C ) :   1.0027 B(  9-C , 10-S ) :   1.0063
B(  9-C , 29-H ) :   0.8852 B(  9-C , 30-H ) :   0.8830 B( 10-S , 11-P ) :   0.9539
B( 10-S , 12-S ) :   0.1096 B( 11-P , 12-S ) :   1.5875 B( 11-P , 13-O ) :   1.1401
B( 11-P , 16-O ) :   1.1207 B( 13-O , 14-C ) :   0.9011 B( 14-C , 15-C ) :   1.1624
B( 14-C , 31-H ) :   0.9328 B( 14-C , 32-H ) :   0.9120 B( 15-C , 33-H ) :   0.9407
B( 15-C , 34-H ) :   0.9371 B( 15-C , 35-H ) :   0.9470 B( 16-O , 17-C ) :   0.9062
B( 17-C , 18-C ) :   1.1667 B( 17-C , 36-H ) :   0.9155 B( 17-C , 37-H ) :   0.9361
B( 18-C , 38-H ) :   0.9313 B( 18-C , 39-H ) :   0.9392 B( 18-C , 40-H ) :   0.9473

Dispersion correction           -0.066746010
FINAL SINGLE POINT ENERGY     -2929.527887122558

DIPOLE MOMENT
-------------

Method             : SCF
Type of density    : Electron Density
Multiplicity       :   1
Irrep              :   0
Energy             : -2929.6454853918194203 Eh
Relativity type    :
Basis              : AO
                                X                 Y                 Z
Electronic contribution:      2.230919029      -7.947238106      -8.430513114
Nuclear contribution   :     -2.166802693       8.354443968       9.182445267
                        -----------------------------------------
Total Dipole Moment    :      0.064116336       0.407205862       0.751932153
                        -----------------------------------------
Magnitude (a.u.)       :      0.857513545
Magnitude (Debye)      :      2.179626215

Rotational constants in cm-1:             0.013300             0.004855             0.004788
Rotational constants in MHz :           398.711800           145.554103           143.537133

                             ****ORCA TERMINATED NORMALLY****
TOTAL RUN TIME: 0 days 0 hours 0 minutes 21 seconds 172 msec
