                         Program Version 6.0.0  -   RELEASE  -
|  1> ! pbe def2-sv(p) def2/J RI DEFGRID1 loosescf d4 GCP(DFT/SV(P)) printgap
|  2> %output
|  3>     printlevel normal
|  4> end
|  5> * xyz 0 1
|  6> C 5.3586826783 1.3887953461 -1.8574894144
|  7> C 4.0110807243 0.6952460285 -1.8712903588
|  8> O 3.7886754105 0.1263517707 -0.566074891
|  9> P 2.3332408568 -0.101052682 0.0028282642
| 10> S 1.1095064974 1.4139510813 -0.280075892
| 11> O 2.8058432568 -0.4338999393 1.4727068088
| 12> C 1.9974620547 -1.0557959892 2.4878150301
| 13> C 1.1087730586 -0.0492028211 3.1919318988
| 14> S 1.7209052446 -1.9514143749 -0.8547393667
| 15> C -0.0409235412 -1.6453650134 -1.1210709399
| 16> S -0.9843737073 -1.5537448766 0.4427364286
| 17> P -2.1720041784 0.1481850433 0.0663861199
| 18> S -2.1621342659 0.8470181246 -1.7720197561
| 19> O -1.6908145503 1.0410264414 1.2818719721
| 20> C -2.3654971545 2.2322660017 1.7378191163
| 21> C -2.1248661257 3.4071614622 0.8112072514
| 22> O -3.6358718392 -0.2361659145 0.5703833805
| 23> C -4.6257948532 -0.8067015931 -0.2997747178
| 24> C -4.2556787817 -2.2088257345 -0.7388214331
| 25> H 5.5601295796 1.7969319118 -2.8425029786
| 26> H 5.3562425758 2.1939169498 -1.1280641278
| 27> H 6.1359685549 0.6778749032 -1.5935557604
| 28> H 3.9904428338 -0.1188202139 -2.6007265344
| 29> H 3.2024906913 1.4009179993 -2.0953477365
| 30> H 1.4009635136 -1.8576611261 2.0396614929
| 31> H 2.7287762004 -1.4857022835 3.1749029926
| 32> H 0.3828999702 0.3695649781 2.4971580391
| 33> H 0.576346728 -0.5443804148 3.9976082348
| 34> H 1.7087753282 0.7615133305 3.5966820628
| 35> H -0.395938821 -2.4962541274 -1.6968493308
| 36> H -0.1874392281 -0.7083508132 -1.6654408095
| 37> H -3.4318104841 2.0156740691 1.8384278793
| 38> H -1.9283545684 2.4103672176 2.7221182578
| 39> H -2.6099107647 3.243764162 -0.149254125
| 40> H -2.5217509772 4.3113982858 1.2611509978
| 41> H -1.0574728515 3.5272862091 0.6362201016
| 42> H -5.5378929097 -0.7978367211 0.2984117216
| 43> H -4.7408892804 -0.1511108345 -1.1689866639
| 44> H -4.0258148305 -2.8277883419 0.1247351781
| 45> H -5.0848370362 -2.6445166035 -1.2868310746
| 46> H -3.3835783444 -2.1716377634 -1.3906427557
| 47> *
| 48>
| 49>                          ****END OF INPUT****

CARTESIAN COORDINATES (ANGSTROEM)
---------------------------------
  C      5.358683    1.388795   -1.857489
  C      4.011081    0.695246   -1.871290
  O      3.788675    0.126352   -0.566075
  P      2.333241   -0.101053    0.002828
  S      1.109506    1.413951   -0.280076
  O      2.805843   -0.433900    1.472707
  C      1.997462   -1.055796    2.487815
  C      1.108773   -0.049203    3.191932
  S      1.720905   -1.951414   -0.854739
  C     -0.040924   -1.645365   -1.121071
  S     -0.984374   -1.553745    0.442736
  P     -2.172004    0.148185    0.066386
  S     -2.162134    0.847018   -1.772020
  O     -1.690815    1.041026    1.281872
  C     -2.365497    2.232266    1.737819
  C     -2.124866    3.407161    0.811207
  O     -3.635872   -0.236166    0.570383
  C     -4.625795   -0.806702   -0.299775
  C     -4.255679   -2.208826   -0.738821
  H      5.560130    1.796932   -2.842503
  H      5.356243    2.193917   -1.128064
  H      6.135969    0.677875   -1.593556
  H      3.990443   -0.118820   -2.600727
  H      3.202491    1.400918   -2.095348
  H      1.400964   -1.857661    2.039661
  H      2.728776   -1.485702    3.174903
  H      0.382900    0.369565    2.497158
  H      0.576347   -0.544380    3.997608
  H      1.708775    0.761513    3.596682
  H     -0.395939   -2.496254   -1.696849
  H     -0.187439   -0.708351   -1.665441
  H     -3.431810    2.015674    1.838428
  H     -1.928355    2.410367    2.722118
  H     -2.609911    3.243764   -0.149254
  H     -2.521751    4.311398    1.261151
  H     -1.057473    3.527286    0.636220
  H     -5.537893   -0.797837    0.298412
  H     -4.740889   -0.151111   -1.168987
  H     -4.025815   -2.827788    0.124735
  H     -5.084837   -2.644517   -1.286831
  H     -3.383578   -2.171638   -1.390643

 Total Charge           Charge          ....    0
 Multiplicity           Mult            ....    1
 Number of Electrons    NEL             ....  202
 Basis Dimension        Dim             ....  334

ORBITAL ENERGIES
----------------

  NO   OCC          E(Eh)            E(eV)
   0   2.0000     -88.044795     -2395.8207
   1   2.0000     -88.044370     -2395.8091
   2   2.0000     -87.987947     -2394.2738
   3   2.0000     -87.981161     -2394.0891
   4   2.0000     -76.427750     -2079.7048
   5   2.0000     -76.422432     -2079.5601
   6   2.0000     -18.791817      -511.3513
   7   2.0000     -18.790224      -511.3080
   8   2.0000     -18.785868      -511.1895
   9   2.0000     -18.785621      -511.1827
  10   2.0000      -9.954479      -270.8751
  11   2.0000      -9.952456      -270.8201
  12   2.0000      -9.951614      -270.7972
  13   2.0000      -9.948182      -270.7038
  14   2.0000      -9.947064      -270.6734
  15   2.0000      -9.884993      -268.9843
  16   2.0000      -9.882806      -268.9248
  17   2.0000      -9.876837      -268.7624
  18   2.0000      -9.872709      -268.6501
  19   2.0000      -7.689811      -209.2504
  20   2.0000      -7.689132      -209.2319
  21   2.0000      -7.632817      -207.6995
  22   2.0000      -7.625711      -207.5062
  23   2.0000      -6.424862      -174.8294
  24   2.0000      -6.419679      -174.6883
  25   2.0000      -5.717759      -155.5881
  26   2.0000      -5.716993      -155.5673
  27   2.0000      -5.713979      -155.4853
  28   2.0000      -5.713775      -155.4797
  29   2.0000      -5.707113      -155.2984
  30   2.0000      -5.705990      -155.2679
  31   2.0000      -5.661733      -154.0636
  32   2.0000      -5.654599      -153.8695
  33   2.0000      -5.653653      -153.8437
  34   2.0000      -5.652756      -153.8193
  35   2.0000      -5.646253      -153.6424
  36   2.0000      -5.646029      -153.6363
  37   2.0000      -4.647456      -126.4637
  38   2.0000      -4.646422      -126.4356
  39   2.0000      -4.645557      -126.4120
  40   2.0000      -4.641993      -126.3151
  41   2.0000      -4.641893      -126.3123
  42   2.0000      -4.639916      -126.2585
  43   2.0000      -0.987389       -26.8682
  44   2.0000      -0.984945       -26.8017
  45   2.0000      -0.943098       -25.6630
  46   2.0000      -0.939977       -25.5781
  47   2.0000      -0.761515       -20.7219
  48   2.0000      -0.720515       -19.6062
  49   2.0000      -0.708928       -19.2909
  50   2.0000      -0.686486       -18.6802
  51   2.0000      -0.678953       -18.4752
  52   2.0000      -0.674201       -18.3459
  53   2.0000      -0.648917       -17.6579
  54   2.0000      -0.634362       -17.2619
  55   2.0000      -0.597564       -16.2606
  56   2.0000      -0.589322       -16.0363
  57   2.0000      -0.576162       -15.6782
  58   2.0000      -0.563424       -15.3316
  59   2.0000      -0.556157       -15.1338
  60   2.0000      -0.501202       -13.6384
  61   2.0000      -0.496759       -13.5175
  62   2.0000      -0.470557       -12.8045
  63   2.0000      -0.467556       -12.7228
  64   2.0000      -0.453657       -12.3446
  65   2.0000      -0.444710       -12.1012
  66   2.0000      -0.434363       -11.8196
  67   2.0000      -0.433740       -11.8027
  68   2.0000      -0.425984       -11.5916
  69   2.0000      -0.415582       -11.3086
  70   2.0000      -0.405945       -11.0463
  71   2.0000      -0.401684       -10.9304
  72   2.0000      -0.398646       -10.8477
  73   2.0000      -0.387783       -10.5521
  74   2.0000      -0.375901       -10.2288
  75   2.0000      -0.370598       -10.0845
  76   2.0000      -0.361181        -9.8282
  77   2.0000      -0.352901        -9.6029
  78   2.0000      -0.351634        -9.5684
  79   2.0000      -0.346317        -9.4238
  80   2.0000      -0.344527        -9.3751
  81   2.0000      -0.340198        -9.2572
  82   2.0000      -0.335573        -9.1314
  83   2.0000      -0.334488        -9.1019
  84   2.0000      -0.327334        -8.9072
  85   2.0000      -0.313755        -8.5377
  86   2.0000      -0.310724        -8.4552
  87   2.0000      -0.296707        -8.0738
  88   2.0000      -0.295047        -8.0286
  89   2.0000      -0.289975        -7.8906
  90   2.0000      -0.284171        -7.7327
  91   2.0000      -0.274681        -7.4744
  92   2.0000      -0.263867        -7.1802
  93   2.0000      -0.263356        -7.1663
  94   2.0000      -0.255239        -6.9454
  95   2.0000      -0.240809        -6.5527
  96   2.0000      -0.220444        -5.9986
  97   2.0000      -0.214734        -5.8432
  98   2.0000      -0.202043        -5.4979
  99   2.0000      -0.195661        -5.3242
 100   2.0000      -0.187389        -5.0991
 101   0.0000      -0.044653        -1.2151
 102   0.0000      -0.037568        -1.0223
 103   0.0000      -0.009537        -0.2595
 104   0.0000       0.009692         0.2637
 105   0.0000       0.016037         0.4364

MULLIKEN ATOMIC CHARGES
-----------------------
   0 C :   -0.279984
   1 C :   -0.009261
   2 O :   -0.360591
   3 P :    0.598944
   4 S :   -0.317221
   5 O :   -0.351970
   6 C :   -0.008697
   7 C :   -0.329413
   8 S :   -0.120030
   9 C :   -0.343047
  10 S :   -0.108080
  11 P :    0.641446
  12 S :   -0.312927
  13 O :   -0.357847
  14 C :    0.000767
  15 C :   -0.315843
  16 O :   -0.379424
  17 C :   -0.002022
  18 C :   -0.311178
  19 H :    0.109992
  20 H :    0.120103
  21 H :    0.116038
  22 H :    0.098542
  23 H :    0.106233
  24 H :    0.106719
  25 H :    0.103908
  26 H :    0.161531
  27 H :    0.101710
  28 H :    0.110782
  29 H :    0.180625
  30 H :    0.211074
  31 H :    0.104193
  32 H :    0.107212
  33 H :    0.127098
  34 H :    0.106651
  35 H :    0.133322
  36 H :    0.102743
  37 H :    0.109812
  38 H :    0.118479
  39 H :    0.112478
  40 H :    0.117134
Sum of atomic charges:   -0.0000000

LOEWDIN ATOMIC CHARGES
----------------------
   0 C :   -0.350394
   1 C :   -0.121627
   2 O :   -0.238381
   3 P :    0.559033
   4 S :   -0.300495
   5 O :   -0.230556
   6 C :   -0.116292
   7 C :   -0.371578
   8 S :    0.068964
   9 C :   -0.478974
  10 S :    0.086566
  11 P :    0.574845
  12 S :   -0.296144
  13 O :   -0.230566
  14 C :   -0.108925
  15 C :   -0.367362
  16 O :   -0.248769
  17 C :   -0.121576
  18 C :   -0.368265
  19 H :    0.129710
  20 H :    0.128999
  21 H :    0.126507
  22 H :    0.109632
  23 H :    0.106571
  24 H :    0.096973
  25 H :    0.117809
  26 H :    0.124939
  27 H :    0.126675
  28 H :    0.124874
  29 H :    0.133575
  30 H :    0.124453
  31 H :    0.110203
  32 H :    0.119684
  33 H :    0.121921
  34 H :    0.127687
  35 H :    0.130782
  36 H :    0.117341
  37 H :    0.108823
  38 H :    0.124724
  39 H :    0.130400
  40 H :    0.118212

  Mayer bond orders larger than 0.100000
B(  0-C ,  1-C ) :   1.1610 B(  0-C , 19-H ) :   0.9422 B(  0-C , 20-H ) :   0.9510
B(  0-C , 21-H ) :   0.9509 B(  1-C ,  2-O ) :   0.9094 B(  1-C , 22-H ) :   0.9309
B(  1-C , 23-H ) :   0.9031 B(  2-O ,  3-P ) :   1.1253 B(  3-P ,  4-S ) :   1.6451
B(  3-P ,  5-O ) :   1.1376 B(  3-P ,  8-S ) :   0.9260 B(  4-S ,  8-S ) :   0.1203
B(  5-O ,  6-C ) :   0.9155 B(  6-C ,  7-C ) :   1.1650 B(  6-C , 24-H ) :   0.9076
B(  6-C , 25-H ) :   0.9352 B(  7-C , 26-H ) :   0.9201 B(  7-C , 27-H ) :   0.9389
B(  7-C , 28-H ) :   0.9450 B(  8-S ,  9-C ) :   1.0095 B(  9-C , 10-S ) :   0.9888
B(  9-C , 29-H ) :   0.9063 B(  9-C , 30-H ) :   0.8480 B( 10-S , 11-P ) :   0.9546
B( 10-S , 12-S ) :   0.1209 B( 11-P , 12-S ) :   1.6016 B( 11-P , 13-O ) :   1.1267
B( 11-P , 16-O ) :   1.0847 B( 13-O , 14-C ) :   0.9015 B( 14-C , 15-C ) :   1.1656
B( 14-C , 31-H ) :   0.9263 B( 14-C , 32-H ) :   0.9346 B( 15-C , 33-H ) :   0.9356
B( 15-C , 34-H ) :   0.9380 B( 15-C , 35-H ) :   0.9419 B( 16-O , 17-C ) :   0.9154
B( 17-C , 18-C ) :   1.1649 B( 17-C , 36-H ) :   0.9331 B( 17-C , 37-H ) :   0.9130
B( 18-C , 38-H ) :   0.9440 B( 18-C , 39-H ) :   0.9383 B( 18-C , 40-H ) :   0.9370

Dispersion correction           -0.066215612
FINAL SINGLE POINT ENERGY     -2929.521617965107

DIPOLE MOMENT
-------------

Method             : SCF
Type of density    : Electron Density
Multiplicity       :   1
Irrep              :   0
Energy             : -2929.6397456351305664 Eh
Relativity type    :
Basis              : AO
                                X                 Y                 Z
Electronic contribution:      3.188687966      -6.909358909      -3.925962661
Nuclear contribution   :     -3.739972093       6.479485831       4.336734854
                        -----------------------------------------
Total Dipole Moment    :     -0.551284127      -0.429873078       0.410772193
                        -----------------------------------------
Magnitude (a.u.)       :      0.810826027
Magnitude (Debye)      :      2.060955974

Rotational constants in cm-1:             0.012173             0.005028             0.004843
Rotational constants in MHz :           364.934938           150.739176           145.191628

                             ****ORCA TERMINATED NORMALLY****
TOTAL RUN TIME: 0 days 0 hours 0 minutes 21 seconds 154 msec
