                         Program Version 6.0.0  -   RELEASE  -
|  1> ! pbe def2-sv(p) def2/J RI DEFGRID1 loosescf d4 GCP(DFT/SV(P)) printgap
|  2> %output
|  3>     printlevel normal
|  4> end
|  5> * xyz 0 1
|  6> C 4.7706407063 -0.971600122 -0.8951301701
|  7> C 4.3817271671 -0.5942917091 0.5183495318
|  8> O 3.3272659695 0.3861091105 0.5801242386
|  9> P 1.9271757347 0.3129309933 -0.1715403237
| 10> S 1.941909046 0.648796656 -2.1107585161
| 11> O 1.0715114922 1.3051086805 0.7182039359
| 12> C 1.523682994 2.5876900534 1.1974793896
| 13> C 1.9568943446 3.5019271966 0.0714434809
| 14> S 1.1664454596 -1.5723880498 0.3844608573
| 15> C 0.021754667 -1.8853388898 -0.9937907578
| 16> S -1.7012685737 -2.0219046443 -0.4665218837
| 17> P -2.0392454176 0.0040224961 0.0910039929
| 18> S -1.4809345246 1.3771045155 -1.1839765089
| 19> O -1.3834262101 0.1669883765 1.515417251
| 20> C -1.7607998611 -0.6638561299 2.6468533166
| 21> C -0.6098722284 -0.6655580939 3.6308840843
| 22> O -3.5885239508 0.0101431177 0.4565829654
| 23> C -4.6228019687 0.2502591846 -0.5140885367
| 24> C -4.7166812405 -0.8562089931 -1.5443986178
| 25> H 3.942737623 -1.4717269592 -1.3948983477
| 26> H 5.030057736 -0.0858325265 -1.4699926739
| 27> H 5.6230752833 -1.6424520114 -0.8635642614
| 28> H 5.2078648279 -0.1094225481 1.0418677324
| 29> H 4.0537859106 -1.4752342598 1.0765282439
| 30> H 0.6492750746 2.9827962492 1.718227435
| 31> H 2.3400901528 2.4192226637 1.9035323197
| 32> H 1.1539172701 3.6047740128 -0.6568302078
| 33> H 2.208633862 4.4791985089 0.4710624503
| 34> H 2.8276223959 3.0842707985 -0.4334703504
| 35> H 0.2754328013 -2.8478929318 -1.4305322332
| 36> H 0.1332460043 -1.0787399112 -1.7253926478
| 37> H -2.6648578645 -0.2323673623 3.0800985574
| 38> H -1.9791525676 -1.6728122157 2.2842276023
| 39> H 0.2741269049 -1.1039803518 3.174519478
| 40> H -0.3792149212 0.3511856229 3.9360806079
| 41> H -0.8901609123 -1.2493065106 4.5016904803
| 42> H -5.5297066652 0.3180311635 0.0885165478
| 43> H -4.4235596836 1.2111442349 -0.9984978595
| 44> H -3.8347411729 -0.8469737203 -2.1830188869
| 45> H -4.7867738805 -1.8246979596 -1.0556173492
| 46> H -5.5961195717 -0.6969504886 -2.1600936704
| 47> *
| 48>
| 49>                          ****END OF INPUT****

CARTESIAN COORDINATES (ANGSTROEM)
---------------------------------
  C      4.770641   -0.971600   -0.895130
  C      4.381727   -0.594292    0.518350
  O      3.327266    0.386109    0.580124
  P      1.927176    0.312931   -0.171540
  S      1.941909    0.648797   -2.110759
  O      1.071511    1.305109    0.718204
  C      1.523683    2.587690    1.197479
  C      1.956894    3.501927    0.071443
  S      1.166445   -1.572388    0.384461
  C      0.021755   -1.885339   -0.993791
  S     -1.701269   -2.021905   -0.466522
  P     -2.039245    0.004022    0.091004
  S     -1.480935    1.377105   -1.183977
  O     -1.383426    0.166988    1.515417
  C     -1.760800   -0.663856    2.646853
  C     -0.609872   -0.665558    3.630884
  O     -3.588524    0.010143    0.456583
  C     -4.622802    0.250259   -0.514089
  C     -4.716681   -0.856209   -1.544399
  H      3.942738   -1.471727   -1.394898
  H      5.030058   -0.085833   -1.469993
  H      5.623075   -1.642452   -0.863564
  H      5.207865   -0.109423    1.041868
  H      4.053786   -1.475234    1.076528
  H      0.649275    2.982796    1.718227
  H      2.340090    2.419223    1.903532
  H      1.153917    3.604774   -0.656830
  H      2.208634    4.479199    0.471062
  H      2.827622    3.084271   -0.433470
  H      0.275433   -2.847893   -1.430532
  H      0.133246   -1.078740   -1.725393
  H     -2.664858   -0.232367    3.080099
  H     -1.979153   -1.672812    2.284228
  H      0.274127   -1.103980    3.174519
  H     -0.379215    0.351186    3.936081
  H     -0.890161   -1.249307    4.501690
  H     -5.529707    0.318031    0.088517
  H     -4.423560    1.211144   -0.998498
  H     -3.834741   -0.846974   -2.183019
  H     -4.786774   -1.824698   -1.055617
  H     -5.596120   -0.696950   -2.160094

 Total Charge           Charge          ....    0
 Multiplicity           Mult            ....    1
 Number of Electrons    NEL             ....  202
 Basis Dimension        Dim             ....  334

ORBITAL ENERGIES
----------------

  NO   OCC          E(Eh)            E(eV)
   0   2.0000     -88.042738     -2395.7647
   1   2.0000     -88.040971     -2395.7166
   2   2.0000     -87.977345     -2393.9853
   3   2.0000     -87.976180     -2393.9536
   4   2.0000     -76.422485     -2079.5615
   5   2.0000     -76.419876     -2079.4905
   6   2.0000     -18.792295      -511.3644
   7   2.0000     -18.789800      -511.2965
   8   2.0000     -18.784439      -511.1506
   9   2.0000     -18.774841      -510.8894
  10   2.0000      -9.957323      -270.9525
  11   2.0000      -9.953206      -270.8405
  12   2.0000      -9.950333      -270.7623
  13   2.0000      -9.949940      -270.7516
  14   2.0000      -9.944719      -270.6096
  15   2.0000      -9.882832      -268.9255
  16   2.0000      -9.882066      -268.9047
  17   2.0000      -9.881176      -268.8805
  18   2.0000      -9.872308      -268.6392
  19   2.0000      -7.687733      -209.1938
  20   2.0000      -7.685979      -209.1461
  21   2.0000      -7.622441      -207.4172
  22   2.0000      -7.621199      -207.3834
  23   2.0000      -6.419252      -174.6767
  24   2.0000      -6.417306      -174.6238
  25   2.0000      -5.715488      -155.5263
  26   2.0000      -5.713805      -155.4805
  27   2.0000      -5.712163      -155.4359
  28   2.0000      -5.710304      -155.3853
  29   2.0000      -5.704862      -155.2372
  30   2.0000      -5.703190      -155.1917
  31   2.0000      -5.651460      -153.7841
  32   2.0000      -5.650191      -153.7495
  33   2.0000      -5.642896      -153.5510
  34   2.0000      -5.642635      -153.5439
  35   2.0000      -5.642109      -153.5296
  36   2.0000      -5.640992      -153.4992
  37   2.0000      -4.642289      -126.3231
  38   2.0000      -4.641062      -126.2897
  39   2.0000      -4.640204      -126.2664
  40   2.0000      -4.639368      -126.2436
  41   2.0000      -4.639053      -126.2350
  42   2.0000      -4.637493      -126.1926
  43   2.0000      -0.983438       -26.7607
  44   2.0000      -0.981245       -26.7010
  45   2.0000      -0.939250       -25.5583
  46   2.0000      -0.934758       -25.4361
  47   2.0000      -0.761175       -20.7126
  48   2.0000      -0.717117       -19.5137
  49   2.0000      -0.706508       -19.2250
  50   2.0000      -0.686098       -18.6697
  51   2.0000      -0.685617       -18.6566
  52   2.0000      -0.671759       -18.2795
  53   2.0000      -0.647183       -17.6107
  54   2.0000      -0.630992       -17.1702
  55   2.0000      -0.592249       -16.1159
  56   2.0000      -0.584894       -15.9158
  57   2.0000      -0.573819       -15.6144
  58   2.0000      -0.566978       -15.4283
  59   2.0000      -0.559510       -15.2250
  60   2.0000      -0.501539       -13.6476
  61   2.0000      -0.492458       -13.4005
  62   2.0000      -0.470232       -12.7957
  63   2.0000      -0.461252       -12.5513
  64   2.0000      -0.455215       -12.3870
  65   2.0000      -0.446915       -12.1612
  66   2.0000      -0.434019       -11.8103
  67   2.0000      -0.431347       -11.7375
  68   2.0000      -0.422759       -11.5039
  69   2.0000      -0.414172       -11.2702
  70   2.0000      -0.411895       -11.2082
  71   2.0000      -0.401748       -10.9321
  72   2.0000      -0.394506       -10.7351
  73   2.0000      -0.384803       -10.4710
  74   2.0000      -0.377291       -10.2666
  75   2.0000      -0.360253        -9.8030
  76   2.0000      -0.356770        -9.7082
  77   2.0000      -0.354215        -9.6387
  78   2.0000      -0.351107        -9.5541
  79   2.0000      -0.346323        -9.4239
  80   2.0000      -0.341248        -9.2858
  81   2.0000      -0.338929        -9.2227
  82   2.0000      -0.335924        -9.1410
  83   2.0000      -0.332411        -9.0454
  84   2.0000      -0.328326        -8.9342
  85   2.0000      -0.314870        -8.5680
  86   2.0000      -0.311054        -8.4642
  87   2.0000      -0.298756        -8.1296
  88   2.0000      -0.294424        -8.0117
  89   2.0000      -0.290024        -7.8919
  90   2.0000      -0.281798        -7.6681
  91   2.0000      -0.265806        -7.2330
  92   2.0000      -0.262862        -7.1528
  93   2.0000      -0.258481        -7.0336
  94   2.0000      -0.253422        -6.8960
  95   2.0000      -0.235615        -6.4114
  96   2.0000      -0.220579        -6.0023
  97   2.0000      -0.208144        -5.6639
  98   2.0000      -0.196083        -5.3357
  99   2.0000      -0.187487        -5.1018
 100   2.0000      -0.177879        -4.8403
 101   0.0000      -0.038076        -1.0361
 102   0.0000      -0.029747        -0.8095
 103   0.0000      -0.008421        -0.2291
 104   0.0000       0.011466         0.3120
 105   0.0000       0.017858         0.4859

MULLIKEN ATOMIC CHARGES
-----------------------
   0 C :   -0.306709
   1 C :   -0.003816
   2 O :   -0.391996
   3 P :    0.628738
   4 S :   -0.306024
   5 O :   -0.351586
   6 C :    0.011330
   7 C :   -0.319990
   8 S :   -0.112008
   9 C :   -0.349544
  10 S :   -0.105681
  11 P :    0.590166
  12 S :   -0.285349
  13 O :   -0.348680
  14 C :   -0.009879
  15 C :   -0.279228
  16 O :   -0.386867
  17 C :    0.002315
  18 C :   -0.321858
  19 H :    0.122003
  20 H :    0.125488
  21 H :    0.108700
  22 H :    0.105741
  23 H :    0.108783
  24 H :    0.105328
  25 H :    0.098917
  26 H :    0.134840
  27 H :    0.104404
  28 H :    0.122369
  29 H :    0.181146
  30 H :    0.207245
  31 H :    0.105257
  32 H :    0.099500
  33 H :    0.122383
  34 H :    0.114855
  35 H :    0.104934
  36 H :    0.102230
  37 H :    0.110619
  38 H :    0.131819
  39 H :    0.116504
  40 H :    0.113599
Sum of atomic charges:    0.0000000

LOEWDIN ATOMIC CHARGES
----------------------
   0 C :   -0.370184
   1 C :   -0.112470
   2 O :   -0.251225
   3 P :    0.572891
   4 S :   -0.299677
   5 O :   -0.233143
   6 C :   -0.107972
   7 C :   -0.368593
   8 S :    0.077883
   9 C :   -0.481388
  10 S :    0.073822
  11 P :    0.561935
  12 S :   -0.292785
  13 O :   -0.231589
  14 C :   -0.116224
  15 C :   -0.353023
  16 O :   -0.252532
  17 C :   -0.117312
  18 C :   -0.372032
  19 H :    0.120234
  20 H :    0.129165
  21 H :    0.128727
  22 H :    0.119579
  23 H :    0.108224
  24 H :    0.120056
  25 H :    0.108019
  26 H :    0.132781
  27 H :    0.126305
  28 H :    0.119994
  29 H :    0.137032
  30 H :    0.126436
  31 H :    0.114015
  32 H :    0.101688
  33 H :    0.120938
  34 H :    0.126519
  35 H :    0.127486
  36 H :    0.117380
  37 H :    0.112047
  38 H :    0.123238
  39 H :    0.122357
  40 H :    0.131397

  Mayer bond orders larger than 0.100000
B(  0-C ,  1-C ) :   1.1667 B(  0-C , 19-H ) :   0.9330 B(  0-C , 20-H ) :   0.9427
B(  0-C , 21-H ) :   0.9336 B(  1-C ,  2-O ) :   0.9145 B(  1-C , 22-H ) :   0.9347
B(  1-C , 23-H ) :   0.9287 B(  2-O ,  3-P ) :   1.0727 B(  3-P ,  4-S ) :   1.6232
B(  3-P ,  5-O ) :   1.1371 B(  3-P ,  8-S ) :   0.9456 B(  4-S ,  8-S ) :   0.1237
B(  5-O ,  6-C ) :   0.9108 B(  6-C ,  7-C ) :   1.1686 B(  6-C , 24-H ) :   0.9311
B(  6-C , 25-H ) :   0.9303 B(  7-C , 26-H ) :   0.9422 B(  7-C , 27-H ) :   0.9360
B(  7-C , 28-H ) :   0.9355 B(  8-S ,  9-C ) :   0.9952 B(  9-C , 10-S ) :   1.0017
B(  9-C , 29-H ) :   0.9117 B(  9-C , 30-H ) :   0.8422 B( 10-S , 11-P ) :   0.9382
B( 10-S , 12-S ) :   0.1063 B( 11-P , 12-S ) :   1.6702 B( 11-P , 13-O ) :   1.1364
B( 11-P , 16-O ) :   1.0741 B( 13-O , 14-C ) :   0.8916 B( 14-C , 15-C ) :   1.1639
B( 14-C , 31-H ) :   0.9321 B( 14-C , 32-H ) :   0.9086 B( 15-C , 33-H ) :   0.9431
B( 15-C , 34-H ) :   0.9494 B( 15-C , 35-H ) :   0.9406 B( 16-O , 17-C ) :   0.9102
B( 17-C , 18-C ) :   1.1663 B( 17-C , 36-H ) :   0.9343 B( 17-C , 37-H ) :   0.9167
B( 18-C , 38-H ) :   0.9344 B( 18-C , 39-H ) :   0.9435 B( 18-C , 40-H ) :   0.9373

Dispersion correction           -0.068419107
FINAL SINGLE POINT ENERGY     -2929.512122871428

DIPOLE MOMENT
-------------

Method             : SCF
Type of density    : Electron Density
Multiplicity       :   1
Irrep              :   0
Energy             : -2929.6295081819457664 Eh
Relativity type    :
Basis              : AO
                                X                 Y                 Z
Electronic contribution:     -3.484674611      -2.452957436      -7.193071323
Nuclear contribution   :      3.504581054       1.771509503       8.572040095
                        -----------------------------------------
Total Dipole Moment    :      0.019906444      -0.681447933       1.378968772
                        -----------------------------------------
Magnitude (a.u.)       :      1.538285548
Magnitude (Debye)      :      3.910011129

Rotational constants in cm-1:             0.012492             0.005452             0.005372
Rotational constants in MHz :           374.499877           163.449937           161.056193

                             ****ORCA TERMINATED NORMALLY****
TOTAL RUN TIME: 0 days 0 hours 0 minutes 21 seconds 508 msec
