                         Program Version 6.0.0  -   RELEASE  -
|  1> ! pbe def2-sv(p) def2/J RI DEFGRID1 loosescf d4 GCP(DFT/SV(P)) printgap
|  2> %output
|  3>     printlevel normal
|  4> end
|  5> * xyz 0 1
|  6> C 4.138967311 2.1601441455 -0.0289057857
|  7> C 4.1337265104 0.8177075186 -0.72912756
|  8> O 2.811854845 0.2345237312 -0.7893898263
|  9> P 1.9894976719 -0.2372893961 0.4784359631
| 10> S 1.1093992342 1.1189300959 1.5932025667
| 11> O 3.070336598 -1.085835301 1.2813716635
| 12> C 2.8462857598 -1.4974663879 2.6387766124
| 13> C 1.809580172 -2.5990190858 2.7172602096
| 14> S 0.7667922408 -1.7095289147 -0.4679431672
| 15> C 0.3823365726 -0.8249755294 -2.0039737989
| 16> S -0.3207501298 0.8216171267 -1.741485291
| 17> P -2.1416413885 0.1479150846 -0.9020062412
| 18> S -2.9602336004 -1.4192714699 -1.7305352252
| 19> O -3.0906774859 1.4109780326 -0.9968179938
| 20> C -2.6942267555 2.7888662146 -0.8038960407
| 21> C -2.3080140518 3.0885909472 0.629321176
| 22> O -1.727906205 -0.0446553901 0.6274497448
| 23> C -2.3071363217 -1.051667512 1.4721853051
| 24> C -3.7262140899 -0.6909553283 1.859250927
| 25> H 3.8698572604 2.0412399372 1.0194008943
| 26> H 5.131527006 2.5948730816 -0.0935351808
| 27> H 3.4202615257 2.8304267794 -0.4945257444
| 28> H 4.7991076333 0.1100087291 -0.2303480376
| 29> H 4.413160468 0.9154820635 -1.779593657
| 30> H 3.8247747178 -1.8352148156 2.9820622025
| 31> H 2.5270945322 -0.6238480478 3.2176889818
| 32> H 1.6935927545 -2.9183650673 3.7477708642
| 33> H 0.8525336265 -2.2277043018 2.3490192052
| 34> H 2.1075624762 -3.4457346042 2.1046988329
| 35> H -0.3423375683 -1.4476047796 -2.5312906982
| 36> H 1.2891608738 -0.6884748302 -2.5867645242
| 37> H -1.867538775 3.008589258 -1.4852986566
| 38> H -3.581075641 3.348214163 -1.1069214782
| 39> H -2.1046241326 4.1505357959 0.7259307826
| 40> H -3.1174562273 2.8175967809 1.3020535835
| 41> H -1.414488685 2.5349728171 0.9129500512
| 42> H -2.2774001832 -2.011481967 0.9458428083
| 43> H -1.6452528781 -1.0811432749 2.3397083245
| 44> H -3.7434432219 0.2620383669 2.3812755366
| 45> H -4.3402071387 -0.6149186699 0.9616915701
| 46> H -4.1328408115 -1.4639229482 2.5034500959
| 47> *
| 48>
| 49>                          ****END OF INPUT****

CARTESIAN COORDINATES (ANGSTROEM)
---------------------------------
  C      4.138967    2.160144   -0.028906
  C      4.133727    0.817708   -0.729128
  O      2.811855    0.234524   -0.789390
  P      1.989498   -0.237289    0.478436
  S      1.109399    1.118930    1.593203
  O      3.070337   -1.085835    1.281372
  C      2.846286   -1.497466    2.638777
  C      1.809580   -2.599019    2.717260
  S      0.766792   -1.709529   -0.467943
  C      0.382337   -0.824976   -2.003974
  S     -0.320750    0.821617   -1.741485
  P     -2.141641    0.147915   -0.902006
  S     -2.960234   -1.419271   -1.730535
  O     -3.090677    1.410978   -0.996818
  C     -2.694227    2.788866   -0.803896
  C     -2.308014    3.088591    0.629321
  O     -1.727906   -0.044655    0.627450
  C     -2.307136   -1.051668    1.472185
  C     -3.726214   -0.690955    1.859251
  H      3.869857    2.041240    1.019401
  H      5.131527    2.594873   -0.093535
  H      3.420262    2.830427   -0.494526
  H      4.799108    0.110009   -0.230348
  H      4.413160    0.915482   -1.779594
  H      3.824775   -1.835215    2.982062
  H      2.527095   -0.623848    3.217689
  H      1.693593   -2.918365    3.747771
  H      0.852534   -2.227704    2.349019
  H      2.107562   -3.445735    2.104699
  H     -0.342338   -1.447605   -2.531291
  H      1.289161   -0.688475   -2.586765
  H     -1.867539    3.008589   -1.485299
  H     -3.581076    3.348214   -1.106921
  H     -2.104624    4.150536    0.725931
  H     -3.117456    2.817597    1.302054
  H     -1.414489    2.534973    0.912950
  H     -2.277400   -2.011482    0.945843
  H     -1.645253   -1.081143    2.339708
  H     -3.743443    0.262038    2.381276
  H     -4.340207   -0.614919    0.961692
  H     -4.132841   -1.463923    2.503450

 Total Charge           Charge          ....    0
 Multiplicity           Mult            ....    1
 Number of Electrons    NEL             ....  202
 Basis Dimension        Dim             ....  334

ORBITAL ENERGIES
----------------

  NO   OCC          E(Eh)            E(eV)
   0   2.0000     -88.038498     -2395.6493
   1   2.0000     -88.037817     -2395.6308
   2   2.0000     -87.984859     -2394.1897
   3   2.0000     -87.978789     -2394.0245
   4   2.0000     -76.428975     -2079.7382
   5   2.0000     -76.420228     -2079.5001
   6   2.0000     -18.796931      -511.4905
   7   2.0000     -18.795252      -511.4448
   8   2.0000     -18.789011      -511.2750
   9   2.0000     -18.779852      -511.0257
  10   2.0000      -9.960679      -271.0439
  11   2.0000      -9.955671      -270.9076
  12   2.0000      -9.955562      -270.9046
  13   2.0000      -9.954274      -270.8696
  14   2.0000      -9.941008      -270.5086
  15   2.0000      -9.890351      -269.1301
  16   2.0000      -9.885874      -269.0083
  17   2.0000      -9.880651      -268.8662
  18   2.0000      -9.876642      -268.7571
  19   2.0000      -7.683673      -209.0834
  20   2.0000      -7.682759      -209.0585
  21   2.0000      -7.629633      -207.6129
  22   2.0000      -7.624120      -207.4629
  23   2.0000      -6.426137      -174.8641
  24   2.0000      -6.417843      -174.6384
  25   2.0000      -5.711465      -155.4169
  26   2.0000      -5.710925      -155.4022
  27   2.0000      -5.708341      -155.3319
  28   2.0000      -5.707413      -155.3066
  29   2.0000      -5.700515      -155.1189
  30   2.0000      -5.699316      -155.0863
  31   2.0000      -5.658401      -153.9729
  32   2.0000      -5.653138      -153.8297
  33   2.0000      -5.650321      -153.7530
  34   2.0000      -5.649898      -153.7415
  35   2.0000      -5.644982      -153.6078
  36   2.0000      -5.643854      -153.5771
  37   2.0000      -4.649346      -126.5151
  38   2.0000      -4.647815      -126.4735
  39   2.0000      -4.646136      -126.4278
  40   2.0000      -4.640670      -126.2791
  41   2.0000      -4.639339      -126.2428
  42   2.0000      -4.638358      -126.2161
  43   2.0000      -0.992247       -27.0004
  44   2.0000      -0.977515       -26.5995
  45   2.0000      -0.949839       -25.8464
  46   2.0000      -0.938506       -25.5380
  47   2.0000      -0.762569       -20.7505
  48   2.0000      -0.720389       -19.6028
  49   2.0000      -0.706789       -19.2327
  50   2.0000      -0.692890       -18.8545
  51   2.0000      -0.684681       -18.6311
  52   2.0000      -0.670607       -18.2481
  53   2.0000      -0.651064       -17.7164
  54   2.0000      -0.635737       -17.2993
  55   2.0000      -0.596610       -16.2346
  56   2.0000      -0.588570       -16.0158
  57   2.0000      -0.582751       -15.8575
  58   2.0000      -0.570986       -15.5373
  59   2.0000      -0.559314       -15.2197
  60   2.0000      -0.501977       -13.6595
  61   2.0000      -0.491099       -13.3635
  62   2.0000      -0.475354       -12.9350
  63   2.0000      -0.470770       -12.8103
  64   2.0000      -0.462173       -12.5764
  65   2.0000      -0.444230       -12.0881
  66   2.0000      -0.437009       -11.8916
  67   2.0000      -0.429714       -11.6931
  68   2.0000      -0.423132       -11.5140
  69   2.0000      -0.416843       -11.3429
  70   2.0000      -0.413821       -11.2606
  71   2.0000      -0.404491       -11.0068
  72   2.0000      -0.388618       -10.5748
  73   2.0000      -0.382796       -10.4164
  74   2.0000      -0.379448       -10.3253
  75   2.0000      -0.372737       -10.1427
  76   2.0000      -0.367465        -9.9992
  77   2.0000      -0.359349        -9.7784
  78   2.0000      -0.353667        -9.6238
  79   2.0000      -0.347138        -9.4461
  80   2.0000      -0.345493        -9.4013
  81   2.0000      -0.343685        -9.3521
  82   2.0000      -0.340946        -9.2776
  83   2.0000      -0.339666        -9.2428
  84   2.0000      -0.335256        -9.1228
  85   2.0000      -0.317690        -8.6448
  86   2.0000      -0.308373        -8.3912
  87   2.0000      -0.301272        -8.1980
  88   2.0000      -0.298246        -8.1157
  89   2.0000      -0.296223        -8.0606
  90   2.0000      -0.279508        -7.6058
  91   2.0000      -0.272481        -7.4146
  92   2.0000      -0.268848        -7.3157
  93   2.0000      -0.263340        -7.1658
  94   2.0000      -0.259637        -7.0651
  95   2.0000      -0.227333        -6.1860
  96   2.0000      -0.217649        -5.9225
  97   2.0000      -0.204114        -5.5542
  98   2.0000      -0.197353        -5.3702
  99   2.0000      -0.192393        -5.2353
 100   2.0000      -0.191309        -5.2058
 101   0.0000      -0.050292        -1.3685
 102   0.0000      -0.019030        -0.5178
 103   0.0000      -0.017310        -0.4710
 104   0.0000       0.006107         0.1662
 105   0.0000       0.016180         0.4403

MULLIKEN ATOMIC CHARGES
-----------------------
   0 C :   -0.309894
   1 C :   -0.002439
   2 O :   -0.384800
   3 P :    0.633194
   4 S :   -0.306991
   5 O :   -0.377320
   6 C :   -0.005398
   7 C :   -0.337911
   8 S :   -0.102580
   9 C :   -0.329025
  10 S :   -0.112380
  11 P :    0.630631
  12 S :   -0.326254
  13 O :   -0.369310
  14 C :   -0.024719
  15 C :   -0.329959
  16 O :   -0.364492
  17 C :   -0.017823
  18 C :   -0.305319
  19 H :    0.127637
  20 H :    0.109908
  21 H :    0.122666
  22 H :    0.112110
  23 H :    0.106484
  24 H :    0.105019
  25 H :    0.110298
  26 H :    0.116980
  27 H :    0.142781
  28 H :    0.123646
  29 H :    0.192613
  30 H :    0.184828
  31 H :    0.120580
  32 H :    0.112425
  33 H :    0.109609
  34 H :    0.118848
  35 H :    0.157721
  36 H :    0.110120
  37 H :    0.110960
  38 H :    0.114302
  39 H :    0.125439
  40 H :    0.107817
Sum of atomic charges:    0.0000000

LOEWDIN ATOMIC CHARGES
----------------------
   0 C :   -0.367158
   1 C :   -0.107896
   2 O :   -0.247309
   3 P :    0.574586
   4 S :   -0.300763
   5 O :   -0.244743
   6 C :   -0.123643
   7 C :   -0.369298
   8 S :    0.079776
   9 C :   -0.475330
  10 S :    0.079926
  11 P :    0.575439
  12 S :   -0.317098
  13 O :   -0.242109
  14 C :   -0.113835
  15 C :   -0.370114
  16 O :   -0.238999
  17 C :   -0.124162
  18 C :   -0.364695
  19 H :    0.122060
  20 H :    0.129189
  21 H :    0.129947
  22 H :    0.114466
  23 H :    0.119879
  24 H :    0.118443
  25 H :    0.107975
  26 H :    0.133219
  27 H :    0.120770
  28 H :    0.127931
  29 H :    0.130804
  30 H :    0.133007
  31 H :    0.108017
  32 H :    0.122777
  33 H :    0.130305
  34 H :    0.125484
  35 H :    0.127044
  36 H :    0.106699
  37 H :    0.114477
  38 H :    0.122248
  39 H :    0.123845
  40 H :    0.128837

  Mayer bond orders larger than 0.100000
B(  0-C ,  1-C ) :   1.1679 B(  0-C , 19-H ) :   0.9334 B(  0-C , 20-H ) :   0.9356
B(  0-C , 21-H ) :   0.9456 B(  1-C ,  2-O ) :   0.9048 B(  1-C , 22-H ) :   0.9280
B(  1-C , 23-H ) :   0.9357 B(  2-O ,  3-P ) :   1.0996 B(  3-P ,  4-S ) :   1.6420
B(  3-P ,  5-O ) :   1.0782 B(  3-P ,  8-S ) :   0.9438 B(  4-S ,  8-S ) :   0.1137
B(  5-O ,  6-C ) :   0.9115 B(  6-C ,  7-C ) :   1.1623 B(  6-C , 24-H ) :   0.9312
B(  6-C , 25-H ) :   0.9082 B(  7-C , 26-H ) :   0.9388 B(  7-C , 27-H ) :   0.9268
B(  7-C , 28-H ) :   0.9437 B(  8-S ,  9-C ) :   1.0031 B(  9-C , 10-S ) :   1.0159
B(  9-C , 29-H ) :   0.8763 B(  9-C , 30-H ) :   0.9010 B( 10-S , 11-P ) :   0.9486
B( 11-P , 12-S ) :   1.6180 B( 11-P , 13-O ) :   1.1303 B( 11-P , 16-O ) :   1.0956
B( 13-O , 14-C ) :   0.9064 B( 14-C , 15-C ) :   1.1640 B( 14-C , 31-H ) :   0.9177
B( 14-C , 32-H ) :   0.9349 B( 15-C , 33-H ) :   0.9356 B( 15-C , 34-H ) :   0.9422
B( 15-C , 35-H ) :   0.9250 B( 16-O , 17-C ) :   0.9056 B( 17-C , 18-C ) :   1.1622
B( 17-C , 36-H ) :   0.9120 B( 17-C , 37-H ) :   0.9228 B( 18-C , 38-H ) :   0.9437
B( 18-C , 39-H ) :   0.9345 B( 18-C , 40-H ) :   0.9403

Dispersion correction           -0.068023476
FINAL SINGLE POINT ENERGY     -2929.513413798958

DIPOLE MOMENT
-------------

Method             : SCF
Type of density    : Electron Density
Multiplicity       :   1
Irrep              :   0
Energy             : -2929.6312116787503328 Eh
Relativity type    :
Basis              : AO
                                X                 Y                 Z
Electronic contribution:     -3.787001268      -5.537193395     -15.805429538
Nuclear contribution   :      5.222805119       5.990674695      16.570942207
                        -----------------------------------------
Total Dipole Moment    :      1.435803850       0.453481300       0.765512669
                        -----------------------------------------
Magnitude (a.u.)       :      1.689138133
Magnitude (Debye)      :      4.293447929

Rotational constants in cm-1:             0.011490             0.005724             0.005306
Rotational constants in MHz :           344.460107           171.600012           159.055157

                             ****ORCA TERMINATED NORMALLY****
TOTAL RUN TIME: 0 days 0 hours 0 minutes 22 seconds 856 msec
