                         Program Version 6.0.0  -   RELEASE  -
|  1> ! pbe def2-sv(p) def2/J RI DEFGRID1 loosescf d4 GCP(DFT/SV(P)) printgap
|  2> %output
|  3>     printlevel normal
|  4> end
|  5> * xyz 0 1
|  6> C 5.7831723632 0.6699776448 -0.7784441157
|  7> C 4.4363899093 0.9891736169 -0.162126756
|  8> O 3.5703071196 -0.1429965627 -0.378712105
|  9> P 2.256549928 -0.344395047 0.4888110563
| 10> S 2.5375797129 -0.2548707148 2.4235506398
| 11> O 1.7420347296 -1.7639534335 0.0554747606
| 12> C 1.2072793797 -2.1740261123 -1.2277817486
| 13> C 2.081639761 -1.7839413549 -2.3977535133
| 14> S 0.9259580143 1.1267550356 -0.2960625719
| 15> C -0.0933565797 1.316422645 1.1856861879
| 16> S -1.1848320726 -0.0947229244 1.5022137481
| 17> P -2.523809841 0.1482720433 -0.1430038729
| 18> S -1.9978008498 -0.4709773339 -1.9306348309
| 19> O -2.9005494624 1.6834721299 -0.0745184425
| 20> C -2.9565285307 2.5610925847 -1.2196166012
| 21> C -1.7904012309 3.5295066027 -1.2194562674
| 22> O -3.8677115735 -0.4836485946 0.4188992682
| 23> C -3.9793159412 -1.7473917412 1.0956029995
| 24> C -3.2777670358 -2.8725847214 0.3624069298
| 25> H 6.2101593802 -0.2098783605 -0.3053807013
| 26> H 5.670331485 0.4789698893 -1.8415730341
| 27> H 6.4496764116 1.5136573426 -0.6329296071
| 28> H 3.9781138371 1.8630951826 -0.632936107
| 29> H 4.5199917971 1.163968449 0.9159405057
| 30> H 1.1291586479 -3.2573662311 -1.1251942842
| 31> H 0.207650722 -1.7442285365 -1.3392624699
| 32> H 2.1008975696 -0.7018052898 -2.5107531894
| 33> H 3.0958347825 -2.1464992197 -2.2520713339
| 34> H 1.6647071217 -2.2196343929 -3.3006882114
| 35> H -0.6866760154 2.2183758189 1.0634866023
| 36> H 0.5591568873 1.3804719951 2.0584223964
| 37> H -2.9569955101 1.9561121977 -2.1320044232
| 38> H -3.909308811 3.0842842972 -1.1251360662
| 39> H -1.9053174667 4.2147025715 -2.0531275108
| 40> H -1.7690591513 4.0991509006 -0.29411928
| 41> H -0.8499606931 2.9919743619 -1.3350609791
| 42> H -3.5714546389 -1.6304560998 2.1039825452
| 43> H -5.0562217203 -1.9166393434 1.1500179103
| 44> H -2.2020652234 -2.6957819796 0.3493937549
| 45> H -3.4729935688 -3.8116770248 0.8702160388
| 46> H -3.6324514919 -2.9362986475 -0.6638134174
| 47> *
| 48>
| 49>                          ****END OF INPUT****

CARTESIAN COORDINATES (ANGSTROEM)
---------------------------------
  C      5.783172    0.669978   -0.778444
  C      4.436390    0.989174   -0.162127
  O      3.570307   -0.142997   -0.378712
  P      2.256550   -0.344395    0.488811
  S      2.537580   -0.254871    2.423551
  O      1.742035   -1.763953    0.055475
  C      1.207279   -2.174026   -1.227782
  C      2.081640   -1.783941   -2.397754
  S      0.925958    1.126755   -0.296063
  C     -0.093357    1.316423    1.185686
  S     -1.184832   -0.094723    1.502214
  P     -2.523810    0.148272   -0.143004
  S     -1.997801   -0.470977   -1.930635
  O     -2.900549    1.683472   -0.074518
  C     -2.956529    2.561093   -1.219617
  C     -1.790401    3.529507   -1.219456
  O     -3.867712   -0.483649    0.418899
  C     -3.979316   -1.747392    1.095603
  C     -3.277767   -2.872585    0.362407
  H      6.210159   -0.209878   -0.305381
  H      5.670331    0.478970   -1.841573
  H      6.449676    1.513657   -0.632930
  H      3.978114    1.863095   -0.632936
  H      4.519992    1.163968    0.915941
  H      1.129159   -3.257366   -1.125194
  H      0.207651   -1.744229   -1.339262
  H      2.100898   -0.701805   -2.510753
  H      3.095835   -2.146499   -2.252071
  H      1.664707   -2.219634   -3.300688
  H     -0.686676    2.218376    1.063487
  H      0.559157    1.380472    2.058422
  H     -2.956996    1.956112   -2.132004
  H     -3.909309    3.084284   -1.125136
  H     -1.905317    4.214703   -2.053128
  H     -1.769059    4.099151   -0.294119
  H     -0.849961    2.991974   -1.335061
  H     -3.571455   -1.630456    2.103983
  H     -5.056222   -1.916639    1.150018
  H     -2.202065   -2.695782    0.349394
  H     -3.472994   -3.811677    0.870216
  H     -3.632451   -2.936299   -0.663813

 Total Charge           Charge          ....    0
 Multiplicity           Mult            ....    1
 Number of Electrons    NEL             ....  202
 Basis Dimension        Dim             ....  334

ORBITAL ENERGIES
----------------

  NO   OCC          E(Eh)            E(eV)
   0   2.0000     -88.043899     -2395.7963
   1   2.0000     -88.043656     -2395.7897
   2   2.0000     -87.988255     -2394.2821
   3   2.0000     -87.981476     -2394.0977
   4   2.0000     -76.430235     -2079.7724
   5   2.0000     -76.424600     -2079.6191
   6   2.0000     -18.796794      -511.4868
   7   2.0000     -18.793383      -511.3940
   8   2.0000     -18.790195      -511.3072
   9   2.0000     -18.787703      -511.2394
  10   2.0000      -9.958922      -270.9961
  11   2.0000      -9.957913      -270.9686
  12   2.0000      -9.955313      -270.8978
  13   2.0000      -9.952586      -270.8236
  14   2.0000      -9.944378      -270.6003
  15   2.0000      -9.891789      -269.1693
  16   2.0000      -9.888406      -269.0772
  17   2.0000      -9.886088      -269.0141
  18   2.0000      -9.881396      -268.8864
  19   2.0000      -7.688814      -209.2233
  20   2.0000      -7.688207      -209.2067
  21   2.0000      -7.633009      -207.7047
  22   2.0000      -7.626809      -207.5360
  23   2.0000      -6.427508      -174.9014
  24   2.0000      -6.422079      -174.7536
  25   2.0000      -5.716786      -155.5617
  26   2.0000      -5.715908      -155.5378
  27   2.0000      -5.713370      -155.4687
  28   2.0000      -5.712785      -155.4528
  29   2.0000      -5.705695      -155.2599
  30   2.0000      -5.705390      -155.2516
  31   2.0000      -5.661788      -154.0651
  32   2.0000      -5.655785      -153.9017
  33   2.0000      -5.653701      -153.8450
  34   2.0000      -5.653240      -153.8325
  35   2.0000      -5.647345      -153.6721
  36   2.0000      -5.646930      -153.6608
  37   2.0000      -4.650168      -126.5375
  38   2.0000      -4.649584      -126.5216
  39   2.0000      -4.647634      -126.4685
  40   2.0000      -4.644779      -126.3909
  41   2.0000      -4.643991      -126.3694
  42   2.0000      -4.642291      -126.3231
  43   2.0000      -0.989176       -26.9169
  44   2.0000      -0.985289       -26.8111
  45   2.0000      -0.948213       -25.8022
  46   2.0000      -0.943291       -25.6683
  47   2.0000      -0.764763       -20.8103
  48   2.0000      -0.723316       -19.6824
  49   2.0000      -0.712480       -19.3876
  50   2.0000      -0.690191       -18.7810
  51   2.0000      -0.689647       -18.7662
  52   2.0000      -0.675572       -18.3833
  53   2.0000      -0.653226       -17.7752
  54   2.0000      -0.637409       -17.3448
  55   2.0000      -0.598866       -16.2960
  56   2.0000      -0.592341       -16.1184
  57   2.0000      -0.577631       -15.7181
  58   2.0000      -0.568746       -15.4764
  59   2.0000      -0.565445       -15.3866
  60   2.0000      -0.506168       -13.7735
  61   2.0000      -0.500551       -13.6207
  62   2.0000      -0.473876       -12.8948
  63   2.0000      -0.470195       -12.7947
  64   2.0000      -0.462632       -12.5888
  65   2.0000      -0.445070       -12.1110
  66   2.0000      -0.439427       -11.9574
  67   2.0000      -0.436469       -11.8769
  68   2.0000      -0.430717       -11.7204
  69   2.0000      -0.421578       -11.4717
  70   2.0000      -0.412921       -11.2362
  71   2.0000      -0.401063       -10.9135
  72   2.0000      -0.393868       -10.7177
  73   2.0000      -0.386095       -10.5062
  74   2.0000      -0.381883       -10.3916
  75   2.0000      -0.376150       -10.2356
  76   2.0000      -0.367823       -10.0090
  77   2.0000      -0.361287        -9.8311
  78   2.0000      -0.356375        -9.6975
  79   2.0000      -0.349513        -9.5107
  80   2.0000      -0.348571        -9.4851
  81   2.0000      -0.345579        -9.4037
  82   2.0000      -0.344340        -9.3700
  83   2.0000      -0.341396        -9.2899
  84   2.0000      -0.336586        -9.1590
  85   2.0000      -0.320608        -8.7242
  86   2.0000      -0.309840        -8.4312
  87   2.0000      -0.300570        -8.1789
  88   2.0000      -0.298245        -8.1157
  89   2.0000      -0.290005        -7.8914
  90   2.0000      -0.286496        -7.7960
  91   2.0000      -0.281006        -7.6466
  92   2.0000      -0.271168        -7.3789
  93   2.0000      -0.261849        -7.1253
  94   2.0000      -0.256502        -6.9798
  95   2.0000      -0.245587        -6.6828
  96   2.0000      -0.218035        -5.9330
  97   2.0000      -0.206072        -5.6075
  98   2.0000      -0.202228        -5.5029
  99   2.0000      -0.200077        -5.4444
 100   2.0000      -0.193449        -5.2640
 101   0.0000      -0.048803        -1.3280
 102   0.0000      -0.028361        -0.7717
 103   0.0000      -0.019842        -0.5399
 104   0.0000      -0.001182        -0.0322
 105   0.0000       0.016309         0.4438

MULLIKEN ATOMIC CHARGES
-----------------------
   0 C :   -0.280809
   1 C :   -0.010045
   2 O :   -0.378032
   3 P :    0.619785
   4 S :   -0.323352
   5 O :   -0.354179
   6 C :   -0.030667
   7 C :   -0.305137
   8 S :   -0.116271
   9 C :   -0.370231
  10 S :   -0.088634
  11 P :    0.602465
  12 S :   -0.322047
  13 O :   -0.366980
  14 C :   -0.008065
  15 C :   -0.320277
  16 O :   -0.364380
  17 C :   -0.010901
  18 C :   -0.323703
  19 H :    0.122283
  20 H :    0.115856
  21 H :    0.112038
  22 H :    0.100000
  23 H :    0.105875
  24 H :    0.104424
  25 H :    0.145040
  26 H :    0.114613
  27 H :    0.118782
  28 H :    0.114666
  29 H :    0.194499
  30 H :    0.197708
  31 H :    0.117396
  32 H :    0.108361
  33 H :    0.116520
  34 H :    0.123201
  35 H :    0.132821
  36 H :    0.117835
  37 H :    0.112248
  38 H :    0.133297
  39 H :    0.115089
  40 H :    0.128907
Sum of atomic charges:    0.0000000

LOEWDIN ATOMIC CHARGES
----------------------
   0 C :   -0.350262
   1 C :   -0.121668
   2 O :   -0.243297
   3 P :    0.572250
   4 S :   -0.315540
   5 O :   -0.228836
   6 C :   -0.120460
   7 C :   -0.364060
   8 S :    0.067076
   9 C :   -0.482544
  10 S :    0.082144
  11 P :    0.570985
  12 S :   -0.304625
  13 O :   -0.239458
  14 C :   -0.118954
  15 C :   -0.362916
  16 O :   -0.243149
  17 C :   -0.115453
  18 C :   -0.371551
  19 H :    0.129886
  20 H :    0.126201
  21 H :    0.130998
  22 H :    0.107855
  23 H :    0.108864
  24 H :    0.120744
  25 H :    0.104465
  26 H :    0.117722
  27 H :    0.125296
  28 H :    0.132728
  29 H :    0.131747
  30 H :    0.130424
  31 H :    0.108656
  32 H :    0.119642
  33 H :    0.134323
  34 H :    0.124792
  35 H :    0.118656
  36 H :    0.110819
  37 H :    0.123275
  38 H :    0.121450
  39 H :    0.131774
  40 H :    0.130000

  Mayer bond orders larger than 0.100000
B(  0-C ,  1-C ) :   1.1604 B(  0-C , 19-H ) :   0.9506 B(  0-C , 20-H ) :   0.9513
B(  0-C , 21-H ) :   0.9417 B(  1-C ,  2-O ) :   0.9028 B(  1-C , 22-H ) :   0.9282
B(  1-C , 23-H ) :   0.9074 B(  2-O ,  3-P ) :   1.0904 B(  3-P ,  4-S ) :   1.6262
B(  3-P ,  5-O ) :   1.1729 B(  3-P ,  8-S ) :   0.9295 B(  4-S ,  8-S ) :   0.1068
B(  5-O ,  6-C ) :   0.8844 B(  6-C ,  7-C ) :   1.1747 B(  6-C , 24-H ) :   0.9338
B(  6-C , 25-H ) :   0.8905 B(  7-C , 26-H ) :   0.9400 B(  7-C , 27-H ) :   0.9437
B(  7-C , 28-H ) :   0.9351 B(  8-S ,  9-C ) :   1.0162 B(  9-C , 10-S ) :   1.0075
B(  9-C , 29-H ) :   0.8865 B(  9-C , 30-H ) :   0.8645 B( 10-S , 11-P ) :   0.9474
B( 10-S , 12-S ) :   0.1078 B( 11-P , 12-S ) :   1.6136 B( 11-P , 13-O ) :   1.1180
B( 11-P , 16-O ) :   1.1226 B( 13-O , 14-C ) :   0.9027 B( 14-C , 15-C ) :   1.1691
B( 14-C , 31-H ) :   0.8989 B( 14-C , 32-H ) :   0.9315 B( 15-C , 33-H ) :   0.9363
B( 15-C , 34-H ) :   0.9398 B( 15-C , 35-H ) :   0.9320 B( 16-O , 17-C ) :   0.9184
B( 17-C , 18-C ) :   1.1638 B( 17-C , 36-H ) :   0.9242 B( 17-C , 37-H ) :   0.9339
B( 18-C , 38-H ) :   0.9346 B( 18-C , 39-H ) :   0.9343 B( 18-C , 40-H ) :   0.9402

Dispersion correction           -0.065269204
FINAL SINGLE POINT ENERGY     -2929.516156880050

DIPOLE MOMENT
-------------

Method             : SCF
Type of density    : Electron Density
Multiplicity       :   1
Irrep              :   0
Energy             : -2929.6357500299027379 Eh
Relativity type    :
Basis              : AO
                                X                 Y                 Z
Electronic contribution:     -5.739066510      -1.137049934      11.836139210
Nuclear contribution   :      5.437699237       1.745631129     -12.584659953
                        -----------------------------------------
Total Dipole Moment    :     -0.301367273       0.608581195      -0.748520743
                        -----------------------------------------
Magnitude (a.u.)       :      1.010681259
Magnitude (Debye)      :      2.568947603

Rotational constants in cm-1:             0.012089             0.004917             0.004643
Rotational constants in MHz :           362.410824           147.419091           139.202401

                             ****ORCA TERMINATED NORMALLY****
TOTAL RUN TIME: 0 days 0 hours 0 minutes 21 seconds 52 msec
