                         Program Version 6.0.0  -   RELEASE  -
|  1> ! pbe def2-sv(p) def2/J RI DEFGRID1 loosescf d4 GCP(DFT/SV(P)) printgap
|  2> %output
|  3>     printlevel normal
|  4> end
|  5> * xyz 0 1
|  6> C 5.2825012283 -2.3703033966 -0.9001941605
|  7> C 4.2126124746 -1.3664386926 -1.2796341098
|  8> O 3.2287859945 -1.3491743441 -0.2260395487
|  9> P 2.2055812136 -0.1483981537 -0.0595635152
| 10> S 3.0006414036 1.648082981 -0.0964735588
| 11> O 1.4430635736 -0.5583579612 1.2646173999
| 12> C 1.8229052265 -0.0349798026 2.5559428123
| 13> C 3.1682456189 -0.5702556831 2.9966155487
| 14> S 0.7405103928 -0.5487935381 -1.5297022485
| 15> C -0.0464507468 1.0856478456 -1.4694056936
| 16> S -0.8792178501 1.4122447567 0.097505491
| 17> P -2.723325671 0.3846179321 -0.2808858783
| 18> S -3.0785172206 0.0380243824 -2.1749862997
| 19> O -3.867388558 1.2845297186 0.3143604095
| 20> C -4.1715352405 1.4665356827 1.719274926
| 21> C -3.0388560137 2.1242894401 2.4780256405
| 22> O -2.7449267431 -0.8414735999 0.7368073907
| 23> C -1.7973997463 -1.919849843 0.7923466095
| 24> C -1.9248428599 -2.8665283321 -0.3838866091
| 25> H 5.7742489 -2.0658600511 0.0192753316
| 26> H 4.8348062969 -3.3487768325 -0.7535115268
| 27> H 6.0168038637 -2.4260229963 -1.6970317094
| 28> H 3.7120232153 -1.648428844 -2.2099155256
| 29> H 4.6268811821 -0.3581805225 -1.387900881
| 30> H 1.8372033007 1.0578019731 2.4954923908
| 31> H 1.0190637964 -0.359583279 3.2175809832
| 32> H 3.9454230561 -0.2059255385 2.3256961278
| 33> H 3.3820935918 -0.2265764833 4.0037637249
| 34> H 3.1659988256 -1.6567201951 2.9745857947
| 35> H -0.7756269404 1.1108423415 -2.2804368822
| 36> H 0.7163356802 1.8547951138 -1.5870035551
| 37> H -5.0609148829 2.0981414133 1.6989149391
| 38> H -4.4164811287 0.4916324872 2.1442182049
| 39> H -3.3578728408 2.315038778 3.498002545
| 40> H -2.1654864676 1.4744407461 2.4959155625
| 41> H -2.7612900306 3.0641460669 2.0075757473
| 42> H -0.786040049 -1.5061170446 0.851146841
| 43> H -2.0388838275 -2.4235613406 1.7306360995
| 44> H -1.6506842169 -2.3657677722 -1.3105548662
| 45> H -1.2607148933 -3.7116923205 -0.234250917
| 46> H -2.9484713968 -3.2215267529 -0.4717560845
| 47> *
| 48>
| 49>                          ****END OF INPUT****

CARTESIAN COORDINATES (ANGSTROEM)
---------------------------------
  C      5.282501   -2.370303   -0.900194
  C      4.212612   -1.366439   -1.279634
  O      3.228786   -1.349174   -0.226040
  P      2.205581   -0.148398   -0.059564
  S      3.000641    1.648083   -0.096474
  O      1.443064   -0.558358    1.264617
  C      1.822905   -0.034980    2.555943
  C      3.168246   -0.570256    2.996616
  S      0.740510   -0.548794   -1.529702
  C     -0.046451    1.085648   -1.469406
  S     -0.879218    1.412245    0.097505
  P     -2.723326    0.384618   -0.280886
  S     -3.078517    0.038024   -2.174986
  O     -3.867389    1.284530    0.314360
  C     -4.171535    1.466536    1.719275
  C     -3.038856    2.124289    2.478026
  O     -2.744927   -0.841474    0.736807
  C     -1.797400   -1.919850    0.792347
  C     -1.924843   -2.866528   -0.383887
  H      5.774249   -2.065860    0.019275
  H      4.834806   -3.348777   -0.753512
  H      6.016804   -2.426023   -1.697032
  H      3.712023   -1.648429   -2.209916
  H      4.626881   -0.358181   -1.387901
  H      1.837203    1.057802    2.495492
  H      1.019064   -0.359583    3.217581
  H      3.945423   -0.205926    2.325696
  H      3.382094   -0.226576    4.003764
  H      3.165999   -1.656720    2.974586
  H     -0.775627    1.110842   -2.280437
  H      0.716336    1.854795   -1.587004
  H     -5.060915    2.098141    1.698915
  H     -4.416481    0.491632    2.144218
  H     -3.357873    2.315039    3.498003
  H     -2.165486    1.474441    2.495916
  H     -2.761290    3.064146    2.007576
  H     -0.786040   -1.506117    0.851147
  H     -2.038884   -2.423561    1.730636
  H     -1.650684   -2.365768   -1.310555
  H     -1.260715   -3.711692   -0.234251
  H     -2.948471   -3.221527   -0.471756

 Total Charge           Charge          ....    0
 Multiplicity           Mult            ....    1
 Number of Electrons    NEL             ....  202
 Basis Dimension        Dim             ....  334

ORBITAL ENERGIES
----------------

  NO   OCC          E(Eh)            E(eV)
   0   2.0000     -88.044720     -2395.8186
   1   2.0000     -88.040678     -2395.7086
   2   2.0000     -87.993645     -2394.4288
   3   2.0000     -87.982443     -2394.1240
   4   2.0000     -76.431238     -2079.7997
   5   2.0000     -76.425706     -2079.6492
   6   2.0000     -18.799337      -511.5560
   7   2.0000     -18.798220      -511.5256
   8   2.0000     -18.791594      -511.3453
   9   2.0000     -18.791175      -511.3339
  10   2.0000      -9.958251      -270.9778
  11   2.0000      -9.958035      -270.9719
  12   2.0000      -9.957504      -270.9575
  13   2.0000      -9.949964      -270.7523
  14   2.0000      -9.948355      -270.7085
  15   2.0000      -9.892970      -269.2014
  16   2.0000      -9.892881      -269.1990
  17   2.0000      -9.889132      -269.0970
  18   2.0000      -9.874301      -268.6934
  19   2.0000      -7.689714      -209.2478
  20   2.0000      -7.685177      -209.1243
  21   2.0000      -7.638522      -207.8548
  22   2.0000      -7.627665      -207.5593
  23   2.0000      -6.429006      -174.9421
  24   2.0000      -6.422835      -174.7742
  25   2.0000      -5.717475      -155.5804
  26   2.0000      -5.714302      -155.4941
  27   2.0000      -5.713103      -155.4614
  28   2.0000      -5.709640      -155.3672
  29   2.0000      -5.706737      -155.2882
  30   2.0000      -5.702276      -155.1668
  31   2.0000      -5.667316      -154.2155
  32   2.0000      -5.659133      -153.9928
  33   2.0000      -5.658856      -153.9853
  34   2.0000      -5.656721      -153.9272
  35   2.0000      -5.648060      -153.6915
  36   2.0000      -5.647855      -153.6859
  37   2.0000      -4.651408      -126.5713
  38   2.0000      -4.650807      -126.5549
  39   2.0000      -4.649515      -126.5197
  40   2.0000      -4.645723      -126.4165
  41   2.0000      -4.644603      -126.3861
  42   2.0000      -4.643079      -126.3446
  43   2.0000      -0.994220       -27.0541
  44   2.0000      -0.987175       -26.8624
  45   2.0000      -0.953292       -25.9404
  46   2.0000      -0.942011       -25.6334
  47   2.0000      -0.764063       -20.7912
  48   2.0000      -0.724933       -19.7264
  49   2.0000      -0.713627       -19.4188
  50   2.0000      -0.694335       -18.8938
  51   2.0000      -0.688876       -18.7453
  52   2.0000      -0.675724       -18.3874
  53   2.0000      -0.652153       -17.7460
  54   2.0000      -0.638602       -17.3772
  55   2.0000      -0.603868       -16.4321
  56   2.0000      -0.591718       -16.1015
  57   2.0000      -0.578476       -15.7411
  58   2.0000      -0.571139       -15.5415
  59   2.0000      -0.562381       -15.3032
  60   2.0000      -0.509675       -13.8690
  61   2.0000      -0.495703       -13.4888
  62   2.0000      -0.483728       -13.1629
  63   2.0000      -0.471390       -12.8272
  64   2.0000      -0.460057       -12.5188
  65   2.0000      -0.448944       -12.2164
  66   2.0000      -0.443442       -12.0667
  67   2.0000      -0.438878       -11.9425
  68   2.0000      -0.424722       -11.5573
  69   2.0000      -0.423308       -11.5188
  70   2.0000      -0.410986       -11.1835
  71   2.0000      -0.402328       -10.9479
  72   2.0000      -0.398049       -10.8315
  73   2.0000      -0.386151       -10.5077
  74   2.0000      -0.384994       -10.4762
  75   2.0000      -0.377360       -10.2685
  76   2.0000      -0.366507        -9.9732
  77   2.0000      -0.361819        -9.8456
  78   2.0000      -0.356912        -9.7121
  79   2.0000      -0.353128        -9.6091
  80   2.0000      -0.351791        -9.5727
  81   2.0000      -0.349160        -9.5011
  82   2.0000      -0.342920        -9.3313
  83   2.0000      -0.339149        -9.2287
  84   2.0000      -0.331765        -9.0278
  85   2.0000      -0.324282        -8.8242
  86   2.0000      -0.312718        -8.5095
  87   2.0000      -0.305253        -8.3063
  88   2.0000      -0.295954        -8.0533
  89   2.0000      -0.293605        -7.9894
  90   2.0000      -0.287163        -7.8141
  91   2.0000      -0.281000        -7.6464
  92   2.0000      -0.274878        -7.4798
  93   2.0000      -0.267193        -7.2707
  94   2.0000      -0.257575        -7.0090
  95   2.0000      -0.237825        -6.4715
  96   2.0000      -0.218438        -5.9440
  97   2.0000      -0.215237        -5.8569
  98   2.0000      -0.206750        -5.6259
  99   2.0000      -0.200066        -5.4441
 100   2.0000      -0.197148        -5.3647
 101   0.0000      -0.046003        -1.2518
 102   0.0000      -0.026449        -0.7197
 103   0.0000      -0.003080        -0.0838
 104   0.0000      -0.000178        -0.0048
 105   0.0000       0.008419         0.2291

MULLIKEN ATOMIC CHARGES
-----------------------
   0 C :   -0.282021
   1 C :   -0.014038
   2 O :   -0.374406
   3 P :    0.613020
   4 S :   -0.332842
   5 O :   -0.355436
   6 C :   -0.001665
   7 C :   -0.308230
   8 S :   -0.087619
   9 C :   -0.351653
  10 S :   -0.117154
  11 P :    0.619998
  12 S :   -0.311980
  13 O :   -0.360674
  14 C :    0.006510
  15 C :   -0.334486
  16 O :   -0.384205
  17 C :   -0.038713
  18 C :   -0.303529
  19 H :    0.119603
  20 H :    0.118215
  21 H :    0.114708
  22 H :    0.106466
  23 H :    0.108400
  24 H :    0.115673
  25 H :    0.103789
  26 H :    0.124689
  27 H :    0.113960
  28 H :    0.116814
  29 H :    0.195368
  30 H :    0.194523
  31 H :    0.112473
  32 H :    0.111383
  33 H :    0.117451
  34 H :    0.128367
  35 H :    0.132085
  36 H :    0.137313
  37 H :    0.096335
  38 H :    0.134454
  39 H :    0.103965
  40 H :    0.113090
Sum of atomic charges:   -0.0000000

LOEWDIN ATOMIC CHARGES
----------------------
   0 C :   -0.350209
   1 C :   -0.119860
   2 O :   -0.246018
   3 P :    0.569698
   4 S :   -0.320576
   5 O :   -0.234184
   6 C :   -0.116395
   7 C :   -0.365189
   8 S :    0.091875
   9 C :   -0.488135
  10 S :    0.074924
  11 P :    0.569979
  12 S :   -0.299598
  13 O :   -0.235638
  14 C :   -0.108318
  15 C :   -0.371466
  16 O :   -0.246835
  17 C :   -0.124525
  18 C :   -0.367789
  19 H :    0.128020
  20 H :    0.127723
  21 H :    0.132265
  22 H :    0.111933
  23 H :    0.109548
  24 H :    0.112321
  25 H :    0.117414
  26 H :    0.122491
  27 H :    0.131469
  28 H :    0.126450
  29 H :    0.128436
  30 H :    0.130212
  31 H :    0.123739
  32 H :    0.115245
  33 H :    0.133515
  34 H :    0.116277
  35 H :    0.130545
  36 H :    0.105881
  37 H :    0.115029
  38 H :    0.116720
  39 H :    0.127807
  40 H :    0.125220

  Mayer bond orders larger than 0.100000
B(  0-C ,  1-C ) :   1.1610 B(  0-C , 19-H ) :   0.9515 B(  0-C , 20-H ) :   0.9503
B(  0-C , 21-H ) :   0.9416 B(  1-C ,  2-O ) :   0.9009 B(  1-C , 22-H ) :   0.9291
B(  1-C , 23-H ) :   0.9105 B(  2-O ,  3-P ) :   1.1131 B(  3-P ,  4-S ) :   1.6015
B(  3-P ,  5-O ) :   1.1202 B(  3-P ,  8-S ) :   0.9681 B(  4-S ,  8-S ) :   0.1083
B(  5-O ,  6-C ) :   0.8975 B(  6-C ,  7-C ) :   1.1648 B(  6-C , 24-H ) :   0.9165
B(  6-C , 25-H ) :   0.9335 B(  7-C , 26-H ) :   0.9343 B(  7-C , 27-H ) :   0.9386
B(  7-C , 28-H ) :   0.9457 B(  8-S ,  9-C ) :   0.9964 B(  9-C , 10-S ) :   1.0163
B(  9-C , 29-H ) :   0.8603 B(  9-C , 30-H ) :   0.8754 B( 10-S , 11-P ) :   0.9284
B( 10-S , 12-S ) :   0.1138 B( 11-P , 12-S ) :   1.6508 B( 11-P , 13-O ) :   1.1439
B( 11-P , 16-O ) :   1.0747 B( 12-S , 29-H ) :   0.1001 B( 13-O , 14-C ) :   0.9008
B( 14-C , 15-C ) :   1.1693 B( 14-C , 31-H ) :   0.9337 B( 14-C , 32-H ) :   0.9268
B( 15-C , 33-H ) :   0.9356 B( 15-C , 34-H ) :   0.9319 B( 15-C , 35-H ) :   0.9423
B( 16-O , 17-C ) :   0.9068 B( 17-C , 18-C ) :   1.1678 B( 17-C , 36-H ) :   0.8979
B( 17-C , 37-H ) :   0.9345 B( 18-C , 38-H ) :   0.9280 B( 18-C , 39-H ) :   0.9380
B( 18-C , 40-H ) :   0.9451

Dispersion correction           -0.064879260
FINAL SINGLE POINT ENERGY     -2929.523314731262

DIPOLE MOMENT
-------------

Method             : SCF
Type of density    : Electron Density
Multiplicity       :   1
Irrep              :   0
Energy             : -2929.6437934127793596 Eh
Relativity type    :
Basis              : AO
                                X                 Y                 Z
Electronic contribution:    -10.750586254      10.845613922     -15.242184649
Nuclear contribution   :     11.518460188     -11.618938198      16.888920176
                        -----------------------------------------
Total Dipole Moment    :      0.767873934      -0.773324276       1.646735527
                        -----------------------------------------
Magnitude (a.u.)       :      1.974689523
Magnitude (Debye)      :      5.019261880

Rotational constants in cm-1:             0.012807             0.004767             0.004413
Rotational constants in MHz :           383.934409           142.908113           132.286360

                             ****ORCA TERMINATED NORMALLY****
TOTAL RUN TIME: 0 days 0 hours 0 minutes 20 seconds 968 msec
