                         Program Version 6.0.0  -   RELEASE  -
|  1> ! r2scan-3c def2/J RI DEFGRID2 scfconv6 printgap
|  2> %output
|  3>     printlevel normal
|  4> end
|  5> * xyz 0 1
|  6> C -0.4615616085 -0.5974724715 -5.8405e-06
|  7> C 0.4614034745 0.597096472 -1.15306e-05
|  8> Br 2.3243872939 -0.0222122856 1.1573e-06
|  9> Br -2.3243530535 0.0222770746 1.7291e-06
| 10> H -0.3368857199 -1.2093621287 0.8929670839
| 11> H -0.3369647069 -1.2094288073 -0.8929466987
| 12> H 0.3364613735 1.2090365204 -0.8928722718
| 13> H 0.3365590195 1.2090987811 0.8928300636
| 14> *
| 15>
| 16>                          ****END OF INPUT****

CARTESIAN COORDINATES (ANGSTROEM)
---------------------------------
  C     -0.461562   -0.597472   -0.000006
  C      0.461403    0.597096   -0.000012
  Br     2.324387   -0.022212    0.000001
  Br    -2.324353    0.022277    0.000002
  H     -0.336886   -1.209362    0.892967
  H     -0.336965   -1.209429   -0.892947
  H      0.336461    1.209037   -0.892872
  H      0.336559    1.209099    0.892830

 Total Charge           Charge          ....    0
 Multiplicity           Mult            ....    1
 Number of Electrons    NEL             ....   86
 Basis Dimension        Dim             ....  130

ORBITAL ENERGIES
----------------

  NO   OCC          E(Eh)            E(eV)
   0   2.0000    -482.232128    -13122.2033
   1   2.0000    -482.232125    -13122.2032
   2   2.0000     -62.303982     -1695.3776
   3   2.0000     -62.303978     -1695.3774
   4   2.0000     -56.084565     -1526.1386
   5   2.0000     -56.084560     -1526.1385
   6   2.0000     -56.081693     -1526.0605
   7   2.0000     -56.081690     -1526.0604
   8   2.0000     -56.081642     -1526.0591
   9   2.0000     -56.081638     -1526.0590
  10   2.0000     -10.113557      -275.2039
  11   2.0000     -10.113408      -275.1998
  12   2.0000      -8.635814      -234.9924
  13   2.0000      -8.635806      -234.9922
  14   2.0000      -6.443533      -175.3375
  15   2.0000      -6.443529      -175.3374
  16   2.0000      -6.429654      -174.9598
  17   2.0000      -6.429650      -174.9597
  18   2.0000      -6.429245      -174.9486
  19   2.0000      -6.429241      -174.9485
  20   2.0000      -2.541015       -69.1445
  21   2.0000      -2.541011       -69.1444
  22   2.0000      -2.537642       -69.0527
  23   2.0000      -2.537638       -69.0526
  24   2.0000      -2.537341       -69.0446
  25   2.0000      -2.537337       -69.0445
  26   2.0000      -2.527030       -68.7640
  27   2.0000      -2.527026       -68.7639
  28   2.0000      -2.527006       -68.7633
  29   2.0000      -2.527002       -68.7632
  30   2.0000      -0.822092       -22.3703
  31   2.0000      -0.762918       -20.7601
  32   2.0000      -0.681168       -18.5355
  33   2.0000      -0.600696       -16.3458
  34   2.0000      -0.476069       -12.9545
  35   2.0000      -0.419404       -11.4126
  36   2.0000      -0.415934       -11.3181
  37   2.0000      -0.381950       -10.3934
  38   2.0000      -0.349262        -9.5039
  39   2.0000      -0.274723        -7.4756
  40   2.0000      -0.269464        -7.3325
  41   2.0000      -0.267003        -7.2655
  42   2.0000      -0.264852        -7.2070
  43   0.0000      -0.060991        -1.6597
  44   0.0000      -0.019361        -0.5268
  45   0.0000       0.096573         2.6279
  46   0.0000       0.096909         2.6370
  47   0.0000       0.126027         3.4294

MULLIKEN ATOMIC CHARGES
-----------------------
   0 C :   -0.213326
   1 C :   -0.213369
   2 Br:   -0.149580
   3 Br:   -0.149573
   4 H :    0.181462
   5 H :    0.181467
   6 H :    0.181458
   7 H :    0.181462
Sum of atomic charges:    0.0000000

LOEWDIN ATOMIC CHARGES
----------------------
   0 C :   -0.421381
   1 C :   -0.421419
   2 Br:    0.090224
   3 Br:    0.090244
   4 H :    0.165586
   5 H :    0.165589
   6 H :    0.165577
   7 H :    0.165580

  Mayer bond orders larger than 0.100000
B(  0-C ,  1-C ) :   0.9449 B(  0-C ,  3-Br) :   0.9538 B(  0-C ,  4-H ) :   0.9509
B(  0-C ,  5-H ) :   0.9509 B(  1-C ,  2-Br) :   0.9538 B(  1-C ,  6-H ) :   0.9509
B(  1-C ,  7-H ) :   0.9509

Dispersion correction           -0.001985866
FINAL SINGLE POINT ENERGY     -5226.874084585605

DIPOLE MOMENT
-------------

Method             : SCF
Type of density    : Electron Density
Multiplicity       :   1
Irrep              :   0
Energy             : -5226.8764633355058322 Eh
Relativity type    :
Basis              : AO
                                X                 Y                 Z
Electronic contribution:      0.000929166       0.001063882       0.000044722
Nuclear contribution   :     -0.001096657      -0.001216696      -0.000047276
                        -----------------------------------------
Total Dipole Moment    :     -0.000167491      -0.000152814      -0.000002553
                        -----------------------------------------
Magnitude (a.u.)       :      0.000226742
Magnitude (Debye)      :      0.000576333

Rotational constants in cm-1:             0.949231             0.019329             0.019081
Rotational constants in MHz :         28457.219208           579.471537           572.040117

                             ****ORCA TERMINATED NORMALLY****
TOTAL RUN TIME: 0 days 0 hours 0 minutes 10 seconds 437 msec
