                         Program Version 6.0.0  -   RELEASE  -
|  1> ! r2scan-3c def2/J RI DEFGRID2 scfconv6 printgap
|  2> %output
|  3>     printlevel normal
|  4> end
|  5> %cpcm
|  6>     smd true
|  7>     smdsolvent "water"
|  8> end
|  9> * xyz 0 1
| 10> C -0.4615616085 -0.5974724715 -5.8405e-06
| 11> C 0.4614034745 0.597096472 -1.15306e-05
| 12> Br 2.3243872939 -0.0222122856 1.1573e-06
| 13> Br -2.3243530535 0.0222770746 1.7291e-06
| 14> H -0.3368857199 -1.2093621287 0.8929670839
| 15> H -0.3369647069 -1.2094288073 -0.8929466987
| 16> H 0.3364613735 1.2090365204 -0.8928722718
| 17> H 0.3365590195 1.2090987811 0.8928300636
| 18> *
| 19>
| 20>                          ****END OF INPUT****

CARTESIAN COORDINATES (ANGSTROEM)
---------------------------------
  C     -0.461562   -0.597472   -0.000006
  C      0.461403    0.597096   -0.000012
  Br     2.324387   -0.022212    0.000001
  Br    -2.324353    0.022277    0.000002
  H     -0.336886   -1.209362    0.892967
  H     -0.336965   -1.209429   -0.892947
  H      0.336461    1.209037   -0.892872
  H      0.336559    1.209099    0.892830

 Total Charge           Charge          ....    0
 Multiplicity           Mult            ....    1
 Number of Electrons    NEL             ....   86
 Basis Dimension        Dim             ....  130

ORBITAL ENERGIES
----------------

  NO   OCC          E(Eh)            E(eV)
   0   2.0000    -482.224728    -13122.0019
   1   2.0000    -482.224726    -13122.0019
   2   2.0000     -62.296638     -1695.1777
   3   2.0000     -62.296635     -1695.1776
   4   2.0000     -56.077164     -1525.9372
   5   2.0000     -56.077161     -1525.9371
   6   2.0000     -56.074377     -1525.8614
   7   2.0000     -56.074377     -1525.8614
   8   2.0000     -56.074326     -1525.8600
   9   2.0000     -56.074325     -1525.8600
  10   2.0000     -10.098682      -274.7991
  11   2.0000     -10.098533      -274.7951
  12   2.0000      -8.628508      -234.7936
  13   2.0000      -8.628501      -234.7935
  14   2.0000      -6.435950      -175.1311
  15   2.0000      -6.435950      -175.1311
  16   2.0000      -6.422482      -174.7646
  17   2.0000      -6.422481      -174.7646
  18   2.0000      -6.422090      -174.7539
  19   2.0000      -6.422089      -174.7539
  20   2.0000      -2.533517       -68.9405
  21   2.0000      -2.533517       -68.9405
  22   2.0000      -2.530235       -68.8512
  23   2.0000      -2.530234       -68.8512
  24   2.0000      -2.529946       -68.8433
  25   2.0000      -2.529945       -68.8433
  26   2.0000      -2.519932       -68.5708
  27   2.0000      -2.519931       -68.5708
  28   2.0000      -2.519909       -68.5702
  29   2.0000      -2.519908       -68.5702
  30   2.0000      -0.810037       -22.0422
  31   2.0000      -0.754494       -20.5308
  32   2.0000      -0.671239       -18.2654
  33   2.0000      -0.585642       -15.9361
  34   2.0000      -0.459877       -12.5139
  35   2.0000      -0.409290       -11.1373
  36   2.0000      -0.401280       -10.9194
  37   2.0000      -0.365685        -9.9508
  38   2.0000      -0.339253        -9.2315
  39   2.0000      -0.268119        -7.2959
  40   2.0000      -0.261688        -7.1209
  41   2.0000      -0.259970        -7.0741
  42   2.0000      -0.258076        -7.0226
  43   0.0000      -0.052492        -1.4284
  44   0.0000      -0.008739        -0.2378
  45   0.0000       0.111555         3.0356
  46   0.0000       0.112857         3.0710
  47   0.0000       0.145905         3.9703

MULLIKEN ATOMIC CHARGES
-----------------------
   0 C :   -0.223774
   1 C :   -0.223798
   2 Br:   -0.181624
   3 Br:   -0.181616
   4 H :    0.202706
   5 H :    0.202713
   6 H :    0.202694
   7 H :    0.202699
Sum of atomic charges:   -0.0000000

LOEWDIN ATOMIC CHARGES
----------------------
   0 C :   -0.417216
   1 C :   -0.417254
   2 Br:    0.071150
   3 Br:    0.071172
   4 H :    0.173041
   5 H :    0.173045
   6 H :    0.173029
   7 H :    0.173033

  Mayer bond orders larger than 0.100000
B(  0-C ,  1-C ) :   0.9366 B(  0-C ,  3-Br) :   0.9301 B(  0-C ,  4-H ) :   0.9459
B(  0-C ,  5-H ) :   0.9459 B(  1-C ,  2-Br) :   0.9301 B(  1-C ,  6-H ) :   0.9460
B(  1-C ,  7-H ) :   0.9460

Dispersion correction           -0.001985866
FINAL SINGLE POINT ENERGY     -5226.878653748876

DIPOLE MOMENT
-------------

Method             : SCF
Type of density    : Electron Density
Multiplicity       :   1
Irrep              :   0
Energy             : -5226.8810324987771310 Eh
Relativity type    :
Basis              : AO
                                X                 Y                 Z
Electronic contribution:      0.000898056       0.001018462       0.000042701
Nuclear contribution   :     -0.001096657      -0.001216696      -0.000047276
                        -----------------------------------------
Total Dipole Moment    :     -0.000198602      -0.000198234      -0.000004574
                        -----------------------------------------
Magnitude (a.u.)       :      0.000280643
Magnitude (Debye)      :      0.000713337

Rotational constants in cm-1:             0.949231             0.019329             0.019081
Rotational constants in MHz :         28457.219208           579.471537           572.040117

                             ****ORCA TERMINATED NORMALLY****
TOTAL RUN TIME: 0 days 0 hours 0 minutes 12 seconds 724 msec
