                         Program Version 6.0.0  -   RELEASE  -
|  1> ! pbe def2-sv(p) def2/J RI DEFGRID1 loosescf d4 GCP(DFT/SV(P)) printgap
|  2> %output
|  3>     printlevel normal
|  4> end
|  5> * xyz 0 1
|  6> C 4.9611631981 1.2340089614 -0.4221123211
|  7> C 4.3003319059 0.1961330066 -1.3042979496
|  8> O 3.46110573 -0.7126907493 -0.5668137186
|  9> P 2.2803042791 -0.2872099242 0.4056851792
| 10> S 2.7285235122 0.3682695088 2.1918471381
| 11> O 1.4556507807 -1.6254661162 0.5264068602
| 12> C 1.1537927481 -2.4963892642 -0.5901775959
| 13> C 2.1356084793 -3.6474084178 -0.6433005675
| 14> S 1.1448983787 1.0603280178 -0.8076113912
| 15> C 0.2576608926 1.8560382114 0.5501968199
| 16> S -0.8790107678 0.7549837251 1.4360852824
| 17> P -2.252169701 0.3493181531 -0.1351785267
| 18> S -1.7676706265 -0.8667454363 -1.5995516549
| 19> O -2.5711017465 1.8266932019 -0.6100248695
| 20> C -3.108503335 2.1077993006 -1.9189583401
| 21> C -4.5583634034 1.6839803594 -2.0153500694
| 22> O -3.5762376433 -0.0436898153 0.6521358564
| 23> C -3.668428326 -1.0019039676 1.7203005418
| 24> C -2.9103484808 -2.2823917218 1.4360497365
| 25> H 4.2099777469 1.8906541208 0.0143271131
| 26> H 5.5058964159 0.7529478468 0.3867454235
| 27> H 5.6481132627 1.8271930852 -1.0170041642
| 28> H 5.0385067144 -0.4587387215 -1.7706890511
| 29> H 3.6897723182 0.6744347351 -2.0754141951
| 30> H 0.1364848995 -2.847882277 -0.4065268326
| 31> H 1.1626952824 -1.9151643842 -1.516087524
| 32> H 3.1416206783 -3.2762609375 -0.8202918148
| 33> H 2.1220842503 -4.1885949699 0.2987530688
| 34> H 1.8503210163 -4.3170769297 -1.4483877517
| 35> H -0.2936894211 2.6918151351 0.1276040821
| 36> H 0.9764007525 2.1868480879 1.3015182806
| 37> H -2.9900943091 3.1863731097 -2.02901164
| 38> H -2.5011027542 1.5861791744 -2.6659374823
| 39> H -4.6306398675 0.6036363255 -1.8942089473
| 40> H -5.1431466741 2.1626781125 -1.2345616735
| 41> H -4.9531436344 1.9603990176 -2.9878553384
| 42> H -3.293103122 -0.5271430623 2.6315815894
| 43> H -4.7405263496 -1.1852738908 1.8126059256
| 44> H -1.8406142773 -2.0763928527 1.3788726054
| 45> H -3.0869618368 -2.9925668137 2.2376285975
| 46> H -3.2346695958 -2.7148524791 0.4920176566
| 47> *
| 48>
| 49>                          ****END OF INPUT****

CARTESIAN COORDINATES (ANGSTROEM)
---------------------------------
  C      4.961163    1.234009   -0.422112
  C      4.300332    0.196133   -1.304298
  O      3.461106   -0.712691   -0.566814
  P      2.280304   -0.287210    0.405685
  S      2.728524    0.368270    2.191847
  O      1.455651   -1.625466    0.526407
  C      1.153793   -2.496389   -0.590178
  C      2.135608   -3.647408   -0.643301
  S      1.144898    1.060328   -0.807611
  C      0.257661    1.856038    0.550197
  S     -0.879011    0.754984    1.436085
  P     -2.252170    0.349318   -0.135179
  S     -1.767671   -0.866745   -1.599552
  O     -2.571102    1.826693   -0.610025
  C     -3.108503    2.107799   -1.918958
  C     -4.558363    1.683980   -2.015350
  O     -3.576238   -0.043690    0.652136
  C     -3.668428   -1.001904    1.720301
  C     -2.910348   -2.282392    1.436050
  H      4.209978    1.890654    0.014327
  H      5.505896    0.752948    0.386745
  H      5.648113    1.827193   -1.017004
  H      5.038507   -0.458739   -1.770689
  H      3.689772    0.674435   -2.075414
  H      0.136485   -2.847882   -0.406527
  H      1.162695   -1.915164   -1.516088
  H      3.141621   -3.276261   -0.820292
  H      2.122084   -4.188595    0.298753
  H      1.850321   -4.317077   -1.448388
  H     -0.293689    2.691815    0.127604
  H      0.976401    2.186848    1.301518
  H     -2.990094    3.186373   -2.029012
  H     -2.501103    1.586179   -2.665937
  H     -4.630640    0.603636   -1.894209
  H     -5.143147    2.162678   -1.234562
  H     -4.953144    1.960399   -2.987855
  H     -3.293103   -0.527143    2.631582
  H     -4.740526   -1.185274    1.812606
  H     -1.840614   -2.076393    1.378873
  H     -3.086962   -2.992567    2.237629
  H     -3.234670   -2.714852    0.492018

 Total Charge           Charge          ....    0
 Multiplicity           Mult            ....    1
 Number of Electrons    NEL             ....  202
 Basis Dimension        Dim             ....  334

ORBITAL ENERGIES
----------------

  NO   OCC          E(Eh)            E(eV)
   0   2.0000     -88.040945     -2395.7159
   1   2.0000     -88.040361     -2395.7000
   2   2.0000     -87.983891     -2394.1634
   3   2.0000     -87.980477     -2394.0705
   4   2.0000     -76.427200     -2079.6898
   5   2.0000     -76.424077     -2079.6049
   6   2.0000     -18.795760      -511.4586
   7   2.0000     -18.793496      -511.3970
   8   2.0000     -18.790751      -511.3223
   9   2.0000     -18.784090      -511.1411
  10   2.0000      -9.959166      -271.0027
  11   2.0000      -9.959121      -271.0014
  12   2.0000      -9.956211      -270.9223
  13   2.0000      -9.952231      -270.8140
  14   2.0000      -9.943220      -270.5688
  15   2.0000      -9.885337      -268.9937
  16   2.0000      -9.883590      -268.9462
  17   2.0000      -9.883260      -268.9372
  18   2.0000      -9.878306      -268.8024
  19   2.0000      -7.685929      -209.1448
  20   2.0000      -7.685237      -209.1259
  21   2.0000      -7.628839      -207.5913
  22   2.0000      -7.625833      -207.5095
  23   2.0000      -6.424501      -174.8196
  24   2.0000      -6.421164      -174.7287
  25   2.0000      -5.713927      -155.4839
  26   2.0000      -5.712957      -155.4575
  27   2.0000      -5.710505      -155.3907
  28   2.0000      -5.709750      -155.3702
  29   2.0000      -5.702723      -155.1790
  30   2.0000      -5.702388      -155.1699
  31   2.0000      -5.657659      -153.9527
  32   2.0000      -5.654910      -153.8779
  33   2.0000      -5.649464      -153.7297
  34   2.0000      -5.649079      -153.7192
  35   2.0000      -5.646378      -153.6458
  36   2.0000      -5.645859      -153.6316
  37   2.0000      -4.647204      -126.4568
  38   2.0000      -4.646598      -126.4403
  39   2.0000      -4.644587      -126.3856
  40   2.0000      -4.644095      -126.3722
  41   2.0000      -4.643104      -126.3453
  42   2.0000      -4.641202      -126.2935
  43   2.0000      -0.987360       -26.8674
  44   2.0000      -0.986542       -26.8452
  45   2.0000      -0.947510       -25.7831
  46   2.0000      -0.941190       -25.6111
  47   2.0000      -0.763086       -20.7646
  48   2.0000      -0.719234       -19.5713
  49   2.0000      -0.708453       -19.2780
  50   2.0000      -0.689897       -18.7730
  51   2.0000      -0.687967       -18.7205
  52   2.0000      -0.671746       -18.2791
  53   2.0000      -0.651849       -17.7377
  54   2.0000      -0.638651       -17.3786
  55   2.0000      -0.595955       -16.2168
  56   2.0000      -0.588994       -16.0273
  57   2.0000      -0.575884       -15.6706
  58   2.0000      -0.569412       -15.4945
  59   2.0000      -0.565918       -15.3994
  60   2.0000      -0.503313       -13.6958
  61   2.0000      -0.492703       -13.4071
  62   2.0000      -0.471076       -12.8186
  63   2.0000      -0.469976       -12.7887
  64   2.0000      -0.462706       -12.5909
  65   2.0000      -0.448676       -12.2091
  66   2.0000      -0.438702       -11.9377
  67   2.0000      -0.431111       -11.7311
  68   2.0000      -0.429131       -11.6772
  69   2.0000      -0.419361       -11.4114
  70   2.0000      -0.408856       -11.1255
  71   2.0000      -0.398397       -10.8409
  72   2.0000      -0.393112       -10.6971
  73   2.0000      -0.387138       -10.5346
  74   2.0000      -0.381423       -10.3790
  75   2.0000      -0.377070       -10.2606
  76   2.0000      -0.362320        -9.8592
  77   2.0000      -0.352313        -9.5869
  78   2.0000      -0.349389        -9.5074
  79   2.0000      -0.348138        -9.4733
  80   2.0000      -0.346801        -9.4369
  81   2.0000      -0.346073        -9.4171
  82   2.0000      -0.343947        -9.3593
  83   2.0000      -0.337066        -9.1720
  84   2.0000      -0.333737        -9.0814
  85   2.0000      -0.319954        -8.7064
  86   2.0000      -0.311453        -8.4751
  87   2.0000      -0.298690        -8.1278
  88   2.0000      -0.296112        -8.0576
  89   2.0000      -0.290066        -7.8931
  90   2.0000      -0.283554        -7.7159
  91   2.0000      -0.276445        -7.5224
  92   2.0000      -0.273608        -7.4453
  93   2.0000      -0.263352        -7.1662
  94   2.0000      -0.254983        -6.9384
  95   2.0000      -0.239331        -6.5125
  96   2.0000      -0.216779        -5.8989
  97   2.0000      -0.203015        -5.5243
  98   2.0000      -0.199917        -5.4400
  99   2.0000      -0.197233        -5.3670
 100   2.0000      -0.188225        -5.1219
 101   0.0000      -0.046504        -1.2654
 102   0.0000      -0.022914        -0.6235
 103   0.0000      -0.016442        -0.4474
 104   0.0000      -0.001017        -0.0277
 105   0.0000       0.015246         0.4149

MULLIKEN ATOMIC CHARGES
-----------------------
   0 C :   -0.307373
   1 C :   -0.010575
   2 O :   -0.380934
   3 P :    0.608248
   4 S :   -0.316163
   5 O :   -0.348346
   6 C :   -0.024266
   7 C :   -0.281279
   8 S :   -0.104310
   9 C :   -0.347788
  10 S :   -0.084625
  11 P :    0.608344
  12 S :   -0.324955
  13 O :   -0.371213
  14 C :   -0.010040
  15 C :   -0.302074
  16 O :   -0.375426
  17 C :   -0.005452
  18 C :   -0.340081
  19 H :    0.123639
  20 H :    0.127416
  21 H :    0.110735
  22 H :    0.108569
  23 H :    0.114075
  24 H :    0.121153
  25 H :    0.104496
  26 H :    0.116187
  27 H :    0.115674
  28 H :    0.107444
  29 H :    0.187159
  30 H :    0.194243
  31 H :    0.102834
  32 H :    0.113182
  33 H :    0.124620
  34 H :    0.116341
  35 H :    0.111404
  36 H :    0.116845
  37 H :    0.110762
  38 H :    0.147756
  39 H :    0.115154
  40 H :    0.128622
Sum of atomic charges:    0.0000000

LOEWDIN ATOMIC CHARGES
----------------------
   0 C :   -0.369036
   1 C :   -0.115135
   2 O :   -0.243161
   3 P :    0.571445
   4 S :   -0.309551
   5 O :   -0.230425
   6 C :   -0.118524
   7 C :   -0.359093
   8 S :    0.065787
   9 C :   -0.478782
  10 S :    0.088438
  11 P :    0.571233
  12 S :   -0.312157
  13 O :   -0.242148
  14 C :   -0.121053
  15 C :   -0.363331
  16 O :   -0.246929
  17 C :   -0.113122
  18 C :   -0.374974
  19 H :    0.120494
  20 H :    0.130761
  21 H :    0.129862
  22 H :    0.120713
  23 H :    0.108485
  24 H :    0.116223
  25 H :    0.104835
  26 H :    0.123652
  27 H :    0.127005
  28 H :    0.128390
  29 H :    0.133219
  30 H :    0.129950
  31 H :    0.116928
  32 H :    0.109656
  33 H :    0.124146
  34 H :    0.126461
  35 H :    0.130240
  36 H :    0.112287
  37 H :    0.122427
  38 H :    0.124108
  39 H :    0.131939
  40 H :    0.128740

  Mayer bond orders larger than 0.100000
B(  0-C ,  1-C ) :   1.1672 B(  0-C , 19-H ) :   0.9323 B(  0-C , 20-H ) :   0.9429
B(  0-C , 21-H ) :   0.9349 B(  1-C ,  2-O ) :   0.9116 B(  1-C , 22-H ) :   0.9329
B(  1-C , 23-H ) :   0.9257 B(  2-O ,  3-P ) :   1.0790 B(  3-P ,  4-S ) :   1.6377
B(  3-P ,  5-O ) :   1.1465 B(  3-P ,  8-S ) :   0.9362 B(  4-S ,  8-S ) :   0.1119
B(  5-O ,  6-C ) :   0.8908 B(  6-C ,  7-C ) :   1.1568 B(  6-C , 24-H ) :   0.9228
B(  6-C , 25-H ) :   0.9192 B(  7-C , 26-H ) :   0.9429 B(  7-C , 27-H ) :   0.9465
B(  7-C , 28-H ) :   0.9414 B(  8-S ,  9-C ) :   1.0141 B(  9-C , 10-S ) :   1.0075
B(  9-C , 29-H ) :   0.8970 B(  9-C , 30-H ) :   0.8750 B( 10-S , 11-P ) :   0.9521
B( 10-S , 12-S ) :   0.1132 B( 11-P , 12-S ) :   1.6196 B( 11-P , 13-O ) :   1.1086
B( 11-P , 16-O ) :   1.1027 B( 13-O , 14-C ) :   0.9008 B( 14-C , 15-C ) :   1.1667
B( 14-C , 31-H ) :   0.9330 B( 14-C , 32-H ) :   0.9103 B( 15-C , 33-H ) :   0.9351
B( 15-C , 34-H ) :   0.9465 B( 15-C , 35-H ) :   0.9393 B( 16-O , 17-C ) :   0.9165
B( 17-C , 18-C ) :   1.1654 B( 17-C , 36-H ) :   0.9270 B( 17-C , 37-H ) :   0.9341
B( 18-C , 38-H ) :   0.9280 B( 18-C , 39-H ) :   0.9329 B( 18-C , 40-H ) :   0.9393

Dispersion correction           -0.066336623
FINAL SINGLE POINT ENERGY     -2929.514166976096

DIPOLE MOMENT
-------------

Method             : SCF
Type of density    : Electron Density
Multiplicity       :   1
Irrep              :   0
Energy             : -2929.6328636854168508 Eh
Relativity type    :
Basis              : AO
                                X                 Y                 Z
Electronic contribution:      2.652723069       6.841880339       7.957298648
Nuclear contribution   :     -3.105246233      -6.647261050      -8.893483811
                        -----------------------------------------
Total Dipole Moment    :     -0.452523163       0.194619289      -0.936185163
                        -----------------------------------------
Magnitude (a.u.)       :      1.057873594
Magnitude (Debye)      :      2.688900985

Rotational constants in cm-1:             0.012561             0.005015             0.004725
Rotational constants in MHz :           376.577692           150.344355           141.640835

                             ****ORCA TERMINATED NORMALLY****
TOTAL RUN TIME: 0 days 0 hours 0 minutes 21 seconds 198 msec
