                         Program Version 6.0.1  -  RELEASE   -
|  1> ! pbe def2-sv(p) def2/J RI DEFGRID1 loosescf d4 GCP(DFT/SV(P)) printgap
|  2> %output
|  3>     printlevel normal
|  4> end
|  5> * xyz 0 1
|  6> C 5.1966012205 -3.0137444421 -0.5981235286
|  7> C 4.807584815 -2.0142610531 -1.6753776157
|  8> O 3.3852966284 -2.045184234 -1.9143925165
|  9> C 2.6034208313 -1.30443819 -1.1609483814
| 10> O 2.9910213784 -0.5480723743 -0.293300312
| 11> C 1.1425739831 -1.5137496785 -1.4938557825
| 12> C 0.3122138948 -0.4007458532 -0.8703204694
| 13> H 0.4409188714 0.5561743792 -1.3818942523
| 14> C 0.6646345271 -0.233956295 0.5982777216
| 15> O 0.6439655806 -1.1512547773 1.3918523496
| 16> O 0.9015669146 1.022772712 0.8921427883
| 17> C 1.2806372572 1.3582972072 2.2410100361
| 18> C 0.7260493045 2.7284546672 2.5793590678
| 19> S -1.4532027413 -0.8633562747 -0.9377901634
| 20> P -2.2020314274 0.8297974674 0.10694921
| 21> S -1.5860304466 2.5764947491 -0.5097382683
| 22> O -3.777714644 0.5923920553 0.0118674051
| 23> C -4.4753771537 0.7696239273 -1.228539494
| 24> O -1.9546915537 0.5964394551 1.6531227195
| 25> C -2.3983356214 -0.5822473017 2.3586215105
| 26> H 4.7350381967 -2.7412970921 0.3487647639
| 27> H 4.868994798 -4.0113124099 -0.8768900027
| 28> H 6.2748282364 -3.0104539674 -0.4778814569
| 29> H 5.2490088415 -2.2728083944 -2.6376855269
| 30> H 5.0901934936 -0.9988349955 -1.3838262445
| 31> H 0.8465856855 -2.474091342 -1.061722586
| 32> H 1.0010251525 -1.564855044 -2.5722622593
| 33> H 0.8951485442 0.5832565885 2.9103003349
| 34> H 2.3741032525 1.3471426316 2.2676438806
| 35> H 1.0926618537 3.4629969561 1.8682272771
| 36> H -0.3602254098 2.7151228594 2.5293131293
| 37> H 1.0377714551 3.0040933339 3.5810530516
| 38> H -4.174219945 1.7082830304 -1.6956463545
| 39> H -5.5304843729 0.7944428278 -0.9684131889
| 40> H -4.2600404606 -0.0649282543 -1.894829988
| 41> H -3.3226487648 -0.9598072297 1.9277101228
| 42> H -2.555677283 -0.2630520625 3.3856941188
| 43> H -1.6137699089 -1.3384909488 2.3095654224
| 44> *
| 45>
| 46>                          ****END OF INPUT****

CARTESIAN COORDINATES (ANGSTROEM)
---------------------------------
  C      5.196601   -3.013744   -0.598124
  C      4.807585   -2.014261   -1.675378
  O      3.385297   -2.045184   -1.914393
  C      2.603421   -1.304438   -1.160948
  O      2.991021   -0.548072   -0.293300
  C      1.142574   -1.513750   -1.493856
  C      0.312214   -0.400746   -0.870320
  H      0.440919    0.556174   -1.381894
  C      0.664635   -0.233956    0.598278
  O      0.643966   -1.151255    1.391852
  O      0.901567    1.022773    0.892143
  C      1.280637    1.358297    2.241010
  C      0.726049    2.728455    2.579359
  S     -1.453203   -0.863356   -0.937790
  P     -2.202031    0.829797    0.106949
  S     -1.586030    2.576495   -0.509738
  O     -3.777715    0.592392    0.011867
  C     -4.475377    0.769624   -1.228539
  O     -1.954692    0.596439    1.653123
  C     -2.398336   -0.582247    2.358622
  H      4.735038   -2.741297    0.348765
  H      4.868995   -4.011312   -0.876890
  H      6.274828   -3.010454   -0.477881
  H      5.249009   -2.272808   -2.637686
  H      5.090193   -0.998835   -1.383826
  H      0.846586   -2.474091   -1.061723
  H      1.001025   -1.564855   -2.572262
  H      0.895149    0.583257    2.910300
  H      2.374103    1.347143    2.267644
  H      1.092662    3.462997    1.868227
  H     -0.360225    2.715123    2.529313
  H      1.037771    3.004093    3.581053
  H     -4.174220    1.708283   -1.695646
  H     -5.530484    0.794443   -0.968413
  H     -4.260040   -0.064928   -1.894830
  H     -3.322649   -0.959807    1.927710
  H     -2.555677   -0.263052    3.385694
  H     -1.613770   -1.338491    2.309565

 Total Charge           Charge          ....    0
 Multiplicity           Mult            ....    1
 Number of Electrons    NEL             ....  174
 Basis Dimension        Dim             ....  316

ORBITAL ENERGIES
----------------

  NO   OCC          E(Eh)            E(eV)
   0   2.0000     -88.039565     -2395.6784
   1   2.0000     -87.979651     -2394.0480
   2   2.0000     -76.424897     -2079.6272
   3   2.0000     -18.812514      -511.9145
   4   2.0000     -18.796163      -511.4696
   5   2.0000     -18.795184      -511.4430
   6   2.0000     -18.789196      -511.2800
   7   2.0000     -18.750903      -510.2380
   8   2.0000     -18.723501      -509.4924
   9   2.0000     -10.021540      -272.7000
  10   2.0000     -10.004145      -272.2266
  11   2.0000      -9.955483      -270.9025
  12   2.0000      -9.948145      -270.7028
  13   2.0000      -9.941710      -270.5277
  14   2.0000      -9.940611      -270.4978
  15   2.0000      -9.931293      -270.2442
  16   2.0000      -9.917984      -269.8821
  17   2.0000      -9.892335      -269.1841
  18   2.0000      -9.868560      -268.5372
  19   2.0000      -7.684472      -209.1051
  20   2.0000      -7.625060      -207.4884
  21   2.0000      -6.422083      -174.7538
  22   2.0000      -5.712076      -155.4335
  23   2.0000      -5.709316      -155.3584
  24   2.0000      -5.701444      -155.1442
  25   2.0000      -5.654187      -153.8582
  26   2.0000      -5.645421      -153.6197
  27   2.0000      -5.645193      -153.6135
  28   2.0000      -4.645014      -126.3973
  29   2.0000      -4.643954      -126.3684
  30   2.0000      -4.642167      -126.3198
  31   2.0000      -1.021485       -27.7960
  32   2.0000      -0.999036       -27.1852
  33   2.0000      -0.987718       -26.8772
  34   2.0000      -0.944635       -25.7048
  35   2.0000      -0.927579       -25.2407
  36   2.0000      -0.903849       -24.5950
  37   2.0000      -0.763579       -20.7781
  38   2.0000      -0.719243       -19.5716
  39   2.0000      -0.698670       -19.0118
  40   2.0000      -0.689040       -18.7497
  41   2.0000      -0.662070       -18.0158
  42   2.0000      -0.638988       -17.3878
  43   2.0000      -0.619794       -16.8655
  44   2.0000      -0.611260       -16.6332
  45   2.0000      -0.593565       -16.1517
  46   2.0000      -0.548692       -14.9307
  47   2.0000      -0.514372       -13.9968
  48   2.0000      -0.506445       -13.7811
  49   2.0000      -0.491968       -13.3871
  50   2.0000      -0.475978       -12.9520
  51   2.0000      -0.475540       -12.9401
  52   2.0000      -0.464524       -12.6403
  53   2.0000      -0.443138       -12.0584
  54   2.0000      -0.437406       -11.9024
  55   2.0000      -0.433181       -11.7874
  56   2.0000      -0.427397       -11.6301
  57   2.0000      -0.422391       -11.4939
  58   2.0000      -0.416377       -11.3302
  59   2.0000      -0.407244       -11.0817
  60   2.0000      -0.402442       -10.9510
  61   2.0000      -0.397149       -10.8070
  62   2.0000      -0.390569       -10.6279
  63   2.0000      -0.382920       -10.4198
  64   2.0000      -0.373039       -10.1509
  65   2.0000      -0.360497        -9.8096
  66   2.0000      -0.352667        -9.5966
  67   2.0000      -0.346175        -9.4199
  68   2.0000      -0.342422        -9.3178
  69   2.0000      -0.338656        -9.2153
  70   2.0000      -0.334880        -9.1126
  71   2.0000      -0.326651        -8.8886
  72   2.0000      -0.315306        -8.5799
  73   2.0000      -0.308757        -8.4017
  74   2.0000      -0.305316        -8.3081
  75   2.0000      -0.302582        -8.2337
  76   2.0000      -0.296989        -8.0815
  77   2.0000      -0.284861        -7.7515
  78   2.0000      -0.270934        -7.3725
  79   2.0000      -0.270123        -7.3504
  80   2.0000      -0.261224        -7.1083
  81   2.0000      -0.245757        -6.6874
  82   2.0000      -0.235160        -6.3990
  83   2.0000      -0.230131        -6.2622
  84   2.0000      -0.212209        -5.7745
  85   2.0000      -0.197347        -5.3701
  86   2.0000      -0.194028        -5.2798
  87   0.0000      -0.042009        -1.1431
  88   0.0000      -0.030624        -0.8333
  89   0.0000      -0.020367        -0.5542
  90   0.0000       0.005189         0.1412
  91   0.0000       0.025201         0.6857

MULLIKEN ATOMIC CHARGES
-----------------------
   0 C :   -0.306790
   1 C :   -0.014628
   2 O :   -0.225955
   3 C :    0.129296
   4 O :   -0.200411
   5 C :   -0.063929
   6 C :   -0.282798
   7 H :    0.138289
   8 C :    0.161734
   9 O :   -0.209925
  10 O :   -0.206547
  11 C :   -0.020774
  12 C :   -0.282448
  13 S :   -0.100533
  14 P :    0.600115
  15 S :   -0.298111
  16 O :   -0.384792
  17 C :   -0.101971
  18 O :   -0.365383
  19 C :   -0.121872
  20 H :    0.133054
  21 H :    0.116853
  22 H :    0.116179
  23 H :    0.106776
  24 H :    0.113439
  25 H :    0.130919
  26 H :    0.126895
  27 H :    0.104138
  28 H :    0.103743
  29 H :    0.113801
  30 H :    0.126197
  31 H :    0.099281
  32 H :    0.121695
  33 H :    0.127994
  34 H :    0.118567
  35 H :    0.119265
  36 H :    0.125652
  37 H :    0.152987
Sum of atomic charges:   -0.0000000

LOEWDIN ATOMIC CHARGES
----------------------
   0 C :   -0.355562
   1 C :   -0.108923
   2 O :   -0.054281
   3 C :    0.046320
   4 O :   -0.149634
   5 C :   -0.250170
   6 C :   -0.260986
   7 H :    0.135089
   8 C :   -0.006251
   9 O :   -0.182099
  10 O :   -0.037198
  11 C :   -0.105691
  12 C :   -0.354320
  13 S :    0.091004
  14 P :    0.567269
  15 S :   -0.301304
  16 O :   -0.257742
  17 C :   -0.213438
  18 O :   -0.236261
  19 C :   -0.214462
  20 H :    0.133422
  21 H :    0.126303
  22 H :    0.132369
  23 H :    0.119799
  24 H :    0.121937
  25 H :    0.151941
  26 H :    0.144435
  27 H :    0.115060
  28 H :    0.117672
  29 H :    0.126193
  30 H :    0.126242
  31 H :    0.124044
  32 H :    0.113748
  33 H :    0.123800
  34 H :    0.111187
  35 H :    0.112151
  36 H :    0.123990
  37 H :    0.124347

  Mayer bond orders larger than 0.100000
B(  0-C ,  1-C ) :   1.1753 B(  0-C , 20-H ) :   0.9453 B(  0-C , 21-H ) :   0.9485
B(  0-C , 22-H ) :   0.9436 B(  1-C ,  2-O ) :   0.9076 B(  1-C , 23-H ) :   0.9369
B(  1-C , 24-H ) :   0.9145 B(  2-O ,  3-C ) :   1.2546 B(  3-C ,  4-O ) :   1.9900
B(  3-C ,  5-C ) :   1.0214 B(  5-C ,  6-C ) :   1.0450 B(  5-C , 25-H ) :   0.8670
B(  5-C , 26-H ) :   0.9001 B(  6-C ,  7-H ) :   0.8699 B(  6-C ,  8-C ) :   0.8827
B(  6-C , 13-S ) :   1.0229 B(  8-C ,  9-O ) :   2.0285 B(  8-C , 10-O ) :   1.2430
B( 10-O , 11-C ) :   0.9097 B( 11-C , 12-C ) :   1.1636 B( 11-C , 27-H ) :   0.9143
B( 11-C , 28-H ) :   0.9337 B( 12-C , 29-H ) :   0.9471 B( 12-C , 30-H ) :   0.9422
B( 12-C , 31-H ) :   0.9428 B( 13-S , 14-P ) :   0.9616 B( 13-S , 15-S ) :   0.1134
B( 14-P , 15-S ) :   1.6827 B( 14-P , 16-O ) :   1.0768 B( 14-P , 18-O ) :   1.1067
B( 16-O , 17-C ) :   0.9272 B( 17-C , 32-H ) :   0.9334 B( 17-C , 33-H ) :   0.9586
B( 17-C , 34-H ) :   0.9502 B( 18-O , 19-C ) :   0.9027 B( 19-C , 35-H ) :   0.9417
B( 19-C , 36-H ) :   0.9580 B( 19-C , 37-H ) :   0.9313

Dispersion correction           -0.052387267
FINAL SINGLE POINT ENERGY     -1979.020082397945

DIPOLE MOMENT
-------------

Method             : SCF
Type of density    : Electron Density
Multiplicity       :   1
Irrep              :   0
Energy             : -1979.1520399143546456 Eh
Relativity type    :
Basis              : AO
                                X                 Y                 Z
Electronic contribution:    -13.226651572       4.906443705      -6.141694387
Nuclear contribution   :     13.429689303      -6.000329432       5.767423990
                        -----------------------------------------
Total Dipole Moment    :      0.203037731      -1.093885727      -0.374270397
                        -----------------------------------------
Magnitude (a.u.)       :      1.173835012
Magnitude (Debye)      :      2.983651485

Rotational constants in cm-1:             0.016794             0.005785             0.005145
Rotational constants in MHz :           503.472123           173.441687           154.233857

                             ****ORCA TERMINATED NORMALLY****
TOTAL RUN TIME: 0 days 0 hours 0 minutes 28 seconds 771 msec
