                         Program Version 6.0.0  -   RELEASE  -
|  1> ! pbe def2-sv(p) def2/J RI DEFGRID1 loosescf d4 GCP(DFT/SV(P)) printgap
|  2> %output
|  3>     printlevel normal
|  4> end
|  5> * xyz 0 1
|  6> C 4.5446602483 -0.9145814822 -2.1909225244
|  7> C 3.2226695753 -1.6258759921 -1.9963842353
|  8> O 2.7281752052 -1.440626915 -0.6554614779
|  9> P 2.1203050445 -0.0625958151 -0.1629744916
| 10> S 1.3051001959 0.9893464738 -1.6099772413
| 11> O 3.3684022403 0.6249786152 0.541168244
| 12> C 3.3057583461 1.5968569164 1.5987818683
| 13> C 2.4091654265 2.7724934204 1.2691780321
| 14> S 1.0108238342 -0.7721073309 1.5024989703
| 15> C 0.0651296141 -2.0901121144 0.6886945283
| 16> S -0.9209079298 -1.5517788096 -0.7359822508
| 17> P -2.1147464266 -0.0718993267 0.2084828505
| 18> S -1.3898869187 1.6587116837 0.7953240754
| 19> O -2.6864594037 -0.9468243907 1.3998246176
| 20> C -3.2310082757 -0.3532465839 2.5947939048
| 21> C -4.5863818718 0.2648221253 2.3257441354
| 22> O -3.3623222936 0.0194764453 -0.7720085763
| 23> C -3.3013906137 0.2144230285 -2.1950423328
| 24> C -2.4972934326 1.4359032557 -2.5900302382
| 25> H 4.3997321066 0.1589307897 -2.0734297143
| 26> H 5.2662164784 -1.2522312396 -1.4519664368
| 27> H 4.9221517652 -1.1157798541 -3.1883822836
| 28> H 3.3214756039 -2.7073119601 -2.0968593444
| 29> H 2.4726749696 -1.2505213158 -2.7004383871
| 30> H 2.9610443084 1.0918308236 2.5061386099
| 31> H 4.344513309 1.9098000204 1.7202731077
| 32> H 1.371676629 2.4486214405 1.1763527494
| 33> H 2.4714910773 3.5094554222 2.0632823804
| 34> H 2.7103433031 3.2294882665 0.3292367172
| 35> H -0.5928890711 -2.5006104221 1.4513975143
| 36> H 0.749603816 -2.8455835969 0.3093184826
| 37> H -3.2929137302 -1.1829096542 3.2999345673
| 38> H -2.5269744903 0.4004984567 2.962631645
| 39> H -4.9984586066 0.6538856177 3.2513508711
| 40> H -4.4777146575 1.080913158 1.6120317245
| 41> H -5.2620666515 -0.4765312037 1.9079286233
| 42> H -2.8783440675 -0.6882069627 -2.6461618805
| 43> H -4.3492457951 0.3169138882 -2.4835169747
| 44> H -1.4479159869 1.3065090086 -2.3225627977
| 45> H -2.5647170901 1.58233177 -3.6631466769
| 46> H -2.8737865542 2.3204481313 -2.081358643
| 47> *
| 48>
| 49>                          ****END OF INPUT****

CARTESIAN COORDINATES (ANGSTROEM)
---------------------------------
  C      4.544660   -0.914581   -2.190923
  C      3.222670   -1.625876   -1.996384
  O      2.728175   -1.440627   -0.655461
  P      2.120305   -0.062596   -0.162974
  S      1.305100    0.989346   -1.609977
  O      3.368402    0.624979    0.541168
  C      3.305758    1.596857    1.598782
  C      2.409165    2.772493    1.269178
  S      1.010824   -0.772107    1.502499
  C      0.065130   -2.090112    0.688695
  S     -0.920908   -1.551779   -0.735982
  P     -2.114746   -0.071899    0.208483
  S     -1.389887    1.658712    0.795324
  O     -2.686459   -0.946824    1.399825
  C     -3.231008   -0.353247    2.594794
  C     -4.586382    0.264822    2.325744
  O     -3.362322    0.019476   -0.772009
  C     -3.301391    0.214423   -2.195042
  C     -2.497293    1.435903   -2.590030
  H      4.399732    0.158931   -2.073430
  H      5.266216   -1.252231   -1.451966
  H      4.922152   -1.115780   -3.188382
  H      3.321476   -2.707312   -2.096859
  H      2.472675   -1.250521   -2.700438
  H      2.961044    1.091831    2.506139
  H      4.344513    1.909800    1.720273
  H      1.371677    2.448621    1.176353
  H      2.471491    3.509455    2.063282
  H      2.710343    3.229488    0.329237
  H     -0.592889   -2.500610    1.451398
  H      0.749604   -2.845584    0.309318
  H     -3.292914   -1.182910    3.299935
  H     -2.526974    0.400498    2.962632
  H     -4.998459    0.653886    3.251351
  H     -4.477715    1.080913    1.612032
  H     -5.262067   -0.476531    1.907929
  H     -2.878344   -0.688207   -2.646162
  H     -4.349246    0.316914   -2.483517
  H     -1.447916    1.306509   -2.322563
  H     -2.564717    1.582332   -3.663147
  H     -2.873787    2.320448   -2.081359

 Total Charge           Charge          ....    0
 Multiplicity           Mult            ....    1
 Number of Electrons    NEL             ....  202
 Basis Dimension        Dim             ....  334

ORBITAL ENERGIES
----------------

  NO   OCC          E(Eh)            E(eV)
   0   2.0000     -88.039279     -2395.6706
   1   2.0000     -88.038901     -2395.6603
   2   2.0000     -87.976936     -2393.9741
   3   2.0000     -87.976860     -2393.9721
   4   2.0000     -76.422675     -2079.5667
   5   2.0000     -76.422641     -2079.5658
   6   2.0000     -18.788106      -511.2504
   7   2.0000     -18.787983      -511.2470
   8   2.0000     -18.786938      -511.2186
   9   2.0000     -18.786695      -511.2120
  10   2.0000      -9.960784      -271.0467
  11   2.0000      -9.953477      -270.8479
  12   2.0000      -9.953452      -270.8472
  13   2.0000      -9.947368      -270.6816
  14   2.0000      -9.947358      -270.6814
  15   2.0000      -9.879629      -268.8384
  16   2.0000      -9.879578      -268.8370
  17   2.0000      -9.874501      -268.6988
  18   2.0000      -9.874155      -268.6894
  19   2.0000      -7.684421      -209.1037
  20   2.0000      -7.684064      -209.0940
  21   2.0000      -7.621608      -207.3945
  22   2.0000      -7.621522      -207.3921
  23   2.0000      -6.419796      -174.6915
  24   2.0000      -6.419752      -174.6903
  25   2.0000      -5.712467      -155.4441
  26   2.0000      -5.712118      -155.4346
  27   2.0000      -5.708986      -155.3494
  28   2.0000      -5.708628      -155.3397
  29   2.0000      -5.701118      -155.1353
  30   2.0000      -5.700752      -155.1253
  31   2.0000      -5.650566      -153.7597
  32   2.0000      -5.650481      -153.7574
  33   2.0000      -5.642225      -153.5328
  34   2.0000      -5.642148      -153.5306
  35   2.0000      -5.641761      -153.5201
  36   2.0000      -5.641688      -153.5181
  37   2.0000      -4.642468      -126.3280
  38   2.0000      -4.642450      -126.3275
  39   2.0000      -4.641910      -126.3128
  40   2.0000      -4.641869      -126.3117
  41   2.0000      -4.639881      -126.2576
  42   2.0000      -4.639840      -126.2565
  43   2.0000      -0.982670       -26.7398
  44   2.0000      -0.982447       -26.7337
  45   2.0000      -0.942823       -25.6555
  46   2.0000      -0.942770       -25.6541
  47   2.0000      -0.762480       -20.7481
  48   2.0000      -0.715822       -19.4785
  49   2.0000      -0.704249       -19.1636
  50   2.0000      -0.683587       -18.6013
  51   2.0000      -0.682467       -18.5709
  52   2.0000      -0.666917       -18.1477
  53   2.0000      -0.650183       -17.6924
  54   2.0000      -0.635299       -17.2874
  55   2.0000      -0.591759       -16.1026
  56   2.0000      -0.587246       -15.9798
  57   2.0000      -0.571779       -15.5589
  58   2.0000      -0.569296       -15.4913
  59   2.0000      -0.563733       -15.3399
  60   2.0000      -0.496758       -13.5175
  61   2.0000      -0.488298       -13.2873
  62   2.0000      -0.468957       -12.7610
  63   2.0000      -0.466936       -12.7060
  64   2.0000      -0.459572       -12.5056
  65   2.0000      -0.444481       -12.0949
  66   2.0000      -0.434614       -11.8264
  67   2.0000      -0.431696       -11.7470
  68   2.0000      -0.421324       -11.4648
  69   2.0000      -0.412317       -11.2197
  70   2.0000      -0.409108       -11.1324
  71   2.0000      -0.393705       -10.7132
  72   2.0000      -0.389690       -10.6040
  73   2.0000      -0.385365       -10.4863
  74   2.0000      -0.383422       -10.4334
  75   2.0000      -0.375891       -10.2285
  76   2.0000      -0.366375        -9.9696
  77   2.0000      -0.351434        -9.5630
  78   2.0000      -0.344642        -9.3782
  79   2.0000      -0.343949        -9.3593
  80   2.0000      -0.340197        -9.2572
  81   2.0000      -0.338914        -9.2223
  82   2.0000      -0.337817        -9.1925
  83   2.0000      -0.332752        -9.0546
  84   2.0000      -0.328724        -8.9450
  85   2.0000      -0.318616        -8.6700
  86   2.0000      -0.304629        -8.2894
  87   2.0000      -0.293056        -7.9745
  88   2.0000      -0.292692        -7.9646
  89   2.0000      -0.286445        -7.7946
  90   2.0000      -0.283243        -7.7074
  91   2.0000      -0.270573        -7.3627
  92   2.0000      -0.268541        -7.3074
  93   2.0000      -0.257459        -7.0058
  94   2.0000      -0.252864        -6.8808
  95   2.0000      -0.248120        -6.7517
  96   2.0000      -0.217178        -5.9097
  97   2.0000      -0.204310        -5.5596
  98   2.0000      -0.184097        -5.0095
  99   2.0000      -0.182779        -4.9737
 100   2.0000      -0.180908        -4.9228
 101   0.0000      -0.051267        -1.3950
 102   0.0000      -0.028073        -0.7639
 103   0.0000      -0.011172        -0.3040
 104   0.0000      -0.008205        -0.2233
 105   0.0000       0.020501         0.5578

MULLIKEN ATOMIC CHARGES
-----------------------
   0 C :   -0.300790
   1 C :   -0.008636
   2 O :   -0.373903
   3 P :    0.619629
   4 S :   -0.303835
   5 O :   -0.374151
   6 C :   -0.014044
   7 C :   -0.330487
   8 S :   -0.111036
   9 C :   -0.322444
  10 S :   -0.111452
  11 P :    0.619698
  12 S :   -0.302446
  13 O :   -0.373773
  14 C :   -0.008870
  15 C :   -0.300679
  16 O :   -0.374293
  17 C :   -0.014147
  18 C :   -0.330343
  19 H :    0.124811
  20 H :    0.114098
  21 H :    0.109541
  22 H :    0.099027
  23 H :    0.111731
  24 H :    0.113655
  25 H :    0.107846
  26 H :    0.156954
  27 H :    0.107962
  28 H :    0.123844
  29 H :    0.188594
  30 H :    0.188949
  31 H :    0.099090
  32 H :    0.111491
  33 H :    0.109548
  34 H :    0.124606
  35 H :    0.114262
  36 H :    0.113767
  37 H :    0.107703
  38 H :    0.157897
  39 H :    0.107641
  40 H :    0.122987
Sum of atomic charges:   -0.0000000

LOEWDIN ATOMIC CHARGES
----------------------
   0 C :   -0.363114
   1 C :   -0.122376
   2 O :   -0.244164
   3 P :    0.572225
   4 S :   -0.299516
   5 O :   -0.246529
   6 C :   -0.114058
   7 C :   -0.373573
   8 S :    0.076745
   9 C :   -0.466942
  10 S :    0.077319
  11 P :    0.571899
  12 S :   -0.299512
  13 O :   -0.244317
  14 C :   -0.122463
  15 C :   -0.363136
  16 O :   -0.246233
  17 C :   -0.113709
  18 C :   -0.373459
  19 H :    0.124556
  20 H :    0.125366
  21 H :    0.129205
  22 H :    0.115092
  23 H :    0.108777
  24 H :    0.108189
  25 H :    0.120749
  26 H :    0.123253
  27 H :    0.128956
  28 H :    0.129003
  29 H :    0.134684
  30 H :    0.134822
  31 H :    0.115124
  32 H :    0.108729
  33 H :    0.129223
  34 H :    0.124465
  35 H :    0.125414
  36 H :    0.108076
  37 H :    0.120638
  38 H :    0.122946
  39 H :    0.128811
  40 H :    0.128839

  Mayer bond orders larger than 0.100000
B(  0-C ,  1-C ) :   1.1665 B(  0-C , 19-H ) :   0.9352 B(  0-C , 20-H ) :   0.9469
B(  0-C , 21-H ) :   0.9398 B(  1-C ,  2-O ) :   0.9039 B(  1-C , 22-H ) :   0.9330
B(  1-C , 23-H ) :   0.9084 B(  2-O ,  3-P ) :   1.1038 B(  3-P ,  4-S ) :   1.6329
B(  3-P ,  5-O ) :   1.1053 B(  3-P ,  8-S ) :   0.9393 B(  4-S ,  8-S ) :   0.1165
B(  5-O ,  6-C ) :   0.9176 B(  6-C ,  7-C ) :   1.1640 B(  6-C , 24-H ) :   0.9250
B(  6-C , 25-H ) :   0.9343 B(  7-C , 26-H ) :   0.9227 B(  7-C , 27-H ) :   0.9340
B(  7-C , 28-H ) :   0.9412 B(  8-S ,  9-C ) :   1.0097 B(  9-C , 10-S ) :   1.0110
B(  9-C , 29-H ) :   0.9029 B(  9-C , 30-H ) :   0.9032 B( 10-S , 11-P ) :   0.9381
B( 10-S , 12-S ) :   0.1167 B( 11-P , 12-S ) :   1.6360 B( 11-P , 13-O ) :   1.1033
B( 11-P , 16-O ) :   1.1051 B( 13-O , 14-C ) :   0.9042 B( 14-C , 15-C ) :   1.1664
B( 14-C , 31-H ) :   0.9331 B( 14-C , 32-H ) :   0.9084 B( 15-C , 33-H ) :   0.9398
B( 15-C , 34-H ) :   0.9352 B( 15-C , 35-H ) :   0.9469 B( 16-O , 17-C ) :   0.9176
B( 17-C , 18-C ) :   1.1635 B( 17-C , 36-H ) :   0.9248 B( 17-C , 37-H ) :   0.9345
B( 18-C , 38-H ) :   0.9221 B( 18-C , 39-H ) :   0.9342 B( 18-C , 40-H ) :   0.9416

Dispersion correction           -0.068217142
FINAL SINGLE POINT ENERGY     -2929.506550971363

DIPOLE MOMENT
-------------

Method             : SCF
Type of density    : Electron Density
Multiplicity       :   1
Irrep              :   0
Energy             : -2929.6228972604890259 Eh
Relativity type    :
Basis              : AO
                                X                 Y                 Z
Electronic contribution:      0.282016628      -6.527628896       2.267006117
Nuclear contribution   :     -0.261563286       5.704567549      -2.018660545
                        -----------------------------------------
Total Dipole Moment    :      0.020453342      -0.823061346       0.248345572
                        -----------------------------------------
Magnitude (a.u.)       :      0.859955721
Magnitude (Debye)      :      2.185833732

Rotational constants in cm-1:             0.012430             0.005455             0.005092
Rotational constants in MHz :           372.630426           163.538427           152.650599

                             ****ORCA TERMINATED NORMALLY****
TOTAL RUN TIME: 0 days 0 hours 0 minutes 21 seconds 206 msec
