                         Program Version 6.0.1  -  RELEASE   -
|  1> ! pbe def2-sv(p) def2/J RI DEFGRID1 loosescf d4 GCP(DFT/SV(P)) printgap
|  2> %output
|  3>     printlevel normal
|  4> end
|  5> * xyz 0 1
|  6> C 2.9568550776 -3.8926729748 -0.5309094608
|  7> C 1.5506666901 -3.3274493608 -0.6499484866
|  8> O 1.5327389956 -2.146013406 -1.4720701365
|  9> C 1.8505295624 -0.9903402682 -0.9378358852
| 10> O 2.1638641669 -0.8182898754 0.2240987627
| 11> C 1.7358063765 0.1457716474 -1.9365627507
| 12> C 0.6139319864 1.0869076267 -1.4763581022
| 13> H 0.5810978657 1.973943369 -2.111300286
| 14> C 0.8493069171 1.4896356237 -0.0378940125
| 15> O 0.170037441 1.0684879984 0.88348696
| 16> O 1.8370347123 2.3184344074 0.0893724067
| 17> C 2.2104819984 2.7461122145 1.4200118274
| 18> C 3.0887365999 3.9731614023 1.2834360169
| 19> S -1.0137206546 0.2684369481 -1.6174378181
| 20> P -1.7732698208 -0.1290999564 0.3325432858
| 21> S -2.6186931653 1.2471073663 1.4634086719
| 22> O -2.922685203 -1.1273525313 -0.2043565993
| 23> C -4.102385763 -0.6553449952 -0.8546366475
| 24> O -0.9407309911 -1.3093424685 1.0075319513
| 25> C -0.3476211339 -1.2343684667 2.3052995835
| 26> H 3.603134516 -3.1866800118 -0.0142360287
| 27> H 2.9226106507 -4.8174730846 0.0353188607
| 28> H 3.3639098827 -4.0913527517 -1.5184296913
| 29> H 1.1435725012 -3.0743629602 0.3332975485
| 30> H 0.8826165134 -4.0195732489 -1.1626497692
| 31> H 1.5036888741 -0.2529467945 -2.9221994766
| 32> H 2.6747019066 0.7014226489 -1.9538131704
| 33> H 1.2974686763 2.9506761142 1.9870415387
| 34> H 2.7392066045 1.9141557143 1.8942505063
| 35> H 2.5399729574 4.7754233023 0.7994740869
| 36> H 3.3983728904 4.2988161875 2.2707314132
| 37> H 3.9676502921 3.7383126778 0.6914118627
| 38> H -3.8827572932 -0.3973548158 -1.8909151911
| 39> H -4.4961515339 0.2176811643 -0.3292152532
| 40> H -4.8134970895 -1.4764770667 -0.8071719123
| 41> H -0.5706378591 -2.1782787381 2.7985011615
| 42> H -0.7693165634 -0.4013742534 2.8699935133
| 43> H 0.7283357545 -1.0949751715 2.1946153285
| 44> *
| 45>
| 46>                          ****END OF INPUT****

CARTESIAN COORDINATES (ANGSTROEM)
---------------------------------
  C      2.956855   -3.892673   -0.530909
  C      1.550667   -3.327449   -0.649948
  O      1.532739   -2.146013   -1.472070
  C      1.850530   -0.990340   -0.937836
  O      2.163864   -0.818290    0.224099
  C      1.735806    0.145772   -1.936563
  C      0.613932    1.086908   -1.476358
  H      0.581098    1.973943   -2.111300
  C      0.849307    1.489636   -0.037894
  O      0.170037    1.068488    0.883487
  O      1.837035    2.318434    0.089372
  C      2.210482    2.746112    1.420012
  C      3.088737    3.973161    1.283436
  S     -1.013721    0.268437   -1.617438
  P     -1.773270   -0.129100    0.332543
  S     -2.618693    1.247107    1.463409
  O     -2.922685   -1.127353   -0.204357
  C     -4.102386   -0.655345   -0.854637
  O     -0.940731   -1.309342    1.007532
  C     -0.347621   -1.234368    2.305300
  H      3.603135   -3.186680   -0.014236
  H      2.922611   -4.817473    0.035319
  H      3.363910   -4.091353   -1.518430
  H      1.143573   -3.074363    0.333298
  H      0.882617   -4.019573   -1.162650
  H      1.503689   -0.252947   -2.922199
  H      2.674702    0.701423   -1.953813
  H      1.297469    2.950676    1.987042
  H      2.739207    1.914156    1.894251
  H      2.539973    4.775423    0.799474
  H      3.398373    4.298816    2.270731
  H      3.967650    3.738313    0.691412
  H     -3.882757   -0.397355   -1.890915
  H     -4.496152    0.217681   -0.329215
  H     -4.813497   -1.476477   -0.807172
  H     -0.570638   -2.178279    2.798501
  H     -0.769317   -0.401374    2.869994
  H      0.728336   -1.094975    2.194615

 Total Charge           Charge          ....    0
 Multiplicity           Mult            ....    1
 Number of Electrons    NEL             ....  174
 Basis Dimension        Dim             ....  316

ORBITAL ENERGIES
----------------

  NO   OCC          E(Eh)            E(eV)
   0   2.0000     -88.030904     -2395.4427
   1   2.0000     -87.954957     -2393.3761
   2   2.0000     -76.412377     -2079.2865
   3   2.0000     -18.826414      -512.2928
   4   2.0000     -18.812231      -511.9068
   5   2.0000     -18.771004      -510.7850
   6   2.0000     -18.767591      -510.6921
   7   2.0000     -18.760491      -510.4989
   8   2.0000     -18.751830      -510.2632
   9   2.0000     -10.034538      -273.0537
  10   2.0000     -10.022752      -272.7329
  11   2.0000      -9.960616      -271.0421
  12   2.0000      -9.959029      -270.9990
  13   2.0000      -9.951482      -270.7936
  14   2.0000      -9.923917      -270.0435
  15   2.0000      -9.922279      -269.9989
  16   2.0000      -9.922096      -269.9940
  17   2.0000      -9.898942      -269.3639
  18   2.0000      -9.891750      -269.1682
  19   2.0000      -7.675907      -208.8721
  20   2.0000      -7.600303      -206.8148
  21   2.0000      -6.407090      -174.3458
  22   2.0000      -5.704328      -155.2227
  23   2.0000      -5.699905      -155.1023
  24   2.0000      -5.692814      -154.9093
  25   2.0000      -5.629612      -153.1895
  26   2.0000      -5.621177      -152.9600
  27   2.0000      -5.619792      -152.9223
  28   2.0000      -4.629808      -125.9835
  29   2.0000      -4.629344      -125.9709
  30   2.0000      -4.627517      -125.9211
  31   2.0000      -1.039406       -28.2837
  32   2.0000      -1.020713       -27.7750
  33   2.0000      -0.962464       -26.1900
  34   2.0000      -0.943212       -25.6661
  35   2.0000      -0.927531       -25.2394
  36   2.0000      -0.915719       -24.9180
  37   2.0000      -0.773053       -21.0358
  38   2.0000      -0.722934       -19.6720
  39   2.0000      -0.711692       -19.3661
  40   2.0000      -0.684269       -18.6199
  41   2.0000      -0.653834       -17.7917
  42   2.0000      -0.627394       -17.0723
  43   2.0000      -0.608530       -16.5589
  44   2.0000      -0.602423       -16.3928
  45   2.0000      -0.600910       -16.3516
  46   2.0000      -0.566107       -15.4045
  47   2.0000      -0.525226       -14.2921
  48   2.0000      -0.506690       -13.7877
  49   2.0000      -0.501645       -13.6505
  50   2.0000      -0.488775       -13.3002
  51   2.0000      -0.466824       -12.7029
  52   2.0000      -0.463561       -12.6141
  53   2.0000      -0.458912       -12.4876
  54   2.0000      -0.441931       -12.0255
  55   2.0000      -0.439009       -11.9460
  56   2.0000      -0.429697       -11.6926
  57   2.0000      -0.410739       -11.1768
  58   2.0000      -0.409216       -11.1353
  59   2.0000      -0.401077       -10.9139
  60   2.0000      -0.396288       -10.7835
  61   2.0000      -0.394849       -10.7444
  62   2.0000      -0.391155       -10.6439
  63   2.0000      -0.380209       -10.3460
  64   2.0000      -0.376862       -10.2549
  65   2.0000      -0.372271       -10.1300
  66   2.0000      -0.364779        -9.9261
  67   2.0000      -0.363319        -9.8864
  68   2.0000      -0.361429        -9.8350
  69   2.0000      -0.342830        -9.3289
  70   2.0000      -0.338541        -9.2122
  71   2.0000      -0.332488        -9.0475
  72   2.0000      -0.327171        -8.9028
  73   2.0000      -0.320830        -8.7302
  74   2.0000      -0.300536        -8.1780
  75   2.0000      -0.298151        -8.1131
  76   2.0000      -0.285966        -7.7815
  77   2.0000      -0.283151        -7.7049
  78   2.0000      -0.271485        -7.3875
  79   2.0000      -0.266676        -7.2566
  80   2.0000      -0.256656        -6.9840
  81   2.0000      -0.240427        -6.5423
  82   2.0000      -0.236995        -6.4489
  83   2.0000      -0.235137        -6.3984
  84   2.0000      -0.219230        -5.9655
  85   2.0000      -0.176906        -4.8139
  86   2.0000      -0.166501        -4.5307
  87   0.0000      -0.049894        -1.3577
  88   0.0000      -0.036734        -0.9996
  89   0.0000      -0.026684        -0.7261
  90   0.0000      -0.001942        -0.0528
  91   0.0000       0.033297         0.9061

MULLIKEN ATOMIC CHARGES
-----------------------
   0 C :   -0.308960
   1 C :   -0.023989
   2 O :   -0.210127
   3 C :    0.108910
   4 O :   -0.212412
   5 C :   -0.038127
   6 C :   -0.287651
   7 H :    0.149158
   8 C :    0.230052
   9 O :   -0.203488
  10 O :   -0.217524
  11 C :   -0.035901
  12 C :   -0.278505
  13 S :   -0.118188
  14 P :    0.642000
  15 S :   -0.353838
  16 O :   -0.386664
  17 C :   -0.102143
  18 O :   -0.383663
  19 C :   -0.106925
  20 H :    0.125000
  21 H :    0.116389
  22 H :    0.114082
  23 H :    0.127702
  24 H :    0.111274
  25 H :    0.120442
  26 H :    0.124356
  27 H :    0.129481
  28 H :    0.119827
  29 H :    0.120489
  30 H :    0.118686
  31 H :    0.117446
  32 H :    0.106258
  33 H :    0.111535
  34 H :    0.115903
  35 H :    0.110330
  36 H :    0.119998
  37 H :    0.128788
Sum of atomic charges:   -0.0000000

LOEWDIN ATOMIC CHARGES
----------------------
   0 C :   -0.356947
   1 C :   -0.107940
   2 O :   -0.037935
   3 C :    0.032722
   4 O :   -0.166267
   5 C :   -0.242841
   6 C :   -0.257248
   7 H :    0.146096
   8 C :    0.032129
   9 O :   -0.133820
  10 O :   -0.033141
  11 C :   -0.102104
  12 C :   -0.350127
  13 S :    0.087527
  14 P :    0.586831
  15 S :   -0.354518
  16 O :   -0.268078
  17 C :   -0.223067
  18 O :   -0.248614
  19 C :   -0.221512
  20 H :    0.128902
  21 H :    0.132504
  22 H :    0.124820
  23 H :    0.125285
  24 H :    0.123401
  25 H :    0.137471
  26 H :    0.144345
  27 H :    0.127467
  28 H :    0.124974
  29 H :    0.129239
  30 H :    0.134897
  31 H :    0.127804
  32 H :    0.102483
  33 H :    0.104977
  34 H :    0.117627
  35 H :    0.112960
  36 H :    0.109461
  37 H :    0.110234

  Mayer bond orders larger than 0.100000
B(  0-C ,  1-C ) :   1.1646 B(  0-C , 20-H ) :   0.9461 B(  0-C , 21-H ) :   0.9442
B(  0-C , 22-H ) :   0.9475 B(  1-C ,  2-O ) :   0.9057 B(  1-C , 23-H ) :   0.9148
B(  1-C , 24-H ) :   0.9376 B(  2-O ,  3-C ) :   1.2731 B(  3-C ,  4-O ) :   1.9457
B(  3-C ,  5-C ) :   0.9916 B(  5-C ,  6-C ) :   1.0323 B(  5-C , 25-H ) :   0.9044
B(  5-C , 26-H ) :   0.8828 B(  6-C ,  7-H ) :   0.8798 B(  6-C ,  8-C ) :   0.9187
B(  6-C , 13-S ) :   1.0388 B(  8-C ,  9-O ) :   1.8400 B(  8-C , 10-O ) :   1.2841
B(  9-O , 14-P ) :   0.1814 B( 10-O , 11-C ) :   0.8832 B( 11-C , 12-C ) :   1.1578
B( 11-C , 27-H ) :   0.9240 B( 11-C , 28-H ) :   0.9304 B( 12-C , 29-H ) :   0.9510
B( 12-C , 30-H ) :   0.9423 B( 12-C , 31-H ) :   0.9484 B( 13-S , 14-P ) :   0.9280
B( 13-S , 15-S ) :   0.1044 B( 14-P , 15-S ) :   1.5705 B( 14-P , 16-O ) :   1.0452
B( 14-P , 18-O ) :   1.0989 B( 16-O , 17-C ) :   0.9519 B( 17-C , 32-H ) :   0.9482
B( 17-C , 33-H ) :   0.9257 B( 17-C , 34-H ) :   0.9601 B( 18-O , 19-C ) :   0.9239
B( 19-C , 35-H ) :   0.9543 B( 19-C , 36-H ) :   0.9302 B( 19-C , 37-H ) :   0.9354

Dispersion correction           -0.053202094
FINAL SINGLE POINT ENERGY     -1979.004031473719

DIPOLE MOMENT
-------------

Method             : SCF
Type of density    : Electron Density
Multiplicity       :   1
Irrep              :   0
Energy             : -1979.1362001976708598 Eh
Relativity type    :
Basis              : AO
                                X                 Y                 Z
Electronic contribution:    -15.474121244       3.992426484      -3.382285128
Nuclear contribution   :     17.491229928      -4.105459375       2.684185466
                        -----------------------------------------
Total Dipole Moment    :      2.017108684      -0.113032891      -0.698099662
                        -----------------------------------------
Magnitude (a.u.)       :      2.137486144
Magnitude (Debye)      :      5.433058006

Rotational constants in cm-1:             0.010555             0.009219             0.006428
Rotational constants in MHz :           316.424005           276.393238           192.718032

                             ****ORCA TERMINATED NORMALLY****
TOTAL RUN TIME: 0 days 0 hours 0 minutes 41 seconds 344 msec
