                         Program Version 6.0.0  -   RELEASE  -
|  1> ! r2scan-3c def2/J RI DEFGRID2 scfconv6 printgap
|  2> %output
|  3>     printlevel normal
|  4> end
|  5> * xyz 0 1
|  6> C 4.2362355991 -0.7282823282 -2.65683321
|  7> C 4.855043598 -0.7178516739 -1.2742874427
|  8> O 3.8898793597 -0.9789276336 -0.2386467653
|  9> P 2.680751854 0.0030695228 0.0841740291
| 10> S 3.0767165893 1.9160915721 0.0375148763
| 11> O 2.2527860386 -0.4693616864 1.5251444211
| 12> C 1.9582782679 -1.8513870514 1.8533624699
| 13> C 0.9985229644 -1.8556602282 3.0253287224
| 14> S 1.1247402267 -0.6567404249 -1.2158048829
| 15> C 0.0287279721 0.7486466234 -0.9159755426
| 16> S -0.7922000821 0.6785732893 0.7026556488
| 17> P -2.7894980287 0.2195622793 0.0920763321
| 18> S -3.1510101753 0.3001097991 -1.8372478512
| 19> O -3.6868749848 1.1431763661 1.0141741119
| 20> C -4.0862159619 2.4678731832 0.6217618331
| 21> C -2.9153323639 3.4259449031 0.5237672602
| 22> O -3.1607325264 -1.1381092322 0.8160555448
| 23> C -3.0554371728 -2.4189139072 0.1675933757
| 24> C -1.6189673597 -2.891702556 0.0710364703
| 25> H 5.0231860976 -0.6595350877 -3.4010145956
| 26> H 3.6699869412 -1.6432082115 -2.8126213404
| 27> H 3.5680010894 0.1237163899 -2.7731649582
| 28> H 5.3250635728 0.2490391012 -1.0705605945
| 29> H 5.5853705936 -1.5192021429 -1.1533328729
| 30> H 1.5255853783 -2.337021416 0.9733275318
| 31> H 2.9029558663 -2.3372127083 2.1040209452
| 32> H 0.0787135985 -1.3388164657 2.7611191562
| 33> H 0.7748031436 -2.881463491 3.3008396963
| 34> H 1.4458814832 -1.3447078188 3.8729402565
| 35> H -0.7299287785 0.7414866484 -1.7023348007
| 36> H 0.6256694609 1.6607881965 -0.944030508
| 37> H -4.6089453501 2.4025775682 -0.3379379881
| 38> H -4.7852685835 2.7698223861 1.4029674676
| 39> H -2.2726266797 3.1501737738 -0.3117804395
| 40> H -3.2885907788 4.4317838079 0.3591357535
| 41> H -2.3297134285 3.4052610422 1.4398048204
| 42> H -3.6532361222 -3.0795580242 0.7972187698
| 43> H -3.5072979467 -2.3469943422 -0.8271742843
| 44> H -1.0554698128 -2.2508569277 -0.6066707549
| 45> H -1.1520685043 -2.8732199291 1.0522087061
| 46> H -1.6013745848 -3.9055505098 -0.3157571322
| 47> *
| 48>
| 49>                          ****END OF INPUT****

CARTESIAN COORDINATES (ANGSTROEM)
---------------------------------
  C      4.236236   -0.728282   -2.656833
  C      4.855044   -0.717852   -1.274287
  O      3.889879   -0.978928   -0.238647
  P      2.680752    0.003070    0.084174
  S      3.076717    1.916092    0.037515
  O      2.252786   -0.469362    1.525144
  C      1.958278   -1.851387    1.853362
  C      0.998523   -1.855660    3.025329
  S      1.124740   -0.656740   -1.215805
  C      0.028728    0.748647   -0.915976
  S     -0.792200    0.678573    0.702656
  P     -2.789498    0.219562    0.092076
  S     -3.151010    0.300110   -1.837248
  O     -3.686875    1.143176    1.014174
  C     -4.086216    2.467873    0.621762
  C     -2.915332    3.425945    0.523767
  O     -3.160733   -1.138109    0.816056
  C     -3.055437   -2.418914    0.167593
  C     -1.618967   -2.891703    0.071036
  H      5.023186   -0.659535   -3.401015
  H      3.669987   -1.643208   -2.812621
  H      3.568001    0.123716   -2.773165
  H      5.325064    0.249039   -1.070561
  H      5.585371   -1.519202   -1.153333
  H      1.525585   -2.337021    0.973328
  H      2.902956   -2.337213    2.104021
  H      0.078714   -1.338816    2.761119
  H      0.774803   -2.881463    3.300840
  H      1.445881   -1.344708    3.872940
  H     -0.729929    0.741487   -1.702335
  H      0.625669    1.660788   -0.944031
  H     -4.608945    2.402578   -0.337938
  H     -4.785269    2.769822    1.402967
  H     -2.272627    3.150174   -0.311780
  H     -3.288591    4.431784    0.359136
  H     -2.329713    3.405261    1.439805
  H     -3.653236   -3.079558    0.797219
  H     -3.507298   -2.346994   -0.827174
  H     -1.055470   -2.250857   -0.606671
  H     -1.152069   -2.873220    1.052209
  H     -1.601375   -3.905551   -0.315757

 Total Charge           Charge          ....    0
 Multiplicity           Mult            ....    1
 Number of Electrons    NEL             ....  202
 Basis Dimension        Dim             ....  539

ORBITAL ENERGIES
----------------

  NO   OCC          E(Eh)            E(eV)
   0   2.0000     -88.576804     -2410.2974
   1   2.0000     -88.575413     -2410.2595
   2   2.0000     -88.529166     -2409.0011
   3   2.0000     -88.522251     -2408.8129
   4   2.0000     -76.916830     -2093.0134
   5   2.0000     -76.915742     -2092.9837
   6   2.0000     -18.997365      -516.9446
   7   2.0000     -18.993071      -516.8277
   8   2.0000     -18.991770      -516.7923
   9   2.0000     -18.991496      -516.7849
  10   2.0000     -10.102975      -274.9159
  11   2.0000     -10.102907      -274.9141
  12   2.0000     -10.101637      -274.8795
  13   2.0000     -10.101205      -274.8678
  14   2.0000     -10.099571      -274.8233
  15   2.0000     -10.032397      -272.9954
  16   2.0000     -10.031507      -272.9712
  17   2.0000     -10.031479      -272.9704
  18   2.0000     -10.027836      -272.8713
  19   2.0000      -7.871253      -214.1877
  20   2.0000      -7.869481      -214.1395
  21   2.0000      -7.823898      -212.8991
  22   2.0000      -7.816970      -212.7106
  23   2.0000      -6.595493      -179.4725
  24   2.0000      -6.594346      -179.4413
  25   2.0000      -5.817942      -158.3142
  26   2.0000      -5.816374      -158.2716
  27   2.0000      -5.815128      -158.2377
  28   2.0000      -5.813352      -158.1893
  29   2.0000      -5.808519      -158.0578
  30   2.0000      -5.806611      -158.0059
  31   2.0000      -5.771383      -157.0473
  32   2.0000      -5.764658      -156.8643
  33   2.0000      -5.764180      -156.8513
  34   2.0000      -5.764067      -156.8482
  35   2.0000      -5.757185      -156.6610
  36   2.0000      -5.757005      -156.6561
  37   2.0000      -4.740652      -128.9997
  38   2.0000      -4.740480      -128.9950
  39   2.0000      -4.740222      -128.9880
  40   2.0000      -4.739453      -128.9671
  41   2.0000      -4.739215      -128.9606
  42   2.0000      -4.737782      -128.9216
  43   2.0000      -1.054204       -28.6864
  44   2.0000      -1.053674       -28.6719
  45   2.0000      -1.013164       -27.5696
  46   2.0000      -1.011603       -27.5271
  47   2.0000      -0.800002       -21.7692
  48   2.0000      -0.760975       -20.7072
  49   2.0000      -0.754181       -20.5223
  50   2.0000      -0.736280       -20.0352
  51   2.0000      -0.729440       -19.8491
  52   2.0000      -0.716395       -19.4941
  53   2.0000      -0.688976       -18.7480
  54   2.0000      -0.671028       -18.2596
  55   2.0000      -0.638185       -17.3659
  56   2.0000      -0.625991       -17.0341
  57   2.0000      -0.607446       -16.5294
  58   2.0000      -0.604637       -16.4530
  59   2.0000      -0.589796       -16.0492
  60   2.0000      -0.532771       -14.4974
  61   2.0000      -0.521802       -14.1990
  62   2.0000      -0.496971       -13.5233
  63   2.0000      -0.488538       -13.2938
  64   2.0000      -0.480849       -13.0846
  65   2.0000      -0.465113       -12.6564
  66   2.0000      -0.460292       -12.5252
  67   2.0000      -0.457165       -12.4401
  68   2.0000      -0.450392       -12.2558
  69   2.0000      -0.440176       -11.9778
  70   2.0000      -0.430097       -11.7035
  71   2.0000      -0.417145       -11.3511
  72   2.0000      -0.410640       -11.1741
  73   2.0000      -0.408054       -11.1037
  74   2.0000      -0.399842       -10.8802
  75   2.0000      -0.391001       -10.6397
  76   2.0000      -0.383635       -10.4392
  77   2.0000      -0.374818       -10.1993
  78   2.0000      -0.371831       -10.1180
  79   2.0000      -0.369787       -10.0624
  80   2.0000      -0.365378        -9.9424
  81   2.0000      -0.358933        -9.7671
  82   2.0000      -0.356401        -9.6982
  83   2.0000      -0.354605        -9.6493
  84   2.0000      -0.352589        -9.5944
  85   2.0000      -0.332412        -9.0454
  86   2.0000      -0.325400        -8.8546
  87   2.0000      -0.320272        -8.7150
  88   2.0000      -0.316425        -8.6104
  89   2.0000      -0.312560        -8.5052
  90   2.0000      -0.306292        -8.3346
  91   2.0000      -0.287945        -7.8354
  92   2.0000      -0.284856        -7.7513
  93   2.0000      -0.281849        -7.6695
  94   2.0000      -0.273025        -7.4294
  95   2.0000      -0.245082        -6.6690
  96   2.0000      -0.235529        -6.4091
  97   2.0000      -0.230689        -6.2774
  98   2.0000      -0.224100        -6.0981
  99   2.0000      -0.221462        -6.0263
 100   2.0000      -0.214192        -5.8285
 101   0.0000      -0.046422        -1.2632
 102   0.0000      -0.034493        -0.9386
 103   0.0000      -0.014878        -0.4049
 104   0.0000      -0.000630        -0.0171
 105   0.0000       0.009460         0.2574

MULLIKEN ATOMIC CHARGES
-----------------------
   0 C :   -0.450747
   1 C :   -0.160272
   2 O :   -0.292588
   3 P :    0.643087
   4 S :   -0.437471
   5 O :   -0.268478
   6 C :   -0.106359
   7 C :   -0.463009
   8 S :   -0.156997
   9 C :   -0.262930
  10 S :   -0.096126
  11 P :    0.682154
  12 S :   -0.480569
  13 O :   -0.307807
  14 C :   -0.146671
  15 C :   -0.432167
  16 O :   -0.299965
  17 C :   -0.141746
  18 C :   -0.446239
  19 H :    0.148903
  20 H :    0.154061
  21 H :    0.181565
  22 H :    0.173880
  23 H :    0.148480
  24 H :    0.156033
  25 H :    0.155651
  26 H :    0.170772
  27 H :    0.146860
  28 H :    0.157678
  29 H :    0.220463
  30 H :    0.215773
  31 H :    0.169560
  32 H :    0.150024
  33 H :    0.166706
  34 H :    0.147905
  35 H :    0.161168
  36 H :    0.150119
  37 H :    0.172548
  38 H :    0.170599
  39 H :    0.157412
  40 H :    0.148736
Sum of atomic charges:   -0.0000000

LOEWDIN ATOMIC CHARGES
----------------------
   0 C :   -0.408463
   1 C :    0.023687
   2 O :   -0.663423
   3 P :    0.373130
   4 S :   -0.101870
   5 O :   -0.655013
   6 C :    0.021444
   7 C :   -0.395860
   8 S :    0.122352
   9 C :   -0.429974
  10 S :    0.160041
  11 P :    0.389613
  12 S :   -0.132785
  13 O :   -0.652790
  14 C :    0.024845
  15 C :   -0.405291
  16 O :   -0.652854
  17 C :    0.024132
  18 C :   -0.407576
  19 H :    0.160124
  20 H :    0.159837
  21 H :    0.167139
  22 H :    0.180400
  23 H :    0.179901
  24 H :    0.175729
  25 H :    0.174940
  26 H :    0.165905
  27 H :    0.158870
  28 H :    0.163043
  29 H :    0.197276
  30 H :    0.192139
  31 H :    0.178324
  32 H :    0.181221
  33 H :    0.161962
  34 H :    0.158966
  35 H :    0.163488
  36 H :    0.180554
  37 H :    0.179983
  38 H :    0.165840
  39 H :    0.161437
  40 H :    0.159577

  Mayer bond orders larger than 0.100000
B(  0-C ,  1-C ) :   0.9159 B(  0-C , 19-H ) :   0.9556 B(  0-C , 20-H ) :   0.9680
B(  0-C , 21-H ) :   0.9623 B(  1-C ,  2-O ) :   0.8196 B(  1-C , 22-H ) :   0.9687
B(  1-C , 23-H ) :   0.9614 B(  2-O ,  3-P ) :   1.0398 B(  3-P ,  4-S ) :   1.8547
B(  3-P ,  5-O ) :   1.1524 B(  3-P ,  8-S ) :   1.0020 B(  5-O ,  6-C ) :   0.7339
B(  6-C ,  7-C ) :   0.9436 B(  6-C , 24-H ) :   0.9515 B(  6-C , 25-H ) :   0.9459
B(  7-C , 26-H ) :   0.9658 B(  7-C , 27-H ) :   0.9680 B(  7-C , 28-H ) :   0.9669
B(  8-S ,  9-C ) :   0.9150 B(  9-C , 10-S ) :   0.9019 B(  9-C , 29-H ) :   0.8863
B(  9-C , 30-H ) :   0.9088 B( 10-S , 11-P ) :   1.0647 B( 11-P , 12-S ) :   1.7300
B( 11-P , 13-O ) :   1.1207 B( 11-P , 16-O ) :   1.1312 B( 13-O , 14-C ) :   0.8219
B( 14-C , 15-C ) :   0.9192 B( 14-C , 31-H ) :   0.9707 B( 14-C , 32-H ) :   0.9590
B( 15-C , 33-H ) :   0.9658 B( 15-C , 34-H ) :   0.9589 B( 15-C , 35-H ) :   0.9649
B( 16-O , 17-C ) :   0.8067 B( 17-C , 18-C ) :   0.9288 B( 17-C , 36-H ) :   0.9593
B( 17-C , 37-H ) :   0.9681 B( 18-C , 38-H ) :   0.9544 B( 18-C , 39-H ) :   0.9660
B( 18-C , 40-H ) :   0.9613

Dispersion correction           -0.021375579
FINAL SINGLE POINT ENERGY     -2932.462319621201

DIPOLE MOMENT
-------------

Method             : SCF
Type of density    : Electron Density
Multiplicity       :   1
Irrep              :   0
Energy             : -2932.4877664406694748 Eh
Relativity type    :
Basis              : AO
                                X                 Y                 Z
Electronic contribution:     -1.404596946       8.038124598      -1.500971942
Nuclear contribution   :      1.524687617      -9.275299239       1.651096957
                        -----------------------------------------
Total Dipole Moment    :      0.120090671      -1.237174641       0.150125015
                        -----------------------------------------
Magnitude (a.u.)       :      1.252022517
Magnitude (Debye)      :      3.182388329

Rotational constants in cm-1:             0.012257             0.004577             0.004292
Rotational constants in MHz :           367.463999           137.207831           128.682067

                             ****ORCA TERMINATED NORMALLY****
TOTAL RUN TIME: 0 days 0 hours 1 minutes 21 seconds 994 msec
