                         Program Version 6.0.0  -   RELEASE  -
|  1> ! r2scan-3c def2/J RI DEFGRID2 scfconv6 printgap
|  2> %output
|  3>     printlevel normal
|  4> end
|  5> %cpcm
|  6>     smd true
|  7>     smdsolvent "water"
|  8> end
|  9> * xyz 0 1
| 10> C 4.2362355991 -0.7282823282 -2.65683321
| 11> C 4.855043598 -0.7178516739 -1.2742874427
| 12> O 3.8898793597 -0.9789276336 -0.2386467653
| 13> P 2.680751854 0.0030695228 0.0841740291
| 14> S 3.0767165893 1.9160915721 0.0375148763
| 15> O 2.2527860386 -0.4693616864 1.5251444211
| 16> C 1.9582782679 -1.8513870514 1.8533624699
| 17> C 0.9985229644 -1.8556602282 3.0253287224
| 18> S 1.1247402267 -0.6567404249 -1.2158048829
| 19> C 0.0287279721 0.7486466234 -0.9159755426
| 20> S -0.7922000821 0.6785732893 0.7026556488
| 21> P -2.7894980287 0.2195622793 0.0920763321
| 22> S -3.1510101753 0.3001097991 -1.8372478512
| 23> O -3.6868749848 1.1431763661 1.0141741119
| 24> C -4.0862159619 2.4678731832 0.6217618331
| 25> C -2.9153323639 3.4259449031 0.5237672602
| 26> O -3.1607325264 -1.1381092322 0.8160555448
| 27> C -3.0554371728 -2.4189139072 0.1675933757
| 28> C -1.6189673597 -2.891702556 0.0710364703
| 29> H 5.0231860976 -0.6595350877 -3.4010145956
| 30> H 3.6699869412 -1.6432082115 -2.8126213404
| 31> H 3.5680010894 0.1237163899 -2.7731649582
| 32> H 5.3250635728 0.2490391012 -1.0705605945
| 33> H 5.5853705936 -1.5192021429 -1.1533328729
| 34> H 1.5255853783 -2.337021416 0.9733275318
| 35> H 2.9029558663 -2.3372127083 2.1040209452
| 36> H 0.0787135985 -1.3388164657 2.7611191562
| 37> H 0.7748031436 -2.881463491 3.3008396963
| 38> H 1.4458814832 -1.3447078188 3.8729402565
| 39> H -0.7299287785 0.7414866484 -1.7023348007
| 40> H 0.6256694609 1.6607881965 -0.944030508
| 41> H -4.6089453501 2.4025775682 -0.3379379881
| 42> H -4.7852685835 2.7698223861 1.4029674676
| 43> H -2.2726266797 3.1501737738 -0.3117804395
| 44> H -3.2885907788 4.4317838079 0.3591357535
| 45> H -2.3297134285 3.4052610422 1.4398048204
| 46> H -3.6532361222 -3.0795580242 0.7972187698
| 47> H -3.5072979467 -2.3469943422 -0.8271742843
| 48> H -1.0554698128 -2.2508569277 -0.6066707549
| 49> H -1.1520685043 -2.8732199291 1.0522087061
| 50> H -1.6013745848 -3.9055505098 -0.3157571322
| 51> *
| 52>
| 53>                          ****END OF INPUT****

CARTESIAN COORDINATES (ANGSTROEM)
---------------------------------
  C      4.236236   -0.728282   -2.656833
  C      4.855044   -0.717852   -1.274287
  O      3.889879   -0.978928   -0.238647
  P      2.680752    0.003070    0.084174
  S      3.076717    1.916092    0.037515
  O      2.252786   -0.469362    1.525144
  C      1.958278   -1.851387    1.853362
  C      0.998523   -1.855660    3.025329
  S      1.124740   -0.656740   -1.215805
  C      0.028728    0.748647   -0.915976
  S     -0.792200    0.678573    0.702656
  P     -2.789498    0.219562    0.092076
  S     -3.151010    0.300110   -1.837248
  O     -3.686875    1.143176    1.014174
  C     -4.086216    2.467873    0.621762
  C     -2.915332    3.425945    0.523767
  O     -3.160733   -1.138109    0.816056
  C     -3.055437   -2.418914    0.167593
  C     -1.618967   -2.891703    0.071036
  H      5.023186   -0.659535   -3.401015
  H      3.669987   -1.643208   -2.812621
  H      3.568001    0.123716   -2.773165
  H      5.325064    0.249039   -1.070561
  H      5.585371   -1.519202   -1.153333
  H      1.525585   -2.337021    0.973328
  H      2.902956   -2.337213    2.104021
  H      0.078714   -1.338816    2.761119
  H      0.774803   -2.881463    3.300840
  H      1.445881   -1.344708    3.872940
  H     -0.729929    0.741487   -1.702335
  H      0.625669    1.660788   -0.944031
  H     -4.608945    2.402578   -0.337938
  H     -4.785269    2.769822    1.402967
  H     -2.272627    3.150174   -0.311780
  H     -3.288591    4.431784    0.359136
  H     -2.329713    3.405261    1.439805
  H     -3.653236   -3.079558    0.797219
  H     -3.507298   -2.346994   -0.827174
  H     -1.055470   -2.250857   -0.606671
  H     -1.152069   -2.873220    1.052209
  H     -1.601375   -3.905551   -0.315757

 Total Charge           Charge          ....    0
 Multiplicity           Mult            ....    1
 Number of Electrons    NEL             ....  202
 Basis Dimension        Dim             ....  539

ORBITAL ENERGIES
----------------

  NO   OCC          E(Eh)            E(eV)
   0   2.0000     -88.578724     -2410.3496
   1   2.0000     -88.578394     -2410.3407
   2   2.0000     -88.534679     -2409.1511
   3   2.0000     -88.531907     -2409.0757
   4   2.0000     -76.921129     -2093.1303
   5   2.0000     -76.921031     -2093.1277
   6   2.0000     -18.997813      -516.9568
   7   2.0000     -18.996266      -516.9147
   8   2.0000     -18.995193      -516.8855
   9   2.0000     -18.994598      -516.8693
  10   2.0000     -10.102341      -274.8987
  11   2.0000     -10.092284      -274.6250
  12   2.0000     -10.091536      -274.6046
  13   2.0000     -10.091165      -274.5946
  14   2.0000     -10.090859      -274.5862
  15   2.0000     -10.019338      -272.6400
  16   2.0000     -10.019235      -272.6373
  17   2.0000     -10.018543      -272.6184
  18   2.0000     -10.018357      -272.6134
  19   2.0000      -7.873121      -214.2385
  20   2.0000      -7.872530      -214.2224
  21   2.0000      -7.829633      -213.0552
  22   2.0000      -7.826991      -212.9832
  23   2.0000      -6.599870      -179.5916
  24   2.0000      -6.599684      -179.5865
  25   2.0000      -5.819850      -158.3662
  26   2.0000      -5.819444      -158.3551
  27   2.0000      -5.817027      -158.2894
  28   2.0000      -5.816416      -158.2727
  29   2.0000      -5.810321      -158.1069
  30   2.0000      -5.809625      -158.0879
  31   2.0000      -5.777086      -157.2025
  32   2.0000      -5.774556      -157.1337
  33   2.0000      -5.769934      -157.0079
  34   2.0000      -5.769775      -157.0036
  35   2.0000      -5.767180      -156.9330
  36   2.0000      -5.767103      -156.9309
  37   2.0000      -4.745510      -129.1319
  38   2.0000      -4.745026      -129.1187
  39   2.0000      -4.744849      -129.1139
  40   2.0000      -4.744502      -129.1045
  41   2.0000      -4.743849      -129.0867
  42   2.0000      -4.743253      -129.0705
  43   2.0000      -1.056740       -28.7554
  44   2.0000      -1.055664       -28.7261
  45   2.0000      -1.014002       -27.5924
  46   2.0000      -1.013687       -27.5838
  47   2.0000      -0.801696       -21.8152
  48   2.0000      -0.757336       -20.6081
  49   2.0000      -0.747948       -20.3527
  50   2.0000      -0.726038       -19.7565
  51   2.0000      -0.720434       -19.6040
  52   2.0000      -0.714963       -19.4551
  53   2.0000      -0.691980       -18.8297
  54   2.0000      -0.676072       -18.3969
  55   2.0000      -0.635708       -17.2985
  56   2.0000      -0.621235       -16.9047
  57   2.0000      -0.600279       -16.3344
  58   2.0000      -0.597516       -16.2592
  59   2.0000      -0.588343       -16.0096
  60   2.0000      -0.527958       -14.3665
  61   2.0000      -0.517129       -14.0718
  62   2.0000      -0.491964       -13.3870
  63   2.0000      -0.485357       -13.2072
  64   2.0000      -0.481764       -13.1095
  65   2.0000      -0.463261       -12.6060
  66   2.0000      -0.455624       -12.3982
  67   2.0000      -0.451387       -12.2829
  68   2.0000      -0.445302       -12.1173
  69   2.0000      -0.433603       -11.7989
  70   2.0000      -0.426893       -11.6163
  71   2.0000      -0.411757       -11.2045
  72   2.0000      -0.407460       -11.0876
  73   2.0000      -0.406813       -11.0699
  74   2.0000      -0.395801       -10.7703
  75   2.0000      -0.389117       -10.5884
  76   2.0000      -0.380053       -10.3418
  77   2.0000      -0.370070       -10.0701
  78   2.0000      -0.363348        -9.8872
  79   2.0000      -0.360584        -9.8120
  80   2.0000      -0.356282        -9.6949
  81   2.0000      -0.352678        -9.5969
  82   2.0000      -0.351024        -9.5518
  83   2.0000      -0.346726        -9.4349
  84   2.0000      -0.345252        -9.3948
  85   2.0000      -0.328635        -8.9426
  86   2.0000      -0.323616        -8.8060
  87   2.0000      -0.316693        -8.6177
  88   2.0000      -0.310707        -8.4548
  89   2.0000      -0.306989        -8.3536
  90   2.0000      -0.302761        -8.2386
  91   2.0000      -0.286634        -7.7997
  92   2.0000      -0.283448        -7.7130
  93   2.0000      -0.280997        -7.6463
  94   2.0000      -0.274442        -7.4680
  95   2.0000      -0.247680        -6.7397
  96   2.0000      -0.240596        -6.5470
  97   2.0000      -0.238185        -6.4813
  98   2.0000      -0.231118        -6.2890
  99   2.0000      -0.230838        -6.2814
 100   2.0000      -0.219905        -5.9839
 101   0.0000      -0.051178        -1.3926
 102   0.0000      -0.039164        -1.0657
 103   0.0000      -0.016746        -0.4557
 104   0.0000      -0.004497        -0.1224
 105   0.0000       0.005877         0.1599

MULLIKEN ATOMIC CHARGES
-----------------------
   0 C :   -0.487393
   1 C :   -0.154200
   2 O :   -0.311520
   3 P :    0.657304
   4 S :   -0.496133
   5 O :   -0.299185
   6 C :   -0.103488
   7 C :   -0.494202
   8 S :   -0.148138
   9 C :   -0.262027
  10 S :   -0.110738
  11 P :    0.712338
  12 S :   -0.513372
  13 O :   -0.340018
  14 C :   -0.148272
  15 C :   -0.470778
  16 O :   -0.332496
  17 C :   -0.138929
  18 C :   -0.476449
  19 H :    0.173542
  20 H :    0.169820
  21 H :    0.174932
  22 H :    0.179566
  23 H :    0.176307
  24 H :    0.171872
  25 H :    0.177292
  26 H :    0.167712
  27 H :    0.172784
  28 H :    0.168038
  29 H :    0.228974
  30 H :    0.228473
  31 H :    0.178035
  32 H :    0.175822
  33 H :    0.171259
  34 H :    0.172310
  35 H :    0.168020
  36 H :    0.175559
  37 H :    0.175954
  38 H :    0.162239
  39 H :    0.175846
  40 H :    0.173338
Sum of atomic charges:   -0.0000000

LOEWDIN ATOMIC CHARGES
----------------------
   0 C :   -0.410974
   1 C :    0.029414
   2 O :   -0.669219
   3 P :    0.375897
   4 S :   -0.146056
   5 O :   -0.675960
   6 C :    0.028696
   7 C :   -0.398063
   8 S :    0.131615
   9 C :   -0.424928
  10 S :    0.152574
  11 P :    0.393222
  12 S :   -0.153519
  13 O :   -0.670564
  14 C :    0.029204
  15 C :   -0.408970
  16 O :   -0.669695
  17 C :    0.028755
  18 C :   -0.407610
  19 H :    0.169121
  20 H :    0.163959
  21 H :    0.162140
  22 H :    0.181824
  23 H :    0.191896
  24 H :    0.182173
  25 H :    0.184499
  26 H :    0.163266
  27 H :    0.170022
  28 H :    0.164344
  29 H :    0.200714
  30 H :    0.195289
  31 H :    0.181322
  32 H :    0.191936
  33 H :    0.160937
  34 H :    0.167842
  35 H :    0.164205
  36 H :    0.191443
  37 H :    0.181563
  38 H :    0.161539
  39 H :    0.167014
  40 H :    0.169134

  Mayer bond orders larger than 0.100000
B(  0-C ,  1-C ) :   0.9038 B(  0-C , 19-H ) :   0.9504 B(  0-C , 20-H ) :   0.9647
B(  0-C , 21-H ) :   0.9641 B(  1-C ,  2-O ) :   0.8074 B(  1-C , 22-H ) :   0.9675
B(  1-C , 23-H ) :   0.9505 B(  2-O ,  3-P ) :   1.0507 B(  3-P ,  4-S ) :   1.8260
B(  3-P ,  5-O ) :   1.1597 B(  3-P ,  8-S ) :   1.0161 B(  5-O ,  6-C ) :   0.7257
B(  6-C ,  7-C ) :   0.9363 B(  6-C , 24-H ) :   0.9445 B(  6-C , 25-H ) :   0.9357
B(  7-C , 26-H ) :   0.9661 B(  7-C , 27-H ) :   0.9602 B(  7-C , 28-H ) :   0.9672
B(  8-S ,  9-C ) :   0.9105 B(  9-C , 10-S ) :   0.8931 B(  9-C , 29-H ) :   0.8853
B(  9-C , 30-H ) :   0.9063 B( 10-S , 11-P ) :   1.0685 B( 11-P , 12-S ) :   1.7129
B( 11-P , 13-O ) :   1.1226 B( 11-P , 16-O ) :   1.1366 B( 13-O , 14-C ) :   0.8118
B( 14-C , 15-C ) :   0.9079 B( 14-C , 31-H ) :   0.9673 B( 14-C , 32-H ) :   0.9493
B( 15-C , 33-H ) :   0.9652 B( 15-C , 34-H ) :   0.9534 B( 15-C , 35-H ) :   0.9635
B( 16-O , 17-C ) :   0.7941 B( 17-C , 18-C ) :   0.9201 B( 17-C , 36-H ) :   0.9494
B( 17-C , 37-H ) :   0.9632 B( 18-C , 38-H ) :   0.9555 B( 18-C , 39-H ) :   0.9637
B( 18-C , 40-H ) :   0.9557

Dispersion correction           -0.021375579
FINAL SINGLE POINT ENERGY     -2932.470623203112

DIPOLE MOMENT
-------------

Method             : SCF
Type of density    : Electron Density
Multiplicity       :   1
Irrep              :   0
Energy             : -2932.4960700225810797 Eh
Relativity type    :
Basis              : AO
                                X                 Y                 Z
Electronic contribution:     -1.357526802       7.435347804      -1.647741477
Nuclear contribution   :      1.524687617      -9.275299239       1.651096957
                        -----------------------------------------
Total Dipole Moment    :      0.167160815      -1.839951435       0.003355480
                        -----------------------------------------
Magnitude (a.u.)       :      1.847532214
Magnitude (Debye)      :      4.696053685

Rotational constants in cm-1:             0.012257             0.004577             0.004292
Rotational constants in MHz :           367.463999           137.207831           128.682067

                             ****ORCA TERMINATED NORMALLY****
TOTAL RUN TIME: 0 days 0 hours 1 minutes 46 seconds 973 msec
