                         Program Version 6.0.0  -   RELEASE  -
|  1> ! pbe def2-sv(p) def2/J RI DEFGRID1 loosescf d4 GCP(DFT/SV(P)) printgap
|  2> %output
|  3>     printlevel normal
|  4> end
|  5> * xyz 0 1
|  6> C 5.3378251865 -1.4005565494 0.1650045527
|  7> C 4.5938699739 -1.4594657361 -1.1542931121
|  8> O 3.1669841988 -1.4400603342 -0.9505729635
|  9> P 2.3887814498 -0.10123772 -0.5691973665
| 10> S 3.2219137532 1.590436743 -1.0697922242
| 11> O 2.1214602633 -0.1514742733 0.9953577756
| 12> C 1.615411162 -1.3320502283 1.6625232875
| 13> C 0.8765431421 -0.8886562659 2.9082273176
| 14> S 0.5580200287 -0.589671592 -1.5158942809
| 15> C -0.1428925715 1.0780117467 -1.406437557
| 16> S -0.654002134 1.5267075749 0.2725180555
| 17> P -2.399523152 0.341929876 0.2852027931
| 18> S -3.4877181623 0.3391756155 -1.3516230506
| 19> O -3.183971206 0.7592252866 1.6037635381
| 20> C -4.1718429999 1.8047437821 1.6161256408
| 21> C -3.5558839892 3.1696599045 1.3869747759
| 22> O -1.7911598646 -1.055028584 0.711288534
| 23> C -2.532671699 -2.2887925524 0.5607501495
| 24> C -1.5519809424 -3.410553662 0.287194892
| 25> H 5.0589062257 -2.239828917 0.796782501
| 26> H 6.406539691 -1.4330413952 -0.0220153311
| 27> H 5.0968729561 -0.4704326274 0.6799524966
| 28> H 4.7754133207 -2.3952355081 -1.68437376
| 29> H 4.8689074363 -0.6117976485 -1.7892060951
| 30> H 0.9564394999 -1.8702703432 0.9746346837
| 31> H 2.4718173414 -1.9631938822 1.9097526682
| 32> H 1.5256562371 -0.2716245546 3.5227855548
| 33> H -0.0035213369 -0.3090546259 2.6398820061
| 34> H 0.5691060348 -1.7636712839 3.471946288
| 35> H -1.011219564 1.1025252418 -2.0658370005
| 36> H 0.6095759949 1.8047348699 -1.7140460959
| 37> H -4.9168536547 1.5843366909 0.8449926434
| 38> H -4.6245237148 1.7262057746 2.6053327784
| 39> H -4.3141391956 3.9345415705 1.5203700458
| 40> H -2.7422967968 3.3401535226 2.0876204626
| 41> H -3.1628555672 3.2354131002 0.3730273555
| 42> H -3.0866999884 -2.4550907685 1.4869868271
| 43> H -3.2397929042 -2.1720027569 -0.2676935676
| 44> H -0.8723279986 -3.5288853028 1.1260955422
| 45> H -2.1039099394 -4.3335467418 0.1415773394
| 46> H -0.9781483661 -3.1928952337 -0.6106926739
| 47> *
| 48>
| 49>                          ****END OF INPUT****

CARTESIAN COORDINATES (ANGSTROEM)
---------------------------------
  C      5.337825   -1.400557    0.165005
  C      4.593870   -1.459466   -1.154293
  O      3.166984   -1.440060   -0.950573
  P      2.388781   -0.101238   -0.569197
  S      3.221914    1.590437   -1.069792
  O      2.121460   -0.151474    0.995358
  C      1.615411   -1.332050    1.662523
  C      0.876543   -0.888656    2.908227
  S      0.558020   -0.589672   -1.515894
  C     -0.142893    1.078012   -1.406438
  S     -0.654002    1.526708    0.272518
  P     -2.399523    0.341930    0.285203
  S     -3.487718    0.339176   -1.351623
  O     -3.183971    0.759225    1.603764
  C     -4.171843    1.804744    1.616126
  C     -3.555884    3.169660    1.386975
  O     -1.791160   -1.055029    0.711289
  C     -2.532672   -2.288793    0.560750
  C     -1.551981   -3.410554    0.287195
  H      5.058906   -2.239829    0.796783
  H      6.406540   -1.433041   -0.022015
  H      5.096873   -0.470433    0.679952
  H      4.775413   -2.395236   -1.684374
  H      4.868907   -0.611798   -1.789206
  H      0.956439   -1.870270    0.974635
  H      2.471817   -1.963194    1.909753
  H      1.525656   -0.271625    3.522786
  H     -0.003521   -0.309055    2.639882
  H      0.569106   -1.763671    3.471946
  H     -1.011220    1.102525   -2.065837
  H      0.609576    1.804735   -1.714046
  H     -4.916854    1.584337    0.844993
  H     -4.624524    1.726206    2.605333
  H     -4.314139    3.934542    1.520370
  H     -2.742297    3.340154    2.087620
  H     -3.162856    3.235413    0.373027
  H     -3.086700   -2.455091    1.486987
  H     -3.239793   -2.172003   -0.267694
  H     -0.872328   -3.528885    1.126096
  H     -2.103910   -4.333547    0.141577
  H     -0.978148   -3.192895   -0.610693

 Total Charge           Charge          ....    0
 Multiplicity           Mult            ....    1
 Number of Electrons    NEL             ....  202
 Basis Dimension        Dim             ....  334

ORBITAL ENERGIES
----------------

  NO   OCC          E(Eh)            E(eV)
   0   2.0000     -88.044689     -2395.8178
   1   2.0000     -88.040264     -2395.6974
   2   2.0000     -87.991630     -2394.3740
   3   2.0000     -87.987014     -2394.2484
   4   2.0000     -76.429683     -2079.7574
   5   2.0000     -76.424351     -2079.6123
   6   2.0000     -18.797459      -511.5049
   7   2.0000     -18.795150      -511.4420
   8   2.0000     -18.794505      -511.4245
   9   2.0000     -18.790143      -511.3058
  10   2.0000      -9.955199      -270.8947
  11   2.0000      -9.955093      -270.8919
  12   2.0000      -9.954851      -270.8853
  13   2.0000      -9.952279      -270.8153
  14   2.0000      -9.951826      -270.8029
  15   2.0000      -9.890160      -269.1249
  16   2.0000      -9.888139      -269.0700
  17   2.0000      -9.885837      -269.0073
  18   2.0000      -9.881905      -268.9003
  19   2.0000      -7.689848      -209.2514
  20   2.0000      -7.685467      -209.1322
  21   2.0000      -7.636536      -207.8007
  22   2.0000      -7.632397      -207.6881
  23   2.0000      -6.427457      -174.9000
  24   2.0000      -6.422469      -174.7643
  25   2.0000      -5.717676      -155.5859
  26   2.0000      -5.714498      -155.4994
  27   2.0000      -5.713209      -155.4643
  28   2.0000      -5.710187      -155.3821
  29   2.0000      -5.706682      -155.2867
  30   2.0000      -5.702319      -155.1680
  31   2.0000      -5.665240      -154.1590
  32   2.0000      -5.661364      -154.0535
  33   2.0000      -5.657190      -153.9400
  34   2.0000      -5.656891      -153.9318
  35   2.0000      -5.653241      -153.8325
  36   2.0000      -5.652213      -153.8045
  37   2.0000      -4.650008      -126.5332
  38   2.0000      -4.649134      -126.5094
  39   2.0000      -4.647934      -126.4767
  40   2.0000      -4.645466      -126.4095
  41   2.0000      -4.643839      -126.3653
  42   2.0000      -4.642901      -126.3397
  43   2.0000      -0.991153       -26.9706
  44   2.0000      -0.984990       -26.8029
  45   2.0000      -0.949753       -25.8441
  46   2.0000      -0.944221       -25.6936
  47   2.0000      -0.766127       -20.8474
  48   2.0000      -0.725325       -19.7371
  49   2.0000      -0.710868       -19.3437
  50   2.0000      -0.691521       -18.8173
  51   2.0000      -0.690174       -18.7806
  52   2.0000      -0.675863       -18.3912
  53   2.0000      -0.651262       -17.7217
  54   2.0000      -0.639662       -17.4061
  55   2.0000      -0.603525       -16.4228
  56   2.0000      -0.591236       -16.0883
  57   2.0000      -0.575579       -15.6623
  58   2.0000      -0.568881       -15.4800
  59   2.0000      -0.556982       -15.1563
  60   2.0000      -0.509208       -13.8563
  61   2.0000      -0.501089       -13.6353
  62   2.0000      -0.481076       -13.0907
  63   2.0000      -0.476993       -12.9796
  64   2.0000      -0.461078       -12.5466
  65   2.0000      -0.445704       -12.1282
  66   2.0000      -0.442693       -12.0463
  67   2.0000      -0.434967       -11.8360
  68   2.0000      -0.432547       -11.7702
  69   2.0000      -0.418332       -11.3834
  70   2.0000      -0.405302       -11.0288
  71   2.0000      -0.397515       -10.8169
  72   2.0000      -0.392400       -10.6778
  73   2.0000      -0.385926       -10.5016
  74   2.0000      -0.383001       -10.4220
  75   2.0000      -0.375495       -10.2177
  76   2.0000      -0.367303        -9.9948
  77   2.0000      -0.360371        -9.8062
  78   2.0000      -0.358045        -9.7429
  79   2.0000      -0.354676        -9.6512
  80   2.0000      -0.349138        -9.5005
  81   2.0000      -0.344832        -9.3833
  82   2.0000      -0.343316        -9.3421
  83   2.0000      -0.338523        -9.2117
  84   2.0000      -0.337921        -9.1953
  85   2.0000      -0.320159        -8.7120
  86   2.0000      -0.314605        -8.5608
  87   2.0000      -0.310582        -8.4514
  88   2.0000      -0.299456        -8.1486
  89   2.0000      -0.290768        -7.9122
  90   2.0000      -0.285576        -7.7709
  91   2.0000      -0.280000        -7.6192
  92   2.0000      -0.268500        -7.3062
  93   2.0000      -0.267435        -7.2773
  94   2.0000      -0.261874        -7.1260
  95   2.0000      -0.235140        -6.3985
  96   2.0000      -0.219830        -5.9819
  97   2.0000      -0.213942        -5.8217
  98   2.0000      -0.207615        -5.6495
  99   2.0000      -0.205671        -5.5966
 100   2.0000      -0.199572        -5.4306
 101   0.0000      -0.044655        -1.2151
 102   0.0000      -0.024491        -0.6664
 103   0.0000      -0.005272        -0.1435
 104   0.0000       0.005119         0.1393
 105   0.0000       0.013721         0.3734

MULLIKEN ATOMIC CHARGES
-----------------------
   0 C :   -0.314601
   1 C :   -0.007156
   2 O :   -0.397265
   3 P :    0.621979
   4 S :   -0.315878
   5 O :   -0.362182
   6 C :   -0.036575
   7 C :   -0.281581
   8 S :   -0.074189
   9 C :   -0.385453
  10 S :   -0.056678
  11 P :    0.612234
  12 S :   -0.333322
  13 O :   -0.377951
  14 C :   -0.004687
  15 C :   -0.318865
  16 O :   -0.364098
  17 C :   -0.014206
  18 C :   -0.294103
  19 H :    0.115732
  20 H :    0.114998
  21 H :    0.131317
  22 H :    0.106527
  23 H :    0.116326
  24 H :    0.119958
  25 H :    0.100261
  26 H :    0.115190
  27 H :    0.128354
  28 H :    0.102233
  29 H :    0.194668
  30 H :    0.196710
  31 H :    0.112681
  32 H :    0.106025
  33 H :    0.115153
  34 H :    0.119949
  35 H :    0.129161
  36 H :    0.103823
  37 H :    0.109423
  38 H :    0.120587
  39 H :    0.113360
  40 H :    0.132141
Sum of atomic charges:   -0.0000000

LOEWDIN ATOMIC CHARGES
----------------------
   0 C :   -0.363825
   1 C :   -0.116231
   2 O :   -0.258811
   3 P :    0.571102
   4 S :   -0.307743
   5 O :   -0.241511
   6 C :   -0.119987
   7 C :   -0.353352
   8 S :    0.090422
   9 C :   -0.489192
  10 S :    0.107485
  11 P :    0.572097
  12 S :   -0.322274
  13 O :   -0.246179
  14 C :   -0.118950
  15 C :   -0.369310
  16 O :   -0.239646
  17 C :   -0.117411
  18 C :   -0.354764
  19 H :    0.122421
  20 H :    0.132272
  21 H :    0.127064
  22 H :    0.119176
  23 H :    0.112234
  24 H :    0.106178
  25 H :    0.109549
  26 H :    0.127463
  27 H :    0.121723
  28 H :    0.125811
  29 H :    0.129273
  30 H :    0.130342
  31 H :    0.111331
  32 H :    0.119095
  33 H :    0.132188
  34 H :    0.125450
  35 H :    0.122274
  36 H :    0.113952
  37 H :    0.108213
  38 H :    0.122644
  39 H :    0.131421
  40 H :    0.128009

  Mayer bond orders larger than 0.100000
B(  0-C ,  1-C ) :   1.1609 B(  0-C , 19-H ) :   0.9440 B(  0-C , 20-H ) :   0.9390
B(  0-C , 21-H ) :   0.9372 B(  1-C ,  2-O ) :   0.9070 B(  1-C , 22-H ) :   0.9344
B(  1-C , 23-H ) :   0.9141 B(  2-O ,  3-P ) :   1.0805 B(  3-P ,  4-S ) :   1.6363
B(  3-P ,  5-O ) :   1.1181 B(  3-P ,  8-S ) :   0.9645 B(  4-S ,  8-S ) :   0.1017
B(  5-O ,  6-C ) :   0.8919 B(  6-C ,  7-C ) :   1.1679 B(  6-C , 24-H ) :   0.9003
B(  6-C , 25-H ) :   0.9293 B(  7-C , 26-H ) :   0.9472 B(  7-C , 27-H ) :   0.9387
B(  7-C , 28-H ) :   0.9403 B(  8-S ,  9-C ) :   1.0056 B(  9-C , 10-S ) :   0.9998
B(  9-C , 29-H ) :   0.8714 B(  9-C , 30-H ) :   0.8711 B( 10-S , 11-P ) :   0.9746
B( 10-S , 12-S ) :   0.1079 B( 11-P , 12-S ) :   1.5973 B( 11-P , 13-O ) :   1.1079
B( 11-P , 16-O ) :   1.1168 B( 13-O , 14-C ) :   0.9075 B( 14-C , 15-C ) :   1.1648
B( 14-C , 31-H ) :   0.9160 B( 14-C , 32-H ) :   0.9336 B( 15-C , 33-H ) :   0.9378
B( 15-C , 34-H ) :   0.9449 B( 15-C , 35-H ) :   0.9350 B( 16-O , 17-C ) :   0.8979
B( 17-C , 18-C ) :   1.1685 B( 17-C , 36-H ) :   0.9321 B( 17-C , 37-H ) :   0.9040
B( 18-C , 38-H ) :   0.9411 B( 18-C , 39-H ) :   0.9389 B( 18-C , 40-H ) :   0.9423

Dispersion correction           -0.065439409
FINAL SINGLE POINT ENERGY     -2929.526251621273

DIPOLE MOMENT
-------------

Method             : SCF
Type of density    : Electron Density
Multiplicity       :   1
Irrep              :   0
Energy             : -2929.6462886791309757 Eh
Relativity type    :
Basis              : AO
                                X                 Y                 Z
Electronic contribution:     -1.395555367      10.621340132     -14.272465082
Nuclear contribution   :      1.228334174     -11.849239118      15.431685892
                        -----------------------------------------
Total Dipole Moment    :     -0.167221193      -1.227898986       1.159220810
                        -----------------------------------------
Magnitude (a.u.)       :      1.696906519
Magnitude (Debye)      :      4.313193596

Rotational constants in cm-1:             0.013395             0.004764             0.004448
Rotational constants in MHz :           401.570859           142.824652           133.339990

                             ****ORCA TERMINATED NORMALLY****
TOTAL RUN TIME: 0 days 0 hours 0 minutes 21 seconds 365 msec
