                         Program Version 6.0.0  -   RELEASE  -
|  1> ! wb97x-v def2-tzvp def2/J RIJCOSX DEFGRID2 scfconv7 GCP(DFT/TZ) printgap
|  2> %output
|  3>     printlevel normal
|  4> end
|  5> * xyz 0 1
|  6> C 2.619787860164603 -2.8092314084475362e-05 0.45697858167023137
|  7> N 1.3648446795774682 -4.9607574344821134e-05 -0.29613612417058083
|  8> C 0.5812624825395382 1.192767670906993 0.06854517890369859
|  9> C -0.7661583700824273 1.1956650395576878 -0.6443933116047377
| 10> N -1.5937168165908495 -2.2290377945531572e-05 -0.39196940064897257
| 11> C -0.7661762752491675 -1.195743159327908 -0.6442948868554133
| 12> C 0.5812285460938353 -1.1928066032496796 0.06866877273373755
| 13> C -2.129531628472306 3.423773937841124e-05 0.976214683816112
| 14> H 3.20924580039274 -0.887280816450478 0.20279869375018195
| 15> H 2.4549087615370158 1.4840986851047201e-05 1.5504133285528225
| 16> H 3.2092548708343505 0.8871979378353547 0.20272954704711227
| 17> H 0.43739345581893196 1.2470814338924119 1.1649181928186327
| 18> H 1.1405019664451832 2.0891628738234553 -0.22472719161932184
| 19> H -1.3327235084576667 2.0842627677260723 -0.3446164350032071
| 20> H -0.5938860591169011 1.267767526784179 -1.7262795834171634
| 21> H -1.3327633979114584 -2.0843113634762886 -0.3444699520613348
| 22> H -0.593881773694791 -1.267921642813807 -1.7261734741535837
| 23> H 0.43733306760383944 -1.2469853906042416 1.1650450993957866
| 24> H 1.1404535179194966 -2.0892497431097707 -0.22448308938005254
| 25> H -2.758362503522728 -0.88538572951739 1.1165563850280573
| 26> H -2.758325626677009 0.8854886509865065 1.116499148356154
| 27> H -1.3707330381211509 4.4130866365514024e-05 1.7731526264914554
| 28> *
| 29>
| 30>                          ****END OF INPUT****

CARTESIAN COORDINATES (ANGSTROEM)
---------------------------------
  C      2.619788   -0.000028    0.456979
  N      1.364845   -0.000050   -0.296136
  C      0.581262    1.192768    0.068545
  C     -0.766158    1.195665   -0.644393
  N     -1.593717   -0.000022   -0.391969
  C     -0.766176   -1.195743   -0.644295
  C      0.581229   -1.192807    0.068669
  C     -2.129532    0.000034    0.976215
  H      3.209246   -0.887281    0.202799
  H      2.454909    0.000015    1.550413
  H      3.209255    0.887198    0.202730
  H      0.437393    1.247081    1.164918
  H      1.140502    2.089163   -0.224727
  H     -1.332724    2.084263   -0.344616
  H     -0.593886    1.267768   -1.726280
  H     -1.332763   -2.084311   -0.344470
  H     -0.593882   -1.267922   -1.726173
  H      0.437333   -1.246985    1.165045
  H      1.140454   -2.089250   -0.224483
  H     -2.758363   -0.885386    1.116556
  H     -2.758326    0.885489    1.116499
  H     -1.370733    0.000044    1.773153

 Total Charge           Charge          ....    0
 Multiplicity           Mult            ....    1
 Number of Electrons    NEL             ....   64
 Basis Dimension        Dim             ....  332

ORBITAL ENERGIES
----------------

  NO   OCC          E(Eh)            E(eV)
   0   2.0000     -16.519871      -449.5285
   1   2.0000     -16.515709      -449.4153
   2   2.0000     -12.064740      -328.2983
   3   2.0000     -12.064398      -328.2890
   4   2.0000     -12.063005      -328.2510
   5   2.0000     -12.062924      -328.2488
   6   2.0000     -12.061062      -328.1982
   7   2.0000     -12.058783      -328.1362
   8   2.0000      -1.497764       -40.7562
   9   2.0000      -1.466985       -39.9187
  10   2.0000      -1.273178       -34.6449
  11   2.0000      -1.243253       -33.8306
  12   2.0000      -1.184730       -32.2381
  13   2.0000      -1.143070       -31.1045
  14   2.0000      -1.117350       -30.4046
  15   2.0000      -1.021952       -27.8087
  16   2.0000      -0.953100       -25.9352
  17   2.0000      -0.944760       -25.7082
  18   2.0000      -0.917967       -24.9791
  19   2.0000      -0.913118       -24.8472
  20   2.0000      -0.900303       -24.4985
  21   2.0000      -0.891724       -24.2650
  22   2.0000      -0.833110       -22.6701
  23   2.0000      -0.822950       -22.3936
  24   2.0000      -0.819766       -22.3070
  25   2.0000      -0.816774       -22.2256
  26   2.0000      -0.811124       -22.0718
  27   2.0000      -0.787769       -21.4363
  28   2.0000      -0.787487       -21.4286
  29   2.0000      -0.778400       -21.1813
  30   2.0000      -0.705846       -19.2071
  31   2.0000      -0.686440       -18.6790
  32   0.0000      -0.122195        -3.3251
  33   0.0000      -0.075978        -2.0675
  34   0.0000      -0.068363        -1.8603
  35   0.0000      -0.056226        -1.5300
  36   0.0000      -0.049783        -1.3547

MULLIKEN ATOMIC CHARGES
-----------------------
   0 C :   -0.274150
   1 N :   -0.128719
   2 C :   -0.198202
   3 C :   -0.124131
   4 N :   -0.129322
   5 C :   -0.124147
   6 C :   -0.198186
   7 C :   -0.302933
   8 H :    0.116152
   9 H :    0.092539
  10 H :    0.116158
  11 H :    0.096407
  12 H :    0.106128
  13 H :    0.106727
  14 H :    0.100343
  15 H :    0.106725
  16 H :    0.100347
  17 H :    0.096399
  18 H :    0.106124
  19 H :    0.117289
  20 H :    0.117288
  21 H :    0.101164
Sum of atomic charges:    0.0000000

LOEWDIN ATOMIC CHARGES
----------------------
   0 C :   -0.321688
   1 N :    0.057240
   2 C :   -0.289052
   3 C :   -0.280111
   4 N :    0.056035
   5 C :   -0.280111
   6 C :   -0.289052
   7 C :   -0.320608
   8 H :    0.112201
   9 H :    0.098001
  10 H :    0.112201
  11 H :    0.116959
  12 H :    0.131008
  13 H :    0.130731
  14 H :    0.133306
  15 H :    0.130731
  16 H :    0.133306
  17 H :    0.116959
  18 H :    0.131008
  19 H :    0.112728
  20 H :    0.112728
  21 H :    0.095482

  Mayer bond orders larger than 0.100000
B(  0-C ,  1-N ) :   0.9843 B(  0-C ,  8-H ) :   0.9799 B(  0-C ,  9-H ) :   0.9779
B(  0-C , 10-H ) :   0.9799 B(  1-N ,  2-C ) :   0.9708 B(  1-N ,  6-C ) :   0.9708
B(  2-C ,  3-C ) :   0.9826 B(  2-C , 11-H ) :   0.9794 B(  2-C , 12-H ) :   0.9672
B(  3-C ,  4-N ) :   1.0028 B(  3-C , 13-H ) :   0.9912 B(  3-C , 14-H ) :   0.9714
B(  4-N ,  5-C ) :   1.0028 B(  4-N ,  7-C ) :   0.9787 B(  5-C ,  6-C ) :   0.9826
B(  5-C , 15-H ) :   0.9912 B(  5-C , 16-H ) :   0.9714 B(  6-C , 17-H ) :   0.9794
B(  6-C , 18-H ) :   0.9672 B(  7-C , 19-H ) :   0.9803 B(  7-C , 20-H ) :   0.9803
B(  7-C , 21-H ) :   0.9742

FINAL SINGLE POINT ENERGY      -346.561004690440

DIPOLE MOMENT
-------------

Method             : SCF
Type of density    : Electron Density
Multiplicity       :   1
Irrep              :   0
Energy             :  -346.5773200002402632 Eh
Relativity type    :
Basis              : AO
                                X                 Y                 Z
Electronic contribution:     -1.041595237      -0.000150922      -3.256532250
Nuclear contribution   :      1.260548359       0.000174730       3.759251963
                        -----------------------------------------
Total Dipole Moment    :      0.218953121       0.000023808       0.502719713
                        -----------------------------------------
Magnitude (a.u.)       :      0.548331633
Magnitude (Debye)      :      1.393748248

Rotational constants in cm-1:             0.120294             0.053213             0.045821
Rotational constants in MHz :          3606.312853          1595.278696          1373.672944

                             ****ORCA TERMINATED NORMALLY****
TOTAL RUN TIME: 0 days 0 hours 3 minutes 34 seconds 989 msec
