                         Program Version 6.0.0  -   RELEASE  -
|  1> ! wb97x-v def2-tzvp def2/J RIJCOSX DEFGRID2 scfconv7 GCP(DFT/TZ) printgap
|  2> %output
|  3>     printlevel normal
|  4> end
|  5> %cpcm
|  6>     smd true
|  7>     smdsolvent "water"
|  8> end
|  9> * xyz 0 1
| 10> C 2.619787860164603 -2.8092314084475362e-05 0.45697858167023137
| 11> N 1.3648446795774682 -4.9607574344821134e-05 -0.29613612417058083
| 12> C 0.5812624825395382 1.192767670906993 0.06854517890369859
| 13> C -0.7661583700824273 1.1956650395576878 -0.6443933116047377
| 14> N -1.5937168165908495 -2.2290377945531572e-05 -0.39196940064897257
| 15> C -0.7661762752491675 -1.195743159327908 -0.6442948868554133
| 16> C 0.5812285460938353 -1.1928066032496796 0.06866877273373755
| 17> C -2.129531628472306 3.423773937841124e-05 0.976214683816112
| 18> H 3.20924580039274 -0.887280816450478 0.20279869375018195
| 19> H 2.4549087615370158 1.4840986851047201e-05 1.5504133285528225
| 20> H 3.2092548708343505 0.8871979378353547 0.20272954704711227
| 21> H 0.43739345581893196 1.2470814338924119 1.1649181928186327
| 22> H 1.1405019664451832 2.0891628738234553 -0.22472719161932184
| 23> H -1.3327235084576667 2.0842627677260723 -0.3446164350032071
| 24> H -0.5938860591169011 1.267767526784179 -1.7262795834171634
| 25> H -1.3327633979114584 -2.0843113634762886 -0.3444699520613348
| 26> H -0.593881773694791 -1.267921642813807 -1.7261734741535837
| 27> H 0.43733306760383944 -1.2469853906042416 1.1650450993957866
| 28> H 1.1404535179194966 -2.0892497431097707 -0.22448308938005254
| 29> H -2.758362503522728 -0.88538572951739 1.1165563850280573
| 30> H -2.758325626677009 0.8854886509865065 1.116499148356154
| 31> H -1.3707330381211509 4.4130866365514024e-05 1.7731526264914554
| 32> *
| 33>
| 34>                          ****END OF INPUT****

CARTESIAN COORDINATES (ANGSTROEM)
---------------------------------
  C      2.619788   -0.000028    0.456979
  N      1.364845   -0.000050   -0.296136
  C      0.581262    1.192768    0.068545
  C     -0.766158    1.195665   -0.644393
  N     -1.593717   -0.000022   -0.391969
  C     -0.766176   -1.195743   -0.644295
  C      0.581229   -1.192807    0.068669
  C     -2.129532    0.000034    0.976215
  H      3.209246   -0.887281    0.202799
  H      2.454909    0.000015    1.550413
  H      3.209255    0.887198    0.202730
  H      0.437393    1.247081    1.164918
  H      1.140502    2.089163   -0.224727
  H     -1.332724    2.084263   -0.344616
  H     -0.593886    1.267768   -1.726280
  H     -1.332763   -2.084311   -0.344470
  H     -0.593882   -1.267922   -1.726173
  H      0.437333   -1.246985    1.165045
  H      1.140454   -2.089250   -0.224483
  H     -2.758363   -0.885386    1.116556
  H     -2.758326    0.885489    1.116499
  H     -1.370733    0.000044    1.773153

 Total Charge           Charge          ....    0
 Multiplicity           Mult            ....    1
 Number of Electrons    NEL             ....   64
 Basis Dimension        Dim             ....  332

ORBITAL ENERGIES
----------------

  NO   OCC          E(Eh)            E(eV)
   0   2.0000     -16.515375      -449.4062
   1   2.0000     -16.513569      -449.3571
   2   2.0000     -12.056614      -328.0772
   3   2.0000     -12.056272      -328.0678
   4   2.0000     -12.054523      -328.0202
   5   2.0000     -12.054437      -328.0179
   6   2.0000     -12.050938      -327.9227
   7   2.0000     -12.049369      -327.8800
   8   2.0000      -1.492428       -40.6110
   9   2.0000      -1.462472       -39.7959
  10   2.0000      -1.265653       -34.4402
  11   2.0000      -1.235971       -33.6325
  12   2.0000      -1.177252       -32.0347
  13   2.0000      -1.136529       -30.9265
  14   2.0000      -1.109118       -30.1806
  15   2.0000      -1.014194       -27.5976
  16   2.0000      -0.945818       -25.7370
  17   2.0000      -0.938693       -25.5431
  18   2.0000      -0.911088       -24.7920
  19   2.0000      -0.905694       -24.6452
  20   2.0000      -0.892501       -24.2862
  21   2.0000      -0.885877       -24.1059
  22   2.0000      -0.824740       -22.4423
  23   2.0000      -0.814143       -22.1539
  24   2.0000      -0.810212       -22.0470
  25   2.0000      -0.808795       -22.0084
  26   2.0000      -0.802320       -21.8322
  27   2.0000      -0.780068       -21.2267
  28   2.0000      -0.779969       -21.2240
  29   2.0000      -0.769726       -20.9453
  30   2.0000      -0.702410       -19.1135
  31   2.0000      -0.681903       -18.5555
  32   0.0000      -0.115157        -3.1336
  33   0.0000      -0.068405        -1.8614
  34   0.0000      -0.061594        -1.6761
  35   0.0000      -0.048036        -1.3071
  36   0.0000      -0.043509        -1.1839

MULLIKEN ATOMIC CHARGES
-----------------------
   0 C :   -0.317629
   1 N :   -0.186613
   2 C :   -0.218538
   3 C :   -0.131533
   4 N :   -0.194332
   5 C :   -0.131551
   6 C :   -0.218523
   7 C :   -0.341049
   8 H :    0.135746
   9 H :    0.110357
  10 H :    0.135752
  11 H :    0.115074
  12 H :    0.129018
  13 H :    0.128992
  14 H :    0.108293
  15 H :    0.128990
  16 H :    0.108296
  17 H :    0.115067
  18 H :    0.129014
  19 H :    0.135375
  20 H :    0.135374
  21 H :    0.124422
Sum of atomic charges:    0.0000000

LOEWDIN ATOMIC CHARGES
----------------------
   0 C :   -0.326781
   1 N :    0.038313
   2 C :   -0.288497
   3 C :   -0.284973
   4 N :    0.035299
   5 C :   -0.284974
   6 C :   -0.288497
   7 C :   -0.324026
   8 H :    0.115497
   9 H :    0.103302
  10 H :    0.115498
  11 H :    0.123636
  12 H :    0.135626
  13 H :    0.136505
  14 H :    0.131913
  15 H :    0.136505
  16 H :    0.131913
  17 H :    0.123636
  18 H :    0.135625
  19 H :    0.115801
  20 H :    0.115801
  21 H :    0.102878

  Mayer bond orders larger than 0.100000
B(  0-C ,  1-N ) :   0.9819 B(  0-C ,  8-H ) :   0.9749 B(  0-C ,  9-H ) :   0.9801
B(  0-C , 10-H ) :   0.9749 B(  1-N ,  2-C ) :   0.9667 B(  1-N ,  6-C ) :   0.9667
B(  2-C ,  3-C ) :   0.9805 B(  2-C , 11-H ) :   0.9801 B(  2-C , 12-H ) :   0.9656
B(  3-C ,  4-N ) :   0.9912 B(  3-C , 13-H ) :   0.9833 B(  3-C , 14-H ) :   0.9716
B(  4-N ,  5-C ) :   0.9912 B(  4-N ,  7-C ) :   0.9707 B(  5-C ,  6-C ) :   0.9805
B(  5-C , 15-H ) :   0.9833 B(  5-C , 16-H ) :   0.9716 B(  6-C , 17-H ) :   0.9801
B(  6-C , 18-H ) :   0.9656 B(  7-C , 19-H ) :   0.9755 B(  7-C , 20-H ) :   0.9755
B(  7-C , 21-H ) :   0.9754

FINAL SINGLE POINT ENERGY      -346.575776739679

DIPOLE MOMENT
-------------

Method             : SCF
Type of density    : Electron Density
Multiplicity       :   1
Irrep              :   0
Energy             :  -346.5920920494789357 Eh
Relativity type    :
Basis              : AO
                                X                 Y                 Z
Electronic contribution:     -0.950916663      -0.000133088      -2.912000291
Nuclear contribution   :      1.260548359       0.000174730       3.759251963
                        -----------------------------------------
Total Dipole Moment    :      0.309631695       0.000041642       0.847251672
                        -----------------------------------------
Magnitude (a.u.)       :      0.902057196
Magnitude (Debye)      :      2.292847176

Rotational constants in cm-1:             0.120294             0.053213             0.045821
Rotational constants in MHz :          3606.312853          1595.278696          1373.672944

                             ****ORCA TERMINATED NORMALLY****
TOTAL RUN TIME: 0 days 0 hours 3 minutes 19 seconds 766 msec
