                         Program Version 6.0.0  -   RELEASE  -
|  1> ! pbe def2-sv(p) def2/J RI DEFGRID1 loosescf d4 GCP(DFT/SV(P)) printgap
|  2> %output
|  3>     printlevel normal
|  4> end
|  5> * xyz 0 1
|  6> C 1.0857166979 0.2447054155 3.1618093193
|  7> C 2.2719935881 0.6108458338 2.29308071
|  8> O 2.7937953959 -0.5320363522 1.5918721792
|  9> P 2.2019525588 -1.1406814453 0.246606413
| 10> S 0.4623501036 -2.0421005422 0.321639622
| 11> O 3.3124237615 -2.1879621495 -0.1307424203
| 12> C 4.7388449998 -2.0190696929 0.0653244864
| 13> C 5.3080211136 -0.8831993671 -0.7573673129
| 14> S 2.3341165787 0.4593387439 -1.1704426708
| 15> C 0.5908358489 0.6918286181 -1.5415870353
| 16> S -0.3101912919 1.3794907012 -0.1129472496
| 17> P -2.2720260269 0.7318048716 -0.6446291398
| 18> S -2.3804176347 -0.7299821625 -1.938291987
| 19> O -2.9793756749 2.022402873 -1.2052860406
| 20> C -3.0523074318 3.2823845189 -0.4911745447
| 21> C -4.3437171957 3.3899305873 0.2930120076
| 22> O -2.9767564462 0.535115659 0.7656332318
| 23> C -2.7916364491 -0.6384434428 1.5818918243
| 24> C -3.9540043907 -1.5935483747 1.3976626038
| 25> H 0.2582252837 -0.0951286984 2.5432161582
| 26> H 1.3537766651 -0.552417929 3.849789732
| 27> H 0.7714020236 1.1185593386 3.722623777
| 28> H 3.1142538486 0.9539247439 2.896788873
| 29> H 1.9976976118 1.3834529948 1.5676067711
| 30> H 4.9191459826 -1.8635655962 1.130167191
| 31> H 5.1453072681 -2.9830378628 -0.2445004366
| 32> H 6.3870964354 -0.8675267413 -0.6392238855
| 33> H 5.0650093222 -1.0162506538 -1.8084351754
| 34> H 4.9014339937 0.0703768827 -0.4246536497
| 35> H 0.128909457 -0.2632266344 -1.8059441617
| 36> H 0.5465287998 1.3940711029 -2.3707749655
| 37> H -2.1803498607 3.3673735984 0.163930127
| 38> H -3.0007479819 4.0379255607 -1.2771440854
| 39> H -4.3772319641 2.6341432848 1.0726114606
| 40> H -4.4019596306 4.3752197866 0.7449454091
| 41> H -5.1932316952 3.2478536463 -0.3693753388
| 42> H -1.8500605857 -1.1289590979 1.3196697159
| 43> H -2.7394292162 -0.2640297782 2.6060180518
| 44> H -4.8917122334 -1.0954458257 1.6272478768
| 45> H -3.9841150351 -1.9467978179 0.3687922326
| 46> H -3.8233228119 -2.4452210552 2.0572166955
| 47> *
| 48>
| 49>                          ****END OF INPUT****

CARTESIAN COORDINATES (ANGSTROEM)
---------------------------------
  C      1.085717    0.244705    3.161809
  C      2.271994    0.610846    2.293081
  O      2.793795   -0.532036    1.591872
  P      2.201953   -1.140681    0.246606
  S      0.462350   -2.042101    0.321640
  O      3.312424   -2.187962   -0.130742
  C      4.738845   -2.019070    0.065324
  C      5.308021   -0.883199   -0.757367
  S      2.334117    0.459339   -1.170443
  C      0.590836    0.691829   -1.541587
  S     -0.310191    1.379491   -0.112947
  P     -2.272026    0.731805   -0.644629
  S     -2.380418   -0.729982   -1.938292
  O     -2.979376    2.022403   -1.205286
  C     -3.052307    3.282385   -0.491175
  C     -4.343717    3.389931    0.293012
  O     -2.976756    0.535116    0.765633
  C     -2.791636   -0.638443    1.581892
  C     -3.954004   -1.593548    1.397663
  H      0.258225   -0.095129    2.543216
  H      1.353777   -0.552418    3.849790
  H      0.771402    1.118559    3.722624
  H      3.114254    0.953925    2.896789
  H      1.997698    1.383453    1.567607
  H      4.919146   -1.863566    1.130167
  H      5.145307   -2.983038   -0.244500
  H      6.387096   -0.867527   -0.639224
  H      5.065009   -1.016251   -1.808435
  H      4.901434    0.070377   -0.424654
  H      0.128909   -0.263227   -1.805944
  H      0.546529    1.394071   -2.370775
  H     -2.180350    3.367374    0.163930
  H     -3.000748    4.037926   -1.277144
  H     -4.377232    2.634143    1.072611
  H     -4.401960    4.375220    0.744945
  H     -5.193232    3.247854   -0.369375
  H     -1.850061   -1.128959    1.319670
  H     -2.739429   -0.264030    2.606018
  H     -4.891712   -1.095446    1.627248
  H     -3.984115   -1.946798    0.368792
  H     -3.823323   -2.445221    2.057217

 Total Charge           Charge          ....    0
 Multiplicity           Mult            ....    1
 Number of Electrons    NEL             ....  202
 Basis Dimension        Dim             ....  334

ORBITAL ENERGIES
----------------

  NO   OCC          E(Eh)            E(eV)
   0   2.0000     -88.047750     -2395.9011
   1   2.0000     -88.038833     -2395.6584
   2   2.0000     -87.981559     -2394.0999
   3   2.0000     -87.980857     -2394.0808
   4   2.0000     -76.427174     -2079.6891
   5   2.0000     -76.422942     -2079.5740
   6   2.0000     -18.795176      -511.4427
   7   2.0000     -18.792280      -511.3639
   8   2.0000     -18.791185      -511.3342
   9   2.0000     -18.788147      -511.2515
  10   2.0000      -9.959392      -271.0088
  11   2.0000      -9.956834      -270.9392
  12   2.0000      -9.955429      -270.9010
  13   2.0000      -9.950679      -270.7717
  14   2.0000      -9.947404      -270.6826
  15   2.0000      -9.894295      -269.2375
  16   2.0000      -9.885554      -268.9996
  17   2.0000      -9.882492      -268.9163
  18   2.0000      -9.876472      -268.7525
  19   2.0000      -7.692275      -209.3175
  20   2.0000      -7.683397      -209.0759
  21   2.0000      -7.626778      -207.5352
  22   2.0000      -7.625630      -207.5039
  23   2.0000      -6.424325      -174.8148
  24   2.0000      -6.420456      -174.7095
  25   2.0000      -5.720234      -155.6555
  26   2.0000      -5.716577      -155.5560
  27   2.0000      -5.711218      -155.4101
  28   2.0000      -5.709512      -155.3637
  29   2.0000      -5.708044      -155.3238
  30   2.0000      -5.700379      -155.1152
  31   2.0000      -5.655823      -153.9028
  32   2.0000      -5.654830      -153.8757
  33   2.0000      -5.647217      -153.6686
  34   2.0000      -5.646950      -153.6613
  35   2.0000      -5.645954      -153.6342
  36   2.0000      -5.645801      -153.6301
  37   2.0000      -4.647221      -126.4573
  38   2.0000      -4.646165      -126.4286
  39   2.0000      -4.644467      -126.3824
  40   2.0000      -4.643254      -126.3494
  41   2.0000      -4.642193      -126.3205
  42   2.0000      -4.640756      -126.2814
  43   2.0000      -0.990275       -26.9468
  44   2.0000      -0.985617       -26.8200
  45   2.0000      -0.945454       -25.7271
  46   2.0000      -0.942638       -25.6505
  47   2.0000      -0.761296       -20.7159
  48   2.0000      -0.721771       -19.6404
  49   2.0000      -0.712567       -19.3899
  50   2.0000      -0.693860       -18.8809
  51   2.0000      -0.687428       -18.7059
  52   2.0000      -0.674211       -18.3462
  53   2.0000      -0.649668       -17.6784
  54   2.0000      -0.634814       -17.2742
  55   2.0000      -0.592632       -16.1263
  56   2.0000      -0.585641       -15.9361
  57   2.0000      -0.582210       -15.8428
  58   2.0000      -0.570863       -15.5340
  59   2.0000      -0.562726       -15.3125
  60   2.0000      -0.507529       -13.8106
  61   2.0000      -0.496905       -13.5215
  62   2.0000      -0.477706       -12.9990
  63   2.0000      -0.475450       -12.9376
  64   2.0000      -0.452357       -12.3093
  65   2.0000      -0.445974       -12.1356
  66   2.0000      -0.444131       -12.0854
  67   2.0000      -0.432913       -11.7802
  68   2.0000      -0.427325       -11.6281
  69   2.0000      -0.424866       -11.5612
  70   2.0000      -0.413494       -11.2517
  71   2.0000      -0.401961       -10.9379
  72   2.0000      -0.393006       -10.6942
  73   2.0000      -0.388545       -10.5728
  74   2.0000      -0.381122       -10.3709
  75   2.0000      -0.367222        -9.9926
  76   2.0000      -0.362206        -9.8561
  77   2.0000      -0.357020        -9.7150
  78   2.0000      -0.355534        -9.6746
  79   2.0000      -0.354607        -9.6493
  80   2.0000      -0.346616        -9.4319
  81   2.0000      -0.346494        -9.4286
  82   2.0000      -0.342160        -9.3107
  83   2.0000      -0.336727        -9.1628
  84   2.0000      -0.332319        -9.0429
  85   2.0000      -0.316011        -8.5991
  86   2.0000      -0.313878        -8.5411
  87   2.0000      -0.300278        -8.1710
  88   2.0000      -0.294570        -8.0156
  89   2.0000      -0.291898        -7.9429
  90   2.0000      -0.288415        -7.8482
  91   2.0000      -0.278519        -7.5789
  92   2.0000      -0.272316        -7.4101
  93   2.0000      -0.263582        -7.1724
  94   2.0000      -0.257662        -7.0113
  95   2.0000      -0.238632        -6.4935
  96   2.0000      -0.220329        -5.9955
  97   2.0000      -0.207082        -5.6350
  98   2.0000      -0.198236        -5.3943
  99   2.0000      -0.191099        -5.2001
 100   2.0000      -0.189177        -5.1478
 101   0.0000      -0.046061        -1.2534
 102   0.0000      -0.031708        -0.8628
 103   0.0000      -0.011329        -0.3083
 104   0.0000       0.004659         0.1268
 105   0.0000       0.011919         0.3243

MULLIKEN ATOMIC CHARGES
-----------------------
   0 C :   -0.313170
   1 C :   -0.010075
   2 O :   -0.382582
   3 P :    0.613599
   4 S :   -0.301182
   5 O :   -0.356789
   6 C :    0.004068
   7 C :   -0.332889
   8 S :   -0.134804
   9 C :   -0.320955
  10 S :   -0.144115
  11 P :    0.608815
  12 S :   -0.294755
  13 O :   -0.355423
  14 C :   -0.011933
  15 C :   -0.290987
  16 O :   -0.384589
  17 C :   -0.053681
  18 C :   -0.277466
  19 H :    0.146370
  20 H :    0.113938
  21 H :    0.105009
  22 H :    0.102691
  23 H :    0.109460
  24 H :    0.111730
  25 H :    0.113503
  26 H :    0.118809
  27 H :    0.131419
  28 H :    0.129232
  29 H :    0.215636
  30 H :    0.179918
  31 H :    0.100093
  32 H :    0.108916
  33 H :    0.122967
  34 H :    0.107790
  35 H :    0.120352
  36 H :    0.154855
  37 H :    0.102582
  38 H :    0.107570
  39 H :    0.127098
  40 H :    0.108974
Sum of atomic charges:    0.0000000

LOEWDIN ATOMIC CHARGES
----------------------
   0 C :   -0.367214
   1 C :   -0.117129
   2 O :   -0.246178
   3 P :    0.565465
   4 S :   -0.287886
   5 O :   -0.233884
   6 C :   -0.109206
   7 C :   -0.370805
   8 S :    0.076702
   9 C :   -0.480385
  10 S :    0.050281
  11 P :    0.566926
  12 S :   -0.287269
  13 O :   -0.238378
  14 C :   -0.114900
  15 C :   -0.360546
  16 O :   -0.246639
  17 C :   -0.122760
  18 C :   -0.358189
  19 H :    0.122198
  20 H :    0.126569
  21 H :    0.128104
  22 H :    0.117118
  23 H :    0.098020
  24 H :    0.115196
  25 H :    0.124262
  26 H :    0.134290
  27 H :    0.130562
  28 H :    0.116297
  29 H :    0.124983
  30 H :    0.134865
  31 H :    0.101462
  32 H :    0.120926
  33 H :    0.125830
  34 H :    0.128454
  35 H :    0.129210
  36 H :    0.108654
  37 H :    0.114879
  38 H :    0.122482
  39 H :    0.127599
  40 H :    0.130032

  Mayer bond orders larger than 0.100000
B(  0-C ,  1-C ) :   1.1679 B(  0-C , 19-H ) :   0.9278 B(  0-C , 20-H ) :   0.9447
B(  0-C , 21-H ) :   0.9385 B(  1-C ,  2-O ) :   0.9129 B(  1-C , 22-H ) :   0.9353
B(  1-C , 23-H ) :   0.9065 B(  2-O ,  3-P ) :   1.0710 B(  3-P ,  4-S ) :   1.6674
B(  3-P ,  5-O ) :   1.1451 B(  3-P ,  8-S ) :   0.9243 B(  4-S ,  8-S ) :   0.1146
B(  5-O ,  6-C ) :   0.8996 B(  6-C ,  7-C ) :   1.1692 B(  6-C , 24-H ) :   0.9266
B(  6-C , 25-H ) :   0.9334 B(  7-C , 26-H ) :   0.9355 B(  7-C , 27-H ) :   0.9429
B(  7-C , 28-H ) :   0.9314 B(  8-S ,  9-C ) :   1.0127 B(  9-C , 10-S ) :   0.9791
B(  9-C , 29-H ) :   0.8469 B(  9-C , 30-H ) :   0.9075 B( 10-S , 11-P ) :   0.9409
B( 10-S , 12-S ) :   0.1159 B( 11-P , 12-S ) :   1.6564 B( 11-P , 13-O ) :   1.1382
B( 11-P , 16-O ) :   1.0900 B( 13-O , 14-C ) :   0.8989 B( 14-C , 15-C ) :   1.1630
B( 14-C , 31-H ) :   0.9118 B( 14-C , 32-H ) :   0.9368 B( 15-C , 33-H ) :   0.9409
B( 15-C , 34-H ) :   0.9396 B( 15-C , 35-H ) :   0.9469 B( 16-O , 17-C ) :   0.8876
B( 17-C , 18-C ) :   1.1662 B( 17-C , 36-H ) :   0.8876 B( 17-C , 37-H ) :   0.9348
B( 18-C , 38-H ) :   0.9480 B( 18-C , 39-H ) :   0.9351 B( 18-C , 40-H ) :   0.9401

Dispersion correction           -0.065050937
FINAL SINGLE POINT ENERGY     -2929.514156115806

DIPOLE MOMENT
-------------

Method             : SCF
Type of density    : Electron Density
Multiplicity       :   1
Irrep              :   0
Energy             : -2929.6341794400368599 Eh
Relativity type    :
Basis              : AO
                                X                 Y                 Z
Electronic contribution:      2.761708648      -6.528752532     -14.849871324
Nuclear contribution   :     -1.677013871       7.952820157      16.150863160
                        -----------------------------------------
Total Dipole Moment    :      1.084694777       1.424067625       1.300991836
                        -----------------------------------------
Magnitude (a.u.)       :      2.212941734
Magnitude (Debye)      :      5.624850873

Rotational constants in cm-1:             0.013589             0.004543             0.004420
Rotational constants in MHz :           407.385203           136.196515           132.517199

                             ****ORCA TERMINATED NORMALLY****
TOTAL RUN TIME: 0 days 0 hours 0 minutes 20 seconds 928 msec
