                         Program Version 6.0.0  -   RELEASE  -
|  1> ! pbe def2-sv(p) def2/J RI DEFGRID1 loosescf d4 GCP(DFT/SV(P)) printgap
|  2> %output
|  3>     printlevel normal
|  4> end
|  5> * xyz 0 1
|  6> C 1.4683019157 -0.6449925344 -2.84950711
|  7> C 2.143572034 0.5602503589 -2.2253060382
|  8> O 2.9627706143 0.1827972293 -1.1095218191
|  9> P 2.4278219442 0.0331110024 0.3722463751
| 10> S 1.2125951272 1.4661308657 0.9592387458
| 11> O 3.8663423084 -0.0105873985 1.0222874857
| 12> C 4.1811969444 -0.6023039624 2.2961807741
| 13> C 3.3614103608 -0.0201641014 3.4298947338
| 14> S 1.6739679669 -1.9446281608 0.6118683186
| 15> C -0.0170264732 -1.5937152335 1.1639382621
| 16> S -1.2733211083 -1.7585267795 -0.1485128484
| 17> P -2.0801053686 0.1913232332 -0.3573232837
| 18> S -1.3205432737 1.4690590438 -1.6443018877
| 19> O -2.1180927634 0.614301341 1.1669644792
| 20> C -2.2493671828 1.9880352583 1.5806656079
| 21> C -3.5993490106 2.5618341208 1.2087870214
| 22> O -3.6134155052 -0.1225895807 -0.6506119799
| 23> C -4.1188854291 -0.2832522068 -1.9837634156
| 24> C -3.6184380888 -1.5637925553 -2.6205984797
| 25> H 2.2065382949 -1.4020770274 -3.0985536057
| 26> H 0.7401854 -1.0758150935 -2.1638202164
| 27> H 0.9478940968 -0.3298896516 -3.7484517603
| 28> H 1.4022200614 1.30040565 -1.9034347419
| 29> H 2.8375448479 1.0297730346 -2.9243500919
| 30> H 4.0306269026 -1.6827794005 2.2211208245
| 31> H 5.2434388128 -0.3855444942 2.4213352474
| 32> H 3.7050257842 -0.4328457794 4.3729479985
| 33> H 3.4621496663 1.0625476847 3.4520288963
| 34> H 2.3080543795 -0.2642730752 3.2973355342
| 35> H -0.0573712197 -0.5792907576 1.5656823453
| 36> H -0.2580916543 -2.3373573199 1.9177411902
| 37> H -2.1059678678 1.9479110181 2.6613252677
| 38> H -1.4355414417 2.5651901739 1.1288108187
| 39> H -4.3940971586 1.9270645323 1.5919119953
| 40> H -3.6935708334 3.5581724359 1.6289942072
| 41> H -3.6888080123 2.6252997617 0.1249111442
| 42> H -5.2023838789 -0.2887422198 -1.8588750245
| 43> H -3.8151254364 0.5856805395 -2.5775641261
| 44> H -4.0788067543 -1.6888610361 -3.5952553131
| 45> H -2.5362262799 -1.5142297445 -2.7429313127
| 46> H -3.8576646742 -2.4179094117 -1.9925671355
| 47> *
| 48>
| 49>                          ****END OF INPUT****

CARTESIAN COORDINATES (ANGSTROEM)
---------------------------------
  C      1.468302   -0.644993   -2.849507
  C      2.143572    0.560250   -2.225306
  O      2.962771    0.182797   -1.109522
  P      2.427822    0.033111    0.372246
  S      1.212595    1.466131    0.959239
  O      3.866342   -0.010587    1.022287
  C      4.181197   -0.602304    2.296181
  C      3.361410   -0.020164    3.429895
  S      1.673968   -1.944628    0.611868
  C     -0.017026   -1.593715    1.163938
  S     -1.273321   -1.758527   -0.148513
  P     -2.080105    0.191323   -0.357323
  S     -1.320543    1.469059   -1.644302
  O     -2.118093    0.614301    1.166964
  C     -2.249367    1.988035    1.580666
  C     -3.599349    2.561834    1.208787
  O     -3.613416   -0.122590   -0.650612
  C     -4.118885   -0.283252   -1.983763
  C     -3.618438   -1.563793   -2.620598
  H      2.206538   -1.402077   -3.098554
  H      0.740185   -1.075815   -2.163820
  H      0.947894   -0.329890   -3.748452
  H      1.402220    1.300406   -1.903435
  H      2.837545    1.029773   -2.924350
  H      4.030627   -1.682779    2.221121
  H      5.243439   -0.385544    2.421335
  H      3.705026   -0.432846    4.372948
  H      3.462150    1.062548    3.452029
  H      2.308054   -0.264273    3.297336
  H     -0.057371   -0.579291    1.565682
  H     -0.258092   -2.337357    1.917741
  H     -2.105968    1.947911    2.661325
  H     -1.435541    2.565190    1.128811
  H     -4.394097    1.927065    1.591912
  H     -3.693571    3.558172    1.628994
  H     -3.688808    2.625300    0.124911
  H     -5.202384   -0.288742   -1.858875
  H     -3.815125    0.585681   -2.577564
  H     -4.078807   -1.688861   -3.595255
  H     -2.536226   -1.514230   -2.742931
  H     -3.857665   -2.417909   -1.992567

 Total Charge           Charge          ....    0
 Multiplicity           Mult            ....    1
 Number of Electrons    NEL             ....  202
 Basis Dimension        Dim             ....  334

ORBITAL ENERGIES
----------------

  NO   OCC          E(Eh)            E(eV)
   0   2.0000     -88.048054     -2395.9094
   1   2.0000     -88.042893     -2395.7689
   2   2.0000     -87.987284     -2394.2557
   3   2.0000     -87.985005     -2394.1937
   4   2.0000     -76.426834     -2079.6799
   5   2.0000     -76.426156     -2079.6614
   6   2.0000     -18.793307      -511.3919
   7   2.0000     -18.790848      -511.3250
   8   2.0000     -18.789685      -511.2933
   9   2.0000     -18.782802      -511.1060
  10   2.0000      -9.958305      -270.9793
  11   2.0000      -9.956587      -270.9325
  12   2.0000      -9.951180      -270.7854
  13   2.0000      -9.949453      -270.7384
  14   2.0000      -9.936600      -270.3886
  15   2.0000      -9.886377      -269.0220
  16   2.0000      -9.885457      -268.9969
  17   2.0000      -9.881695      -268.8946
  18   2.0000      -9.868768      -268.5428
  19   2.0000      -7.692856      -209.3333
  20   2.0000      -7.687714      -209.1933
  21   2.0000      -7.631927      -207.6753
  22   2.0000      -7.629705      -207.6148
  23   2.0000      -6.424320      -174.8146
  24   2.0000      -6.423291      -174.7866
  25   2.0000      -5.720658      -155.6670
  26   2.0000      -5.717124      -155.5709
  27   2.0000      -5.715916      -155.5380
  28   2.0000      -5.712018      -155.4319
  29   2.0000      -5.710192      -155.3822
  30   2.0000      -5.704555      -155.2288
  31   2.0000      -5.660733      -154.0364
  32   2.0000      -5.658571      -153.9775
  33   2.0000      -5.652569      -153.8142
  34   2.0000      -5.652204      -153.8043
  35   2.0000      -5.650429      -153.7560
  36   2.0000      -5.649845      -153.7401
  37   2.0000      -4.646850      -126.4472
  38   2.0000      -4.646149      -126.4281
  39   2.0000      -4.645586      -126.4128
  40   2.0000      -4.645299      -126.4050
  41   2.0000      -4.644782      -126.3909
  42   2.0000      -4.643787      -126.3639
  43   2.0000      -0.987562       -26.8729
  44   2.0000      -0.986191       -26.8356
  45   2.0000      -0.947302       -25.7774
  46   2.0000      -0.940049       -25.5800
  47   2.0000      -0.761536       -20.7224
  48   2.0000      -0.720161       -19.5966
  49   2.0000      -0.709149       -19.2969
  50   2.0000      -0.687783       -18.7155
  51   2.0000      -0.680171       -18.5084
  52   2.0000      -0.672008       -18.2863
  53   2.0000      -0.654053       -17.7977
  54   2.0000      -0.635904       -17.3038
  55   2.0000      -0.601596       -16.3703
  56   2.0000      -0.593852       -16.1595
  57   2.0000      -0.573247       -15.5988
  58   2.0000      -0.569338       -15.4925
  59   2.0000      -0.557740       -15.1769
  60   2.0000      -0.495262       -13.4768
  61   2.0000      -0.490286       -13.3413
  62   2.0000      -0.473866       -12.8946
  63   2.0000      -0.463727       -12.6187
  64   2.0000      -0.457159       -12.4399
  65   2.0000      -0.449024       -12.2186
  66   2.0000      -0.438901       -11.9431
  67   2.0000      -0.430775       -11.7220
  68   2.0000      -0.421154       -11.4602
  69   2.0000      -0.419218       -11.4075
  70   2.0000      -0.411923       -11.2090
  71   2.0000      -0.407317       -11.0836
  72   2.0000      -0.394706       -10.7405
  73   2.0000      -0.388489       -10.5713
  74   2.0000      -0.380945       -10.3660
  75   2.0000      -0.375654       -10.2221
  76   2.0000      -0.365809        -9.9542
  77   2.0000      -0.355931        -9.6854
  78   2.0000      -0.349425        -9.5083
  79   2.0000      -0.348807        -9.4915
  80   2.0000      -0.346276        -9.4227
  81   2.0000      -0.342054        -9.3078
  82   2.0000      -0.338492        -9.2108
  83   2.0000      -0.332058        -9.0358
  84   2.0000      -0.327592        -8.9142
  85   2.0000      -0.314053        -8.5458
  86   2.0000      -0.309980        -8.4350
  87   2.0000      -0.296952        -8.0805
  88   2.0000      -0.295334        -8.0365
  89   2.0000      -0.285646        -7.7728
  90   2.0000      -0.280601        -7.6355
  91   2.0000      -0.273607        -7.4452
  92   2.0000      -0.267079        -7.2676
  93   2.0000      -0.264234        -7.1902
  94   2.0000      -0.257087        -6.9957
  95   2.0000      -0.235932        -6.4200
  96   2.0000      -0.223590        -6.0842
  97   2.0000      -0.217780        -5.9261
  98   2.0000      -0.206326        -5.6144
  99   2.0000      -0.198444        -5.3999
 100   2.0000      -0.185636        -5.0514
 101   0.0000      -0.042442        -1.1549
 102   0.0000      -0.034253        -0.9321
 103   0.0000      -0.030326        -0.8252
 104   0.0000       0.002935         0.0799
 105   0.0000       0.012086         0.3289

MULLIKEN ATOMIC CHARGES
-----------------------
   0 C :   -0.312292
   1 C :   -0.019333
   2 O :   -0.351250
   3 P :    0.603569
   4 S :   -0.323950
   5 O :   -0.356118
   6 C :   -0.003949
   7 C :   -0.310038
   8 S :   -0.113555
   9 C :   -0.340976
  10 S :   -0.104051
  11 P :    0.622366
  12 S :   -0.319526
  13 O :   -0.371438
  14 C :   -0.011117
  15 C :   -0.303641
  16 O :   -0.369794
  17 C :   -0.005451
  18 C :   -0.326272
  19 H :    0.105662
  20 H :    0.131018
  21 H :    0.107635
  22 H :    0.132507
  23 H :    0.099672
  24 H :    0.110404
  25 H :    0.110689
  26 H :    0.110884
  27 H :    0.127612
  28 H :    0.117722
  29 H :    0.208993
  30 H :    0.183547
  31 H :    0.104242
  32 H :    0.129143
  33 H :    0.115938
  34 H :    0.112562
  35 H :    0.123405
  36 H :    0.105438
  37 H :    0.110055
  38 H :    0.116401
  39 H :    0.130447
  40 H :    0.122840
Sum of atomic charges:   -0.0000000

LOEWDIN ATOMIC CHARGES
----------------------
   0 C :   -0.368174
   1 C :   -0.123592
   2 O :   -0.230131
   3 P :    0.567978
   4 S :   -0.295121
   5 O :   -0.231862
   6 C :   -0.116087
   7 C :   -0.367990
   8 S :    0.074428
   9 C :   -0.479667
  10 S :    0.084330
  11 P :    0.574323
  12 S :   -0.303537
  13 O :   -0.235885
  14 C :   -0.117817
  15 C :   -0.365543
  16 O :   -0.242393
  17 C :   -0.123568
  18 C :   -0.370309
  19 H :    0.120994
  20 H :    0.110860
  21 H :    0.128914
  22 H :    0.105656
  23 H :    0.116314
  24 H :    0.106477
  25 H :    0.122302
  26 H :    0.129496
  27 H :    0.130872
  28 H :    0.117327
  29 H :    0.126986
  30 H :    0.137492
  31 H :    0.118984
  32 H :    0.111401
  33 H :    0.126079
  34 H :    0.131028
  35 H :    0.122505
  36 H :    0.119019
  37 H :    0.108005
  38 H :    0.132873
  39 H :    0.120892
  40 H :    0.126142

  Mayer bond orders larger than 0.100000
B(  0-C ,  1-C ) :   1.1697 B(  0-C , 19-H ) :   0.9448 B(  0-C , 20-H ) :   0.9268
B(  0-C , 21-H ) :   0.9391 B(  1-C ,  2-O ) :   0.9050 B(  1-C , 22-H ) :   0.8990
B(  1-C , 23-H ) :   0.9333 B(  2-O ,  3-P ) :   1.1461 B(  3-P ,  4-S ) :   1.6116
B(  3-P ,  5-O ) :   1.1302 B(  3-P ,  8-S ) :   0.9249 B(  4-S ,  8-S ) :   0.1220
B(  5-O ,  6-C ) :   0.9193 B(  6-C ,  7-C ) :   1.1626 B(  6-C , 24-H ) :   0.9228
B(  6-C , 25-H ) :   0.9335 B(  7-C , 26-H ) :   0.9360 B(  7-C , 27-H ) :   0.9432
B(  7-C , 28-H ) :   0.9365 B(  8-S ,  9-C ) :   1.0083 B(  9-C , 10-S ) :   0.9974
B(  9-C , 29-H ) :   0.8448 B(  9-C , 30-H ) :   0.9088 B( 10-S , 11-P ) :   0.9579
B( 10-S , 12-S ) :   0.1040 B( 11-P , 12-S ) :   1.6090 B( 11-P , 13-O ) :   1.1236
B( 11-P , 16-O ) :   1.0926 B( 13-O , 14-C ) :   0.8933 B( 14-C , 15-C ) :   1.1640
B( 14-C , 31-H ) :   0.9355 B( 14-C , 32-H ) :   0.9124 B( 15-C , 33-H ) :   0.9449
B( 15-C , 34-H ) :   0.9388 B( 15-C , 35-H ) :   0.9349 B( 16-O , 17-C ) :   0.9138
B( 17-C , 18-C ) :   1.1644 B( 17-C , 36-H ) :   0.9317 B( 17-C , 37-H ) :   0.9103
B( 18-C , 38-H ) :   0.9386 B( 18-C , 39-H ) :   0.9325 B( 18-C , 40-H ) :   0.9435

Dispersion correction           -0.067406914
FINAL SINGLE POINT ENERGY     -2929.517795296506

DIPOLE MOMENT
-------------

Method             : SCF
Type of density    : Electron Density
Multiplicity       :   1
Irrep              :   0
Energy             : -2929.6361723160011934 Eh
Relativity type    :
Basis              : AO
                                X                 Y                 Z
Electronic contribution:      7.588598530      -2.484985617       0.825037073
Nuclear contribution   :     -8.033417624       1.897787643      -0.208513935
                        -----------------------------------------
Total Dipole Moment    :     -0.444819094      -0.587197974       0.616523137
                        -----------------------------------------
Magnitude (a.u.)       :      0.960607238
Magnitude (Debye)      :      2.441669557

Rotational constants in cm-1:             0.012427             0.005316             0.004894
Rotational constants in MHz :           372.560984           159.372072           146.733318

                             ****ORCA TERMINATED NORMALLY****
TOTAL RUN TIME: 0 days 0 hours 0 minutes 21 seconds 389 msec
