                         Program Version 6.0.0  -   RELEASE  -
|  1> ! r2scan-3c def2/J RI DEFGRID2 scfconv6 printgap
|  2> %output
|  3>     printlevel normal
|  4> end
|  5> * xyz 0 1
|  6> C 5.6916511763 -1.7837466419 0.4502274028
|  7> C 4.4071438177 -1.5955596648 -0.3314687509
|  8> O 3.5616107856 -0.6963673014 0.4147706843
|  9> P 2.3539639663 0.0726257673 -0.2705055786
| 10> S 2.7886012949 0.9878406197 -1.9551193925
| 11> O 1.8348382967 0.979213123 0.916184325
| 12> C 2.240673447 2.3541139492 1.0659049994
| 13> C 3.6987773809 2.4605524669 1.4585241611
| 14> S 0.8360357012 -1.3894300778 -0.3737679642
| 15> C -0.2138466834 -0.5029036504 -1.5510712054
| 16> S -0.9683024433 1.0068650863 -0.8640993837
| 17> P -2.6833824605 0.1387988976 0.0155093533
| 18> S -3.9406911884 1.3524420272 0.8970596251
| 19> O -2.1529758938 -1.0656173633 0.917740196
| 20> C -1.9958004916 -0.9435848958 2.3397877207
| 21> C -0.8888585868 0.0202120003 2.7148898075
| 22> O -3.2280043387 -0.6330886966 -1.261411078
| 23> C -4.6031290238 -1.0604408323 -1.3570221727
| 24> C -4.9279891468 -2.1535746405 -0.3608748846
| 25> H 6.3290504952 -2.4863001141 -0.0764666503
| 26> H 6.2119773937 -0.8356662665 0.5523535985
| 27> H 5.468350371 -2.1711290985 1.4399011162
| 28> H 3.8727627714 -2.5411821761 -0.4553508416
| 29> H 4.5967203545 -1.1587747776 -1.3178562924
| 30> H 2.0491028467 2.8774377865 0.12353313
| 31> H 1.5786550806 2.7408820364 1.841608817
| 32> H 3.8899871583 1.8729922283 2.3524361074
| 33> H 4.3247306479 2.0861296557 0.6491726602
| 34> H 3.9480379642 3.5002362939 1.6458846702
| 35> H -0.9939724142 -1.1854599442 -1.8727088798
| 36> H 0.3988076471 -0.1713818579 -2.3898910227
| 37> H -2.9475690196 -0.6063765606 2.7632238386
| 38> H -1.7756626911 -1.9597473833 2.6688902142
| 39> H 0.0591460339 -0.2928182877 2.2842515101
| 40> H -1.1301207325 1.0175357829 2.3448969338
| 41> H -0.795430475 0.0591628107 3.7953974026
| 42> H -5.2464625562 -0.1894521921 -1.1981228615
| 43> H -4.6956657915 -1.4075794428 -2.3869727071
| 44> H -4.2194694407 -2.9725200604 -0.4538763403
| 45> H -4.8789913188 -1.7569687744 0.6523256972
| 46> H -5.9325116709 -2.5207097078 -0.5465384925
| 47> *
| 48>
| 49>                          ****END OF INPUT****

CARTESIAN COORDINATES (ANGSTROEM)
---------------------------------
  C      5.691651   -1.783747    0.450227
  C      4.407144   -1.595560   -0.331469
  O      3.561611   -0.696367    0.414771
  P      2.353964    0.072626   -0.270506
  S      2.788601    0.987841   -1.955119
  O      1.834838    0.979213    0.916184
  C      2.240673    2.354114    1.065905
  C      3.698777    2.460552    1.458524
  S      0.836036   -1.389430   -0.373768
  C     -0.213847   -0.502904   -1.551071
  S     -0.968302    1.006865   -0.864099
  P     -2.683382    0.138799    0.015509
  S     -3.940691    1.352442    0.897060
  O     -2.152976   -1.065617    0.917740
  C     -1.995800   -0.943585    2.339788
  C     -0.888859    0.020212    2.714890
  O     -3.228004   -0.633089   -1.261411
  C     -4.603129   -1.060441   -1.357022
  C     -4.927989   -2.153575   -0.360875
  H      6.329050   -2.486300   -0.076467
  H      6.211977   -0.835666    0.552354
  H      5.468350   -2.171129    1.439901
  H      3.872763   -2.541182   -0.455351
  H      4.596720   -1.158775   -1.317856
  H      2.049103    2.877438    0.123533
  H      1.578655    2.740882    1.841609
  H      3.889987    1.872992    2.352436
  H      4.324731    2.086130    0.649173
  H      3.948038    3.500236    1.645885
  H     -0.993972   -1.185460   -1.872709
  H      0.398808   -0.171382   -2.389891
  H     -2.947569   -0.606377    2.763224
  H     -1.775663   -1.959747    2.668890
  H      0.059146   -0.292818    2.284252
  H     -1.130121    1.017536    2.344897
  H     -0.795430    0.059163    3.795397
  H     -5.246463   -0.189452   -1.198123
  H     -4.695666   -1.407579   -2.386973
  H     -4.219469   -2.972520   -0.453876
  H     -4.878991   -1.756969    0.652326
  H     -5.932512   -2.520710   -0.546538

 Total Charge           Charge          ....    0
 Multiplicity           Mult            ....    1
 Number of Electrons    NEL             ....  202
 Basis Dimension        Dim             ....  539

ORBITAL ENERGIES
----------------

  NO   OCC          E(Eh)            E(eV)
   0   2.0000     -88.577858     -2410.3261
   1   2.0000     -88.572504     -2410.1804
   2   2.0000     -88.525081     -2408.8899
   3   2.0000     -88.521227     -2408.7851
   4   2.0000     -76.917221     -2093.0240
   5   2.0000     -76.913375     -2092.9193
   6   2.0000     -18.997505      -516.9484
   7   2.0000     -18.993348      -516.8353
   8   2.0000     -18.989849      -516.7401
   9   2.0000     -18.988996      -516.7169
  10   2.0000     -10.106750      -275.0187
  11   2.0000     -10.103100      -274.9193
  12   2.0000     -10.098907      -274.8052
  13   2.0000     -10.098509      -274.7944
  14   2.0000     -10.094373      -274.6819
  15   2.0000     -10.037171      -273.1253
  16   2.0000     -10.030221      -272.9362
  17   2.0000     -10.029957      -272.9290
  18   2.0000     -10.019633      -272.6481
  19   2.0000      -7.872320      -214.2167
  20   2.0000      -7.866516      -214.0588
  21   2.0000      -7.819749      -212.7862
  22   2.0000      -7.815860      -212.6804
  23   2.0000      -6.595924      -179.4842
  24   2.0000      -6.591713      -179.3696
  25   2.0000      -5.819117      -158.3462
  26   2.0000      -5.816174      -158.2661
  27   2.0000      -5.813872      -158.2035
  28   2.0000      -5.810159      -158.1025
  29   2.0000      -5.809494      -158.0844
  30   2.0000      -5.803418      -157.9190
  31   2.0000      -5.767294      -156.9360
  32   2.0000      -5.763525      -156.8335
  33   2.0000      -5.760068      -156.7394
  34   2.0000      -5.759831      -156.7330
  35   2.0000      -5.756251      -156.6355
  36   2.0000      -5.755754      -156.6220
  37   2.0000      -4.741282      -129.0169
  38   2.0000      -4.740845      -129.0050
  39   2.0000      -4.739757      -128.9753
  40   2.0000      -4.737043      -128.9015
  41   2.0000      -4.736716      -128.8926
  42   2.0000      -4.735555      -128.8610
  43   2.0000      -1.054424       -28.6923
  44   2.0000      -1.048316       -28.5261
  45   2.0000      -1.015592       -27.6357
  46   2.0000      -1.009671       -27.4745
  47   2.0000      -0.802045       -21.8248
  48   2.0000      -0.761525       -20.7222
  49   2.0000      -0.748943       -20.3798
  50   2.0000      -0.735288       -20.0082
  51   2.0000      -0.728241       -19.8164
  52   2.0000      -0.710857       -19.3434
  53   2.0000      -0.689895       -18.7730
  54   2.0000      -0.669997       -18.2315
  55   2.0000      -0.633653       -17.2426
  56   2.0000      -0.626642       -17.0518
  57   2.0000      -0.604331       -16.4447
  58   2.0000      -0.603149       -16.4125
  59   2.0000      -0.593463       -16.1490
  60   2.0000      -0.531416       -14.4606
  61   2.0000      -0.517657       -14.0862
  62   2.0000      -0.500099       -13.6084
  63   2.0000      -0.489715       -13.3258
  64   2.0000      -0.479093       -13.0368
  65   2.0000      -0.467033       -12.7086
  66   2.0000      -0.456434       -12.4202
  67   2.0000      -0.455899       -12.4057
  68   2.0000      -0.448345       -12.2001
  69   2.0000      -0.429760       -11.6944
  70   2.0000      -0.426215       -11.5979
  71   2.0000      -0.415638       -11.3101
  72   2.0000      -0.412407       -11.2222
  73   2.0000      -0.409740       -11.1496
  74   2.0000      -0.399700       -10.8764
  75   2.0000      -0.392788       -10.6883
  76   2.0000      -0.381842       -10.3904
  77   2.0000      -0.376486       -10.2447
  78   2.0000      -0.368910       -10.0386
  79   2.0000      -0.365759        -9.9528
  80   2.0000      -0.364308        -9.9133
  81   2.0000      -0.360874        -9.8199
  82   2.0000      -0.358726        -9.7614
  83   2.0000      -0.352773        -9.5994
  84   2.0000      -0.342743        -9.3265
  85   2.0000      -0.334611        -9.1052
  86   2.0000      -0.326380        -8.8813
  87   2.0000      -0.319768        -8.7013
  88   2.0000      -0.308899        -8.4056
  89   2.0000      -0.303903        -8.2696
  90   2.0000      -0.301064        -8.1924
  91   2.0000      -0.293022        -7.9735
  92   2.0000      -0.288371        -7.8470
  93   2.0000      -0.282934        -7.6990
  94   2.0000      -0.271237        -7.3807
  95   2.0000      -0.245327        -6.6757
  96   2.0000      -0.229173        -6.2361
  97   2.0000      -0.225701        -6.1416
  98   2.0000      -0.222034        -6.0418
  99   2.0000      -0.219233        -5.9656
 100   2.0000      -0.215227        -5.8566
 101   0.0000      -0.044120        -1.2006
 102   0.0000      -0.022404        -0.6096
 103   0.0000      -0.013555        -0.3688
 104   0.0000       0.007880         0.2144
 105   0.0000       0.009817         0.2671

MULLIKEN ATOMIC CHARGES
-----------------------
   0 C :   -0.439086
   1 C :   -0.155319
   2 O :   -0.285990
   3 P :    0.674593
   4 S :   -0.483361
   5 O :   -0.266311
   6 C :   -0.146980
   7 C :   -0.443305
   8 S :   -0.120606
   9 C :   -0.257040
  10 S :   -0.111589
  11 P :    0.657928
  12 S :   -0.462708
  13 O :   -0.268289
  14 C :   -0.142283
  15 C :   -0.456014
  16 O :   -0.305901
  17 C :   -0.154859
  18 C :   -0.431825
  19 H :    0.147896
  20 H :    0.155442
  21 H :    0.154276
  22 H :    0.152059
  23 H :    0.170938
  24 H :    0.174271
  25 H :    0.155411
  26 H :    0.155759
  27 H :    0.167412
  28 H :    0.148693
  29 H :    0.209604
  30 H :    0.216805
  31 H :    0.163208
  32 H :    0.147020
  33 H :    0.177942
  34 H :    0.167723
  35 H :    0.143059
  36 H :    0.173946
  37 H :    0.148921
  38 H :    0.153743
  39 H :    0.166985
  40 H :    0.147829
Sum of atomic charges:   -0.0000000

LOEWDIN ATOMIC CHARGES
----------------------
   0 C :   -0.385198
   1 C :    0.020604
   2 O :   -0.663344
   3 P :    0.371325
   4 S :   -0.133168
   5 O :   -0.674813
   6 C :    0.021771
   7 C :   -0.399079
   8 S :    0.167893
   9 C :   -0.410022
  10 S :    0.188530
  11 P :    0.370927
  12 S :   -0.110628
  13 O :   -0.676234
  14 C :    0.016125
  15 C :   -0.408514
  16 O :   -0.693169
  17 C :    0.023744
  18 C :   -0.399646
  19 H :    0.160525
  20 H :    0.160416
  21 H :    0.160290
  22 H :    0.172101
  23 H :    0.180894
  24 H :    0.181909
  25 H :    0.181986
  26 H :    0.160577
  27 H :    0.164861
  28 H :    0.160300
  29 H :    0.195425
  30 H :    0.194898
  31 H :    0.178517
  32 H :    0.179721
  33 H :    0.171496
  34 H :    0.166161
  35 H :    0.157350
  36 H :    0.180799
  37 H :    0.179598
  38 H :    0.160584
  39 H :    0.164790
  40 H :    0.159699

  Mayer bond orders larger than 0.100000
B(  0-C ,  1-C ) :   0.9578 B(  0-C , 19-H ) :   0.9642 B(  0-C , 20-H ) :   0.9709
B(  0-C , 21-H ) :   0.9715 B(  1-C ,  2-O ) :   0.7783 B(  1-C , 22-H ) :   0.9461
B(  1-C , 23-H ) :   0.9513 B(  2-O ,  3-P ) :   1.0914 B(  3-P ,  4-S ) :   1.7442
B(  3-P ,  5-O ) :   1.1593 B(  3-P ,  8-S ) :   1.0768 B(  5-O ,  6-C ) :   0.7853
B(  6-C ,  7-C ) :   0.9235 B(  6-C , 24-H ) :   0.9632 B(  6-C , 25-H ) :   0.9610
B(  7-C , 26-H ) :   0.9718 B(  7-C , 27-H ) :   0.9599 B(  7-C , 28-H ) :   0.9621
B(  8-S ,  9-C ) :   0.9245 B(  9-C , 10-S ) :   0.9109 B(  9-C , 29-H ) :   0.9115
B(  9-C , 30-H ) :   0.9094 B( 10-S , 11-P ) :   1.0866 B( 11-P , 12-S ) :   1.8079
B( 11-P , 13-O ) :   1.0327 B( 11-P , 16-O ) :   1.1272 B( 13-O , 14-C ) :   0.7929
B( 14-C , 15-C ) :   0.9317 B( 14-C , 31-H ) :   0.9583 B( 14-C , 32-H ) :   0.9604
B( 15-C , 33-H ) :   0.9583 B( 15-C , 34-H ) :   0.9607 B( 15-C , 35-H ) :   0.9613
B( 16-O , 17-C ) :   0.8117 B( 17-C , 18-C ) :   0.9239 B( 17-C , 36-H ) :   0.9666
B( 17-C , 37-H ) :   0.9621 B( 18-C , 38-H ) :   0.9702 B( 18-C , 39-H ) :   0.9603
B( 18-C , 40-H ) :   0.9610

Dispersion correction           -0.021210466
FINAL SINGLE POINT ENERGY     -2932.464893180459

DIPOLE MOMENT
-------------

Method             : SCF
Type of density    : Electron Density
Multiplicity       :   1
Irrep              :   0
Energy             : -2932.4902228718688093 Eh
Relativity type    :
Basis              : AO
                                X                 Y                 Z
Electronic contribution:     -9.098055875       6.527017397     -11.372305210
Nuclear contribution   :      9.818043264      -7.867325800      11.957350126
                        -----------------------------------------
Total Dipole Moment    :      0.719987389      -1.340308403       0.585044916
                        -----------------------------------------
Magnitude (a.u.)       :      1.630057057
Magnitude (Debye)      :      4.143275768

Rotational constants in cm-1:             0.014546             0.004218             0.004062
Rotational constants in MHz :           436.069392           126.462852           121.767873

                             ****ORCA TERMINATED NORMALLY****
TOTAL RUN TIME: 0 days 0 hours 1 minutes 19 seconds 227 msec
