                         Program Version 6.0.0  -   RELEASE  -
|  1> ! r2scan-3c def2/J RI DEFGRID2 scfconv6 printgap
|  2> %output
|  3>     printlevel normal
|  4> end
|  5> %cpcm
|  6>     smd true
|  7>     smdsolvent "water"
|  8> end
|  9> * xyz 0 1
| 10> C 5.6916511763 -1.7837466419 0.4502274028
| 11> C 4.4071438177 -1.5955596648 -0.3314687509
| 12> O 3.5616107856 -0.6963673014 0.4147706843
| 13> P 2.3539639663 0.0726257673 -0.2705055786
| 14> S 2.7886012949 0.9878406197 -1.9551193925
| 15> O 1.8348382967 0.979213123 0.916184325
| 16> C 2.240673447 2.3541139492 1.0659049994
| 17> C 3.6987773809 2.4605524669 1.4585241611
| 18> S 0.8360357012 -1.3894300778 -0.3737679642
| 19> C -0.2138466834 -0.5029036504 -1.5510712054
| 20> S -0.9683024433 1.0068650863 -0.8640993837
| 21> P -2.6833824605 0.1387988976 0.0155093533
| 22> S -3.9406911884 1.3524420272 0.8970596251
| 23> O -2.1529758938 -1.0656173633 0.917740196
| 24> C -1.9958004916 -0.9435848958 2.3397877207
| 25> C -0.8888585868 0.0202120003 2.7148898075
| 26> O -3.2280043387 -0.6330886966 -1.261411078
| 27> C -4.6031290238 -1.0604408323 -1.3570221727
| 28> C -4.9279891468 -2.1535746405 -0.3608748846
| 29> H 6.3290504952 -2.4863001141 -0.0764666503
| 30> H 6.2119773937 -0.8356662665 0.5523535985
| 31> H 5.468350371 -2.1711290985 1.4399011162
| 32> H 3.8727627714 -2.5411821761 -0.4553508416
| 33> H 4.5967203545 -1.1587747776 -1.3178562924
| 34> H 2.0491028467 2.8774377865 0.12353313
| 35> H 1.5786550806 2.7408820364 1.841608817
| 36> H 3.8899871583 1.8729922283 2.3524361074
| 37> H 4.3247306479 2.0861296557 0.6491726602
| 38> H 3.9480379642 3.5002362939 1.6458846702
| 39> H -0.9939724142 -1.1854599442 -1.8727088798
| 40> H 0.3988076471 -0.1713818579 -2.3898910227
| 41> H -2.9475690196 -0.6063765606 2.7632238386
| 42> H -1.7756626911 -1.9597473833 2.6688902142
| 43> H 0.0591460339 -0.2928182877 2.2842515101
| 44> H -1.1301207325 1.0175357829 2.3448969338
| 45> H -0.795430475 0.0591628107 3.7953974026
| 46> H -5.2464625562 -0.1894521921 -1.1981228615
| 47> H -4.6956657915 -1.4075794428 -2.3869727071
| 48> H -4.2194694407 -2.9725200604 -0.4538763403
| 49> H -4.8789913188 -1.7569687744 0.6523256972
| 50> H -5.9325116709 -2.5207097078 -0.5465384925
| 51> *
| 52>
| 53>                          ****END OF INPUT****

CARTESIAN COORDINATES (ANGSTROEM)
---------------------------------
  C      5.691651   -1.783747    0.450227
  C      4.407144   -1.595560   -0.331469
  O      3.561611   -0.696367    0.414771
  P      2.353964    0.072626   -0.270506
  S      2.788601    0.987841   -1.955119
  O      1.834838    0.979213    0.916184
  C      2.240673    2.354114    1.065905
  C      3.698777    2.460552    1.458524
  S      0.836036   -1.389430   -0.373768
  C     -0.213847   -0.502904   -1.551071
  S     -0.968302    1.006865   -0.864099
  P     -2.683382    0.138799    0.015509
  S     -3.940691    1.352442    0.897060
  O     -2.152976   -1.065617    0.917740
  C     -1.995800   -0.943585    2.339788
  C     -0.888859    0.020212    2.714890
  O     -3.228004   -0.633089   -1.261411
  C     -4.603129   -1.060441   -1.357022
  C     -4.927989   -2.153575   -0.360875
  H      6.329050   -2.486300   -0.076467
  H      6.211977   -0.835666    0.552354
  H      5.468350   -2.171129    1.439901
  H      3.872763   -2.541182   -0.455351
  H      4.596720   -1.158775   -1.317856
  H      2.049103    2.877438    0.123533
  H      1.578655    2.740882    1.841609
  H      3.889987    1.872992    2.352436
  H      4.324731    2.086130    0.649173
  H      3.948038    3.500236    1.645885
  H     -0.993972   -1.185460   -1.872709
  H      0.398808   -0.171382   -2.389891
  H     -2.947569   -0.606377    2.763224
  H     -1.775663   -1.959747    2.668890
  H      0.059146   -0.292818    2.284252
  H     -1.130121    1.017536    2.344897
  H     -0.795430    0.059163    3.795397
  H     -5.246463   -0.189452   -1.198123
  H     -4.695666   -1.407579   -2.386973
  H     -4.219469   -2.972520   -0.453876
  H     -4.878991   -1.756969    0.652326
  H     -5.932512   -2.520710   -0.546538

 Total Charge           Charge          ....    0
 Multiplicity           Mult            ....    1
 Number of Electrons    NEL             ....  202
 Basis Dimension        Dim             ....  539

ORBITAL ENERGIES
----------------

  NO   OCC          E(Eh)            E(eV)
   0   2.0000     -88.580331     -2410.3934
   1   2.0000     -88.578737     -2410.3500
   2   2.0000     -88.530967     -2409.0501
   3   2.0000     -88.530391     -2409.0344
   4   2.0000     -76.920201     -2093.1051
   5   2.0000     -76.919967     -2093.0987
   6   2.0000     -18.997195      -516.9400
   7   2.0000     -18.994780      -516.8742
   8   2.0000     -18.992554      -516.8137
   9   2.0000     -18.991977      -516.7980
  10   2.0000     -10.106305      -275.0065
  11   2.0000     -10.090964      -274.5891
  12   2.0000     -10.090085      -274.5652
  13   2.0000     -10.089563      -274.5510
  14   2.0000     -10.088260      -274.5155
  15   2.0000     -10.019990      -272.6578
  16   2.0000     -10.018977      -272.6302
  17   2.0000     -10.018667      -272.6218
  18   2.0000     -10.015606      -272.5385
  19   2.0000      -7.874751      -214.2829
  20   2.0000      -7.872878      -214.2319
  21   2.0000      -7.825945      -212.9548
  22   2.0000      -7.825346      -212.9385
  23   2.0000      -6.598952      -179.5666
  24   2.0000      -6.598344      -179.5501
  25   2.0000      -5.821547      -158.4123
  26   2.0000      -5.820157      -158.3745
  27   2.0000      -5.818608      -158.3324
  28   2.0000      -5.816447      -158.2736
  29   2.0000      -5.811937      -158.1509
  30   2.0000      -5.809922      -158.0960
  31   2.0000      -5.773519      -157.1054
  32   2.0000      -5.772829      -157.0867
  33   2.0000      -5.766308      -156.9092
  34   2.0000      -5.765893      -156.8979
  35   2.0000      -5.765646      -156.8912
  36   2.0000      -5.765456      -156.8860
  37   2.0000      -4.744270      -129.0981
  38   2.0000      -4.743873      -129.0873
  39   2.0000      -4.743609      -129.0802
  40   2.0000      -4.743328      -129.0725
  41   2.0000      -4.742852      -129.0596
  42   2.0000      -4.742306      -129.0447
  43   2.0000      -1.054730       -28.7007
  44   2.0000      -1.050776       -28.5931
  45   2.0000      -1.015253       -27.6265
  46   2.0000      -1.011551       -27.5257
  47   2.0000      -0.803947       -21.8765
  48   2.0000      -0.757991       -20.6260
  49   2.0000      -0.742962       -20.2170
  50   2.0000      -0.724943       -19.7267
  51   2.0000      -0.722310       -19.6551
  52   2.0000      -0.710205       -19.3257
  53   2.0000      -0.693555       -18.8726
  54   2.0000      -0.675848       -18.3908
  55   2.0000      -0.630757       -17.1638
  56   2.0000      -0.623478       -16.9657
  57   2.0000      -0.599063       -16.3013
  58   2.0000      -0.594853       -16.1868
  59   2.0000      -0.591361       -16.0918
  60   2.0000      -0.526478       -14.3262
  61   2.0000      -0.514825       -14.0091
  62   2.0000      -0.496510       -13.5107
  63   2.0000      -0.487633       -13.2692
  64   2.0000      -0.477753       -13.0003
  65   2.0000      -0.461764       -12.5652
  66   2.0000      -0.454927       -12.3792
  67   2.0000      -0.447793       -12.1851
  68   2.0000      -0.444666       -12.1000
  69   2.0000      -0.428088       -11.6489
  70   2.0000      -0.423581       -11.5262
  71   2.0000      -0.410445       -11.1688
  72   2.0000      -0.410217       -11.1626
  73   2.0000      -0.406234       -11.0542
  74   2.0000      -0.397047       -10.8042
  75   2.0000      -0.386938       -10.5291
  76   2.0000      -0.382067       -10.3966
  77   2.0000      -0.364970        -9.9313
  78   2.0000      -0.363423        -9.8892
  79   2.0000      -0.362270        -9.8579
  80   2.0000      -0.353754        -9.6261
  81   2.0000      -0.352953        -9.6043
  82   2.0000      -0.350123        -9.5273
  83   2.0000      -0.347129        -9.4459
  84   2.0000      -0.341098        -9.2818
  85   2.0000      -0.331091        -9.0095
  86   2.0000      -0.323477        -8.8022
  87   2.0000      -0.313866        -8.5407
  88   2.0000      -0.305779        -8.3207
  89   2.0000      -0.302140        -8.2216
  90   2.0000      -0.299114        -8.1393
  91   2.0000      -0.291132        -7.9221
  92   2.0000      -0.287209        -7.8153
  93   2.0000      -0.280705        -7.6384
  94   2.0000      -0.272171        -7.4062
  95   2.0000      -0.249087        -6.7780
  96   2.0000      -0.236824        -6.4443
  97   2.0000      -0.232583        -6.3289
  98   2.0000      -0.231539        -6.3005
  99   2.0000      -0.227055        -6.1785
 100   2.0000      -0.222344        -6.0503
 101   0.0000      -0.047868        -1.3026
 102   0.0000      -0.029481        -0.8022
 103   0.0000      -0.018347        -0.4993
 104   0.0000       0.003424         0.0932
 105   0.0000       0.007099         0.1932

MULLIKEN ATOMIC CHARGES
-----------------------
   0 C :   -0.482582
   1 C :   -0.145433
   2 O :   -0.312097
   3 P :    0.705343
   4 S :   -0.531474
   5 O :   -0.290932
   6 C :   -0.143163
   7 C :   -0.484441
   8 S :   -0.121279
   9 C :   -0.264695
  10 S :   -0.146967
  11 P :    0.685501
  12 S :   -0.516813
  13 O :   -0.283608
  14 C :   -0.142429
  15 C :   -0.486824
  16 O :   -0.327246
  17 C :   -0.146102
  18 C :   -0.474366
  19 H :    0.169947
  20 H :    0.166439
  21 H :    0.166377
  22 H :    0.172112
  23 H :    0.172321
  24 H :    0.176806
  25 H :    0.179589
  26 H :    0.170490
  27 H :    0.168139
  28 H :    0.172757
  29 H :    0.241865
  30 H :    0.232504
  31 H :    0.171520
  32 H :    0.175673
  33 H :    0.174723
  34 H :    0.166356
  35 H :    0.170612
  36 H :    0.176302
  37 H :    0.175487
  38 H :    0.169022
  39 H :    0.168213
  40 H :    0.172349
Sum of atomic charges:   -0.0000000

LOEWDIN ATOMIC CHARGES
----------------------
   0 C :   -0.388977
   1 C :    0.025763
   2 O :   -0.674923
   3 P :    0.375871
   4 S :   -0.163415
   5 O :   -0.687295
   6 C :    0.024762
   7 C :   -0.402167
   8 S :    0.170302
   9 C :   -0.402887
  10 S :    0.167310
  11 P :    0.374371
  12 S :   -0.147568
  13 O :   -0.681319
  14 C :    0.021601
  15 C :   -0.411451
  16 O :   -0.699994
  17 C :    0.028694
  18 C :   -0.402709
  19 H :    0.169188
  20 H :    0.162754
  21 H :    0.163547
  22 H :    0.180206
  23 H :    0.181940
  24 H :    0.182372
  25 H :    0.191411
  26 H :    0.164392
  27 H :    0.162884
  28 H :    0.169178
  29 H :    0.206695
  30 H :    0.199805
  31 H :    0.181637
  32 H :    0.191101
  33 H :    0.168930
  34 H :    0.162623
  35 H :    0.167150
  36 H :    0.181291
  37 H :    0.190891
  38 H :    0.164414
  39 H :    0.162717
  40 H :    0.168901

  Mayer bond orders larger than 0.100000
B(  0-C ,  1-C ) :   0.9529 B(  0-C , 19-H ) :   0.9582 B(  0-C , 20-H ) :   0.9688
B(  0-C , 21-H ) :   0.9688 B(  1-C ,  2-O ) :   0.7714 B(  1-C , 22-H ) :   0.9372
B(  1-C , 23-H ) :   0.9479 B(  2-O ,  3-P ) :   1.0992 B(  3-P ,  4-S ) :   1.7013
B(  3-P ,  5-O ) :   1.1646 B(  3-P ,  8-S ) :   1.0921 B(  5-O ,  6-C ) :   0.7732
B(  6-C ,  7-C ) :   0.9142 B(  6-C , 24-H ) :   0.9592 B(  6-C , 25-H ) :   0.9514
B(  7-C , 26-H ) :   0.9706 B(  7-C , 27-H ) :   0.9591 B(  7-C , 28-H ) :   0.9562
B(  8-S ,  9-C ) :   0.9220 B(  9-C , 10-S ) :   0.9045 B(  9-C , 29-H ) :   0.9001
B(  9-C , 30-H ) :   0.9041 B( 10-S , 11-P ) :   1.0975 B( 11-P , 12-S ) :   1.7731
B( 11-P , 13-O ) :   1.0406 B( 11-P , 16-O ) :   1.1366 B( 13-O , 14-C ) :   0.7811
B( 14-C , 15-C ) :   0.9183 B( 14-C , 31-H ) :   0.9569 B( 14-C , 32-H ) :   0.9510
B( 15-C , 33-H ) :   0.9585 B( 15-C , 34-H ) :   0.9630 B( 15-C , 35-H ) :   0.9562
B( 16-O , 17-C ) :   0.8003 B( 17-C , 18-C ) :   0.9126 B( 17-C , 36-H ) :   0.9629
B( 17-C , 37-H ) :   0.9515 B( 18-C , 38-H ) :   0.9692 B( 18-C , 39-H ) :   0.9594
B( 18-C , 40-H ) :   0.9550

Dispersion correction           -0.021210466
FINAL SINGLE POINT ENERGY     -2932.473293353637

DIPOLE MOMENT
-------------

Method             : SCF
Type of density    : Electron Density
Multiplicity       :   1
Irrep              :   0
Energy             : -2932.4986230450467701 Eh
Relativity type    :
Basis              : AO
                                X                 Y                 Z
Electronic contribution:     -8.993565698       5.936171082     -11.228022835
Nuclear contribution   :      9.818043264      -7.867325800      11.957350126
                        -----------------------------------------
Total Dipole Moment    :      0.824477566      -1.931154718       0.729327292
                        -----------------------------------------
Magnitude (a.u.)       :      2.222845046
Magnitude (Debye)      :      5.650023093

Rotational constants in cm-1:             0.014546             0.004218             0.004062
Rotational constants in MHz :           436.069392           126.462852           121.767873

                             ****ORCA TERMINATED NORMALLY****
TOTAL RUN TIME: 0 days 0 hours 1 minutes 53 seconds 768 msec
