                         Program Version 6.0.0  -   RELEASE  -
|  1> ! r2scan-3c def2/J RI DEFGRID2 scfconv6 printgap
|  2> %output
|  3>     printlevel normal
|  4> end
|  5> * xyz 0 1
|  6> C -2.9038221737 -0.009329569 -0.0011694488
|  7> C -1.4049636325 0.0058231267 0.0020533231
|  8> C -0.692426678 1.1957866842 0.0011352154
|  9> C 0.6924376773 1.1957266275 -0.0007557707
| 10> C 1.4049628085 0.0057431183 -0.0020486066
| 11> C 0.6903484134 -1.188021948 -0.0007410559
| 12> C -0.6903695403 -1.1879643729 0.0012460099
| 13> C 2.9038325553 -0.009299782 0.0003737919
| 14> H -3.2792711453 -0.5883882978 0.8408213874
| 15> H -3.3022466518 0.9996549804 0.0626723642
| 16> H -3.2737514276 -0.4723353074 -0.9150682114
| 17> H -1.2241325648 2.1369274549 0.0022309888
| 18> H 1.2242310789 2.1368262115 -0.0012350028
| 19> H 1.2267367271 -2.1264109832 -0.0015957338
| 20> H -1.2268662818 -2.1262938665 0.0018770809
| 21> H 3.3021695271 0.9990649216 -0.0738341018
| 22> H 3.2743256488 -0.4628488135 0.9187828361
| 23> H 3.2788118832 -0.5970592026 -0.8357653359
| 24> *
| 25>
| 26>                          ****END OF INPUT****

CARTESIAN COORDINATES (ANGSTROEM)
---------------------------------
  C     -2.903822   -0.009330   -0.001169
  C     -1.404964    0.005823    0.002053
  C     -0.692427    1.195787    0.001135
  C      0.692438    1.195727   -0.000756
  C      1.404963    0.005743   -0.002049
  C      0.690348   -1.188022   -0.000741
  C     -0.690370   -1.187964    0.001246
  C      2.903833   -0.009300    0.000374
  H     -3.279271   -0.588388    0.840821
  H     -3.302247    0.999655    0.062672
  H     -3.273751   -0.472335   -0.915068
  H     -1.224133    2.136927    0.002231
  H      1.224231    2.136826   -0.001235
  H      1.226737   -2.126411   -0.001596
  H     -1.226866   -2.126294    0.001877
  H      3.302170    0.999065   -0.073834
  H      3.274326   -0.462849    0.918783
  H      3.278812   -0.597059   -0.835765

 Total Charge           Charge          ....    0
 Multiplicity           Mult            ....    1
 Number of Electrons    NEL             ....   58
 Basis Dimension        Dim             ....  202

ORBITAL ENERGIES
----------------

  NO   OCC          E(Eh)            E(eV)
   0   2.0000     -10.036228      -273.0997
   1   2.0000     -10.036221      -273.0995
   2   2.0000     -10.026659      -272.8393
   3   2.0000     -10.026177      -272.8262
   4   2.0000     -10.026081      -272.8235
   5   2.0000     -10.025618      -272.8109
   6   2.0000     -10.024449      -272.7791
   7   2.0000     -10.024442      -272.7789
   8   2.0000      -0.826142       -22.4805
   9   2.0000      -0.753730       -20.5100
  10   2.0000      -0.709890       -19.3171
  11   2.0000      -0.686391       -18.6777
  12   2.0000      -0.620480       -16.8841
  13   2.0000      -0.573777       -15.6133
  14   2.0000      -0.539651       -14.6847
  15   2.0000      -0.459071       -12.4920
  16   2.0000      -0.438426       -11.9302
  17   2.0000      -0.416301       -11.3281
  18   2.0000      -0.394522       -10.7355
  19   2.0000      -0.385099       -10.4791
  20   2.0000      -0.383057       -10.4235
  21   2.0000      -0.368031       -10.0146
  22   2.0000      -0.362053        -9.8520
  23   2.0000      -0.339458        -9.2371
  24   2.0000      -0.317208        -8.6317
  25   2.0000      -0.304740        -8.2924
  26   2.0000      -0.299738        -8.1563
  27   2.0000      -0.231511        -6.2997
  28   2.0000      -0.212324        -5.7776
  29   0.0000      -0.027852        -0.7579
  30   0.0000      -0.020329        -0.5532
  31   0.0000       0.078880         2.1464
  32   0.0000       0.096756         2.6329
  33   0.0000       0.113365         3.0848

MULLIKEN ATOMIC CHARGES
-----------------------
   0 C :   -0.537853
   1 C :    0.208521
   2 C :   -0.226071
   3 C :   -0.226054
   4 C :    0.208680
   5 C :   -0.200774
   6 C :   -0.200615
   7 C :   -0.537815
   8 H :    0.157601
   9 H :    0.149382
  10 H :    0.161382
  11 H :    0.143781
  12 H :    0.143781
  13 H :    0.143849
  14 H :    0.143842
  15 H :    0.149391
  16 H :    0.161635
  17 H :    0.157335
Sum of atomic charges:   -0.0000000

LOEWDIN ATOMIC CHARGES
----------------------
   0 C :   -0.391197
   1 C :   -0.105908
   2 C :   -0.164150
   3 C :   -0.164145
   4 C :   -0.105904
   5 C :   -0.158691
   6 C :   -0.158680
   7 C :   -0.391198
   8 H :    0.163126
   9 H :    0.158224
  10 H :    0.163836
  11 H :    0.166768
  12 H :    0.166770
  13 H :    0.167976
  14 H :    0.167981
  15 H :    0.158246
  16 H :    0.163868
  17 H :    0.163078

  Mayer bond orders larger than 0.100000
B(  0-C ,  1-C ) :   0.7872 B(  0-C ,  8-H ) :   0.9793 B(  0-C ,  9-H ) :   0.9964
B(  0-C , 10-H ) :   0.9762 B(  1-C ,  2-C ) :   1.4370 B(  1-C ,  6-C ) :   1.3859
B(  2-C ,  3-C ) :   1.4631 B(  2-C , 11-H ) :   0.9405 B(  3-C ,  4-C ) :   1.4369
B(  3-C , 12-H ) :   0.9406 B(  4-C ,  5-C ) :   1.3859 B(  4-C ,  7-C ) :   0.7871
B(  5-C ,  6-C ) :   1.4829 B(  5-C , 13-H ) :   0.9507 B(  6-C , 14-H ) :   0.9508
B(  7-C , 15-H ) :   0.9963 B(  7-C , 16-H ) :   0.9759 B(  7-C , 17-H ) :   0.9796

Dispersion correction           -0.005577007
FINAL SINGLE POINT ENERGY      -310.783336760791

DIPOLE MOMENT
-------------

Method             : SCF
Type of density    : Electron Density
Multiplicity       :   1
Irrep              :   0
Energy             :  -310.7836347242133570 Eh
Relativity type    :
Basis              : AO
                                X                 Y                 Z
Electronic contribution:     -0.000005304       0.047957975       0.001401701
Nuclear contribution   :      0.000006374      -0.094626305      -0.001044864
                        -----------------------------------------
Total Dipole Moment    :      0.000001070      -0.046668331       0.000356838
                        -----------------------------------------
Magnitude (a.u.)       :      0.046669695
Magnitude (Debye)      :      0.118624937

Rotational constants in cm-1:             0.181543             0.048527             0.038842
Rotational constants in MHz :          5442.510463          1454.792613          1164.456775

                             ****ORCA TERMINATED NORMALLY****
TOTAL RUN TIME: 0 days 0 hours 0 minutes 22 seconds 574 msec
