                         Program Version 6.0.0  -   RELEASE  -
|  1> ! r2scan-3c def2/J RI DEFGRID2 scfconv6 printgap
|  2> %output
|  3>     printlevel normal
|  4> end
|  5> %cpcm
|  6>     smd true
|  7>     smdsolvent "water"
|  8> end
|  9> * xyz 0 1
| 10> C -2.9038221737 -0.009329569 -0.0011694488
| 11> C -1.4049636325 0.0058231267 0.0020533231
| 12> C -0.692426678 1.1957866842 0.0011352154
| 13> C 0.6924376773 1.1957266275 -0.0007557707
| 14> C 1.4049628085 0.0057431183 -0.0020486066
| 15> C 0.6903484134 -1.188021948 -0.0007410559
| 16> C -0.6903695403 -1.1879643729 0.0012460099
| 17> C 2.9038325553 -0.009299782 0.0003737919
| 18> H -3.2792711453 -0.5883882978 0.8408213874
| 19> H -3.3022466518 0.9996549804 0.0626723642
| 20> H -3.2737514276 -0.4723353074 -0.9150682114
| 21> H -1.2241325648 2.1369274549 0.0022309888
| 22> H 1.2242310789 2.1368262115 -0.0012350028
| 23> H 1.2267367271 -2.1264109832 -0.0015957338
| 24> H -1.2268662818 -2.1262938665 0.0018770809
| 25> H 3.3021695271 0.9990649216 -0.0738341018
| 26> H 3.2743256488 -0.4628488135 0.9187828361
| 27> H 3.2788118832 -0.5970592026 -0.8357653359
| 28> *
| 29>
| 30>                          ****END OF INPUT****

CARTESIAN COORDINATES (ANGSTROEM)
---------------------------------
  C     -2.903822   -0.009330   -0.001169
  C     -1.404964    0.005823    0.002053
  C     -0.692427    1.195787    0.001135
  C      0.692438    1.195727   -0.000756
  C      1.404963    0.005743   -0.002049
  C      0.690348   -1.188022   -0.000741
  C     -0.690370   -1.187964    0.001246
  C      2.903833   -0.009300    0.000374
  H     -3.279271   -0.588388    0.840821
  H     -3.302247    0.999655    0.062672
  H     -3.273751   -0.472335   -0.915068
  H     -1.224133    2.136927    0.002231
  H      1.224231    2.136826   -0.001235
  H      1.226737   -2.126411   -0.001596
  H     -1.226866   -2.126294    0.001877
  H      3.302170    0.999065   -0.073834
  H      3.274326   -0.462849    0.918783
  H      3.278812   -0.597059   -0.835765

 Total Charge           Charge          ....    0
 Multiplicity           Mult            ....    1
 Number of Electrons    NEL             ....   58
 Basis Dimension        Dim             ....  202

ORBITAL ENERGIES
----------------

  NO   OCC          E(Eh)            E(eV)
   0   2.0000     -10.036886      -273.1175
   1   2.0000     -10.036879      -273.1174
   2   2.0000     -10.026087      -272.8237
   3   2.0000     -10.025605      -272.8106
   4   2.0000     -10.025454      -272.8065
   5   2.0000     -10.024990      -272.7939
   6   2.0000     -10.016735      -272.5692
   7   2.0000     -10.016728      -272.5690
   8   2.0000      -0.827519       -22.5179
   9   2.0000      -0.751788       -20.4572
  10   2.0000      -0.710365       -19.3300
  11   2.0000      -0.681481       -18.5440
  12   2.0000      -0.616390       -16.7728
  13   2.0000      -0.572349       -15.5744
  14   2.0000      -0.537929       -14.6378
  15   2.0000      -0.455841       -12.4041
  16   2.0000      -0.436183       -11.8691
  17   2.0000      -0.412125       -11.2145
  18   2.0000      -0.391162       -10.6441
  19   2.0000      -0.380668       -10.3585
  20   2.0000      -0.378916       -10.3108
  21   2.0000      -0.360082        -9.7983
  22   2.0000      -0.358632        -9.7589
  23   2.0000      -0.332911        -9.0590
  24   2.0000      -0.318073        -8.6552
  25   2.0000      -0.301771        -8.2116
  26   2.0000      -0.296483        -8.0677
  27   2.0000      -0.235693        -6.4135
  28   2.0000      -0.214365        -5.8332
  29   0.0000      -0.030593        -0.8325
  30   0.0000      -0.022252        -0.6055
  31   0.0000       0.087094         2.3700
  32   0.0000       0.106301         2.8926
  33   0.0000       0.113989         3.1018

MULLIKEN ATOMIC CHARGES
-----------------------
   0 C :   -0.557418
   1 C :    0.176295
   2 C :   -0.256496
   3 C :   -0.256453
   4 C :    0.176417
   5 C :   -0.230089
   6 C :   -0.229873
   7 C :   -0.557409
   8 H :    0.172973
   9 H :    0.169164
  10 H :    0.176139
  11 H :    0.175231
  12 H :    0.175224
  13 H :    0.174006
  14 H :    0.173995
  15 H :    0.169170
  16 H :    0.176359
  17 H :    0.172764
Sum of atomic charges:   -0.0000000

LOEWDIN ATOMIC CHARGES
----------------------
   0 C :   -0.396387
   1 C :   -0.115583
   2 C :   -0.177156
   3 C :   -0.177148
   4 C :   -0.115581
   5 C :   -0.169482
   6 C :   -0.169468
   7 C :   -0.396392
   8 H :    0.168907
   9 H :    0.164154
  10 H :    0.169532
  11 H :    0.177507
  12 H :    0.177507
  13 H :    0.178493
  14 H :    0.178495
  15 H :    0.164180
  16 H :    0.169561
  17 H :    0.168862

  Mayer bond orders larger than 0.100000
B(  0-C ,  1-C ) :   0.8023 B(  0-C ,  8-H ) :   0.9722 B(  0-C ,  9-H ) :   0.9913
B(  0-C , 10-H ) :   0.9692 B(  1-C ,  2-C ) :   1.3997 B(  1-C ,  6-C ) :   1.3488
B(  2-C ,  3-C ) :   1.4203 B(  2-C , 11-H ) :   0.9553 B(  3-C ,  4-C ) :   1.3997
B(  3-C , 12-H ) :   0.9553 B(  4-C ,  5-C ) :   1.3488 B(  4-C ,  7-C ) :   0.8022
B(  5-C ,  6-C ) :   1.4493 B(  5-C , 13-H ) :   0.9625 B(  6-C , 14-H ) :   0.9625
B(  7-C , 15-H ) :   0.9912 B(  7-C , 16-H ) :   0.9689 B(  7-C , 17-H ) :   0.9725

Dispersion correction           -0.005577007
FINAL SINGLE POINT ENERGY      -310.784490787330

DIPOLE MOMENT
-------------

Method             : SCF
Type of density    : Electron Density
Multiplicity       :   1
Irrep              :   0
Energy             :  -310.7847887507522273 Eh
Relativity type    :
Basis              : AO
                                X                 Y                 Z
Electronic contribution:     -0.000008450       0.025499862       0.001523845
Nuclear contribution   :      0.000006374      -0.094626305      -0.001044864
                        -----------------------------------------
Total Dipole Moment    :     -0.000002077      -0.069126444       0.000478981
                        -----------------------------------------
Magnitude (a.u.)       :      0.069128103
Magnitude (Debye)      :      0.175709674

Rotational constants in cm-1:             0.181543             0.048527             0.038842
Rotational constants in MHz :          5442.510463          1454.792613          1164.456775

                             ****ORCA TERMINATED NORMALLY****
TOTAL RUN TIME: 0 days 0 hours 0 minutes 35 seconds 326 msec
