                         Program Version 6.0.1  -  RELEASE   -
|  1> ! r2scan-3c def2/J RI DEFGRID2 scfconv6 printgap
|  2> %output
|  3>     printlevel normal
|  4> end
|  5> * xyz 0 1
|  6> C 2.5003912466 -3.3532462487 -0.0700706677
|  7> C 3.0516082378 -1.9589784851 0.1803340922
|  8> O 2.2038575121 -0.9582176377 -0.4142488847
|  9> C 2.3527140936 -0.7004856743 -1.7046250391
| 10> O 3.2092888654 -1.1953306012 -2.401026532
| 11> C 1.3434652186 0.3055607193 -2.2169326243
| 12> C 0.2463420341 0.632135721 -1.2154563046
| 13> H -0.4102641489 1.4124201484 -1.6168720773
| 14> C 0.7835939119 1.1314658898 0.111867771
| 15> O 0.3093670077 0.788559654 1.1755788336
| 16> O 1.748215564 1.9992158812 -0.0411333594
| 17> C 2.315619843 2.6035837754 1.1411040042
| 18> C 3.3383696268 1.6875512445 1.7915737609
| 19> S -0.8007607465 -0.8233439774 -0.8665267448
| 20> P -2.1496943144 0.0934516921 0.4914414696
| 21> S -2.4232024809 2.0243730156 0.3137584389
| 22> O -3.485598064 -0.7411772166 0.1520153106
| 23> C -4.1702729119 -0.5789213423 -1.0921095969
| 24> O -1.9455179405 -0.4115552274 1.9742874421
| 25> C -1.5302670404 -1.7536140526 2.2849418942
| 26> H 2.5337910251 -3.5812035217 -1.1326479764
| 27> H 3.1018386135 -4.0786610407 0.467498746
| 28> H 1.4696478104 -3.4158897957 0.2695873032
| 29> H 4.0564286881 -1.8571706125 -0.2392728434
| 30> H 3.0578530643 -1.7172807337 1.2437491417
| 31> H 0.9125619924 -0.0942758998 -3.136133789
| 32> H 1.884781296 1.2204442777 -2.4693339031
| 33> H 2.7745297367 3.5209690902 0.7729882383
| 34> H 1.5022455168 2.8353119706 1.8346913905
| 35> H 3.8019002899 2.2053524555 2.6246798947
| 36> H 2.8507634692 0.7889383447 2.1618493275
| 37> H 4.1035777389 1.4077709649 1.0723320605
| 38> H -4.3153342118 0.4820864058 -1.3031367784
| 39> H -5.1293352952 -1.0747745932 -0.9667547191
| 40> H -3.5976526063 -1.0440507584 -1.8945844368
| 41> H -1.6592169096 -1.8486414428 3.3599442576
| 42> H -0.4816364563 -1.8759570901 2.0135303112
| 43> H -2.1490332787 -2.4753416548 1.7536609184
| 44> *
| 45>
| 46>                          ****END OF INPUT****

CARTESIAN COORDINATES (ANGSTROEM)
---------------------------------
  C      2.500391   -3.353246   -0.070071
  C      3.051608   -1.958978    0.180334
  O      2.203858   -0.958218   -0.414249
  C      2.352714   -0.700486   -1.704625
  O      3.209289   -1.195331   -2.401027
  C      1.343465    0.305561   -2.216933
  C      0.246342    0.632136   -1.215456
  H     -0.410264    1.412420   -1.616872
  C      0.783594    1.131466    0.111868
  O      0.309367    0.788560    1.175579
  O      1.748216    1.999216   -0.041133
  C      2.315620    2.603584    1.141104
  C      3.338370    1.687551    1.791574
  S     -0.800761   -0.823344   -0.866527
  P     -2.149694    0.093452    0.491441
  S     -2.423202    2.024373    0.313758
  O     -3.485598   -0.741177    0.152015
  C     -4.170273   -0.578921   -1.092110
  O     -1.945518   -0.411555    1.974287
  C     -1.530267   -1.753614    2.284942
  H      2.533791   -3.581204   -1.132648
  H      3.101839   -4.078661    0.467499
  H      1.469648   -3.415890    0.269587
  H      4.056429   -1.857171   -0.239273
  H      3.057853   -1.717281    1.243749
  H      0.912562   -0.094276   -3.136134
  H      1.884781    1.220444   -2.469334
  H      2.774530    3.520969    0.772988
  H      1.502246    2.835312    1.834691
  H      3.801900    2.205352    2.624680
  H      2.850763    0.788938    2.161849
  H      4.103578    1.407771    1.072332
  H     -4.315334    0.482086   -1.303137
  H     -5.129335   -1.074775   -0.966755
  H     -3.597653   -1.044051   -1.894584
  H     -1.659217   -1.848641    3.359944
  H     -0.481636   -1.875957    2.013530
  H     -2.149033   -2.475342    1.753661

 Total Charge           Charge          ....    0
 Multiplicity           Mult            ....    1
 Number of Electrons    NEL             ....  174
 Basis Dimension        Dim             ....  510

ORBITAL ENERGIES
----------------

  NO   OCC          E(Eh)            E(eV)
   0   2.0000     -88.572847     -2410.1897
   1   2.0000     -88.507571     -2408.4135
   2   2.0000     -76.907146     -2092.7498
   3   2.0000     -19.015240      -517.4310
   4   2.0000     -19.012177      -517.3476
   5   2.0000     -18.982713      -516.5459
   6   2.0000     -18.977836      -516.4132
   7   2.0000     -18.941233      -515.4171
   8   2.0000     -18.940654      -515.4014
   9   2.0000     -10.169511      -276.7265
  10   2.0000     -10.169169      -276.7172
  11   2.0000     -10.103073      -274.9186
  12   2.0000     -10.102814      -274.9115
  13   2.0000     -10.098609      -274.7971
  14   2.0000     -10.091657      -274.6080
  15   2.0000     -10.081242      -274.3245
  16   2.0000     -10.071335      -274.0550
  17   2.0000     -10.038048      -273.1492
  18   2.0000     -10.036063      -273.0952
  19   2.0000      -7.867200      -214.0774
  20   2.0000      -7.802510      -212.3171
  21   2.0000      -6.584801      -179.1815
  22   2.0000      -5.814045      -158.2082
  23   2.0000      -5.811202      -158.1308
  24   2.0000      -5.804204      -157.9404
  25   2.0000      -5.750438      -156.4774
  26   2.0000      -5.742918      -156.2728
  27   2.0000      -5.742070      -156.2497
  28   2.0000      -4.730376      -128.7201
  29   2.0000      -4.730114      -128.7130
  30   2.0000      -4.728268      -128.6627
  31   2.0000      -1.094408       -29.7804
  32   2.0000      -1.086703       -29.5707
  33   2.0000      -1.039463       -28.2852
  34   2.0000      -0.997409       -27.1409
  35   2.0000      -0.993197       -27.0263
  36   2.0000      -0.991080       -26.9687
  37   2.0000      -0.817968       -22.2580
  38   2.0000      -0.757265       -20.6062
  39   2.0000      -0.752653       -20.4807
  40   2.0000      -0.729005       -19.8372
  41   2.0000      -0.699285       -19.0285
  42   2.0000      -0.666278       -18.1303
  43   2.0000      -0.662190       -18.0191
  44   2.0000      -0.647826       -17.6283
  45   2.0000      -0.637459       -17.3461
  46   2.0000      -0.608100       -16.5472
  47   2.0000      -0.540877       -14.7180
  48   2.0000      -0.535197       -14.5634
  49   2.0000      -0.526488       -14.3265
  50   2.0000      -0.510214       -13.8836
  51   2.0000      -0.489734       -13.3263
  52   2.0000      -0.484311       -13.1788
  53   2.0000      -0.472193       -12.8490
  54   2.0000      -0.461069       -12.5463
  55   2.0000      -0.457193       -12.4409
  56   2.0000      -0.445273       -12.1165
  57   2.0000      -0.442234       -12.0338
  58   2.0000      -0.435419       -11.8484
  59   2.0000      -0.427409       -11.6304
  60   2.0000      -0.424087       -11.5400
  61   2.0000      -0.417582       -11.3630
  62   2.0000      -0.412115       -11.2142
  63   2.0000      -0.409519       -11.1436
  64   2.0000      -0.401082       -10.9140
  65   2.0000      -0.388520       -10.5722
  66   2.0000      -0.383147       -10.4260
  67   2.0000      -0.378575       -10.3015
  68   2.0000      -0.366330        -9.9684
  69   2.0000      -0.361326        -9.8322
  70   2.0000      -0.352629        -9.5955
  71   2.0000      -0.347132        -9.4459
  72   2.0000      -0.344224        -9.3668
  73   2.0000      -0.330317        -8.9884
  74   2.0000      -0.322120        -8.7653
  75   2.0000      -0.318836        -8.6760
  76   2.0000      -0.309311        -8.4168
  77   2.0000      -0.304683        -8.2908
  78   2.0000      -0.289977        -7.8907
  79   2.0000      -0.285859        -7.7786
  80   2.0000      -0.279602        -7.6084
  81   2.0000      -0.267532        -7.2799
  82   2.0000      -0.252270        -6.8646
  83   2.0000      -0.249541        -6.7904
  84   2.0000      -0.233549        -6.3552
  85   2.0000      -0.209241        -5.6937
  86   2.0000      -0.202196        -5.5020
  87   0.0000      -0.044432        -1.2091
  88   0.0000      -0.026589        -0.7235
  89   0.0000      -0.025663        -0.6983
  90   0.0000       0.006485         0.1765
  91   0.0000       0.026758         0.7281

MULLIKEN ATOMIC CHARGES
-----------------------
   0 C :   -0.468951
   1 C :   -0.155487
   2 O :   -0.095992
   3 C :    0.280366
   4 O :   -0.391862
   5 C :   -0.380378
   6 C :    0.026866
   7 H :    0.246940
   8 C :    0.263541
   9 O :   -0.403393
  10 O :   -0.140138
  11 C :   -0.124072
  12 C :   -0.496902
  13 S :   -0.219465
  14 P :    0.799684
  15 S :   -0.462132
  16 O :   -0.361342
  17 C :   -0.300514
  18 O :   -0.297547
  19 C :   -0.302125
  20 H :    0.176350
  21 H :    0.150144
  22 H :    0.157187
  23 H :    0.171517
  24 H :    0.154649
  25 H :    0.195024
  26 H :    0.197227
  27 H :    0.153853
  28 H :    0.177872
  29 H :    0.153289
  30 H :    0.178105
  31 H :    0.155683
  32 H :    0.174613
  33 H :    0.149275
  34 H :    0.153285
  35 H :    0.154980
  36 H :    0.167667
  37 H :    0.162184
Sum of atomic charges:    0.0000000

LOEWDIN ATOMIC CHARGES
----------------------
   0 C :   -0.387410
   1 C :    0.033098
   2 O :   -0.610271
   3 C :    0.361879
   4 O :   -0.416415
   5 C :   -0.201789
   6 C :   -0.200823
   7 H :    0.208727
   8 C :    0.346470
   9 O :   -0.447900
  10 O :   -0.568615
  11 C :    0.038264
  12 C :   -0.389190
  13 S :    0.218629
  14 P :    0.406915
  15 S :   -0.094814
  16 O :   -0.692304
  17 C :   -0.067487
  18 O :   -0.639167
  19 C :   -0.053632
  20 H :    0.167473
  21 H :    0.160243
  22 H :    0.160027
  23 H :    0.189717
  24 H :    0.180203
  25 H :    0.193210
  26 H :    0.204842
  27 H :    0.181219
  28 H :    0.192380
  29 H :    0.161231
  30 H :    0.166206
  31 H :    0.159007
  32 H :    0.175863
  33 H :    0.175296
  34 H :    0.166020
  35 H :    0.180376
  36 H :    0.172784
  37 H :    0.169736

  Mayer bond orders larger than 0.100000
B(  0-C ,  1-C ) :   0.9261 B(  0-C , 20-H ) :   0.9704 B(  0-C , 21-H ) :   0.9639
B(  0-C , 22-H ) :   0.9741 B(  1-C ,  2-O ) :   0.7887 B(  1-C , 23-H ) :   0.9608
B(  1-C , 24-H ) :   0.9613 B(  2-O ,  3-C ) :   1.0864 B(  2-O ,  8-C ) :   0.1407
B(  3-C ,  4-O ) :   1.9103 B(  3-C ,  5-C ) :   0.9446 B(  5-C ,  6-C ) :   0.9331
B(  5-C , 10-O ) :   0.1112 B(  5-C , 25-H ) :   0.9550 B(  5-C , 26-H ) :   0.9222
B(  6-C ,  7-H ) :   0.8930 B(  6-C ,  8-C ) :   0.8850 B(  6-C , 13-S ) :   0.8556
B(  8-C ,  9-O ) :   1.7782 B(  8-C , 10-O ) :   1.1504 B(  9-O , 14-P ) :   0.1010
B( 10-O , 11-C ) :   0.7985 B( 11-C , 12-C ) :   0.9201 B( 11-C , 27-H ) :   0.9613
B( 11-C , 28-H ) :   0.9723 B( 12-C , 29-H ) :   0.9628 B( 12-C , 30-H ) :   0.9731
B( 12-C , 31-H ) :   0.9669 B( 13-S , 14-P ) :   0.9669 B( 14-P , 15-S ) :   1.7795
B( 14-P , 16-O ) :   1.0091 B( 14-P , 18-O ) :   1.1995 B( 16-O , 17-C ) :   0.8389
B( 17-C , 32-H ) :   0.9589 B( 17-C , 33-H ) :   0.9691 B( 17-C , 34-H ) :   0.9574
B( 18-O , 19-C ) :   0.7968 B( 19-C , 35-H ) :   0.9649 B( 19-C , 36-H ) :   0.9590
B( 19-C , 37-H ) :   0.9649

Dispersion correction           -0.018063618
FINAL SINGLE POINT ENERGY     -1981.448295401182

DIPOLE MOMENT
-------------

Method             : SCF
Type of density    : Electron Density
Multiplicity       :   1
Irrep              :   0
Energy             : -1981.4680164413025523 Eh
Relativity type    :
Basis              : AO
                                X                 Y                 Z
Electronic contribution:    -14.458460906       7.989299617      -3.826839040
Nuclear contribution   :     15.467138117      -8.747697987       4.101515491
                        -----------------------------------------
Total Dipole Moment    :      1.008677210      -0.758398370       0.274676451
                        -----------------------------------------
Magnitude (a.u.)       :      1.291528147
Magnitude (Debye)      :      3.282803662

Rotational constants in cm-1:             0.013774             0.007425             0.006514
Rotational constants in MHz :           412.925812           222.607648           195.277343

                             ****ORCA TERMINATED NORMALLY****
TOTAL RUN TIME: 0 days 0 hours 1 minutes 22 seconds 646 msec
