                         Program Version 6.0.1  -  RELEASE   -
|  1> ! r2scan-3c def2/J RI DEFGRID2 scfconv6 printgap
|  2> %output
|  3>     printlevel normal
|  4> end
|  5> %cpcm
|  6>     smd true
|  7>     smdsolvent "water"
|  8> end
|  9> * xyz 0 1
| 10> C 2.5003912466 -3.3532462487 -0.0700706677
| 11> C 3.0516082378 -1.9589784851 0.1803340922
| 12> O 2.2038575121 -0.9582176377 -0.4142488847
| 13> C 2.3527140936 -0.7004856743 -1.7046250391
| 14> O 3.2092888654 -1.1953306012 -2.401026532
| 15> C 1.3434652186 0.3055607193 -2.2169326243
| 16> C 0.2463420341 0.632135721 -1.2154563046
| 17> H -0.4102641489 1.4124201484 -1.6168720773
| 18> C 0.7835939119 1.1314658898 0.111867771
| 19> O 0.3093670077 0.788559654 1.1755788336
| 20> O 1.748215564 1.9992158812 -0.0411333594
| 21> C 2.315619843 2.6035837754 1.1411040042
| 22> C 3.3383696268 1.6875512445 1.7915737609
| 23> S -0.8007607465 -0.8233439774 -0.8665267448
| 24> P -2.1496943144 0.0934516921 0.4914414696
| 25> S -2.4232024809 2.0243730156 0.3137584389
| 26> O -3.485598064 -0.7411772166 0.1520153106
| 27> C -4.1702729119 -0.5789213423 -1.0921095969
| 28> O -1.9455179405 -0.4115552274 1.9742874421
| 29> C -1.5302670404 -1.7536140526 2.2849418942
| 30> H 2.5337910251 -3.5812035217 -1.1326479764
| 31> H 3.1018386135 -4.0786610407 0.467498746
| 32> H 1.4696478104 -3.4158897957 0.2695873032
| 33> H 4.0564286881 -1.8571706125 -0.2392728434
| 34> H 3.0578530643 -1.7172807337 1.2437491417
| 35> H 0.9125619924 -0.0942758998 -3.136133789
| 36> H 1.884781296 1.2204442777 -2.4693339031
| 37> H 2.7745297367 3.5209690902 0.7729882383
| 38> H 1.5022455168 2.8353119706 1.8346913905
| 39> H 3.8019002899 2.2053524555 2.6246798947
| 40> H 2.8507634692 0.7889383447 2.1618493275
| 41> H 4.1035777389 1.4077709649 1.0723320605
| 42> H -4.3153342118 0.4820864058 -1.3031367784
| 43> H -5.1293352952 -1.0747745932 -0.9667547191
| 44> H -3.5976526063 -1.0440507584 -1.8945844368
| 45> H -1.6592169096 -1.8486414428 3.3599442576
| 46> H -0.4816364563 -1.8759570901 2.0135303112
| 47> H -2.1490332787 -2.4753416548 1.7536609184
| 48> *
| 49>
| 50>                          ****END OF INPUT****

CARTESIAN COORDINATES (ANGSTROEM)
---------------------------------
  C      2.500391   -3.353246   -0.070071
  C      3.051608   -1.958978    0.180334
  O      2.203858   -0.958218   -0.414249
  C      2.352714   -0.700486   -1.704625
  O      3.209289   -1.195331   -2.401027
  C      1.343465    0.305561   -2.216933
  C      0.246342    0.632136   -1.215456
  H     -0.410264    1.412420   -1.616872
  C      0.783594    1.131466    0.111868
  O      0.309367    0.788560    1.175579
  O      1.748216    1.999216   -0.041133
  C      2.315620    2.603584    1.141104
  C      3.338370    1.687551    1.791574
  S     -0.800761   -0.823344   -0.866527
  P     -2.149694    0.093452    0.491441
  S     -2.423202    2.024373    0.313758
  O     -3.485598   -0.741177    0.152015
  C     -4.170273   -0.578921   -1.092110
  O     -1.945518   -0.411555    1.974287
  C     -1.530267   -1.753614    2.284942
  H      2.533791   -3.581204   -1.132648
  H      3.101839   -4.078661    0.467499
  H      1.469648   -3.415890    0.269587
  H      4.056429   -1.857171   -0.239273
  H      3.057853   -1.717281    1.243749
  H      0.912562   -0.094276   -3.136134
  H      1.884781    1.220444   -2.469334
  H      2.774530    3.520969    0.772988
  H      1.502246    2.835312    1.834691
  H      3.801900    2.205352    2.624680
  H      2.850763    0.788938    2.161849
  H      4.103578    1.407771    1.072332
  H     -4.315334    0.482086   -1.303137
  H     -5.129335   -1.074775   -0.966755
  H     -3.597653   -1.044051   -1.894584
  H     -1.659217   -1.848641    3.359944
  H     -0.481636   -1.875957    2.013530
  H     -2.149033   -2.475342    1.753661

 Total Charge           Charge          ....    0
 Multiplicity           Mult            ....    1
 Number of Electrons    NEL             ....  174
 Basis Dimension        Dim             ....  510

ORBITAL ENERGIES
----------------

  NO   OCC          E(Eh)            E(eV)
   0   2.0000     -88.576568     -2410.2909
   1   2.0000     -88.523228     -2408.8395
   2   2.0000     -76.918370     -2093.0552
   3   2.0000     -19.013694      -517.3889
   4   2.0000     -19.010547      -517.3033
   5   2.0000     -18.993455      -516.8382
   6   2.0000     -18.986660      -516.6533
   7   2.0000     -18.949224      -515.6346
   8   2.0000     -18.949061      -515.6302
   9   2.0000     -10.174660      -276.8666
  10   2.0000     -10.172962      -276.8204
  11   2.0000     -10.096607      -274.7426
  12   2.0000     -10.088912      -274.5333
  13   2.0000     -10.087383      -274.4916
  14   2.0000     -10.084142      -274.4034
  15   2.0000     -10.077637      -274.2264
  16   2.0000     -10.061889      -273.7979
  17   2.0000     -10.020120      -272.6613
  18   2.0000     -10.019770      -272.6518
  19   2.0000      -7.870827      -214.1761
  20   2.0000      -7.818540      -212.7533
  21   2.0000      -6.596154      -179.4905
  22   2.0000      -5.817708      -158.3079
  23   2.0000      -5.814857      -158.2303
  24   2.0000      -5.807781      -158.0378
  25   2.0000      -5.766320      -156.9096
  26   2.0000      -5.758967      -156.7094
  27   2.0000      -5.758152      -156.6873
  28   2.0000      -4.741731      -129.0291
  29   2.0000      -4.741355      -129.0188
  30   2.0000      -4.739749      -128.9751
  31   2.0000      -1.094799       -29.7910
  32   2.0000      -1.086634       -29.5688
  33   2.0000      -1.049284       -28.5525
  34   2.0000      -1.005823       -27.3698
  35   2.0000      -1.000091       -27.2139
  36   2.0000      -0.997017       -27.1302
  37   2.0000      -0.814826       -22.1726
  38   2.0000      -0.748734       -20.3741
  39   2.0000      -0.744271       -20.2526
  40   2.0000      -0.727139       -19.7865
  41   2.0000      -0.697195       -18.9716
  42   2.0000      -0.664692       -18.0872
  43   2.0000      -0.659387       -17.9428
  44   2.0000      -0.653395       -17.7798
  45   2.0000      -0.626819       -17.0566
  46   2.0000      -0.602192       -16.3865
  47   2.0000      -0.537685       -14.6312
  48   2.0000      -0.528483       -14.3808
  49   2.0000      -0.521928       -14.2024
  50   2.0000      -0.507534       -13.8107
  51   2.0000      -0.489246       -13.3131
  52   2.0000      -0.487737       -13.2720
  53   2.0000      -0.474108       -12.9011
  54   2.0000      -0.459436       -12.5019
  55   2.0000      -0.453804       -12.3486
  56   2.0000      -0.445669       -12.1273
  57   2.0000      -0.445160       -12.1134
  58   2.0000      -0.440821       -11.9954
  59   2.0000      -0.424579       -11.5534
  60   2.0000      -0.418378       -11.3846
  61   2.0000      -0.412403       -11.2221
  62   2.0000      -0.409062       -11.1311
  63   2.0000      -0.404622       -11.0103
  64   2.0000      -0.393661       -10.7121
  65   2.0000      -0.386042       -10.5047
  66   2.0000      -0.373990       -10.1768
  67   2.0000      -0.371187       -10.1005
  68   2.0000      -0.358339        -9.7509
  69   2.0000      -0.352984        -9.6052
  70   2.0000      -0.349286        -9.5046
  71   2.0000      -0.341932        -9.3044
  72   2.0000      -0.338352        -9.2070
  73   2.0000      -0.329408        -8.9637
  74   2.0000      -0.315961        -8.5977
  75   2.0000      -0.312459        -8.5025
  76   2.0000      -0.310552        -8.4506
  77   2.0000      -0.306273        -8.3341
  78   2.0000      -0.291388        -7.9291
  79   2.0000      -0.288623        -7.8538
  80   2.0000      -0.282163        -7.6780
  81   2.0000      -0.274382        -7.4663
  82   2.0000      -0.260948        -7.1008
  83   2.0000      -0.258003        -7.0206
  84   2.0000      -0.239463        -6.5161
  85   2.0000      -0.224299        -6.1035
  86   2.0000      -0.218830        -5.9547
  87   0.0000      -0.049239        -1.3399
  88   0.0000      -0.030903        -0.8409
  89   0.0000      -0.027666        -0.7528
  90   0.0000       0.003707         0.1009
  91   0.0000       0.018995         0.5169

MULLIKEN ATOMIC CHARGES
-----------------------
   0 C :   -0.495450
   1 C :   -0.163443
   2 O :   -0.109311
   3 C :    0.328263
   4 O :   -0.469048
   5 C :   -0.422739
   6 C :    0.044574
   7 H :    0.271102
   8 C :    0.259614
   9 O :   -0.452219
  10 O :   -0.147237
  11 C :   -0.122934
  12 C :   -0.524862
  13 S :   -0.207437
  14 P :    0.801944
  15 S :   -0.516733
  16 O :   -0.394655
  17 C :   -0.308792
  18 O :   -0.350573
  19 C :   -0.306348
  20 H :    0.172894
  21 H :    0.173904
  22 H :    0.168114
  23 H :    0.177990
  24 H :    0.183354
  25 H :    0.226320
  26 H :    0.232290
  27 H :    0.179666
  28 H :    0.177932
  29 H :    0.175392
  30 H :    0.179649
  31 H :    0.170454
  32 H :    0.175039
  33 H :    0.176402
  34 H :    0.171895
  35 H :    0.181587
  36 H :    0.180908
  37 H :    0.182493
Sum of atomic charges:    0.0000000

LOEWDIN ATOMIC CHARGES
----------------------
   0 C :   -0.390382
   1 C :    0.038656
   2 O :   -0.607563
   3 C :    0.372006
   4 O :   -0.470812
   5 C :   -0.194517
   6 C :   -0.191158
   7 H :    0.217579
   8 C :    0.349259
   9 O :   -0.489608
  10 O :   -0.565928
  11 C :    0.042617
  12 C :   -0.390821
  13 S :    0.232274
  14 P :    0.403352
  15 S :   -0.139141
  16 O :   -0.708602
  17 C :   -0.062930
  18 O :   -0.672840
  19 C :   -0.046177
  20 H :    0.164143
  21 H :    0.169111
  22 H :    0.163212
  23 H :    0.192275
  24 H :    0.192057
  25 H :    0.205335
  26 H :    0.218142
  27 H :    0.192293
  28 H :    0.191687
  29 H :    0.169424
  30 H :    0.165254
  31 H :    0.164213
  32 H :    0.176130
  33 H :    0.186674
  34 H :    0.174095
  35 H :    0.191638
  36 H :    0.179605
  37 H :    0.179446

  Mayer bond orders larger than 0.100000
B(  0-C ,  1-C ) :   0.9173 B(  0-C , 20-H ) :   0.9697 B(  0-C , 21-H ) :   0.9587
B(  0-C , 22-H ) :   0.9711 B(  1-C ,  2-O ) :   0.7750 B(  1-C , 23-H ) :   0.9566
B(  1-C , 24-H ) :   0.9520 B(  2-O ,  3-C ) :   1.1190 B(  2-O ,  8-C ) :   0.1401
B(  3-C ,  4-O ) :   1.8464 B(  3-C ,  5-C ) :   0.9325 B(  5-C ,  6-C ) :   0.9352
B(  5-C , 10-O ) :   0.1060 B(  5-C , 25-H ) :   0.9467 B(  5-C , 26-H ) :   0.9154
B(  6-C ,  7-H ) :   0.8778 B(  6-C ,  8-C ) :   0.8812 B(  6-C , 13-S ) :   0.8463
B(  8-C ,  9-O ) :   1.7382 B(  8-C , 10-O ) :   1.1626 B(  9-O , 14-P ) :   0.1034
B( 10-O , 11-C ) :   0.7809 B( 11-C , 12-C ) :   0.9155 B( 11-C , 27-H ) :   0.9505
B( 11-C , 28-H ) :   0.9672 B( 12-C , 29-H ) :   0.9573 B( 12-C , 30-H ) :   0.9684
B( 12-C , 31-H ) :   0.9643 B( 13-S , 14-P ) :   0.9984 B( 14-P , 15-S ) :   1.7721
B( 14-P , 16-O ) :   1.0075 B( 14-P , 18-O ) :   1.1900 B( 16-O , 17-C ) :   0.8315
B( 17-C , 32-H ) :   0.9555 B( 17-C , 33-H ) :   0.9590 B( 17-C , 34-H ) :   0.9508
B( 18-O , 19-C ) :   0.7904 B( 19-C , 35-H ) :   0.9540 B( 19-C , 36-H ) :   0.9487
B( 19-C , 37-H ) :   0.9542

Dispersion correction           -0.018063618
FINAL SINGLE POINT ENERGY     -1981.464983402634

DIPOLE MOMENT
-------------

Method             : SCF
Type of density    : Electron Density
Multiplicity       :   1
Irrep              :   0
Energy             : -1981.4847044427542642 Eh
Relativity type    :
Basis              : AO
                                X                 Y                 Z
Electronic contribution:    -14.123592131       7.709031004      -4.072113537
Nuclear contribution   :     15.467138117      -8.747697987       4.101515491
                        -----------------------------------------
Total Dipole Moment    :      1.343545986      -1.038666983       0.029401954
                        -----------------------------------------
Magnitude (a.u.)       :      1.698472665
Magnitude (Debye)      :      4.317174422

Rotational constants in cm-1:             0.013774             0.007425             0.006514
Rotational constants in MHz :           412.925812           222.607648           195.277343

                             ****ORCA TERMINATED NORMALLY****
TOTAL RUN TIME: 0 days 0 hours 1 minutes 48 seconds 340 msec
