                         Program Version 6.0.1  -  RELEASE   -
|  1> ! r2scan-3c def2/J RI DEFGRID2 scfconv6 printgap
|  2> %output
|  3>     printlevel normal
|  4> end
|  5> * xyz 0 1
|  6> C 2.2425147743 -2.6980214104 0.6387392068
|  7> C 3.2899163311 -1.8249110787 -0.0343334333
|  8> O 2.6743083349 -0.6646238231 -0.6262609084
|  9> C 2.1159265282 -0.7958833496 -1.8209758584
| 10> O 2.1920266092 -1.7895377304 -2.5038714205
| 11> C 1.3620562543 0.460453692 -2.2157384642
| 12> C 0.2597206476 0.7419950805 -1.1951790783
| 13> H -0.3063185382 1.632276415 -1.4834873457
| 14> C 0.826761032 0.9619485715 0.1984171999
| 15> O 0.5045987614 0.2827547895 1.1529342787
| 16> O 1.6513462683 1.9693336728 0.2191278981
| 17> C 2.3168598368 2.3143982235 1.4527276325
| 18> C 3.8141532512 2.3591434624 1.2058016879
| 19> S -0.8987405194 -0.6697480026 -1.1152739943
| 20> P -2.0931313143 0.0095868741 0.5077690987
| 21> S -2.1235339752 1.9392768297 0.8336562083
| 22> O -3.5292076233 -0.5662406488 0.0727407838
| 23> C -4.24380193 -0.0188795748 -1.0388011914
| 24> O -1.854856599 -0.8728707763 1.7944520721
| 25> C -1.8792416231 -2.3127933104 1.7585848809
| 26> H 1.6521351926 -2.0988836955 1.329680363
| 27> H 1.5799031162 -3.127316576 -0.110256125
| 28> H 2.7310019792 -3.4990370984 1.1829667796
| 29> H 3.8157102732 -2.3776394202 -0.8177701174
| 30> H 3.9975484735 -1.4224950938 0.690735247
| 31> H 0.9303786062 0.3076995903 -3.2040091075
| 32> H 2.0477944358 1.3086074844 -2.2276568575
| 33> H 1.9292600681 3.293313922 1.7442849128
| 34> H 2.0490521978 1.5747798641 2.2116538732
| 35> H 4.1645459482 1.3905541124 0.8593664684
| 36> H 4.0454196743 3.1066172438 0.4531127399
| 37> H 4.3205669785 2.6137525397 2.1308116424
| 38> H -4.2751804328 1.0693605988 -0.9636413096
| 39> H -5.2466018881 -0.4331981784 -0.9753206638
| 40> H -3.7629404791 -0.3153733923 -1.9709645636
| 41> H -1.5681010151 -2.6252522137 2.75194962
| 42> H -1.1819075852 -2.6796418455 1.0050301824
| 43> H -2.8868831009 -2.6596202518 1.5366808187
| 44> *
| 45>
| 46>                          ****END OF INPUT****

CARTESIAN COORDINATES (ANGSTROEM)
---------------------------------
  C      2.242515   -2.698021    0.638739
  C      3.289916   -1.824911   -0.034333
  O      2.674308   -0.664624   -0.626261
  C      2.115927   -0.795883   -1.820976
  O      2.192027   -1.789538   -2.503871
  C      1.362056    0.460454   -2.215738
  C      0.259721    0.741995   -1.195179
  H     -0.306319    1.632276   -1.483487
  C      0.826761    0.961949    0.198417
  O      0.504599    0.282755    1.152934
  O      1.651346    1.969334    0.219128
  C      2.316860    2.314398    1.452728
  C      3.814153    2.359143    1.205802
  S     -0.898741   -0.669748   -1.115274
  P     -2.093131    0.009587    0.507769
  S     -2.123534    1.939277    0.833656
  O     -3.529208   -0.566241    0.072741
  C     -4.243802   -0.018880   -1.038801
  O     -1.854857   -0.872871    1.794452
  C     -1.879242   -2.312793    1.758585
  H      1.652135   -2.098884    1.329680
  H      1.579903   -3.127317   -0.110256
  H      2.731002   -3.499037    1.182967
  H      3.815710   -2.377639   -0.817770
  H      3.997548   -1.422495    0.690735
  H      0.930379    0.307700   -3.204009
  H      2.047794    1.308607   -2.227657
  H      1.929260    3.293314    1.744285
  H      2.049052    1.574780    2.211654
  H      4.164546    1.390554    0.859366
  H      4.045420    3.106617    0.453113
  H      4.320567    2.613753    2.130812
  H     -4.275180    1.069361   -0.963641
  H     -5.246602   -0.433198   -0.975321
  H     -3.762940   -0.315373   -1.970965
  H     -1.568101   -2.625252    2.751950
  H     -1.181908   -2.679642    1.005030
  H     -2.886883   -2.659620    1.536681

 Total Charge           Charge          ....    0
 Multiplicity           Mult            ....    1
 Number of Electrons    NEL             ....  174
 Basis Dimension        Dim             ....  510

ORBITAL ENERGIES
----------------

  NO   OCC          E(Eh)            E(eV)
   0   2.0000     -88.573598     -2410.2101
   1   2.0000     -88.510852     -2408.5027
   2   2.0000     -76.909302     -2092.8085
   3   2.0000     -19.010555      -517.3035
   4   2.0000     -19.007437      -517.2187
   5   2.0000     -18.985240      -516.6147
   6   2.0000     -18.982845      -516.5495
   7   2.0000     -18.939954      -515.3823
   8   2.0000     -18.935067      -515.2494
   9   2.0000     -10.167207      -276.6638
  10   2.0000     -10.165495      -276.6172
  11   2.0000     -10.100371      -274.8451
  12   2.0000     -10.098119      -274.7838
  13   2.0000     -10.097746      -274.7736
  14   2.0000     -10.091987      -274.6169
  15   2.0000     -10.084748      -274.4199
  16   2.0000     -10.068516      -273.9783
  17   2.0000     -10.037526      -273.1350
  18   2.0000     -10.027240      -272.8551
  19   2.0000      -7.867791      -214.0935
  20   2.0000      -7.805808      -212.4068
  21   2.0000      -6.587158      -179.2457
  22   2.0000      -5.814656      -158.2248
  23   2.0000      -5.811654      -158.1431
  24   2.0000      -5.804926      -157.9601
  25   2.0000      -5.753710      -156.5664
  26   2.0000      -5.746177      -156.3614
  27   2.0000      -5.745431      -156.3411
  28   2.0000      -4.732887      -128.7884
  29   2.0000      -4.732301      -128.7725
  30   2.0000      -4.730616      -128.7266
  31   2.0000      -1.090220       -29.6664
  32   2.0000      -1.082281       -29.4504
  33   2.0000      -1.043155       -28.3857
  34   2.0000      -1.000307       -27.2197
  35   2.0000      -0.990006       -26.9394
  36   2.0000      -0.988497       -26.8984
  37   2.0000      -0.816539       -22.2191
  38   2.0000      -0.755535       -20.5592
  39   2.0000      -0.751203       -20.4413
  40   2.0000      -0.728689       -19.8286
  41   2.0000      -0.696201       -18.9446
  42   2.0000      -0.669502       -18.2181
  43   2.0000      -0.659411       -17.9435
  44   2.0000      -0.649891       -17.6844
  45   2.0000      -0.631033       -17.1713
  46   2.0000      -0.600176       -16.3316
  47   2.0000      -0.542319       -14.7572
  48   2.0000      -0.533559       -14.5189
  49   2.0000      -0.528150       -14.3717
  50   2.0000      -0.502811       -13.6822
  51   2.0000      -0.489494       -13.3198
  52   2.0000      -0.487441       -13.2639
  53   2.0000      -0.470475       -12.8023
  54   2.0000      -0.462690       -12.5904
  55   2.0000      -0.453067       -12.3286
  56   2.0000      -0.449121       -12.2212
  57   2.0000      -0.442887       -12.0516
  58   2.0000      -0.434464       -11.8224
  59   2.0000      -0.427234       -11.6256
  60   2.0000      -0.419978       -11.4282
  61   2.0000      -0.414317       -11.2741
  62   2.0000      -0.410217       -11.1626
  63   2.0000      -0.400960       -10.9107
  64   2.0000      -0.394267       -10.7285
  65   2.0000      -0.391432       -10.6514
  66   2.0000      -0.379843       -10.3361
  67   2.0000      -0.375022       -10.2049
  68   2.0000      -0.364109        -9.9079
  69   2.0000      -0.356707        -9.7065
  70   2.0000      -0.352754        -9.5989
  71   2.0000      -0.349138        -9.5005
  72   2.0000      -0.338930        -9.2227
  73   2.0000      -0.330276        -8.9873
  74   2.0000      -0.319920        -8.7055
  75   2.0000      -0.313195        -8.5225
  76   2.0000      -0.311762        -8.4835
  77   2.0000      -0.307764        -8.3747
  78   2.0000      -0.287582        -7.8255
  79   2.0000      -0.280941        -7.6448
  80   2.0000      -0.275551        -7.4981
  81   2.0000      -0.270956        -7.3731
  82   2.0000      -0.251593        -6.8462
  83   2.0000      -0.245488        -6.6801
  84   2.0000      -0.234242        -6.3740
  85   2.0000      -0.212157        -5.7731
  86   2.0000      -0.206156        -5.6098
  87   0.0000      -0.041010        -1.1159
  88   0.0000      -0.034130        -0.9287
  89   0.0000      -0.016462        -0.4479
  90   0.0000       0.004379         0.1192
  91   0.0000       0.023159         0.6302

MULLIKEN ATOMIC CHARGES
-----------------------
   0 C :   -0.491555
   1 C :   -0.132033
   2 O :   -0.109172
   3 C :    0.315226
   4 O :   -0.392559
   5 C :   -0.411657
   6 C :   -0.007000
   7 H :    0.233639
   8 C :    0.314290
   9 O :   -0.420878
  10 O :   -0.132985
  11 C :   -0.176746
  12 C :   -0.456982
  13 S :   -0.203456
  14 P :    0.793347
  15 S :   -0.455249
  16 O :   -0.362014
  17 C :   -0.301175
  18 O :   -0.295335
  19 C :   -0.292861
  20 H :    0.182214
  21 H :    0.174918
  22 H :    0.147409
  23 H :    0.168400
  24 H :    0.145858
  25 H :    0.192309
  26 H :    0.194745
  27 H :    0.154754
  28 H :    0.191998
  29 H :    0.156048
  30 H :    0.154293
  31 H :    0.151802
  32 H :    0.174981
  33 H :    0.149959
  34 H :    0.156471
  35 H :    0.157011
  36 H :    0.165169
  37 H :    0.166816
Sum of atomic charges:    0.0000000

LOEWDIN ATOMIC CHARGES
----------------------
   0 C :   -0.393130
   1 C :    0.034088
   2 O :   -0.594548
   3 C :    0.350349
   4 O :   -0.411648
   5 C :   -0.199619
   6 C :   -0.197278
   7 H :    0.204249
   8 C :    0.334946
   9 O :   -0.467040
  10 O :   -0.565399
  11 C :    0.039226
  12 C :   -0.385531
  13 S :    0.210821
  14 P :    0.409760
  15 S :   -0.079569
  16 O :   -0.691057
  17 C :   -0.064685
  18 O :   -0.637063
  19 C :   -0.049948
  20 H :    0.172462
  21 H :    0.166815
  22 H :    0.157195
  23 H :    0.189343
  24 H :    0.177549
  25 H :    0.188004
  26 H :    0.197848
  27 H :    0.181095
  28 H :    0.197259
  29 H :    0.160977
  30 H :    0.158527
  31 H :    0.160334
  32 H :    0.176150
  33 H :    0.175880
  34 H :    0.167684
  35 H :    0.180556
  36 H :    0.172613
  37 H :    0.172787

  Mayer bond orders larger than 0.100000
B(  0-C ,  1-C ) :   0.9213 B(  0-C , 20-H ) :   0.9631 B(  0-C , 21-H ) :   0.9691
B(  0-C , 22-H ) :   0.9648 B(  1-C ,  2-O ) :   0.7943 B(  1-C , 23-H ) :   0.9637
B(  1-C , 24-H ) :   0.9636 B(  2-O ,  3-C ) :   1.0329 B(  2-O ,  8-C ) :   0.1029
B(  3-C ,  4-O ) :   1.8844 B(  3-C ,  5-C ) :   0.9594 B(  5-C ,  6-C ) :   0.8329
B(  5-C , 25-H ) :   0.9835 B(  5-C , 26-H ) :   0.9561 B(  6-C ,  7-H ) :   0.9123
B(  6-C ,  8-C ) :   0.9218 B(  6-C , 13-S ) :   0.9268 B(  8-C ,  9-O ) :   1.7222
B(  8-C , 10-O ) :   1.1657 B( 10-O , 11-C ) :   0.7624 B( 11-C , 12-C ) :   0.9349
B( 11-C , 27-H ) :   0.9496 B( 11-C , 28-H ) :   0.9779 B( 12-C , 29-H ) :   0.9718
B( 12-C , 30-H ) :   0.9717 B( 12-C , 31-H ) :   0.9685 B( 13-S , 14-P ) :   0.9691
B( 14-P , 15-S ) :   1.7772 B( 14-P , 16-O ) :   1.0002 B( 14-P , 18-O ) :   1.1904
B( 16-O , 17-C ) :   0.8370 B( 17-C , 32-H ) :   0.9583 B( 17-C , 33-H ) :   0.9688
B( 17-C , 34-H ) :   0.9567 B( 18-O , 19-C ) :   0.7944 B( 19-C , 35-H ) :   0.9653
B( 19-C , 36-H ) :   0.9586 B( 19-C , 37-H ) :   0.9621

Dispersion correction           -0.018300662
FINAL SINGLE POINT ENERGY     -1981.448426582227

DIPOLE MOMENT
-------------

Method             : SCF
Type of density    : Electron Density
Multiplicity       :   1
Irrep              :   0
Energy             : -1981.4677791426661315 Eh
Relativity type    :
Basis              : AO
                                X                 Y                 Z
Electronic contribution:    -14.215224967       4.491973529      -3.383905561
Nuclear contribution   :     15.149574200      -4.705593162       3.443073768
                        -----------------------------------------
Total Dipole Moment    :      0.934349233      -0.213619633       0.059168208
                        -----------------------------------------
Magnitude (a.u.)       :      0.960282622
Magnitude (Debye)      :      2.440844447

Rotational constants in cm-1:             0.013840             0.007636             0.006597
Rotational constants in MHz :           414.909258           228.930949           197.786720

                             ****ORCA TERMINATED NORMALLY****
TOTAL RUN TIME: 0 days 0 hours 1 minutes 20 seconds 367 msec
