                         Program Version 6.0.1  -  RELEASE   -
|  1> ! r2scan-3c def2/J RI DEFGRID2 scfconv6 printgap
|  2> %output
|  3>     printlevel normal
|  4> end
|  5> %cpcm
|  6>     smd true
|  7>     smdsolvent "water"
|  8> end
|  9> * xyz 0 1
| 10> C 2.2425147743 -2.6980214104 0.6387392068
| 11> C 3.2899163311 -1.8249110787 -0.0343334333
| 12> O 2.6743083349 -0.6646238231 -0.6262609084
| 13> C 2.1159265282 -0.7958833496 -1.8209758584
| 14> O 2.1920266092 -1.7895377304 -2.5038714205
| 15> C 1.3620562543 0.460453692 -2.2157384642
| 16> C 0.2597206476 0.7419950805 -1.1951790783
| 17> H -0.3063185382 1.632276415 -1.4834873457
| 18> C 0.826761032 0.9619485715 0.1984171999
| 19> O 0.5045987614 0.2827547895 1.1529342787
| 20> O 1.6513462683 1.9693336728 0.2191278981
| 21> C 2.3168598368 2.3143982235 1.4527276325
| 22> C 3.8141532512 2.3591434624 1.2058016879
| 23> S -0.8987405194 -0.6697480026 -1.1152739943
| 24> P -2.0931313143 0.0095868741 0.5077690987
| 25> S -2.1235339752 1.9392768297 0.8336562083
| 26> O -3.5292076233 -0.5662406488 0.0727407838
| 27> C -4.24380193 -0.0188795748 -1.0388011914
| 28> O -1.854856599 -0.8728707763 1.7944520721
| 29> C -1.8792416231 -2.3127933104 1.7585848809
| 30> H 1.6521351926 -2.0988836955 1.329680363
| 31> H 1.5799031162 -3.127316576 -0.110256125
| 32> H 2.7310019792 -3.4990370984 1.1829667796
| 33> H 3.8157102732 -2.3776394202 -0.8177701174
| 34> H 3.9975484735 -1.4224950938 0.690735247
| 35> H 0.9303786062 0.3076995903 -3.2040091075
| 36> H 2.0477944358 1.3086074844 -2.2276568575
| 37> H 1.9292600681 3.293313922 1.7442849128
| 38> H 2.0490521978 1.5747798641 2.2116538732
| 39> H 4.1645459482 1.3905541124 0.8593664684
| 40> H 4.0454196743 3.1066172438 0.4531127399
| 41> H 4.3205669785 2.6137525397 2.1308116424
| 42> H -4.2751804328 1.0693605988 -0.9636413096
| 43> H -5.2466018881 -0.4331981784 -0.9753206638
| 44> H -3.7629404791 -0.3153733923 -1.9709645636
| 45> H -1.5681010151 -2.6252522137 2.75194962
| 46> H -1.1819075852 -2.6796418455 1.0050301824
| 47> H -2.8868831009 -2.6596202518 1.5366808187
| 48> *
| 49>
| 50>                          ****END OF INPUT****

CARTESIAN COORDINATES (ANGSTROEM)
---------------------------------
  C      2.242515   -2.698021    0.638739
  C      3.289916   -1.824911   -0.034333
  O      2.674308   -0.664624   -0.626261
  C      2.115927   -0.795883   -1.820976
  O      2.192027   -1.789538   -2.503871
  C      1.362056    0.460454   -2.215738
  C      0.259721    0.741995   -1.195179
  H     -0.306319    1.632276   -1.483487
  C      0.826761    0.961949    0.198417
  O      0.504599    0.282755    1.152934
  O      1.651346    1.969334    0.219128
  C      2.316860    2.314398    1.452728
  C      3.814153    2.359143    1.205802
  S     -0.898741   -0.669748   -1.115274
  P     -2.093131    0.009587    0.507769
  S     -2.123534    1.939277    0.833656
  O     -3.529208   -0.566241    0.072741
  C     -4.243802   -0.018880   -1.038801
  O     -1.854857   -0.872871    1.794452
  C     -1.879242   -2.312793    1.758585
  H      1.652135   -2.098884    1.329680
  H      1.579903   -3.127317   -0.110256
  H      2.731002   -3.499037    1.182967
  H      3.815710   -2.377639   -0.817770
  H      3.997548   -1.422495    0.690735
  H      0.930379    0.307700   -3.204009
  H      2.047794    1.308607   -2.227657
  H      1.929260    3.293314    1.744285
  H      2.049052    1.574780    2.211654
  H      4.164546    1.390554    0.859366
  H      4.045420    3.106617    0.453113
  H      4.320567    2.613753    2.130812
  H     -4.275180    1.069361   -0.963641
  H     -5.246602   -0.433198   -0.975321
  H     -3.762940   -0.315373   -1.970965
  H     -1.568101   -2.625252    2.751950
  H     -1.181908   -2.679642    1.005030
  H     -2.886883   -2.659620    1.536681

 Total Charge           Charge          ....    0
 Multiplicity           Mult            ....    1
 Number of Electrons    NEL             ....  174
 Basis Dimension        Dim             ....  510

ORBITAL ENERGIES
----------------

  NO   OCC          E(Eh)            E(eV)
   0   2.0000     -88.579564     -2410.3725
   1   2.0000     -88.526388     -2408.9255
   2   2.0000     -76.920768     -2093.1205
   3   2.0000     -19.012901      -517.3673
   4   2.0000     -19.009461      -517.2737
   5   2.0000     -18.996046      -516.9087
   6   2.0000     -18.990334      -516.7533
   7   2.0000     -18.951956      -515.7089
   8   2.0000     -18.946522      -515.5611
   9   2.0000     -10.175254      -276.8827
  10   2.0000     -10.173003      -276.8215
  11   2.0000     -10.100437      -274.8469
  12   2.0000     -10.087485      -274.4944
  13   2.0000     -10.086732      -274.4739
  14   2.0000     -10.084994      -274.4266
  15   2.0000     -10.079413      -274.2748
  16   2.0000     -10.061630      -273.7909
  17   2.0000     -10.020015      -272.6585
  18   2.0000     -10.018750      -272.6241
  19   2.0000      -7.873757      -214.2558
  20   2.0000      -7.821682      -212.8388
  21   2.0000      -6.598741      -179.5609
  22   2.0000      -5.820623      -158.3872
  23   2.0000      -5.817663      -158.3067
  24   2.0000      -5.810856      -158.1214
  25   2.0000      -5.769463      -156.9951
  26   2.0000      -5.762079      -156.7941
  27   2.0000      -5.761329      -156.7737
  28   2.0000      -4.744440      -129.1028
  29   2.0000      -4.743817      -129.0858
  30   2.0000      -4.742312      -129.0449
  31   2.0000      -1.094330       -29.7782
  32   2.0000      -1.086305       -29.5599
  33   2.0000      -1.052344       -28.6357
  34   2.0000      -1.008389       -27.4397
  35   2.0000      -0.999742       -27.2044
  36   2.0000      -0.998251       -27.1638
  37   2.0000      -0.816378       -22.2148
  38   2.0000      -0.750053       -20.4100
  39   2.0000      -0.746551       -20.3147
  40   2.0000      -0.728874       -19.8337
  41   2.0000      -0.695650       -18.9296
  42   2.0000      -0.668219       -18.1832
  43   2.0000      -0.659754       -17.9528
  44   2.0000      -0.653703       -17.7882
  45   2.0000      -0.624948       -17.0057
  46   2.0000      -0.595776       -16.2119
  47   2.0000      -0.539907       -14.6916
  48   2.0000      -0.532193       -14.4817
  49   2.0000      -0.525843       -14.3089
  50   2.0000      -0.503197       -13.6927
  51   2.0000      -0.491268       -13.3681
  52   2.0000      -0.489987       -13.3332
  53   2.0000      -0.473497       -12.8845
  54   2.0000      -0.462641       -12.5891
  55   2.0000      -0.458088       -12.4652
  56   2.0000      -0.450995       -12.2722
  57   2.0000      -0.446189       -12.1414
  58   2.0000      -0.439547       -11.9607
  59   2.0000      -0.426777       -11.6132
  60   2.0000      -0.418055       -11.3758
  61   2.0000      -0.413369       -11.2483
  62   2.0000      -0.408184       -11.1073
  63   2.0000      -0.395916       -10.7734
  64   2.0000      -0.390991       -10.6394
  65   2.0000      -0.387307       -10.5392
  66   2.0000      -0.376287       -10.2393
  67   2.0000      -0.367033        -9.9875
  68   2.0000      -0.360825        -9.8185
  69   2.0000      -0.355128        -9.6635
  70   2.0000      -0.349765        -9.5176
  71   2.0000      -0.346822        -9.4375
  72   2.0000      -0.336994        -9.1701
  73   2.0000      -0.330974        -9.0063
  74   2.0000      -0.318701        -8.6723
  75   2.0000      -0.314731        -8.5643
  76   2.0000      -0.311805        -8.4847
  77   2.0000      -0.305844        -8.3224
  78   2.0000      -0.291240        -7.9251
  79   2.0000      -0.285533        -7.7697
  80   2.0000      -0.279924        -7.6171
  81   2.0000      -0.277335        -7.5467
  82   2.0000      -0.262026        -7.1301
  83   2.0000      -0.257203        -6.9988
  84   2.0000      -0.242466        -6.5978
  85   2.0000      -0.227842        -6.1999
  86   2.0000      -0.222637        -6.0583
  87   0.0000      -0.049566        -1.3487
  88   0.0000      -0.041386        -1.1262
  89   0.0000      -0.022752        -0.6191
  90   0.0000       0.000430         0.0117
  91   0.0000       0.014083         0.3832

MULLIKEN ATOMIC CHARGES
-----------------------
   0 C :   -0.514763
   1 C :   -0.136689
   2 O :   -0.122746
   3 C :    0.348126
   4 O :   -0.465610
   5 C :   -0.447337
   6 C :    0.016037
   7 H :    0.262685
   8 C :    0.308419
   9 O :   -0.464589
  10 O :   -0.150331
  11 C :   -0.162216
  12 C :   -0.497115
  13 S :   -0.207265
  14 P :    0.796638
  15 S :   -0.502709
  16 O :   -0.391870
  17 C :   -0.307437
  18 O :   -0.344313
  19 C :   -0.297839
  20 H :    0.173344
  21 H :    0.175663
  22 H :    0.174401
  23 H :    0.175901
  24 H :    0.180358
  25 H :    0.219302
  26 H :    0.232674
  27 H :    0.176549
  28 H :    0.190236
  29 H :    0.167106
  30 H :    0.168483
  31 H :    0.172999
  32 H :    0.176136
  33 H :    0.177975
  34 H :    0.173563
  35 H :    0.183768
  36 H :    0.178833
  37 H :    0.183633
Sum of atomic charges:    0.0000000

LOEWDIN ATOMIC CHARGES
----------------------
   0 C :   -0.393872
   1 C :    0.039354
   2 O :   -0.591576
   3 C :    0.358151
   4 O :   -0.465431
   5 C :   -0.189672
   6 C :   -0.188981
   7 H :    0.215001
   8 C :    0.336087
   9 O :   -0.507844
  10 O :   -0.566805
  11 C :    0.043881
  12 C :   -0.386935
  13 S :    0.214417
  14 P :    0.406821
  15 S :   -0.117570
  16 O :   -0.703151
  17 C :   -0.059206
  18 O :   -0.668413
  19 C :   -0.042309
  20 H :    0.167784
  21 H :    0.164342
  22 H :    0.167675
  23 H :    0.192186
  24 H :    0.191369
  25 H :    0.197372
  26 H :    0.212911
  27 H :    0.189541
  28 H :    0.197135
  29 H :    0.163916
  30 H :    0.162759
  31 H :    0.169022
  32 H :    0.176823
  33 H :    0.187720
  34 H :    0.175167
  35 H :    0.191813
  36 H :    0.179384
  37 H :    0.181134

  Mayer bond orders larger than 0.100000
B(  0-C ,  1-C ) :   0.9041 B(  0-C , 20-H ) :   0.9665 B(  0-C , 21-H ) :   0.9690
B(  0-C , 22-H ) :   0.9588 B(  1-C ,  2-O ) :   0.7797 B(  1-C , 23-H ) :   0.9597
B(  1-C , 24-H ) :   0.9531 B(  2-O ,  3-C ) :   1.0547 B(  3-C ,  4-O ) :   1.8252
B(  3-C ,  5-C ) :   0.9364 B(  5-C ,  6-C ) :   0.8210 B(  5-C , 25-H ) :   0.9846
B(  5-C , 26-H ) :   0.9450 B(  6-C ,  7-H ) :   0.8973 B(  6-C ,  8-C ) :   0.9153
B(  6-C , 13-S ) :   0.9025 B(  8-C ,  9-O ) :   1.6870 B(  8-C , 10-O ) :   1.1749
B( 10-O , 11-C ) :   0.7519 B( 11-C , 12-C ) :   0.9339 B( 11-C , 27-H ) :   0.9402
B( 11-C , 28-H ) :   0.9696 B( 12-C , 29-H ) :   0.9679 B( 12-C , 30-H ) :   0.9694
B( 12-C , 31-H ) :   0.9618 B( 13-S , 14-P ) :   0.9920 B( 14-P , 15-S ) :   1.7728
B( 14-P , 16-O ) :   1.0044 B( 14-P , 18-O ) :   1.1834 B( 16-O , 17-C ) :   0.8292
B( 17-C , 32-H ) :   0.9548 B( 17-C , 33-H ) :   0.9585 B( 17-C , 34-H ) :   0.9501
B( 18-O , 19-C ) :   0.7872 B( 19-C , 35-H ) :   0.9542 B( 19-C , 36-H ) :   0.9481
B( 19-C , 37-H ) :   0.9530

Dispersion correction           -0.018300662
FINAL SINGLE POINT ENERGY     -1981.464000657578

DIPOLE MOMENT
-------------

Method             : SCF
Type of density    : Electron Density
Multiplicity       :   1
Irrep              :   0
Energy             : -1981.4833532180177826 Eh
Relativity type    :
Basis              : AO
                                X                 Y                 Z
Electronic contribution:    -13.841197125       4.535705644      -3.667286207
Nuclear contribution   :     15.149574200      -4.705593162       3.443073768
                        -----------------------------------------
Total Dipole Moment    :      1.308377075      -0.169887518      -0.224212439
                        -----------------------------------------
Magnitude (a.u.)       :      1.338276338
Magnitude (Debye)      :      3.401628119

Rotational constants in cm-1:             0.013840             0.007636             0.006597
Rotational constants in MHz :           414.909258           228.930949           197.786720

                             ****ORCA TERMINATED NORMALLY****
TOTAL RUN TIME: 0 days 0 hours 1 minutes 49 seconds 753 msec
