                         Program Version 6.0.0  -   RELEASE  -
|  1> ! pbe def2-sv(p) def2/J RI DEFGRID1 loosescf d4 GCP(DFT/SV(P)) printgap
|  2> %output
|  3>     printlevel normal
|  4> end
|  5> * xyz 0 1
|  6> C 4.2430034455 -1.550928687 -2.398233715
|  7> C 3.2393010139 -2.4591347 -1.7182661592
|  8> O 2.8550241936 -1.9858768373 -0.4135735415
|  9> P 2.2565054946 -0.5558476281 -0.0946767088
| 10> S 3.4863526934 0.9727270348 0.0213513006
| 11> O 1.5561791752 -0.9350912231 1.2734744093
| 12> C 1.6707557506 -0.1829534692 2.4984435649
| 13> C 0.3732865255 -0.3124408692 3.2698633963
| 14> S 0.7075261192 -0.3725165308 -1.5473056219
| 15> C 0.4420816885 1.4010090932 -1.3341397018
| 16> S -0.2082789718 1.8004053136 0.3117494083
| 17> P -2.0764250773 0.84013122 0.0673698784
| 18> S -2.9216777408 0.9731686822 -1.6982268008
| 19> O -2.7792590117 1.5957136276 1.2701294191
| 20> C -4.2129362172 1.7120200733 1.3735142885
| 21> C -4.884595014 0.3651205283 1.5464812424
| 22> O -1.9077148487 -0.6442081881 0.6181011269
| 23> C -2.0838068967 -1.8493175799 -0.1543626957
| 24> C -1.158613523 -2.9160662348 0.3938507517
| 25> H 5.1056390236 -1.3911489176 -1.7556413095
| 26> H 4.5672959074 -2.0044670152 -3.3292966208
| 27> H 3.7907840845 -0.5838282376 -2.6136607896
| 28> H 3.6646002811 -3.4437837083 -1.5163688807
| 29> H 2.3360344901 -2.5625952052 -2.3260510271
| 30> H 2.5061774154 -0.608164784 3.0597816455
| 31> H 1.896329243 0.8623764546 2.2631385713
| 32> H 0.4722599418 0.2103606511 4.2155160224
| 33> H -0.4503577556 0.1233110436 2.7088438126
| 34> H 0.1566355661 -1.3603098324 3.4554377846
| 35> H -0.269329497 1.7102234062 -2.0995527441
| 36> H 1.391230125 1.928349619 -1.4313243697
| 37> H -4.3587295644 2.3529712676 2.2440473796
| 38> H -4.5832853852 2.2150601298 0.4748614887
| 39> H -4.4415377814 -0.1723580406 2.3810020772
| 40> H -5.943867806 0.5127264498 1.7328248804
| 41> H -4.766367589 -0.225261023 0.6379744565
| 42> H -3.1296753934 -2.1504961895 -0.0530864039
| 43> H -1.8768367253 -1.6379323544 -1.2076133264
| 44> H -1.3816783422 -3.0983883189 1.4409453803
| 45> H -1.3020981459 -3.8313267678 -0.1708980576
| 46> H -0.1205792372 -2.6034501895 0.3084492152
| 47> *
| 48>
| 49>                          ****END OF INPUT****

CARTESIAN COORDINATES (ANGSTROEM)
---------------------------------
  C      4.243003   -1.550929   -2.398234
  C      3.239301   -2.459135   -1.718266
  O      2.855024   -1.985877   -0.413574
  P      2.256505   -0.555848   -0.094677
  S      3.486353    0.972727    0.021351
  O      1.556179   -0.935091    1.273474
  C      1.670756   -0.182953    2.498444
  C      0.373287   -0.312441    3.269863
  S      0.707526   -0.372517   -1.547306
  C      0.442082    1.401009   -1.334140
  S     -0.208279    1.800405    0.311749
  P     -2.076425    0.840131    0.067370
  S     -2.921678    0.973169   -1.698227
  O     -2.779259    1.595714    1.270129
  C     -4.212936    1.712020    1.373514
  C     -4.884595    0.365121    1.546481
  O     -1.907715   -0.644208    0.618101
  C     -2.083807   -1.849318   -0.154363
  C     -1.158614   -2.916066    0.393851
  H      5.105639   -1.391149   -1.755641
  H      4.567296   -2.004467   -3.329297
  H      3.790784   -0.583828   -2.613661
  H      3.664600   -3.443784   -1.516369
  H      2.336034   -2.562595   -2.326051
  H      2.506177   -0.608165    3.059782
  H      1.896329    0.862376    2.263139
  H      0.472260    0.210361    4.215516
  H     -0.450358    0.123311    2.708844
  H      0.156636   -1.360310    3.455438
  H     -0.269329    1.710223   -2.099553
  H      1.391230    1.928350   -1.431324
  H     -4.358730    2.352971    2.244047
  H     -4.583285    2.215060    0.474861
  H     -4.441538   -0.172358    2.381002
  H     -5.943868    0.512726    1.732825
  H     -4.766368   -0.225261    0.637974
  H     -3.129675   -2.150496   -0.053086
  H     -1.876837   -1.637932   -1.207613
  H     -1.381678   -3.098388    1.440945
  H     -1.302098   -3.831327   -0.170898
  H     -0.120579   -2.603450    0.308449

 Total Charge           Charge          ....    0
 Multiplicity           Mult            ....    1
 Number of Electrons    NEL             ....  202
 Basis Dimension        Dim             ....  334

ORBITAL ENERGIES
----------------

  NO   OCC          E(Eh)            E(eV)
   0   2.0000     -88.047414     -2395.8919
   1   2.0000     -88.042999     -2395.7718
   2   2.0000     -87.992570     -2394.3996
   3   2.0000     -87.988796     -2394.2969
   4   2.0000     -76.430236     -2079.7725
   5   2.0000     -76.429347     -2079.7483
   6   2.0000     -18.796515      -511.4792
   7   2.0000     -18.795804      -511.4598
   8   2.0000     -18.791904      -511.3537
   9   2.0000     -18.788191      -511.2527
  10   2.0000      -9.960381      -271.0357
  11   2.0000      -9.957859      -270.9671
  12   2.0000      -9.955120      -270.8926
  13   2.0000      -9.950085      -270.7556
  14   2.0000      -9.945907      -270.6419
  15   2.0000      -9.890120      -269.1238
  16   2.0000      -9.884956      -268.9833
  17   2.0000      -9.880876      -268.8723
  18   2.0000      -9.877870      -268.7905
  19   2.0000      -7.691898      -209.3072
  20   2.0000      -7.687927      -209.1991
  21   2.0000      -7.637467      -207.8260
  22   2.0000      -7.633718      -207.7240
  23   2.0000      -6.426919      -174.8854
  24   2.0000      -6.426707      -174.8796
  25   2.0000      -5.719617      -155.6387
  26   2.0000      -5.716389      -155.5509
  27   2.0000      -5.715811      -155.5351
  28   2.0000      -5.712645      -155.4490
  29   2.0000      -5.709141      -155.3536
  30   2.0000      -5.704688      -155.2325
  31   2.0000      -5.666312      -154.1882
  32   2.0000      -5.662614      -154.0876
  33   2.0000      -5.658428      -153.9737
  34   2.0000      -5.657383      -153.9452
  35   2.0000      -5.654332      -153.8622
  36   2.0000      -5.653930      -153.8512
  37   2.0000      -4.649309      -126.5141
  38   2.0000      -4.649096      -126.5083
  39   2.0000      -4.648973      -126.5050
  40   2.0000      -4.648346      -126.4879
  41   2.0000      -4.647490      -126.4646
  42   2.0000      -4.647373      -126.4614
  43   2.0000      -0.988983       -26.9116
  44   2.0000      -0.987134       -26.8613
  45   2.0000      -0.946220       -25.7480
  46   2.0000      -0.944500       -25.7012
  47   2.0000      -0.768132       -20.9019
  48   2.0000      -0.725349       -19.7377
  49   2.0000      -0.712251       -19.3813
  50   2.0000      -0.689926       -18.7739
  51   2.0000      -0.685407       -18.6509
  52   2.0000      -0.673230       -18.3195
  53   2.0000      -0.651582       -17.7304
  54   2.0000      -0.641452       -17.4548
  55   2.0000      -0.605002       -16.4629
  56   2.0000      -0.595677       -16.2092
  57   2.0000      -0.571880       -15.5616
  58   2.0000      -0.567809       -15.4509
  59   2.0000      -0.559159       -15.2155
  60   2.0000      -0.504445       -13.7267
  61   2.0000      -0.498796       -13.5729
  62   2.0000      -0.480304       -13.0697
  63   2.0000      -0.472685       -12.8624
  64   2.0000      -0.463956       -12.6249
  65   2.0000      -0.446572       -12.1519
  66   2.0000      -0.437872       -11.9151
  67   2.0000      -0.432627       -11.7724
  68   2.0000      -0.426545       -11.6069
  69   2.0000      -0.419308       -11.4100
  70   2.0000      -0.403137       -10.9699
  71   2.0000      -0.402548       -10.9539
  72   2.0000      -0.395899       -10.7729
  73   2.0000      -0.389046       -10.5865
  74   2.0000      -0.384430       -10.4609
  75   2.0000      -0.379538       -10.3277
  76   2.0000      -0.365885        -9.9562
  77   2.0000      -0.358084        -9.7440
  78   2.0000      -0.351734        -9.5712
  79   2.0000      -0.350430        -9.5357
  80   2.0000      -0.349249        -9.5036
  81   2.0000      -0.345200        -9.3934
  82   2.0000      -0.339279        -9.2323
  83   2.0000      -0.335396        -9.1266
  84   2.0000      -0.332059        -9.0358
  85   2.0000      -0.325958        -8.8698
  86   2.0000      -0.313275        -8.5246
  87   2.0000      -0.299068        -8.1381
  88   2.0000      -0.297557        -8.0969
  89   2.0000      -0.287791        -7.8312
  90   2.0000      -0.285872        -7.7790
  91   2.0000      -0.279685        -7.6106
  92   2.0000      -0.276368        -7.5203
  93   2.0000      -0.268880        -7.3166
  94   2.0000      -0.255900        -6.9634
  95   2.0000      -0.235176        -6.3995
  96   2.0000      -0.219052        -5.9607
  97   2.0000      -0.217555        -5.9200
  98   2.0000      -0.208334        -5.6690
  99   2.0000      -0.202630        -5.5139
 100   2.0000      -0.201172        -5.4742
 101   0.0000      -0.052129        -1.4185
 102   0.0000      -0.028837        -0.7847
 103   0.0000      -0.006122        -0.1666
 104   0.0000       0.002301         0.0626
 105   0.0000       0.005050         0.1374

MULLIKEN ATOMIC CHARGES
-----------------------
   0 C :   -0.308084
   1 C :   -0.012646
   2 O :   -0.366704
   3 P :    0.608522
   4 S :   -0.319349
   5 O :   -0.363626
   6 C :   -0.002942
   7 C :   -0.297136
   8 S :   -0.111385
   9 C :   -0.358847
  10 S :   -0.073366
  11 P :    0.635919
  12 S :   -0.327756
  13 O :   -0.385357
  14 C :    0.001048
  15 C :   -0.321834
  16 O :   -0.379480
  17 C :   -0.007235
  18 C :   -0.301658
  19 H :    0.126737
  20 H :    0.112151
  21 H :    0.125324
  22 H :    0.110981
  23 H :    0.114079
  24 H :    0.102312
  25 H :    0.114542
  26 H :    0.104905
  27 H :    0.128594
  28 H :    0.111721
  29 H :    0.192921
  30 H :    0.193785
  31 H :    0.109332
  32 H :    0.114767
  33 H :    0.120652
  34 H :    0.115639
  35 H :    0.127072
  36 H :    0.102976
  37 H :    0.111733
  38 H :    0.112607
  39 H :    0.103935
  40 H :    0.135149
Sum of atomic charges:    0.0000000

LOEWDIN ATOMIC CHARGES
----------------------
   0 C :   -0.368429
   1 C :   -0.115134
   2 O :   -0.237413
   3 P :    0.571263
   4 S :   -0.311390
   5 O :   -0.233190
   6 C :   -0.118058
   7 C :   -0.356356
   8 S :    0.082167
   9 C :   -0.483718
  10 S :    0.105187
  11 P :    0.572753
  12 S :   -0.320565
  13 O :   -0.247818
  14 C :   -0.112134
  15 C :   -0.366725
  16 O :   -0.243319
  17 C :   -0.118935
  18 C :   -0.357462
  19 H :    0.130516
  20 H :    0.130411
  21 H :    0.121316
  22 H :    0.122348
  23 H :    0.107784
  24 H :    0.113074
  25 H :    0.103752
  26 H :    0.128163
  27 H :    0.117022
  28 H :    0.123748
  29 H :    0.130587
  30 H :    0.130180
  31 H :    0.121249
  32 H :    0.114092
  33 H :    0.127622
  34 H :    0.132345
  35 H :    0.122172
  36 H :    0.109097
  37 H :    0.101842
  38 H :    0.124593
  39 H :    0.127640
  40 H :    0.119725

  Mayer bond orders larger than 0.100000
B(  0-C ,  1-C ) :   1.1663 B(  0-C , 19-H ) :   0.9435 B(  0-C , 20-H ) :   0.9356
B(  0-C , 21-H ) :   0.9334 B(  1-C ,  2-O ) :   0.9134 B(  1-C , 22-H ) :   0.9333
B(  1-C , 23-H ) :   0.9244 B(  2-O ,  3-P ) :   1.1178 B(  3-P ,  4-S ) :   1.6086
B(  3-P ,  5-O ) :   1.1173 B(  3-P ,  8-S ) :   0.9298 B(  4-S ,  8-S ) :   0.1076
B(  5-O ,  6-C ) :   0.8941 B(  6-C ,  7-C ) :   1.1636 B(  6-C , 24-H ) :   0.9345
B(  6-C , 25-H ) :   0.9043 B(  7-C , 26-H ) :   0.9396 B(  7-C , 27-H ) :   0.9362
B(  7-C , 28-H ) :   0.9466 B(  8-S ,  9-C ) :   1.0034 B(  9-C , 10-S ) :   1.0099
B(  9-C , 29-H ) :   0.8791 B(  9-C , 30-H ) :   0.8775 B( 10-S , 11-P ) :   0.9476
B( 10-S , 12-S ) :   0.1022 B( 11-P , 12-S ) :   1.5989 B( 11-P , 13-O ) :   1.1046
B( 11-P , 16-O ) :   1.0943 B( 13-O , 14-C ) :   0.9105 B( 14-C , 15-C ) :   1.1612
B( 14-C , 31-H ) :   0.9353 B( 14-C , 32-H ) :   0.9216 B( 15-C , 33-H ) :   0.9458
B( 15-C , 34-H ) :   0.9368 B( 15-C , 35-H ) :   0.9304 B( 16-O , 17-C ) :   0.8959
B( 17-C , 18-C ) :   1.1631 B( 17-C , 36-H ) :   0.9287 B( 17-C , 37-H ) :   0.9053
B( 18-C , 38-H ) :   0.9464 B( 18-C , 39-H ) :   0.9390 B( 18-C , 40-H ) :   0.9330

Dispersion correction           -0.068200711
FINAL SINGLE POINT ENERGY     -2929.524952672629

DIPOLE MOMENT
-------------

Method             : SCF
Type of density    : Electron Density
Multiplicity       :   1
Irrep              :   0
Energy             : -2929.6435277929826952 Eh
Relativity type    :
Basis              : AO
                                X                 Y                 Z
Electronic contribution:      5.934360054      14.099272613      -7.658855876
Nuclear contribution   :     -6.516583109     -15.164673396       8.048183157
                        -----------------------------------------
Total Dipole Moment    :     -0.582223054      -1.065400783       0.389327282
                        -----------------------------------------
Magnitude (a.u.)       :      1.275005194
Magnitude (Debye)      :      3.240805653

Rotational constants in cm-1:             0.013420             0.005164             0.005025
Rotational constants in MHz :           402.316420           154.815536           150.657114

                             ****ORCA TERMINATED NORMALLY****
TOTAL RUN TIME: 0 days 0 hours 0 minutes 22 seconds 212 msec
