                         Program Version 6.0.0  -   RELEASE  -
|  1> ! pbe def2-sv(p) def2/J RI DEFGRID1 loosescf d4 GCP(DFT/SV(P)) printgap
|  2> %output
|  3>     printlevel normal
|  4> end
|  5> * xyz 0 1
|  6> C 4.2816409965 -1.1206127845 1.3951205248
|  7> C 4.7817017717 -0.5152658321 0.100873924
|  8> O 3.7731155908 -0.5090116531 -0.9405825571
|  9> P 2.3871358126 0.2394616412 -0.8793282351
| 10> S 1.6969634266 0.5650254013 -2.6825098194
| 11> O 2.7613452703 1.5222489895 -0.0188376157
| 12> C 1.885564568 2.6457765773 0.1812627921
| 13> C 1.2690874496 2.6025298051 1.5652855167
| 14> S 1.1280190571 -0.9591458699 0.3527619441
| 15> C -0.0349220999 -1.5847139654 -0.9046906568
| 16> S -1.6474798375 -1.9211731635 -0.1869824864
| 17> P -2.1188480775 0.0820974319 0.3854311513
| 18> S -1.479541204 1.5039114322 -0.8048808823
| 19> O -1.5362737746 0.330215541 1.8258828325
| 20> C -1.4317537927 -0.625451857 2.9120752289
| 21> C -2.7343751042 -1.3285588247 3.225047439
| 22> O -3.6816858641 0.0298141766 0.6567368229
| 23> C -4.6711195578 -0.5308770519 -0.2235702814
| 24> C -4.6120287894 0.0474254916 -1.6221516214
| 25> H 3.4802490399 -0.5125534068 1.8117999177
| 26> H 3.9048782001 -2.1259502797 1.2260147474
| 27> H 5.1013838904 -1.1599498383 2.1057236868
| 28> H 5.5845296305 -1.1091961506 -0.3385641434
| 29> H 5.1183607314 0.5117810677 0.2526867275
| 30> H 2.5243801756 3.522881919 0.0602261899
| 31> H 1.1148852673 2.6525518862 -0.5963677205
| 32> H 2.0468723141 2.5204465786 2.3191063188
| 33> H 0.7031864853 3.5146817388 1.7252268528
| 34> H 0.5911685942 1.7565570381 1.6548521956
| 35> H 0.3326049738 -2.5283161802 -1.3007461086
| 36> H -0.1215273853 -0.8314602007 -1.6935646813
| 37> H -0.6485044126 -1.3419998288 2.6470760272
| 38> H -1.0987715756 -0.009220661 3.7485867027
| 39> H -2.6020192767 -1.925193282 4.1223905198
| 40> H -3.5245606113 -0.6010194581 3.3906650392
| 41> H -3.0212779304 -1.9846945856 2.4059177934
| 42> H -4.5304041463 -1.6150863007 -0.2488181858
| 43> H -5.616393522 -0.2896363207 0.2657478563
| 44> H -3.6708310913 -0.2184479866 -2.1021707114
| 45> H -5.4322989135 -0.3475763098 -2.2127340388
| 46> H -4.6821555633 1.1322740676 -1.5880572184
| 47> *
| 48>
| 49>                          ****END OF INPUT****

CARTESIAN COORDINATES (ANGSTROEM)
---------------------------------
  C      4.281641   -1.120613    1.395121
  C      4.781702   -0.515266    0.100874
  O      3.773116   -0.509012   -0.940583
  P      2.387136    0.239462   -0.879328
  S      1.696963    0.565025   -2.682510
  O      2.761345    1.522249   -0.018838
  C      1.885565    2.645777    0.181263
  C      1.269087    2.602530    1.565286
  S      1.128019   -0.959146    0.352762
  C     -0.034922   -1.584714   -0.904691
  S     -1.647480   -1.921173   -0.186982
  P     -2.118848    0.082097    0.385431
  S     -1.479541    1.503911   -0.804881
  O     -1.536274    0.330216    1.825883
  C     -1.431754   -0.625452    2.912075
  C     -2.734375   -1.328559    3.225047
  O     -3.681686    0.029814    0.656737
  C     -4.671120   -0.530877   -0.223570
  C     -4.612029    0.047425   -1.622152
  H      3.480249   -0.512553    1.811800
  H      3.904878   -2.125950    1.226015
  H      5.101384   -1.159950    2.105724
  H      5.584530   -1.109196   -0.338564
  H      5.118361    0.511781    0.252687
  H      2.524380    3.522882    0.060226
  H      1.114885    2.652552   -0.596368
  H      2.046872    2.520447    2.319106
  H      0.703186    3.514682    1.725227
  H      0.591169    1.756557    1.654852
  H      0.332605   -2.528316   -1.300746
  H     -0.121527   -0.831460   -1.693565
  H     -0.648504   -1.342000    2.647076
  H     -1.098772   -0.009221    3.748587
  H     -2.602019   -1.925193    4.122391
  H     -3.524561   -0.601019    3.390665
  H     -3.021278   -1.984695    2.405918
  H     -4.530404   -1.615086   -0.248818
  H     -5.616394   -0.289636    0.265748
  H     -3.670831   -0.218448   -2.102171
  H     -5.432299   -0.347576   -2.212734
  H     -4.682156    1.132274   -1.588057

 Total Charge           Charge          ....    0
 Multiplicity           Mult            ....    1
 Number of Electrons    NEL             ....  202
 Basis Dimension        Dim             ....  334

ORBITAL ENERGIES
----------------

  NO   OCC          E(Eh)            E(eV)
   0   2.0000     -88.051528     -2396.0039
   1   2.0000     -88.039144     -2395.6669
   2   2.0000     -87.978682     -2394.0216
   3   2.0000     -87.976998     -2393.9758
   4   2.0000     -76.427941     -2079.7100
   5   2.0000     -76.421223     -2079.5272
   6   2.0000     -18.794639      -511.4281
   7   2.0000     -18.791509      -511.3430
   8   2.0000     -18.789076      -511.2768
   9   2.0000     -18.784867      -511.1622
  10   2.0000      -9.960577      -271.0411
  11   2.0000      -9.958267      -270.9782
  12   2.0000      -9.954895      -270.8865
  13   2.0000      -9.951873      -270.8042
  14   2.0000      -9.941654      -270.5262
  15   2.0000      -9.891783      -269.1691
  16   2.0000      -9.889587      -269.1094
  17   2.0000      -9.883045      -268.9313
  18   2.0000      -9.871721      -268.6232
  19   2.0000      -7.696125      -209.4222
  20   2.0000      -7.683438      -209.0770
  21   2.0000      -7.623565      -207.4478
  22   2.0000      -7.622269      -207.4125
  23   2.0000      -6.424646      -174.8235
  24   2.0000      -6.418581      -174.6585
  25   2.0000      -5.723876      -155.7546
  26   2.0000      -5.720440      -155.6611
  27   2.0000      -5.713533      -155.4731
  28   2.0000      -5.711331      -155.4132
  29   2.0000      -5.708054      -155.3240
  30   2.0000      -5.700421      -155.1164
  31   2.0000      -5.652723      -153.8184
  32   2.0000      -5.651311      -153.7800
  33   2.0000      -5.644128      -153.5845
  34   2.0000      -5.643535      -153.5684
  35   2.0000      -5.642755      -153.5472
  36   2.0000      -5.642383      -153.5370
  37   2.0000      -4.647358      -126.4611
  38   2.0000      -4.646951      -126.4500
  39   2.0000      -4.644577      -126.3854
  40   2.0000      -4.641539      -126.3027
  41   2.0000      -4.640178      -126.2657
  42   2.0000      -4.638876      -126.2302
  43   2.0000      -0.988728       -26.9047
  44   2.0000      -0.983144       -26.7527
  45   2.0000      -0.946945       -25.7677
  46   2.0000      -0.938146       -25.5283
  47   2.0000      -0.763566       -20.7777
  48   2.0000      -0.720868       -19.6158
  49   2.0000      -0.712019       -19.3750
  50   2.0000      -0.693213       -18.8633
  51   2.0000      -0.686110       -18.6700
  52   2.0000      -0.676110       -18.3979
  53   2.0000      -0.649507       -17.6740
  54   2.0000      -0.630230       -17.1494
  55   2.0000      -0.593579       -16.1521
  56   2.0000      -0.590000       -16.0547
  57   2.0000      -0.580961       -15.8087
  58   2.0000      -0.571667       -15.5559
  59   2.0000      -0.562973       -15.3193
  60   2.0000      -0.497494       -13.5375
  61   2.0000      -0.491329       -13.3697
  62   2.0000      -0.475016       -12.9258
  63   2.0000      -0.469794       -12.7838
  64   2.0000      -0.453633       -12.3440
  65   2.0000      -0.448450       -12.2030
  66   2.0000      -0.442070       -12.0293
  67   2.0000      -0.437916       -11.9163
  68   2.0000      -0.431065       -11.7299
  69   2.0000      -0.420438       -11.4407
  70   2.0000      -0.413099       -11.2410
  71   2.0000      -0.403661       -10.9842
  72   2.0000      -0.394136       -10.7250
  73   2.0000      -0.391339       -10.6489
  74   2.0000      -0.381790       -10.3890
  75   2.0000      -0.366506        -9.9731
  76   2.0000      -0.359893        -9.7932
  77   2.0000      -0.355887        -9.6842
  78   2.0000      -0.354823        -9.6552
  79   2.0000      -0.349104        -9.4996
  80   2.0000      -0.347449        -9.4546
  81   2.0000      -0.345171        -9.3926
  82   2.0000      -0.341687        -9.2978
  83   2.0000      -0.337397        -9.1811
  84   2.0000      -0.326996        -8.8980
  85   2.0000      -0.321399        -8.7457
  86   2.0000      -0.311508        -8.4766
  87   2.0000      -0.296659        -8.0725
  88   2.0000      -0.292892        -7.9700
  89   2.0000      -0.289841        -7.8870
  90   2.0000      -0.283938        -7.7263
  91   2.0000      -0.279225        -7.5981
  92   2.0000      -0.270198        -7.3525
  93   2.0000      -0.264995        -7.2109
  94   2.0000      -0.254774        -6.9328
  95   2.0000      -0.236605        -6.4383
  96   2.0000      -0.220477        -5.9995
  97   2.0000      -0.204419        -5.5625
  98   2.0000      -0.195059        -5.3078
  99   2.0000      -0.192244        -5.2312
 100   2.0000      -0.184408        -5.0180
 101   0.0000      -0.046627        -1.2688
 102   0.0000      -0.033672        -0.9163
 103   0.0000      -0.013033        -0.3547
 104   0.0000       0.009957         0.2710
 105   0.0000       0.015929         0.4334

MULLIKEN ATOMIC CHARGES
-----------------------
   0 C :   -0.326779
   1 C :    0.008536
   2 O :   -0.364951
   3 P :    0.626601
   4 S :   -0.299543
   5 O :   -0.387380
   6 C :   -0.010590
   7 C :   -0.315294
   8 S :   -0.149209
   9 C :   -0.328780
  10 S :   -0.132564
  11 P :    0.593120
  12 S :   -0.298851
  13 O :   -0.351365
  14 C :   -0.000449
  15 C :   -0.308028
  16 O :   -0.370500
  17 C :   -0.012285
  18 C :   -0.308554
  19 H :    0.126915
  20 H :    0.125041
  21 H :    0.114264
  22 H :    0.109610
  23 H :    0.110767
  24 H :    0.100308
  25 H :    0.126840
  26 H :    0.100058
  27 H :    0.108618
  28 H :    0.148252
  29 H :    0.180812
  30 H :    0.218090
  31 H :    0.111969
  32 H :    0.109489
  33 H :    0.114806
  34 H :    0.125284
  35 H :    0.116543
  36 H :    0.110061
  37 H :    0.109835
  38 H :    0.129449
  39 H :    0.111015
  40 H :    0.128840
Sum of atomic charges:    0.0000000

LOEWDIN ATOMIC CHARGES
----------------------
   0 C :   -0.370395
   1 C :   -0.107793
   2 O :   -0.243087
   3 P :    0.569048
   4 S :   -0.291582
   5 O :   -0.245125
   6 C :   -0.116654
   7 C :   -0.367510
   8 S :    0.061849
   9 C :   -0.480013
  10 S :    0.068130
  11 P :    0.566479
  12 S :   -0.293679
  13 O :   -0.229506
  14 C :   -0.113248
  15 C :   -0.367249
  16 O :   -0.241403
  17 C :   -0.114912
  18 C :   -0.368756
  19 H :    0.116656
  20 H :    0.126742
  21 H :    0.131550
  22 H :    0.122251
  23 H :    0.115200
  24 H :    0.115783
  25 H :    0.109628
  26 H :    0.117342
  27 H :    0.131050
  28 H :    0.123243
  29 H :    0.134654
  30 H :    0.124316
  31 H :    0.104204
  32 H :    0.122363
  33 H :    0.132119
  34 H :    0.129606
  35 H :    0.116011
  36 H :    0.106637
  37 H :    0.121687
  38 H :    0.122913
  39 H :    0.129940
  40 H :    0.131511

  Mayer bond orders larger than 0.100000
B(  0-C ,  1-C ) :   1.1698 B(  0-C , 19-H ) :   0.9354 B(  0-C , 20-H ) :   0.9420
B(  0-C , 21-H ) :   0.9357 B(  1-C ,  2-O ) :   0.9049 B(  1-C , 22-H ) :   0.9345
B(  1-C , 23-H ) :   0.9276 B(  2-O ,  3-P ) :   1.1306 B(  3-P ,  4-S ) :   1.6675
B(  3-P ,  5-O ) :   1.0888 B(  3-P ,  8-S ) :   0.9306 B(  4-S ,  8-S ) :   0.1187
B(  5-O ,  6-C ) :   0.8941 B(  6-C ,  7-C ) :   1.1729 B(  6-C , 24-H ) :   0.9345
B(  6-C , 25-H ) :   0.9006 B(  7-C , 26-H ) :   0.9456 B(  7-C , 27-H ) :   0.9400
B(  7-C , 28-H ) :   0.9251 B(  8-S ,  9-C ) :   0.9915 B(  9-C , 10-S ) :   1.0060
B(  9-C , 29-H ) :   0.9089 B(  9-C , 30-H ) :   0.8380 B( 10-S , 11-P ) :   0.9201
B( 10-S , 12-S ) :   0.1090 B( 11-P , 12-S ) :   1.6510 B( 11-P , 13-O ) :   1.1271
B( 11-P , 16-O ) :   1.0961 B( 13-O , 14-C ) :   0.8968 B( 14-C , 15-C ) :   1.1706
B( 14-C , 31-H ) :   0.9158 B( 14-C , 32-H ) :   0.9342 B( 15-C , 33-H ) :   0.9359
B( 15-C , 34-H ) :   0.9421 B( 15-C , 35-H ) :   0.9393 B( 16-O , 17-C ) :   0.9127
B( 17-C , 18-C ) :   1.1670 B( 17-C , 36-H ) :   0.9260 B( 17-C , 37-H ) :   0.9334
B( 18-C , 38-H ) :   0.9332 B( 18-C , 39-H ) :   0.9349 B( 18-C , 40-H ) :   0.9422

Dispersion correction           -0.067358086
FINAL SINGLE POINT ENERGY     -2929.512305356423

DIPOLE MOMENT
-------------

Method             : SCF
Type of density    : Electron Density
Multiplicity       :   1
Irrep              :   0
Energy             : -2929.6312454598350996 Eh
Relativity type    :
Basis              : AO
                                X                 Y                 Z
Electronic contribution:      4.061734694       0.228606656     -15.312144501
Nuclear contribution   :     -4.382817503      -1.171459714      17.123431064
                        -----------------------------------------
Total Dipole Moment    :     -0.321082810      -0.942853058       1.811286563
                        -----------------------------------------
Magnitude (a.u.)       :      2.067081294
Magnitude (Debye)      :      5.254103098

Rotational constants in cm-1:             0.012813             0.005167             0.004825
Rotational constants in MHz :           384.118126           154.905525           144.646031

                             ****ORCA TERMINATED NORMALLY****
TOTAL RUN TIME: 0 days 0 hours 0 minutes 21 seconds 647 msec
