                         Program Version 6.0.0  -   RELEASE  -
|  1> ! r2scan-3c def2/J RI DEFGRID2 scfconv6 printgap
|  2> %output
|  3>     printlevel normal
|  4> end
|  5> * xyz 0 1
|  6> C 2.408200963 1.1490229698 2.95551e-05
|  7> C 1.2683292959 1.9123969214 2.31211e-05
|  8> C 5.5879e-06 1.2921754977 4.6533e-06
|  9> C -1.268320944 1.9124011959 -2.0706e-05
| 10> C -2.4081952768 1.1490334895 -4.67488e-05
| 11> C -2.3795189435 -0.2605345865 -4.6331e-06
| 12> C -1.1667327113 -0.8916101222 2.111e-05
| 13> C -5.0182e-06 -0.1098272097 3.8593e-06
| 14> C 1.1667270799 -0.891610156 -1.53963e-05
| 15> C 2.3795176144 -0.2605460088 4.6161e-06
| 16> C 0.7752284083 -2.3426821131 -0.0001182659
| 17> C -0.7752371291 -2.3426796164 0.00011632
| 18> H 3.3712009954 1.639655845 5.21417e-05
| 19> H 1.3331148316 2.9909209872 4.22245e-05
| 20> H -1.3330887688 2.9909261476 -1.53551e-05
| 21> H -3.3711903106 1.6396759623 -3.99209e-05
| 22> H -3.3080135523 -0.8121844043 1.40551e-05
| 23> H 3.3080101748 -0.8121955511 -1.54988e-05
| 24> H 1.1743567792 -2.849122778 -0.8800318882
| 25> H 1.1746618928 -2.8494005959 0.8794903628
| 26> H -1.1746705444 -2.8493988943 -0.8794935291
| 27> H -1.1743687056 -2.8491248418 0.8800273822
| 28> *
| 29>
| 30>                          ****END OF INPUT****

CARTESIAN COORDINATES (ANGSTROEM)
---------------------------------
  C      2.408201    1.149023    0.000030
  C      1.268329    1.912397    0.000023
  C      0.000006    1.292175    0.000005
  C     -1.268321    1.912401   -0.000021
  C     -2.408195    1.149033   -0.000047
  C     -2.379519   -0.260535   -0.000005
  C     -1.166733   -0.891610    0.000021
  C     -0.000005   -0.109827    0.000004
  C      1.166727   -0.891610   -0.000015
  C      2.379518   -0.260546    0.000005
  C      0.775228   -2.342682   -0.000118
  C     -0.775237   -2.342680    0.000116
  H      3.371201    1.639656    0.000052
  H      1.333115    2.990921    0.000042
  H     -1.333089    2.990926   -0.000015
  H     -3.371190    1.639676   -0.000040
  H     -3.308014   -0.812184    0.000014
  H      3.308010   -0.812196   -0.000015
  H      1.174357   -2.849123   -0.880032
  H      1.174662   -2.849401    0.879490
  H     -1.174671   -2.849399   -0.879494
  H     -1.174369   -2.849125    0.880027

 Total Charge           Charge          ....    0
 Multiplicity           Mult            ....    1
 Number of Electrons    NEL             ....   82
 Basis Dimension        Dim             ....  278

ORBITAL ENERGIES
----------------

  NO   OCC          E(Eh)            E(eV)
   0   2.0000     -10.041577      -273.2452
   1   2.0000     -10.041478      -273.2425
   2   2.0000     -10.040594      -273.2185
   3   2.0000     -10.040591      -273.2184
   4   2.0000     -10.040514      -273.2163
   5   2.0000     -10.034414      -273.0503
   6   2.0000     -10.034413      -273.0503
   7   2.0000     -10.031030      -272.9582
   8   2.0000     -10.031025      -272.9581
   9   2.0000     -10.030824      -272.9526
  10   2.0000     -10.030821      -272.9525
  11   2.0000     -10.028741      -272.8959
  12   2.0000      -0.858675       -23.3657
  13   2.0000      -0.790487       -21.5102
  14   2.0000      -0.787840       -21.4382
  15   2.0000      -0.710858       -19.3434
  16   2.0000      -0.698541       -19.0083
  17   2.0000      -0.687827       -18.7167
  18   2.0000      -0.617906       -16.8141
  19   2.0000      -0.584500       -15.9050
  20   2.0000      -0.563998       -15.3472
  21   2.0000      -0.544061       -14.8047
  22   2.0000      -0.478956       -13.0330
  23   2.0000      -0.469070       -12.7640
  24   2.0000      -0.450425       -12.2567
  25   2.0000      -0.441343       -12.0096
  26   2.0000      -0.417387       -11.3577
  27   2.0000      -0.402657       -10.9569
  28   2.0000      -0.381668       -10.3857
  29   2.0000      -0.374184       -10.1821
  30   2.0000      -0.362721        -9.8701
  31   2.0000      -0.358915        -9.7666
  32   2.0000      -0.351101        -9.5539
  33   2.0000      -0.329165        -8.9570
  34   2.0000      -0.321938        -8.7604
  35   2.0000      -0.298375        -8.1192
  36   2.0000      -0.298213        -8.1148
  37   2.0000      -0.295019        -8.0279
  38   2.0000      -0.257869        -7.0170
  39   2.0000      -0.228497        -6.2177
  40   2.0000      -0.191113        -5.2004
  41   0.0000      -0.058526        -1.5926
  42   0.0000      -0.033842        -0.9209
  43   0.0000       0.002229         0.0607
  44   0.0000       0.066250         1.8028
  45   0.0000       0.079761         2.1704

MULLIKEN ATOMIC CHARGES
-----------------------
   0 C :   -0.130927
   1 C :   -0.290369
   2 C :    0.210372
   3 C :   -0.290373
   4 C :   -0.130920
   5 C :   -0.242045
   6 C :    0.116044
   7 C :    0.092831
   8 C :    0.116020
   9 C :   -0.242028
  10 C :   -0.378954
  11 C :   -0.378958
  12 H :    0.143329
  13 H :    0.146173
  14 H :    0.146173
  15 H :    0.143330
  16 H :    0.149034
  17 H :    0.149034
  18 H :    0.168060
  19 H :    0.168056
  20 H :    0.168056
  21 H :    0.168060
Sum of atomic charges:   -0.0000000

LOEWDIN ATOMIC CHARGES
----------------------
   0 C :   -0.155072
   1 C :   -0.157216
   2 C :   -0.055846
   3 C :   -0.157215
   4 C :   -0.155073
   5 C :   -0.169689
   6 C :   -0.056076
   7 C :   -0.039714
   8 C :   -0.056075
   9 C :   -0.169690
  10 C :   -0.259181
  11 C :   -0.259181
  12 H :    0.166663
  13 H :    0.169485
  14 H :    0.169485
  15 H :    0.166663
  16 H :    0.168143
  17 H :    0.168143
  18 H :    0.170364
  19 H :    0.170358
  20 H :    0.170358
  21 H :    0.170364

  Mayer bond orders larger than 0.100000
B(  0-C ,  1-C ) :   1.5130 B(  0-C ,  9-C ) :   1.2953 B(  0-C , 12-H ) :   0.9507
B(  1-C ,  2-C ) :   1.1594 B(  1-C , 13-H ) :   0.9372 B(  2-C ,  3-C ) :   1.1594
B(  2-C ,  6-C ) :  -0.1066 B(  2-C ,  7-C ) :   1.4354 B(  2-C ,  8-C ) :  -0.1066
B(  3-C ,  4-C ) :   1.5130 B(  3-C , 14-H ) :   0.9372 B(  4-C ,  5-C ) :   1.2953
B(  4-C , 15-H ) :   0.9507 B(  5-C ,  6-C ) :   1.4159 B(  5-C , 16-H ) :   0.9269
B(  6-C ,  7-C ) :   1.3280 B(  6-C , 11-C ) :   0.8546 B(  7-C ,  8-C ) :   1.3280
B(  8-C ,  9-C ) :   1.4159 B(  8-C , 10-C ) :   0.8546 B(  9-C , 17-H ) :   0.9269
B( 10-C , 11-C ) :   0.9178 B( 10-C , 18-H ) :   0.9813 B( 10-C , 19-H ) :   0.9814
B( 11-C , 20-H ) :   0.9814 B( 11-C , 21-H ) :   0.9813

Dispersion correction           -0.009275590
FINAL SINGLE POINT ENERGY      -463.183920255161

DIPOLE MOMENT
-------------

Method             : SCF
Type of density    : Electron Density
Multiplicity       :   1
Irrep              :   0
Energy             :  -463.1797995754576505 Eh
Relativity type    :
Basis              : AO
                                X                 Y                 Z
Electronic contribution:     -0.000007696       3.116319501      -0.000014727
Nuclear contribution   :      0.000012001      -3.527753233       0.000028121
                        -----------------------------------------
Total Dipole Moment    :      0.000004305      -0.411433732       0.000013394
                        -----------------------------------------
Magnitude (a.u.)       :      0.411433732
Magnitude (Debye)      :      1.045781437

Rotational constants in cm-1:             0.047759             0.040296             0.022034
Rotational constants in MHz :          1431.783754          1208.038943           660.559787

                             ****ORCA TERMINATED NORMALLY****
TOTAL RUN TIME: 0 days 0 hours 0 minutes 30 seconds 670 msec
