                         Program Version 6.0.0  -   RELEASE  -
|  1> ! r2scan-3c def2/J RI DEFGRID2 scfconv6 printgap
|  2> %output
|  3>     printlevel normal
|  4> end
|  5> %cpcm
|  6>     smd true
|  7>     smdsolvent "water"
|  8> end
|  9> * xyz 0 1
| 10> C 2.408200963 1.1490229698 2.95551e-05
| 11> C 1.2683292959 1.9123969214 2.31211e-05
| 12> C 5.5879e-06 1.2921754977 4.6533e-06
| 13> C -1.268320944 1.9124011959 -2.0706e-05
| 14> C -2.4081952768 1.1490334895 -4.67488e-05
| 15> C -2.3795189435 -0.2605345865 -4.6331e-06
| 16> C -1.1667327113 -0.8916101222 2.111e-05
| 17> C -5.0182e-06 -0.1098272097 3.8593e-06
| 18> C 1.1667270799 -0.891610156 -1.53963e-05
| 19> C 2.3795176144 -0.2605460088 4.6161e-06
| 20> C 0.7752284083 -2.3426821131 -0.0001182659
| 21> C -0.7752371291 -2.3426796164 0.00011632
| 22> H 3.3712009954 1.639655845 5.21417e-05
| 23> H 1.3331148316 2.9909209872 4.22245e-05
| 24> H -1.3330887688 2.9909261476 -1.53551e-05
| 25> H -3.3711903106 1.6396759623 -3.99209e-05
| 26> H -3.3080135523 -0.8121844043 1.40551e-05
| 27> H 3.3080101748 -0.8121955511 -1.54988e-05
| 28> H 1.1743567792 -2.849122778 -0.8800318882
| 29> H 1.1746618928 -2.8494005959 0.8794903628
| 30> H -1.1746705444 -2.8493988943 -0.8794935291
| 31> H -1.1743687056 -2.8491248418 0.8800273822
| 32> *
| 33>
| 34>                          ****END OF INPUT****

CARTESIAN COORDINATES (ANGSTROEM)
---------------------------------
  C      2.408201    1.149023    0.000030
  C      1.268329    1.912397    0.000023
  C      0.000006    1.292175    0.000005
  C     -1.268321    1.912401   -0.000021
  C     -2.408195    1.149033   -0.000047
  C     -2.379519   -0.260535   -0.000005
  C     -1.166733   -0.891610    0.000021
  C     -0.000005   -0.109827    0.000004
  C      1.166727   -0.891610   -0.000015
  C      2.379518   -0.260546    0.000005
  C      0.775228   -2.342682   -0.000118
  C     -0.775237   -2.342680    0.000116
  H      3.371201    1.639656    0.000052
  H      1.333115    2.990921    0.000042
  H     -1.333089    2.990926   -0.000015
  H     -3.371190    1.639676   -0.000040
  H     -3.308014   -0.812184    0.000014
  H      3.308010   -0.812196   -0.000015
  H      1.174357   -2.849123   -0.880032
  H      1.174662   -2.849401    0.879490
  H     -1.174671   -2.849399   -0.879494
  H     -1.174369   -2.849125    0.880027

 Total Charge           Charge          ....    0
 Multiplicity           Mult            ....    1
 Number of Electrons    NEL             ....   82
 Basis Dimension        Dim             ....  278

ORBITAL ENERGIES
----------------

  NO   OCC          E(Eh)            E(eV)
   0   2.0000     -10.041925      -273.2547
   1   2.0000     -10.041163      -273.2339
   2   2.0000     -10.041161      -273.2339
   3   2.0000     -10.034612      -273.0557
   4   2.0000     -10.034611      -273.0556
   5   2.0000     -10.031950      -272.9832
   6   2.0000     -10.031848      -272.9805
   7   2.0000     -10.030714      -272.9496
   8   2.0000     -10.030710      -272.9495
   9   2.0000     -10.029710      -272.9223
  10   2.0000     -10.029708      -272.9222
  11   2.0000     -10.029374      -272.9131
  12   2.0000      -0.859434       -23.3864
  13   2.0000      -0.791834       -21.5469
  14   2.0000      -0.785959       -21.3870
  15   2.0000      -0.711589       -19.3633
  16   2.0000      -0.697797       -18.9880
  17   2.0000      -0.684392       -18.6232
  18   2.0000      -0.614700       -16.7268
  19   2.0000      -0.583806       -15.8862
  20   2.0000      -0.560606       -15.2549
  21   2.0000      -0.542115       -14.7517
  22   2.0000      -0.476706       -12.9718
  23   2.0000      -0.467535       -12.7223
  24   2.0000      -0.448258       -12.1977
  25   2.0000      -0.433307       -11.7909
  26   2.0000      -0.415483       -11.3059
  27   2.0000      -0.398682       -10.8487
  28   2.0000      -0.381252       -10.3744
  29   2.0000      -0.370497       -10.0817
  30   2.0000      -0.361918        -9.8483
  31   2.0000      -0.359582        -9.7847
  32   2.0000      -0.343925        -9.3587
  33   2.0000      -0.321907        -8.7595
  34   2.0000      -0.317973        -8.6525
  35   2.0000      -0.296459        -8.0671
  36   2.0000      -0.296392        -8.0652
  37   2.0000      -0.295930        -8.0527
  38   2.0000      -0.260482        -7.0881
  39   2.0000      -0.232739        -6.3331
  40   2.0000      -0.193364        -5.2617
  41   0.0000      -0.060822        -1.6550
  42   0.0000      -0.037048        -1.0081
  43   0.0000       0.000183         0.0050
  44   0.0000       0.064834         1.7642
  45   0.0000       0.086915         2.3651

MULLIKEN ATOMIC CHARGES
-----------------------
   0 C :   -0.165393
   1 C :   -0.315917
   2 C :    0.149936
   3 C :   -0.315906
   4 C :   -0.165395
   5 C :   -0.270392
   6 C :    0.095365
   7 C :    0.106095
   8 C :    0.095328
   9 C :   -0.270380
  10 C :   -0.383706
  11 C :   -0.383727
  12 H :    0.175183
  13 H :    0.177717
  14 H :    0.177716
  15 H :    0.175183
  16 H :    0.179125
  17 H :    0.179125
  18 H :    0.190015
  19 H :    0.190007
  20 H :    0.190008
  21 H :    0.190016
Sum of atomic charges:   -0.0000000

LOEWDIN ATOMIC CHARGES
----------------------
   0 C :   -0.165881
   1 C :   -0.171300
   2 C :   -0.071332
   3 C :   -0.171299
   4 C :   -0.165882
   5 C :   -0.179197
   6 C :   -0.057265
   7 C :   -0.053112
   8 C :   -0.057264
   9 C :   -0.179198
  10 C :   -0.258243
  11 C :   -0.258243
  12 H :    0.177274
  13 H :    0.180239
  14 H :    0.180238
  15 H :    0.177275
  16 H :    0.179283
  17 H :    0.179283
  18 H :    0.178659
  19 H :    0.178653
  20 H :    0.178653
  21 H :    0.178659

  Mayer bond orders larger than 0.100000
B(  0-C ,  1-C ) :   1.4731 B(  0-C ,  9-C ) :   1.2599 B(  0-C , 12-H ) :   0.9630
B(  1-C ,  2-C ) :   1.1572 B(  1-C , 13-H ) :   0.9553 B(  2-C ,  3-C ) :   1.1572
B(  2-C ,  6-C ) :  -0.1036 B(  2-C ,  7-C ) :   1.3303 B(  2-C ,  8-C ) :  -0.1037
B(  3-C ,  4-C ) :   1.4731 B(  3-C , 14-H ) :   0.9553 B(  4-C ,  5-C ) :   1.2599
B(  4-C , 15-H ) :   0.9630 B(  5-C ,  6-C ) :   1.3863 B(  5-C , 16-H ) :   0.9511
B(  6-C ,  7-C ) :   1.2905 B(  6-C , 11-C ) :   0.8692 B(  7-C ,  8-C ) :   1.2905
B(  8-C ,  9-C ) :   1.3863 B(  8-C , 10-C ) :   0.8692 B(  9-C , 17-H ) :   0.9511
B( 10-C , 11-C ) :   0.8889 B( 10-C , 18-H ) :   0.9770 B( 10-C , 19-H ) :   0.9770
B( 11-C , 20-H ) :   0.9770 B( 11-C , 21-H ) :   0.9770

Dispersion correction           -0.009275590
FINAL SINGLE POINT ENERGY      -463.188120928345

DIPOLE MOMENT
-------------

Method             : SCF
Type of density    : Electron Density
Multiplicity       :   1
Irrep              :   0
Energy             :  -463.1840002486415528 Eh
Relativity type    :
Basis              : AO
                                X                 Y                 Z
Electronic contribution:     -0.000005143       2.865025392      -0.000009113
Nuclear contribution   :      0.000012001      -3.527753233       0.000028121
                        -----------------------------------------
Total Dipole Moment    :      0.000006858      -0.662727841       0.000019008
                        -----------------------------------------
Magnitude (a.u.)       :      0.662727841
Magnitude (Debye)      :      1.684520301

Rotational constants in cm-1:             0.047759             0.040296             0.022034
Rotational constants in MHz :          1431.783754          1208.038943           660.559787

                             ****ORCA TERMINATED NORMALLY****
TOTAL RUN TIME: 0 days 0 hours 0 minutes 37 seconds 402 msec
