                         Program Version 6.0.0  -   RELEASE  -
|  1> ! pbe def2-sv(p) def2/J RI DEFGRID1 loosescf d4 GCP(DFT/SV(P)) printgap
|  2> %output
|  3>     printlevel normal
|  4> end
|  5> * xyz 0 1
|  6> C 3.3757374697 -1.8393460068 -2.5625690856
|  7> C 4.0934202303 -0.5724038177 -2.1436434719
|  8> O 3.7296827739 -0.1393005462 -0.8215215633
|  9> P 2.2513561197 0.3142845321 -0.4152426951
| 10> S 1.3372123174 1.3668439009 -1.7834181445
| 11> O 2.5603706975 1.1244552037 0.8967111098
| 12> C 3.2055212918 0.5437589564 2.0569586475
| 13> C 2.8786509667 1.4177006195 3.2490051489
| 14> S 1.3162712579 -1.5010168384 0.20259847
| 15> C -0.1283554826 -1.5015126793 -0.9116545747
| 16> S -1.7210957755 -1.7308243492 -0.0799755951
| 17> P -2.1183117539 0.1922863136 0.7439510225
| 18> S -0.5497237979 1.1789051011 1.383793495
| 19> O -3.1332551301 -0.0830212279 1.9096392232
| 20> C -4.5492950776 -0.3630495527 1.758402351
| 21> C -4.8140589867 -1.6268229276 0.9697384329
| 22> O -3.0278500239 0.9869677522 -0.2984544196
| 23> C -2.5194155428 1.6086135942 -1.4906290688
| 24> C -2.776677839 0.7372433998 -2.7051464277
| 25> H 3.4924067244 -2.610108843 -1.8049116567
| 26> H 2.3158253664 -1.6331673969 -2.7032142593
| 27> H 3.7923920592 -2.1895513563 -3.5014612027
| 28> H 3.8748274138 0.2411608866 -2.8422030078
| 29> H 5.1718517557 -0.7231242677 -2.0758271448
| 30> H 2.8261677282 -0.4733082312 2.1957896747
| 31> H 4.2786381936 0.5074985917 1.8575795936
| 32> H 3.2560204686 2.4234965747 3.0890754137
| 33> H 1.7999334326 1.4701693275 3.3784729723
| 34> H 3.3312143353 0.9948441245 4.1398183903
| 35> H -0.0384380309 -2.3635456575 -1.5684417722
| 36> H -0.1168336279 -0.5649509265 -1.4762211297
| 37> H -4.8908287267 -0.4529097105 2.7906893462
| 38> H -5.0167339025 0.501900695 1.2847573525
| 39> H -4.2684106505 -2.4636768977 1.3983484524
| 40> H -5.8777933761 -1.8424351427 0.995670397
| 41> H -4.5038759029 -1.5008676884 -0.0651969496
| 42> H -3.0589861201 2.5548206184 -1.5658658672
| 43> H -1.4523040922 1.8230925509 -1.367314069
| 44> H -3.8433664924 0.5703752205 -2.8243301294
| 45> H -2.3882011871 1.2407081511 -3.5845953976
| 46> H -2.2800258738 -0.2245775818 -2.6040788988
| 47> *
| 48>
| 49>                          ****END OF INPUT****

CARTESIAN COORDINATES (ANGSTROEM)
---------------------------------
  C      3.375737   -1.839346   -2.562569
  C      4.093420   -0.572404   -2.143643
  O      3.729683   -0.139301   -0.821522
  P      2.251356    0.314285   -0.415243
  S      1.337212    1.366844   -1.783418
  O      2.560371    1.124455    0.896711
  C      3.205521    0.543759    2.056959
  C      2.878651    1.417701    3.249005
  S      1.316271   -1.501017    0.202598
  C     -0.128355   -1.501513   -0.911655
  S     -1.721096   -1.730824   -0.079976
  P     -2.118312    0.192286    0.743951
  S     -0.549724    1.178905    1.383793
  O     -3.133255   -0.083021    1.909639
  C     -4.549295   -0.363050    1.758402
  C     -4.814059   -1.626823    0.969738
  O     -3.027850    0.986968   -0.298454
  C     -2.519416    1.608614   -1.490629
  C     -2.776678    0.737243   -2.705146
  H      3.492407   -2.610109   -1.804912
  H      2.315825   -1.633167   -2.703214
  H      3.792392   -2.189551   -3.501461
  H      3.874827    0.241161   -2.842203
  H      5.171852   -0.723124   -2.075827
  H      2.826168   -0.473308    2.195790
  H      4.278638    0.507499    1.857580
  H      3.256020    2.423497    3.089075
  H      1.799933    1.470169    3.378473
  H      3.331214    0.994844    4.139818
  H     -0.038438   -2.363546   -1.568442
  H     -0.116834   -0.564951   -1.476221
  H     -4.890829   -0.452910    2.790689
  H     -5.016734    0.501901    1.284757
  H     -4.268411   -2.463677    1.398348
  H     -5.877793   -1.842435    0.995670
  H     -4.503876   -1.500868   -0.065197
  H     -3.058986    2.554821   -1.565866
  H     -1.452304    1.823093   -1.367314
  H     -3.843366    0.570375   -2.824330
  H     -2.388201    1.240708   -3.584595
  H     -2.280026   -0.224578   -2.604079

 Total Charge           Charge          ....    0
 Multiplicity           Mult            ....    1
 Number of Electrons    NEL             ....  202
 Basis Dimension        Dim             ....  334

ORBITAL ENERGIES
----------------

  NO   OCC          E(Eh)            E(eV)
   0   2.0000     -88.041382     -2395.7278
   1   2.0000     -88.037627     -2395.6256
   2   2.0000     -87.986805     -2394.2427
   3   2.0000     -87.974075     -2393.8963
   4   2.0000     -76.423684     -2079.5942
   5   2.0000     -76.420584     -2079.5098
   6   2.0000     -18.789002      -511.2747
   7   2.0000     -18.786128      -511.1965
   8   2.0000     -18.785695      -511.1847
   9   2.0000     -18.783710      -511.1307
  10   2.0000      -9.956957      -270.9426
  11   2.0000      -9.955271      -270.8967
  12   2.0000      -9.951653      -270.7982
  13   2.0000      -9.950450      -270.7655
  14   2.0000      -9.946104      -270.6472
  15   2.0000      -9.890676      -269.1390
  16   2.0000      -9.884769      -268.9782
  17   2.0000      -9.883326      -268.9390
  18   2.0000      -9.879443      -268.8333
  19   2.0000      -7.686110      -209.1497
  20   2.0000      -7.682295      -209.0459
  21   2.0000      -7.631788      -207.6715
  22   2.0000      -7.618882      -207.3203
  23   2.0000      -6.420835      -174.7198
  24   2.0000      -6.417889      -174.6396
  25   2.0000      -5.714058      -155.4874
  26   2.0000      -5.710411      -155.3882
  27   2.0000      -5.710189      -155.3822
  28   2.0000      -5.706981      -155.2948
  29   2.0000      -5.703281      -155.1942
  30   2.0000      -5.699144      -155.0816
  31   2.0000      -5.660593      -154.0326
  32   2.0000      -5.652595      -153.8149
  33   2.0000      -5.651780      -153.7928
  34   2.0000      -5.647935      -153.6881
  35   2.0000      -5.639606      -153.4615
  36   2.0000      -5.638836      -153.4405
  37   2.0000      -4.643544      -126.3573
  38   2.0000      -4.642418      -126.3266
  39   2.0000      -4.641446      -126.3002
  40   2.0000      -4.640905      -126.2854
  41   2.0000      -4.639602      -126.2500
  42   2.0000      -4.638007      -126.2066
  43   2.0000      -0.984202       -26.7815
  44   2.0000      -0.982254       -26.7285
  45   2.0000      -0.939679       -25.5700
  46   2.0000      -0.937530       -25.5115
  47   2.0000      -0.757142       -20.6029
  48   2.0000      -0.718442       -19.5498
  49   2.0000      -0.710651       -19.3378
  50   2.0000      -0.689547       -18.7635
  51   2.0000      -0.685529       -18.6542
  52   2.0000      -0.675935       -18.3931
  53   2.0000      -0.648801       -17.6548
  54   2.0000      -0.631505       -17.1841
  55   2.0000      -0.594141       -16.1674
  56   2.0000      -0.586293       -15.9538
  57   2.0000      -0.575642       -15.6640
  58   2.0000      -0.567112       -15.4319
  59   2.0000      -0.561145       -15.2695
  60   2.0000      -0.502905       -13.6847
  61   2.0000      -0.495511       -13.4835
  62   2.0000      -0.472611       -12.8604
  63   2.0000      -0.468654       -12.7527
  64   2.0000      -0.453510       -12.3406
  65   2.0000      -0.449227       -12.2241
  66   2.0000      -0.439805       -11.9677
  67   2.0000      -0.434888       -11.8339
  68   2.0000      -0.424336       -11.5468
  69   2.0000      -0.422468       -11.4959
  70   2.0000      -0.413374       -11.2485
  71   2.0000      -0.390545       -10.6273
  72   2.0000      -0.390114       -10.6156
  73   2.0000      -0.387064       -10.5325
  74   2.0000      -0.381376       -10.3778
  75   2.0000      -0.367353        -9.9962
  76   2.0000      -0.360103        -9.7989
  77   2.0000      -0.359486        -9.7821
  78   2.0000      -0.350959        -9.5501
  79   2.0000      -0.349853        -9.5200
  80   2.0000      -0.346693        -9.4340
  81   2.0000      -0.342193        -9.3115
  82   2.0000      -0.341125        -9.2825
  83   2.0000      -0.333332        -9.0704
  84   2.0000      -0.331366        -9.0169
  85   2.0000      -0.313280        -8.5248
  86   2.0000      -0.311388        -8.4733
  87   2.0000      -0.296369        -8.0646
  88   2.0000      -0.294423        -8.0117
  89   2.0000      -0.292385        -7.9562
  90   2.0000      -0.288192        -7.8421
  91   2.0000      -0.273093        -7.4312
  92   2.0000      -0.266036        -7.2392
  93   2.0000      -0.258928        -7.0458
  94   2.0000      -0.252117        -6.8604
  95   2.0000      -0.232376        -6.3233
  96   2.0000      -0.219331        -5.9683
  97   2.0000      -0.210948        -5.7402
  98   2.0000      -0.202684        -5.5153
  99   2.0000      -0.184394        -5.0176
 100   2.0000      -0.182584        -4.9684
 101   0.0000      -0.038178        -1.0389
 102   0.0000      -0.030703        -0.8355
 103   0.0000      -0.017975        -0.4891
 104   0.0000       0.004143         0.1127
 105   0.0000       0.018193         0.4951

MULLIKEN ATOMIC CHARGES
-----------------------
   0 C :   -0.321815
   1 C :    0.006552
   2 O :   -0.386507
   3 P :    0.619453
   4 S :   -0.304558
   5 O :   -0.353659
   6 C :   -0.016886
   7 C :   -0.286117
   8 S :   -0.095678
   9 C :   -0.352915
  10 S :   -0.122125
  11 P :    0.608293
  12 S :   -0.299697
  13 O :   -0.360941
  14 C :    0.008037
  15 C :   -0.338241
  16 O :   -0.386750
  17 C :   -0.027058
  18 C :   -0.297807
  19 H :    0.121057
  20 H :    0.119102
  21 H :    0.111446
  22 H :    0.109477
  23 H :    0.103042
  24 H :    0.111123
  25 H :    0.107087
  26 H :    0.118891
  27 H :    0.137935
  28 H :    0.107388
  29 H :    0.181406
  30 H :    0.194114
  31 H :    0.111460
  32 H :    0.112442
  33 H :    0.130604
  34 H :    0.118197
  35 H :    0.131893
  36 H :    0.104764
  37 H :    0.133640
  38 H :    0.109865
  39 H :    0.113551
  40 H :    0.119935
Sum of atomic charges:   -0.0000000

LOEWDIN ATOMIC CHARGES
----------------------
   0 C :   -0.371692
   1 C :   -0.115476
   2 O :   -0.256423
   3 P :    0.580176
   4 S :   -0.294490
   5 O :   -0.228714
   6 C :   -0.112015
   7 C :   -0.351848
   8 S :    0.072485
   9 C :   -0.484854
  10 S :    0.071854
  11 P :    0.559010
  12 S :   -0.301603
  13 O :   -0.234921
  14 C :   -0.107462
  15 C :   -0.375338
  16 O :   -0.251568
  17 C :   -0.122411
  18 C :   -0.360089
  19 H :    0.124264
  20 H :    0.118029
  21 H :    0.129873
  22 H :    0.110987
  23 H :    0.118051
  24 H :    0.106224
  25 H :    0.114164
  26 H :    0.128815
  27 H :    0.132393
  28 H :    0.128906
  29 H :    0.134559
  30 H :    0.116683
  31 H :    0.123056
  32 H :    0.116454
  33 H :    0.128197
  34 H :    0.134078
  35 H :    0.120022
  36 H :    0.118967
  37 H :    0.108258
  38 H :    0.123084
  39 H :    0.131990
  40 H :    0.118326

  Mayer bond orders larger than 0.100000
B(  0-C ,  1-C ) :   1.1635 B(  0-C , 19-H ) :   0.9408 B(  0-C , 20-H ) :   0.9367
B(  0-C , 21-H ) :   0.9365 B(  1-C ,  2-O ) :   0.9214 B(  1-C , 22-H ) :   0.9198
B(  1-C , 23-H ) :   0.9349 B(  2-O ,  3-P ) :   1.0730 B(  3-P ,  4-S ) :   1.5977
B(  3-P ,  5-O ) :   1.1463 B(  3-P ,  8-S ) :   0.9557 B(  4-S ,  8-S ) :   0.1149
B(  4-S , 30-H ) :   0.1277 B(  5-O ,  6-C ) :   0.8905 B(  6-C ,  7-C ) :   1.1649
B(  6-C , 24-H ) :   0.9134 B(  6-C , 25-H ) :   0.9296 B(  7-C , 26-H ) :   0.9498
B(  7-C , 27-H ) :   0.9426 B(  7-C , 28-H ) :   0.9402 B(  8-S ,  9-C ) :   1.0032
B(  9-C , 10-S ) :   0.9928 B(  9-C , 29-H ) :   0.9045 B(  9-C , 30-H ) :   0.8410
B( 10-S , 11-P ) :   0.9383 B( 10-S , 12-S ) :   0.1152 B( 11-P , 12-S ) :   1.6829
B( 11-P , 13-O ) :   1.1462 B( 11-P , 16-O ) :   1.0611 B( 13-O , 14-C ) :   0.8961
B( 14-C , 15-C ) :   1.1722 B( 14-C , 31-H ) :   0.9343 B( 14-C , 32-H ) :   0.9269
B( 15-C , 33-H ) :   0.9402 B( 15-C , 34-H ) :   0.9344 B( 15-C , 35-H ) :   0.9322
B( 16-O , 17-C ) :   0.9060 B( 17-C , 18-C ) :   1.1659 B( 17-C , 36-H ) :   0.9346
B( 17-C , 37-H ) :   0.8955 B( 18-C , 38-H ) :   0.9468 B( 18-C , 39-H ) :   0.9409
B( 18-C , 40-H ) :   0.9365

Dispersion correction           -0.066474101
FINAL SINGLE POINT ENERGY     -2929.511901813167

DIPOLE MOMENT
-------------

Method             : SCF
Type of density    : Electron Density
Multiplicity       :   1
Irrep              :   0
Energy             : -2929.6302544236691574 Eh
Relativity type    :
Basis              : AO
                                X                 Y                 Z
Electronic contribution:      3.167240636       3.810059919       6.200519733
Nuclear contribution   :     -3.502197285      -4.827474430      -6.690431394
                        -----------------------------------------
Total Dipole Moment    :     -0.334956649      -1.017414511      -0.489911661
                        -----------------------------------------
Magnitude (a.u.)       :      1.177854694
Magnitude (Debye)      :      2.993868706

Rotational constants in cm-1:             0.012255             0.005189             0.004679
Rotational constants in MHz :           367.398052           155.574744           140.272434

                             ****ORCA TERMINATED NORMALLY****
TOTAL RUN TIME: 0 days 0 hours 0 minutes 21 seconds 705 msec
