                         Program Version 6.0.0  -   RELEASE  -
|  1> ! pbe def2-sv(p) def2/J RI DEFGRID1 loosescf d4 GCP(DFT/SV(P)) printgap
|  2> %output
|  3>     printlevel normal
|  4> end
|  5> * xyz 0 1
|  6> C 4.2527562221 1.0849203069 -2.4612642959
|  7> C 4.4584861657 0.5011723684 -1.0779766764
|  8> O 3.5397622327 1.1071780771 -0.1343706632
|  9> P 2.2866208068 0.3571012159 0.477127664
| 10> S 1.432812116 1.5122022312 1.7980699043
| 11> O 2.8387510873 -1.0364573677 1.0322378469
| 12> C 2.8283201071 -1.4163705391 2.4250914999
| 13> C 1.7974808505 -2.4971397436 2.6818827779
| 14> S 1.2402051127 -0.2811705769 -1.2555542386
| 15> C 0.2365465405 -1.6097914045 -0.5326066386
| 16> S -0.9657053338 -1.0347377993 0.6912825974
| 17> P -2.2232056762 0.0183863719 -0.6696878001
| 18> S -2.314522 -0.7031350914 -2.4823248182
| 19> O -1.7038290005 1.5092461247 -0.6561072216
| 20> C -1.723196298 2.3568993132 0.5171189686
| 21> C -2.9547601971 3.2371667817 0.5240533295
| 22> O -3.6056038373 0.1228631246 0.1083224558
| 23> C -4.6206194174 -0.8951907999 0.0188535241
| 24> C -4.1803390425 -2.2103608343 0.6276850719
| 25> H 4.994482096 0.6705323058 -3.1366456842
| 26> H 3.2586678465 0.8439962336 -2.8327845672
| 27> H 4.3598654777 2.1656104536 -2.4282797085
| 28> H 5.4507075545 0.7411594447 -0.6921938219
| 29> H 4.312461035 -0.5812473337 -1.0754186214
| 30> H 3.8391189302 -1.7741363294 2.6282655545
| 31> H 2.6219713847 -0.5293092651 3.0320967041
| 32> H 1.9846056582 -3.3593307391 2.0474795585
| 33> H 1.8629947108 -2.8022639005 3.7212046299
| 34> H 0.7944087396 -2.1185758301 2.4904973292
| 35> H 0.88227224 -2.3294258511 -0.0369992795
| 36> H -0.293559688 -2.0590953765 -1.3733905149
| 37> H -1.6703624305 1.7330846151 1.4138963469
| 38> H -0.8083765421 2.9492183319 0.4461763079
| 39> H -2.8943198978 3.916911463 1.3681309969
| 40> H -3.004938539 3.8107365385 -0.3975560482
| 41> H -3.8525128203 2.6313892646 0.612457499
| 42> H -5.4654007204 -0.4650685722 0.5587497402
| 43> H -4.8801245714 -1.0270496513 -1.0358849928
| 44> H -3.8055980449 -2.0553559148 1.6364673604
| 45> H -5.0266462228 -2.889076503 0.6577042493
| 46> H -3.3927610713 -2.6566698234 0.0227381571
| 47> *
| 48>
| 49>                          ****END OF INPUT****

CARTESIAN COORDINATES (ANGSTROEM)
---------------------------------
  C      4.252756    1.084920   -2.461264
  C      4.458486    0.501172   -1.077977
  O      3.539762    1.107178   -0.134371
  P      2.286621    0.357101    0.477128
  S      1.432812    1.512202    1.798070
  O      2.838751   -1.036457    1.032238
  C      2.828320   -1.416371    2.425091
  C      1.797481   -2.497140    2.681883
  S      1.240205   -0.281171   -1.255554
  C      0.236547   -1.609791   -0.532607
  S     -0.965705   -1.034738    0.691283
  P     -2.223206    0.018386   -0.669688
  S     -2.314522   -0.703135   -2.482325
  O     -1.703829    1.509246   -0.656107
  C     -1.723196    2.356899    0.517119
  C     -2.954760    3.237167    0.524053
  O     -3.605604    0.122863    0.108322
  C     -4.620619   -0.895191    0.018854
  C     -4.180339   -2.210361    0.627685
  H      4.994482    0.670532   -3.136646
  H      3.258668    0.843996   -2.832785
  H      4.359865    2.165610   -2.428280
  H      5.450708    0.741159   -0.692194
  H      4.312461   -0.581247   -1.075419
  H      3.839119   -1.774136    2.628266
  H      2.621971   -0.529309    3.032097
  H      1.984606   -3.359331    2.047480
  H      1.862995   -2.802264    3.721205
  H      0.794409   -2.118576    2.490497
  H      0.882272   -2.329426   -0.036999
  H     -0.293560   -2.059095   -1.373391
  H     -1.670362    1.733085    1.413896
  H     -0.808377    2.949218    0.446176
  H     -2.894320    3.916911    1.368131
  H     -3.004939    3.810737   -0.397556
  H     -3.852513    2.631389    0.612457
  H     -5.465401   -0.465069    0.558750
  H     -4.880125   -1.027050   -1.035885
  H     -3.805598   -2.055356    1.636467
  H     -5.026646   -2.889077    0.657704
  H     -3.392761   -2.656670    0.022738

 Total Charge           Charge          ....    0
 Multiplicity           Mult            ....    1
 Number of Electrons    NEL             ....  202
 Basis Dimension        Dim             ....  334

ORBITAL ENERGIES
----------------

  NO   OCC          E(Eh)            E(eV)
   0   2.0000     -88.041927     -2395.7426
   1   2.0000     -88.041581     -2395.7332
   2   2.0000     -87.985795     -2394.2152
   3   2.0000     -87.982302     -2394.1202
   4   2.0000     -76.425275     -2079.6374
   5   2.0000     -76.424847     -2079.6258
   6   2.0000     -18.795644      -511.4555
   7   2.0000     -18.795118      -511.4412
   8   2.0000     -18.790577      -511.3176
   9   2.0000     -18.783201      -511.1169
  10   2.0000      -9.956803      -270.9384
  11   2.0000      -9.956119      -270.9198
  12   2.0000      -9.954967      -270.8884
  13   2.0000      -9.954908      -270.8868
  14   2.0000      -9.941565      -270.5237
  15   2.0000      -9.891578      -269.1635
  16   2.0000      -9.886622      -269.0287
  17   2.0000      -9.885533      -268.9990
  18   2.0000      -9.876654      -268.7574
  19   2.0000      -7.686498      -209.1603
  20   2.0000      -7.686414      -209.1580
  21   2.0000      -7.631085      -207.6524
  22   2.0000      -7.627621      -207.5581
  23   2.0000      -6.422915      -174.7764
  24   2.0000      -6.422345      -174.7609
  25   2.0000      -5.714476      -155.4988
  26   2.0000      -5.714202      -155.4913
  27   2.0000      -5.711054      -155.4057
  28   2.0000      -5.710922      -155.4021
  29   2.0000      -5.703467      -155.1992
  30   2.0000      -5.703423      -155.1980
  31   2.0000      -5.660066      -154.0182
  32   2.0000      -5.656602      -153.9240
  33   2.0000      -5.651559      -153.7867
  34   2.0000      -5.651288      -153.7794
  35   2.0000      -5.648008      -153.6901
  36   2.0000      -5.647842      -153.6856
  37   2.0000      -4.646025      -126.4248
  38   2.0000      -4.645230      -126.4031
  39   2.0000      -4.644490      -126.3830
  40   2.0000      -4.643941      -126.3680
  41   2.0000      -4.643086      -126.3448
  42   2.0000      -4.642710      -126.3346
  43   2.0000      -0.985609       -26.8198
  44   2.0000      -0.985085       -26.8055
  45   2.0000      -0.945178       -25.7196
  46   2.0000      -0.940976       -25.6053
  47   2.0000      -0.763380       -20.7726
  48   2.0000      -0.721423       -19.6309
  49   2.0000      -0.708740       -19.2858
  50   2.0000      -0.694122       -18.8880
  51   2.0000      -0.687703       -18.7133
  52   2.0000      -0.672588       -18.3020
  53   2.0000      -0.649624       -17.6772
  54   2.0000      -0.638413       -17.3721
  55   2.0000      -0.597043       -16.2464
  56   2.0000      -0.588900       -16.0248
  57   2.0000      -0.576078       -15.6759
  58   2.0000      -0.567378       -15.4391
  59   2.0000      -0.563364       -15.3299
  60   2.0000      -0.507766       -13.8170
  61   2.0000      -0.495654       -13.4874
  62   2.0000      -0.479342       -13.0436
  63   2.0000      -0.471907       -12.8412
  64   2.0000      -0.459160       -12.4944
  65   2.0000      -0.446148       -12.1403
  66   2.0000      -0.443787       -12.0761
  67   2.0000      -0.435371       -11.8470
  68   2.0000      -0.423191       -11.5156
  69   2.0000      -0.420037       -11.4298
  70   2.0000      -0.409487       -11.1427
  71   2.0000      -0.393215       -10.6999
  72   2.0000      -0.386989       -10.5305
  73   2.0000      -0.380010       -10.3406
  74   2.0000      -0.379038       -10.3141
  75   2.0000      -0.377187       -10.2638
  76   2.0000      -0.368320       -10.0225
  77   2.0000      -0.359748        -9.7892
  78   2.0000      -0.358297        -9.7498
  79   2.0000      -0.352499        -9.5920
  80   2.0000      -0.350712        -9.5434
  81   2.0000      -0.345535        -9.4025
  82   2.0000      -0.341223        -9.2852
  83   2.0000      -0.340177        -9.2567
  84   2.0000      -0.334378        -9.0989
  85   2.0000      -0.319306        -8.6887
  86   2.0000      -0.310540        -8.4502
  87   2.0000      -0.302842        -8.2407
  88   2.0000      -0.295255        -8.0343
  89   2.0000      -0.287843        -7.8326
  90   2.0000      -0.287532        -7.8242
  91   2.0000      -0.272038        -7.4025
  92   2.0000      -0.267259        -7.2725
  93   2.0000      -0.264649        -7.2015
  94   2.0000      -0.258617        -7.0373
  95   2.0000      -0.238870        -6.5000
  96   2.0000      -0.217384        -5.9153
  97   2.0000      -0.207165        -5.6373
  98   2.0000      -0.205847        -5.6014
  99   2.0000      -0.197932        -5.3860
 100   2.0000      -0.191572        -5.2129
 101   0.0000      -0.046557        -1.2669
 102   0.0000      -0.024765        -0.6739
 103   0.0000      -0.007221        -0.1965
 104   0.0000      -0.000353        -0.0096
 105   0.0000       0.013345         0.3631

MULLIKEN ATOMIC CHARGES
-----------------------
   0 C :   -0.293364
   1 C :   -0.021061
   2 O :   -0.362083
   3 P :    0.609886
   4 S :   -0.306513
   5 O :   -0.395601
   6 C :   -0.008718
   7 C :   -0.318371
   8 S :   -0.082152
   9 C :   -0.370168
  10 S :   -0.101931
  11 P :    0.622216
  12 S :   -0.319033
  13 O :   -0.349329
  14 C :   -0.019750
  15 C :   -0.282844
  16 O :   -0.382784
  17 C :   -0.000220
  18 C :   -0.315722
  19 H :    0.110582
  20 H :    0.131591
  21 H :    0.121977
  22 H :    0.109501
  23 H :    0.107089
  24 H :    0.103335
  25 H :    0.115605
  26 H :    0.120233
  27 H :    0.115784
  28 H :    0.134679
  29 H :    0.190125
  30 H :    0.193911
  31 H :    0.106955
  32 H :    0.120498
  33 H :    0.108574
  34 H :    0.116204
  35 H :    0.114620
  36 H :    0.105597
  37 H :    0.113963
  38 H :    0.117921
  39 H :    0.113655
  40 H :    0.125143
Sum of atomic charges:   -0.0000000

LOEWDIN ATOMIC CHARGES
----------------------
   0 C :   -0.359001
   1 C :   -0.118538
   2 O :   -0.243271
   3 P :    0.562517
   4 S :   -0.299316
   5 O :   -0.260284
   6 C :   -0.119087
   7 C :   -0.362727
   8 S :    0.092425
   9 C :   -0.483348
  10 S :    0.082251
  11 P :    0.575862
  12 S :   -0.310802
  13 O :   -0.230302
  14 C :   -0.117566
  15 C :   -0.359992
  16 O :   -0.246101
  17 C :   -0.115819
  18 C :   -0.371350
  19 H :    0.130431
  20 H :    0.122248
  21 H :    0.129918
  22 H :    0.120675
  23 H :    0.108660
  24 H :    0.116824
  25 H :    0.109173
  26 H :    0.123651
  27 H :    0.133970
  28 H :    0.118636
  29 H :    0.130543
  30 H :    0.129584
  31 H :    0.104606
  32 H :    0.119282
  33 H :    0.129157
  34 H :    0.127212
  35 H :    0.122490
  36 H :    0.118766
  37 H :    0.113581
  38 H :    0.123359
  39 H :    0.131353
  40 H :    0.120330

  Mayer bond orders larger than 0.100000
B(  0-C ,  1-C ) :   1.1651 B(  0-C , 19-H ) :   0.9396 B(  0-C , 20-H ) :   0.9387
B(  0-C , 21-H ) :   0.9460 B(  1-C ,  2-O ) :   0.8943 B(  1-C , 22-H ) :   0.9327
B(  1-C , 23-H ) :   0.9163 B(  2-O ,  3-P ) :   1.1353 B(  3-P ,  4-S ) :   1.6550
B(  3-P ,  5-O ) :   1.0572 B(  3-P ,  8-S ) :   0.9677 B(  4-S ,  8-S ) :   0.1029
B(  5-O ,  6-C ) :   0.9065 B(  6-C ,  7-C ) :   1.1702 B(  6-C , 24-H ) :   0.9326
B(  6-C , 25-H ) :   0.9002 B(  7-C , 26-H ) :   0.9404 B(  7-C , 27-H ) :   0.9365
B(  7-C , 28-H ) :   0.9310 B(  8-S ,  9-C ) :   0.9961 B(  9-C , 10-S ) :   1.0161
B(  9-C , 29-H ) :   0.8910 B(  9-C , 30-H ) :   0.8750 B( 10-S , 11-P ) :   0.9398
B( 10-S , 12-S ) :   0.1062 B( 11-P , 12-S ) :   1.6251 B( 11-P , 13-O ) :   1.1558
B( 11-P , 16-O ) :   1.0810 B( 13-O , 14-C ) :   0.8857 B( 14-C , 15-C ) :   1.1556
B( 14-C , 31-H ) :   0.9176 B( 14-C , 32-H ) :   0.9267 B( 15-C , 33-H ) :   0.9409
B( 15-C , 34-H ) :   0.9465 B( 15-C , 35-H ) :   0.9425 B( 16-O , 17-C ) :   0.9059
B( 17-C , 18-C ) :   1.1673 B( 17-C , 36-H ) :   0.9339 B( 17-C , 37-H ) :   0.9188
B( 18-C , 38-H ) :   0.9432 B( 18-C , 39-H ) :   0.9365 B( 18-C , 40-H ) :   0.9348

Dispersion correction           -0.065448809
FINAL SINGLE POINT ENERGY     -2929.518917257267

DIPOLE MOMENT
-------------

Method             : SCF
Type of density    : Electron Density
Multiplicity       :   1
Irrep              :   0
Energy             : -2929.6384787349361432 Eh
Relativity type    :
Basis              : AO
                                X                 Y                 Z
Electronic contribution:      1.136913920       4.147343429      -6.562913310
Nuclear contribution   :     -0.710973462      -5.159060330       7.368545093
                        -----------------------------------------
Total Dipole Moment    :      0.425940458      -1.011716902       0.805631783
                        -----------------------------------------
Magnitude (a.u.)       :      1.361630983
Magnitude (Debye)      :      3.460990908

Rotational constants in cm-1:             0.011623             0.005006             0.004803
Rotational constants in MHz :           348.460566           150.078295           143.986852

                             ****ORCA TERMINATED NORMALLY****
TOTAL RUN TIME: 0 days 0 hours 0 minutes 21 seconds 87 msec
