                         Program Version 6.0.1  -  RELEASE   -
|  1> ! pbe def2-sv(p) def2/J RI DEFGRID1 loosescf d4 GCP(DFT/SV(P)) printgap
|  2> %output
|  3>     printlevel normal
|  4> end
|  5> * xyz 0 1
|  6> C 2.8983626079 -3.9776726511 0.2943151997
|  7> C 2.5615239161 -2.5506973438 0.6774261061
|  8> O 2.1776828519 -1.8480604472 -0.5205500238
|  9> C 2.0589503931 -0.5434951833 -0.4721460675
| 10> O 2.2340683373 0.1348783821 0.5217059339
| 11> C 1.7044176931 0.0525517071 -1.8223166143
| 12> C 0.4622382925 0.9433238837 -1.7136813078
| 13> H 0.4140323403 1.6196267077 -2.5698005153
| 14> C 0.4864281119 1.7551141885 -0.432972327
| 15> O -0.3123822214 1.5711556626 0.4699227269
| 16> O 1.4039240499 2.6718129234 -0.4455987964
| 17> C 1.5986301305 3.4557108348 0.7524627416
| 18> C 2.5585146513 4.5797484938 0.4205581299
| 19> S -1.0903664822 -0.014578192 -1.7735391036
| 20> P -1.7225327079 -0.3636121525 0.2029952801
| 21> S -0.6313959295 -1.0966591253 1.6732304293
| 22> O -2.7510722109 0.8162457818 0.5098081697
| 23> C -3.6112343525 0.7420638713 1.6555799627
| 24> O -2.8275449779 -1.4839379857 -0.1889166986
| 25> C -2.4898886588 -2.853472729 -0.4056350474
| 26> H 2.0343917798 -4.4521201843 -0.1606307752
| 27> H 3.7223651663 -3.990254372 -0.4128660582
| 28> H 3.1799683673 -4.5275932394 1.1858010377
| 29> H 3.414824766 -2.0293710873 1.1223215436
| 30> H 1.7253174861 -2.5004284181 1.3830686547
| 31> H 1.535448755 -0.7430531097 -2.5459639121
| 32> H 2.5486943432 0.6702990768 -2.1354038182
| 33> H 0.6242276519 3.8261073102 1.0852357737
| 34> H 1.9971938665 2.7830601106 1.5183626363
| 35> H 3.5046724144 4.1704839167 0.0809557052
| 36> H 2.143018417 5.2084129045 -0.3611116821
| 37> H 2.7262193695 5.1773538407 1.3101444896
| 38> H -4.0493595545 1.7322293702 1.751686806
| 39> H -3.0321219706 0.4918911759 2.5466121209
| 40> H -4.3814582478 -0.0110966268 1.4910185543
| 41> H -1.7954772482 -3.1906265345 0.3671290173
| 42> H -2.039926197 -2.9738981913 -1.3908476197
| 43> H -3.4253816819 -3.4035205834 -0.3416549692
| 44> *
| 45>
| 46>                          ****END OF INPUT****

CARTESIAN COORDINATES (ANGSTROEM)
---------------------------------
  C      2.898363   -3.977673    0.294315
  C      2.561524   -2.550697    0.677426
  O      2.177683   -1.848060   -0.520550
  C      2.058950   -0.543495   -0.472146
  O      2.234068    0.134878    0.521706
  C      1.704418    0.052552   -1.822317
  C      0.462238    0.943324   -1.713681
  H      0.414032    1.619627   -2.569801
  C      0.486428    1.755114   -0.432972
  O     -0.312382    1.571156    0.469923
  O      1.403924    2.671813   -0.445599
  C      1.598630    3.455711    0.752463
  C      2.558515    4.579748    0.420558
  S     -1.090366   -0.014578   -1.773539
  P     -1.722533   -0.363612    0.202995
  S     -0.631396   -1.096659    1.673230
  O     -2.751072    0.816246    0.509808
  C     -3.611234    0.742064    1.655580
  O     -2.827545   -1.483938   -0.188917
  C     -2.489889   -2.853473   -0.405635
  H      2.034392   -4.452120   -0.160631
  H      3.722365   -3.990254   -0.412866
  H      3.179968   -4.527593    1.185801
  H      3.414825   -2.029371    1.122322
  H      1.725317   -2.500428    1.383069
  H      1.535449   -0.743053   -2.545964
  H      2.548694    0.670299   -2.135404
  H      0.624228    3.826107    1.085236
  H      1.997194    2.783060    1.518363
  H      3.504672    4.170484    0.080956
  H      2.143018    5.208413   -0.361112
  H      2.726219    5.177354    1.310144
  H     -4.049360    1.732229    1.751687
  H     -3.032122    0.491891    2.546612
  H     -4.381458   -0.011097    1.491019
  H     -1.795477   -3.190627    0.367129
  H     -2.039926   -2.973898   -1.390848
  H     -3.425382   -3.403521   -0.341655

 Total Charge           Charge          ....    0
 Multiplicity           Mult            ....    1
 Number of Electrons    NEL             ....  174
 Basis Dimension        Dim             ....  316

ORBITAL ENERGIES
----------------

  NO   OCC          E(Eh)            E(eV)
   0   2.0000     -88.035309     -2395.5626
   1   2.0000     -87.961246     -2393.5472
   2   2.0000     -76.414127     -2079.3341
   3   2.0000     -18.815787      -512.0036
   4   2.0000     -18.804165      -511.6873
   5   2.0000     -18.768246      -510.7099
   6   2.0000     -18.768103      -510.7060
   7   2.0000     -18.753117      -510.2983
   8   2.0000     -18.737925      -509.8849
   9   2.0000     -10.025140      -272.7979
  10   2.0000     -10.011458      -272.4256
  11   2.0000      -9.954786      -270.8835
  12   2.0000      -9.950824      -270.7757
  13   2.0000      -9.939519      -270.4681
  14   2.0000      -9.929086      -270.1842
  15   2.0000      -9.925503      -270.0867
  16   2.0000      -9.917250      -269.8621
  17   2.0000      -9.892081      -269.1772
  18   2.0000      -9.884769      -268.9782
  19   2.0000      -7.680623      -209.0004
  20   2.0000      -7.606269      -206.9771
  21   2.0000      -6.409278      -174.4053
  22   2.0000      -5.708898      -155.3470
  23   2.0000      -5.704778      -155.2349
  24   2.0000      -5.697455      -155.0356
  25   2.0000      -5.635319      -153.3448
  26   2.0000      -5.627407      -153.1295
  27   2.0000      -5.625712      -153.0834
  28   2.0000      -4.632202      -126.0486
  29   2.0000      -4.631147      -126.0199
  30   2.0000      -4.629847      -125.9845
  31   2.0000      -1.027628       -27.9632
  32   2.0000      -1.010652       -27.5013
  33   2.0000      -0.963162       -26.2090
  34   2.0000      -0.931471       -25.3466
  35   2.0000      -0.917142       -24.9567
  36   2.0000      -0.915342       -24.9077
  37   2.0000      -0.767337       -20.8803
  38   2.0000      -0.714583       -19.4448
  39   2.0000      -0.708768       -19.2866
  40   2.0000      -0.684870       -18.6363
  41   2.0000      -0.650450       -17.6996
  42   2.0000      -0.619535       -16.8584
  43   2.0000      -0.613776       -16.7017
  44   2.0000      -0.608802       -16.5663
  45   2.0000      -0.587500       -15.9867
  46   2.0000      -0.558246       -15.1906
  47   2.0000      -0.516768       -14.0620
  48   2.0000      -0.506935       -13.7944
  49   2.0000      -0.498506       -13.5650
  50   2.0000      -0.486913       -13.2496
  51   2.0000      -0.460001       -12.5173
  52   2.0000      -0.455978       -12.4078
  53   2.0000      -0.449381       -12.2283
  54   2.0000      -0.441101       -12.0030
  55   2.0000      -0.422610       -11.4998
  56   2.0000      -0.420860       -11.4522
  57   2.0000      -0.415513       -11.3067
  58   2.0000      -0.405705       -11.0398
  59   2.0000      -0.405027       -11.0213
  60   2.0000      -0.396804       -10.7976
  61   2.0000      -0.393353       -10.7037
  62   2.0000      -0.383328       -10.4309
  63   2.0000      -0.373600       -10.1662
  64   2.0000      -0.369869       -10.0646
  65   2.0000      -0.362633        -9.8677
  66   2.0000      -0.359874        -9.7927
  67   2.0000      -0.358764        -9.7625
  68   2.0000      -0.353418        -9.6170
  69   2.0000      -0.342890        -9.3305
  70   2.0000      -0.335147        -9.1198
  71   2.0000      -0.323858        -8.8126
  72   2.0000      -0.315016        -8.5720
  73   2.0000      -0.312686        -8.5086
  74   2.0000      -0.298278        -8.1166
  75   2.0000      -0.296242        -8.0611
  76   2.0000      -0.285045        -7.7565
  77   2.0000      -0.273761        -7.4494
  78   2.0000      -0.271014        -7.3747
  79   2.0000      -0.258250        -7.0273
  80   2.0000      -0.252821        -6.8796
  81   2.0000      -0.242883        -6.6092
  82   2.0000      -0.235940        -6.4202
  83   2.0000      -0.224578        -6.1111
  84   2.0000      -0.222613        -6.0576
  85   2.0000      -0.183604        -4.9961
  86   2.0000      -0.170731        -4.6458
  87   0.0000      -0.039317        -1.0699
  88   0.0000      -0.031126        -0.8470
  89   0.0000      -0.023772        -0.6469
  90   0.0000       0.004645         0.1264
  91   0.0000       0.034883         0.9492

MULLIKEN ATOMIC CHARGES
-----------------------
   0 C :   -0.274076
   1 C :   -0.039680
   2 O :   -0.216388
   3 C :    0.098782
   4 O :   -0.205772
   5 C :   -0.027567
   6 C :   -0.297258
   7 H :    0.146804
   8 C :    0.228168
   9 O :   -0.194771
  10 O :   -0.220035
  11 C :   -0.029374
  12 C :   -0.277596
  13 S :   -0.090945
  14 P :    0.649691
  15 S :   -0.347551
  16 O :   -0.377940
  17 C :   -0.089580
  18 O :   -0.406098
  19 C :   -0.095669
  20 H :    0.115718
  21 H :    0.109231
  22 H :    0.111638
  23 H :    0.101598
  24 H :    0.132001
  25 H :    0.115311
  26 H :    0.123126
  27 H :    0.113823
  28 H :    0.128189
  29 H :    0.118400
  30 H :    0.114181
  31 H :    0.115148
  32 H :    0.118161
  33 H :    0.115178
  34 H :    0.112530
  35 H :    0.105896
  36 H :    0.102867
  37 H :    0.113856
Sum of atomic charges:    0.0000000

LOEWDIN ATOMIC CHARGES
----------------------
   0 C :   -0.350318
   1 C :   -0.111988
   2 O :   -0.044476
   3 C :    0.026445
   4 O :   -0.157427
   5 C :   -0.246242
   6 C :   -0.259664
   7 H :    0.147586
   8 C :    0.024103
   9 O :   -0.140043
  10 O :   -0.037068
  11 C :   -0.101763
  12 C :   -0.350645
  13 S :    0.112965
  14 P :    0.584547
  15 S :   -0.329281
  16 O :   -0.253807
  17 C :   -0.208754
  18 O :   -0.276679
  19 C :   -0.224090
  20 H :    0.127094
  21 H :    0.123295
  22 H :    0.131049
  23 H :    0.115302
  24 H :    0.117077
  25 H :    0.135495
  26 H :    0.147871
  27 H :    0.120218
  28 H :    0.128757
  29 H :    0.128329
  30 H :    0.126003
  31 H :    0.133163
  32 H :    0.119149
  33 H :    0.111634
  34 H :    0.110865
  35 H :    0.100952
  36 H :    0.103846
  37 H :    0.116500

  Mayer bond orders larger than 0.100000
B(  0-C ,  1-C ) :   1.1545 B(  0-C , 20-H ) :   0.9486 B(  0-C , 21-H ) :   0.9515
B(  0-C , 22-H ) :   0.9444 B(  1-C ,  2-O ) :   0.8956 B(  1-C , 23-H ) :   0.9266
B(  1-C , 24-H ) :   0.9127 B(  2-O ,  3-C ) :   1.2705 B(  2-O ,  4-O ) :   0.1016
B(  3-C ,  4-O ) :   1.9610 B(  3-C ,  5-C ) :   1.0074 B(  4-O ,  8-C ) :   0.1025
B(  5-C ,  6-C ) :   1.0235 B(  5-C , 25-H ) :   0.9048 B(  5-C , 26-H ) :   0.8759
B(  6-C ,  7-H ) :   0.8771 B(  6-C ,  8-C ) :   0.9131 B(  6-C , 13-S ) :   1.0275
B(  8-C ,  9-O ) :   1.9001 B(  8-C , 10-O ) :   1.2729 B(  9-O , 14-P ) :   0.1695
B( 10-O , 11-C ) :   0.8892 B( 11-C , 12-C ) :   1.1554 B( 11-C , 27-H ) :   0.9289
B( 11-C , 28-H ) :   0.9262 B( 12-C , 29-H ) :   0.9488 B( 12-C , 30-H ) :   0.9511
B( 12-C , 31-H ) :   0.9430 B( 13-S , 14-P ) :   0.9588 B( 13-S , 15-S ) :   0.1168
B( 14-P , 15-S ) :   1.5713 B( 14-P , 16-O ) :   1.0991 B( 14-P , 18-O ) :   1.0163
B( 16-O , 17-C ) :   0.9344 B( 17-C , 32-H ) :   0.9596 B( 17-C , 33-H ) :   0.9358
B( 17-C , 34-H ) :   0.9498 B( 18-O , 19-C ) :   0.9495 B( 19-C , 35-H ) :   0.9232
B( 19-C , 36-H ) :   0.9500 B( 19-C , 37-H ) :   0.9592

Dispersion correction           -0.052617830
FINAL SINGLE POINT ENERGY     -1979.007283189540

DIPOLE MOMENT
-------------

Method             : SCF
Type of density    : Electron Density
Multiplicity       :   1
Irrep              :   0
Energy             : -1979.1367686508556289 Eh
Relativity type    :
Basis              : AO
                                X                 Y                 Z
Electronic contribution:    -10.971514800       1.995103803      -4.159938153
Nuclear contribution   :     11.763837201      -1.625393511       3.508093602
                        -----------------------------------------
Total Dipole Moment    :      0.792322401       0.369710292      -0.651844551
                        -----------------------------------------
Magnitude (a.u.)       :      1.090578657
Magnitude (Debye)      :      2.772030649

Rotational constants in cm-1:             0.010673             0.009184             0.006336
Rotational constants in MHz :           319.983126           275.334602           189.944580

                             ****ORCA TERMINATED NORMALLY****
TOTAL RUN TIME: 0 days 0 hours 0 minutes 38 seconds 804 msec
