                         Program Version 6.0.0  -   RELEASE  -
|  1> ! pbe def2-sv(p) def2/J RI DEFGRID1 loosescf d4 GCP(DFT/SV(P)) printgap
|  2> %output
|  3>     printlevel normal
|  4> end
|  5> * xyz 0 1
|  6> C 5.8640740288 0.0664924587 -0.9107797427
|  7> C 4.9548500352 -0.9759429513 -1.5283718131
|  8> O 3.5699449797 -0.566797696 -1.5271069452
|  9> P 2.7275396062 -0.2586500875 -0.2226006225
| 10> S 2.922052833 1.5096400164 0.616556874
| 11> O 3.1479860121 -1.4773554017 0.7120676685
| 12> C 2.8745464023 -1.5031478483 2.1218095254
| 13> C 1.4205227078 -1.8205856015 2.4043509311
| 14> S 0.8221804371 -0.6838802786 -1.0462773626
| 15> C -0.0797229068 0.8134868441 -0.554695829
| 16> S -1.111758756 0.6105573028 0.9240705354
| 17> P -3.018921062 0.3191355106 0.0086618227
| 18> S -3.0803280485 0.5156918373 -1.9467680718
| 19> O -3.9970536092 1.2512062337 0.8338886264
| 20> C -4.2524528283 2.6173218454 0.4648539065
| 21> C -3.0354978436 3.5043717277 0.6414209332
| 22> O -3.5836778162 -1.0386542723 0.5912137837
| 23> C -3.3424951668 -2.3182988917 -0.0190403746
| 24> C -1.9697999643 -2.8618712418 0.3253761113
| 25> H 5.7378755576 1.0233849223 -1.4120680729
| 26> H 5.6251354135 0.1966920597 0.1440066404
| 27> H 6.8969594768 -0.2541300987 -1.0032975185
| 28> H 5.0329709837 -1.9275444217 -0.9983674009
| 29> H 5.1740394411 -1.1210371481 -2.5875100312
| 30> H 3.5371096098 -2.280503372 2.5056569087
| 31> H 3.1503724179 -0.5334016919 2.5495230341
| 32> H 1.1250646905 -2.7242396213 1.8771692027
| 33> H 1.2846664917 -1.9641493964 3.4713448773
| 34> H 0.7855887114 -0.9967671773 2.0799693571
| 35> H -0.7231586312 1.0829930871 -1.3939942611
| 36> H 0.6475094856 1.5965895281 -0.3328106126
| 37> H -4.5963101187 2.6384329392 -0.574477535
| 38> H -5.0649853648 2.9171528763 1.1282149948
| 39> H -2.6241861056 3.3881906069 1.6410773132
| 40> H -2.2694548577 3.2420158014 -0.0874283624
| 41> H -3.3223349398 4.5399682628 0.4884354135
| 42> H -4.1342354872 -2.9521262392 0.3840974724
| 43> H -3.4648053021 -2.2218941117 -1.1032064744
| 44> H -1.8982746469 -3.890044519 -0.0146947153
| 45> H -1.1941061272 -2.2770075261 -0.1666527753
| 46> H -1.8151886807 -2.8253692533 1.400735223
| 47> *
| 48>
| 49>                          ****END OF INPUT****

CARTESIAN COORDINATES (ANGSTROEM)
---------------------------------
  C      5.864074    0.066492   -0.910780
  C      4.954850   -0.975943   -1.528372
  O      3.569945   -0.566798   -1.527107
  P      2.727540   -0.258650   -0.222601
  S      2.922053    1.509640    0.616557
  O      3.147986   -1.477355    0.712068
  C      2.874546   -1.503148    2.121810
  C      1.420523   -1.820586    2.404351
  S      0.822180   -0.683880   -1.046277
  C     -0.079723    0.813487   -0.554696
  S     -1.111759    0.610557    0.924071
  P     -3.018921    0.319136    0.008662
  S     -3.080328    0.515692   -1.946768
  O     -3.997054    1.251206    0.833889
  C     -4.252453    2.617322    0.464854
  C     -3.035498    3.504372    0.641421
  O     -3.583678   -1.038654    0.591214
  C     -3.342495   -2.318299   -0.019040
  C     -1.969800   -2.861871    0.325376
  H      5.737876    1.023385   -1.412068
  H      5.625135    0.196692    0.144007
  H      6.896959   -0.254130   -1.003298
  H      5.032971   -1.927544   -0.998367
  H      5.174039   -1.121037   -2.587510
  H      3.537110   -2.280503    2.505657
  H      3.150372   -0.533402    2.549523
  H      1.125065   -2.724240    1.877169
  H      1.284666   -1.964149    3.471345
  H      0.785589   -0.996767    2.079969
  H     -0.723159    1.082993   -1.393994
  H      0.647509    1.596590   -0.332811
  H     -4.596310    2.638433   -0.574478
  H     -5.064985    2.917153    1.128215
  H     -2.624186    3.388191    1.641077
  H     -2.269455    3.242016   -0.087428
  H     -3.322335    4.539968    0.488435
  H     -4.134235   -2.952126    0.384097
  H     -3.464805   -2.221894   -1.103206
  H     -1.898275   -3.890045   -0.014695
  H     -1.194106   -2.277008   -0.166653
  H     -1.815189   -2.825369    1.400735

 Total Charge           Charge          ....    0
 Multiplicity           Mult            ....    1
 Number of Electrons    NEL             ....  202
 Basis Dimension        Dim             ....  334

ORBITAL ENERGIES
----------------

  NO   OCC          E(Eh)            E(eV)
   0   2.0000     -88.044122     -2395.8024
   1   2.0000     -88.044063     -2395.8008
   2   2.0000     -87.994532     -2394.4529
   3   2.0000     -87.993312     -2394.4197
   4   2.0000     -76.430126     -2079.7695
   5   2.0000     -76.428406     -2079.7226
   6   2.0000     -18.798038      -511.5206
   7   2.0000     -18.793180      -511.3884
   8   2.0000     -18.789672      -511.2930
   9   2.0000     -18.789477      -511.2877
  10   2.0000      -9.957341      -270.9530
  11   2.0000      -9.954852      -270.8853
  12   2.0000      -9.952813      -270.8298
  13   2.0000      -9.951882      -270.8045
  14   2.0000      -9.948622      -270.7158
  15   2.0000      -9.885953      -269.0105
  16   2.0000      -9.884309      -268.9657
  17   2.0000      -9.883801      -268.9519
  18   2.0000      -9.881487      -268.8889
  19   2.0000      -7.688711      -209.2205
  20   2.0000      -7.688301      -209.2093
  21   2.0000      -7.639340      -207.8770
  22   2.0000      -7.638163      -207.8450
  23   2.0000      -6.427633      -174.9048
  24   2.0000      -6.425898      -174.8576
  25   2.0000      -5.716524      -155.5545
  26   2.0000      -5.716093      -155.5428
  27   2.0000      -5.713196      -155.4640
  28   2.0000      -5.712815      -155.4536
  29   2.0000      -5.705817      -155.2632
  30   2.0000      -5.705468      -155.2537
  31   2.0000      -5.668045      -154.2353
  32   2.0000      -5.666880      -154.2036
  33   2.0000      -5.659957      -154.0153
  34   2.0000      -5.659758      -154.0098
  35   2.0000      -5.658938      -153.9875
  36   2.0000      -5.658398      -153.9728
  37   2.0000      -4.650423      -126.5444
  38   2.0000      -4.649080      -126.5079
  39   2.0000      -4.648199      -126.4839
  40   2.0000      -4.648015      -126.4789
  41   2.0000      -4.647869      -126.4750
  42   2.0000      -4.646511      -126.4380
  43   2.0000      -0.991761       -26.9872
  44   2.0000      -0.989096       -26.9147
  45   2.0000      -0.947627       -25.7862
  46   2.0000      -0.944665       -25.7057
  47   2.0000      -0.760500       -20.6943
  48   2.0000      -0.723721       -19.6935
  49   2.0000      -0.711256       -19.3543
  50   2.0000      -0.690877       -18.7997
  51   2.0000      -0.682769       -18.5791
  52   2.0000      -0.678449       -18.4615
  53   2.0000      -0.654633       -17.8135
  54   2.0000      -0.640481       -17.4284
  55   2.0000      -0.606376       -16.5003
  56   2.0000      -0.597120       -16.2485
  57   2.0000      -0.580474       -15.7955
  58   2.0000      -0.568502       -15.4697
  59   2.0000      -0.556285       -15.1373
  60   2.0000      -0.499683       -13.5971
  61   2.0000      -0.495311       -13.4781
  62   2.0000      -0.475012       -12.9257
  63   2.0000      -0.467700       -12.7268
  64   2.0000      -0.461367       -12.5544
  65   2.0000      -0.449514       -12.2319
  66   2.0000      -0.440470       -11.9858
  67   2.0000      -0.433719       -11.8021
  68   2.0000      -0.423218       -11.5163
  69   2.0000      -0.420834       -11.4515
  70   2.0000      -0.414891       -11.2898
  71   2.0000      -0.407047       -11.0763
  72   2.0000      -0.396002       -10.7758
  73   2.0000      -0.389750       -10.6056
  74   2.0000      -0.383953       -10.4479
  75   2.0000      -0.376240       -10.2380
  76   2.0000      -0.367194        -9.9919
  77   2.0000      -0.355073        -9.6620
  78   2.0000      -0.352642        -9.5959
  79   2.0000      -0.350684        -9.5426
  80   2.0000      -0.347809        -9.4644
  81   2.0000      -0.344353        -9.3703
  82   2.0000      -0.340751        -9.2723
  83   2.0000      -0.339253        -9.2316
  84   2.0000      -0.336831        -9.1657
  85   2.0000      -0.322735        -8.7821
  86   2.0000      -0.311212        -8.4685
  87   2.0000      -0.300570        -8.1789
  88   2.0000      -0.298777        -8.1301
  89   2.0000      -0.293008        -7.9732
  90   2.0000      -0.287933        -7.8351
  91   2.0000      -0.278486        -7.5780
  92   2.0000      -0.268287        -7.3005
  93   2.0000      -0.266673        -7.2565
  94   2.0000      -0.258896        -7.0449
  95   2.0000      -0.229788        -6.2528
  96   2.0000      -0.222750        -6.0613
  97   2.0000      -0.216651        -5.8954
  98   2.0000      -0.212185        -5.7738
  99   2.0000      -0.208554        -5.6751
 100   2.0000      -0.203352        -5.5335
 101   0.0000      -0.042990        -1.1698
 102   0.0000      -0.037866        -1.0304
 103   0.0000      -0.014797        -0.4027
 104   0.0000       0.004015         0.1092
 105   0.0000       0.008728         0.2375

MULLIKEN ATOMIC CHARGES
-----------------------
   0 C :   -0.315576
   1 C :   -0.000505
   2 O :   -0.370926
   3 P :    0.624481
   4 S :   -0.325658
   5 O :   -0.380841
   6 C :   -0.004103
   7 C :   -0.330662
   8 S :   -0.077284
   9 C :   -0.364665
  10 S :   -0.098999
  11 P :    0.599571
  12 S :   -0.327918
  13 O :   -0.358714
  14 C :    0.000827
  15 C :   -0.315897
  16 O :   -0.354876
  17 C :    0.000722
  18 C :   -0.332828
  19 H :    0.126097
  20 H :    0.127480
  21 H :    0.111334
  22 H :    0.109586
  23 H :    0.110059
  24 H :    0.102500
  25 H :    0.111453
  26 H :    0.121126
  27 H :    0.111924
  28 H :    0.141114
  29 H :    0.197043
  30 H :    0.197205
  31 H :    0.112024
  32 H :    0.108186
  33 H :    0.122567
  34 H :    0.123641
  35 H :    0.113462
  36 H :    0.106532
  37 H :    0.109519
  38 H :    0.109302
  39 H :    0.142222
  40 H :    0.119477
Sum of atomic charges:    0.0000000

LOEWDIN ATOMIC CHARGES
----------------------
   0 C :   -0.366537
   1 C :   -0.110382
   2 O :   -0.243508
   3 P :    0.567891
   4 S :   -0.305214
   5 O :   -0.245753
   6 C :   -0.120648
   7 C :   -0.368753
   8 S :    0.104973
   9 C :   -0.493278
  10 S :    0.091118
  11 P :    0.570694
  12 S :   -0.307623
  13 O :   -0.236485
  14 C :   -0.115611
  15 C :   -0.368634
  16 O :   -0.234709
  17 C :   -0.115586
  18 C :   -0.370859
  19 H :    0.130806
  20 H :    0.121853
  21 H :    0.129866
  22 H :    0.113251
  23 H :    0.121949
  24 H :    0.117028
  25 H :    0.109007
  26 H :    0.126421
  27 H :    0.131323
  28 H :    0.112879
  29 H :    0.124407
  30 H :    0.124782
  31 H :    0.111364
  32 H :    0.120546
  33 H :    0.126409
  34 H :    0.120177
  35 H :    0.130884
  36 H :    0.119361
  37 H :    0.109503
  38 H :    0.129758
  39 H :    0.111318
  40 H :    0.126011

  Mayer bond orders larger than 0.100000
B(  0-C ,  1-C ) :   1.1660 B(  0-C , 19-H ) :   0.9453 B(  0-C , 20-H ) :   0.9365
B(  0-C , 21-H ) :   0.9364 B(  1-C ,  2-O ) :   0.9073 B(  1-C , 22-H ) :   0.9290
B(  1-C , 23-H ) :   0.9347 B(  2-O ,  3-P ) :   1.1344 B(  3-P ,  4-S ) :   1.6080
B(  3-P ,  5-O ) :   1.0809 B(  3-P ,  8-S ) :   0.9667 B(  4-S ,  8-S ) :   0.1217
B(  4-S , 30-H ) :   0.1072 B(  5-O ,  6-C ) :   0.9113 B(  6-C ,  7-C ) :   1.1630
B(  6-C , 24-H ) :   0.9325 B(  6-C , 25-H ) :   0.9112 B(  7-C , 26-H ) :   0.9432
B(  7-C , 27-H ) :   0.9379 B(  7-C , 28-H ) :   0.9271 B(  8-S ,  9-C ) :   1.0164
B(  9-C , 10-S ) :   1.0101 B(  9-C , 29-H ) :   0.8538 B(  9-C , 30-H ) :   0.8523
B( 10-S , 11-P ) :   0.9467 B( 10-S , 12-S ) :   0.1220 B( 11-P , 12-S ) :   1.5918
B( 11-P , 13-O ) :   1.1281 B( 11-P , 16-O ) :   1.1330 B( 12-S , 29-H ) :   0.1054
B( 13-O , 14-C ) :   0.9151 B( 14-C , 15-C ) :   1.1633 B( 14-C , 31-H ) :   0.9189
B( 14-C , 32-H ) :   0.9345 B( 15-C , 33-H ) :   0.9426 B( 15-C , 34-H ) :   0.9402
B( 15-C , 35-H ) :   0.9375 B( 16-O , 17-C ) :   0.9159 B( 17-C , 18-C ) :   1.1616
B( 17-C , 36-H ) :   0.9344 B( 17-C , 37-H ) :   0.9141 B( 18-C , 38-H ) :   0.9380
B( 18-C , 39-H ) :   0.9272 B( 18-C , 40-H ) :   0.9434

Dispersion correction           -0.063427888
FINAL SINGLE POINT ENERGY     -2929.522432466598

DIPOLE MOMENT
-------------

Method             : SCF
Type of density    : Electron Density
Multiplicity       :   1
Irrep              :   0
Energy             : -2929.6435320873774799 Eh
Relativity type    :
Basis              : AO
                                X                 Y                 Z
Electronic contribution:     -7.072195101       4.369529769      -7.140603144
Nuclear contribution   :      7.662948691      -5.150134867       7.743595639
                        -----------------------------------------
Total Dipole Moment    :      0.590753590      -0.780605098       0.602992495
                        -----------------------------------------
Magnitude (a.u.)       :      1.149753918
Magnitude (Debye)      :      2.922442209

Rotational constants in cm-1:             0.013710             0.004051             0.003810
Rotational constants in MHz :           411.016074           121.445857           114.211094

                             ****ORCA TERMINATED NORMALLY****
TOTAL RUN TIME: 0 days 0 hours 0 minutes 20 seconds 559 msec
