                         Program Version 6.0.0  -   RELEASE  -
|  1> ! pbe def2-sv(p) def2/J RI DEFGRID1 loosescf d4 GCP(DFT/SV(P)) printgap
|  2> %output
|  3>     printlevel normal
|  4> end
|  5> * xyz 0 1
|  6> C 5.2431191287 -2.409136078 -1.483566959
|  7> C 4.2016506371 -1.3163304967 -1.6147374358
|  8> O 3.2599225477 -1.4702336599 -0.533149414
|  9> P 2.3021047107 -0.2873515183 -0.0871244558
| 10> S 3.1776191183 1.4486612756 0.1924607483
| 11> O 1.5725261679 -0.9224512304 1.1664524887
| 12> C 2.0265014351 -0.678965734 2.5146490735
| 13> C 3.3500386002 -1.3618741142 2.7838733741
| 14> S 0.7645732598 -0.3332565232 -1.5341046304
| 15> C 0.0562152216 1.2867937818 -1.1271668958
| 16> S -0.6824728827 1.3404902842 0.524615598
| 17> P -2.5665252206 0.4311887764 0.0757090939
| 18> S -3.0877325095 0.5268019914 -1.8166702673
| 19> O -3.564823495 1.134951684 1.0754890394
| 20> C -4.1578981469 2.4149895018 0.7783070459
| 21> C -5.5294868811 2.4599559824 1.4218229231
| 22> O -2.594021962 -0.9645480179 0.8146413331
| 23> C -1.7085532381 -2.0731315593 0.5809882815
| 24> C -1.9422467389 -2.7301009648 -0.7651023497
| 25> H 5.7830495321 -2.303711115 -0.5469488171
| 26> H 4.7616753086 -3.3822863322 -1.5052168208
| 27> H 5.9424372325 -2.3347953261 -2.3097719394
| 28> H 3.6541075827 -1.3974004496 -2.557501647
| 29> H 4.6522985043 -0.3203697014 -1.5467203138
| 30> H 2.1067583443 0.4028227631 2.6626019316
| 31> H 1.2256796856 -1.0777780606 3.1385439064
| 32> H 3.2792960136 -2.421506663 2.5534454012
| 33> H 4.1255225763 -0.9164652207 2.1616898974
| 34> H 3.6174263122 -1.2329716591 3.8279545599
| 35> H -0.7113761765 1.4883234463 -1.8757547234
| 36> H 0.8444558659 2.0384917054 -1.1430243182
| 37> H -3.5018173956 3.1892691685 1.1843857657
| 38> H -4.2264881754 2.5326558324 -0.3092325279
| 39> H -5.4413393261 2.2942939607 2.4914888768
| 40> H -5.9760567144 3.4323578338 1.2419612051
| 41> H -6.1657612659 1.6881295621 0.9977316301
| 42> H -0.6720185409 -1.7349383664 0.6760055045
| 43> H -1.9411964606 -2.7579278567 1.3990375026
| 44> H -1.6662674466 -2.0566699745 -1.5746783574
| 45> H -1.333491833 -3.6259058799 -0.8345041816
| 46> H -2.9905539899 -2.9960268813 -0.8750715496
| 47> *
| 48>
| 49>                          ****END OF INPUT****

CARTESIAN COORDINATES (ANGSTROEM)
---------------------------------
  C      5.243119   -2.409136   -1.483567
  C      4.201651   -1.316330   -1.614737
  O      3.259923   -1.470234   -0.533149
  P      2.302105   -0.287352   -0.087124
  S      3.177619    1.448661    0.192461
  O      1.572526   -0.922451    1.166452
  C      2.026501   -0.678966    2.514649
  C      3.350039   -1.361874    2.783873
  S      0.764573   -0.333257   -1.534105
  C      0.056215    1.286794   -1.127167
  S     -0.682473    1.340490    0.524616
  P     -2.566525    0.431189    0.075709
  S     -3.087733    0.526802   -1.816670
  O     -3.564823    1.134952    1.075489
  C     -4.157898    2.414990    0.778307
  C     -5.529487    2.459956    1.421823
  O     -2.594022   -0.964548    0.814641
  C     -1.708553   -2.073132    0.580988
  C     -1.942247   -2.730101   -0.765102
  H      5.783050   -2.303711   -0.546949
  H      4.761675   -3.382286   -1.505217
  H      5.942437   -2.334795   -2.309772
  H      3.654108   -1.397400   -2.557502
  H      4.652299   -0.320370   -1.546720
  H      2.106758    0.402823    2.662602
  H      1.225680   -1.077778    3.138544
  H      3.279296   -2.421507    2.553445
  H      4.125523   -0.916465    2.161690
  H      3.617426   -1.232972    3.827955
  H     -0.711376    1.488323   -1.875755
  H      0.844456    2.038492   -1.143024
  H     -3.501817    3.189269    1.184386
  H     -4.226488    2.532656   -0.309233
  H     -5.441339    2.294294    2.491489
  H     -5.976057    3.432358    1.241961
  H     -6.165761    1.688130    0.997732
  H     -0.672019   -1.734938    0.676006
  H     -1.941196   -2.757928    1.399038
  H     -1.666267   -2.056670   -1.574678
  H     -1.333492   -3.625906   -0.834504
  H     -2.990554   -2.996027   -0.875072

 Total Charge           Charge          ....    0
 Multiplicity           Mult            ....    1
 Number of Electrons    NEL             ....  202
 Basis Dimension        Dim             ....  334

ORBITAL ENERGIES
----------------

  NO   OCC          E(Eh)            E(eV)
   0   2.0000     -88.045980     -2395.8529
   1   2.0000     -88.041324     -2395.7262
   2   2.0000     -87.993939     -2394.4368
   3   2.0000     -87.988601     -2394.2916
   4   2.0000     -76.431551     -2079.8082
   5   2.0000     -76.425986     -2079.6568
   6   2.0000     -18.800306      -511.5823
   7   2.0000     -18.797879      -511.5163
   8   2.0000     -18.789441      -511.2867
   9   2.0000     -18.788047      -511.2488
  10   2.0000      -9.958376      -270.9812
  11   2.0000      -9.955363      -270.8992
  12   2.0000      -9.952364      -270.8176
  13   2.0000      -9.949785      -270.7474
  14   2.0000      -9.947014      -270.6720
  15   2.0000      -9.893122      -269.2055
  16   2.0000      -9.887773      -269.0600
  17   2.0000      -9.884668      -268.9755
  18   2.0000      -9.874270      -268.6925
  19   2.0000      -7.691039      -209.2838
  20   2.0000      -7.686156      -209.1509
  21   2.0000      -7.638837      -207.8633
  22   2.0000      -7.633511      -207.7184
  23   2.0000      -6.429333      -174.9510
  24   2.0000      -6.423275      -174.7862
  25   2.0000      -5.718796      -155.6164
  26   2.0000      -5.715622      -155.5300
  27   2.0000      -5.713986      -155.4855
  28   2.0000      -5.710607      -155.3935
  29   2.0000      -5.708046      -155.3238
  30   2.0000      -5.703325      -155.1954
  31   2.0000      -5.667611      -154.2235
  32   2.0000      -5.662276      -154.0784
  33   2.0000      -5.659471      -154.0020
  34   2.0000      -5.659163      -153.9937
  35   2.0000      -5.654134      -153.8568
  36   2.0000      -5.653823      -153.8483
  37   2.0000      -4.651715      -126.5796
  38   2.0000      -4.651133      -126.5638
  39   2.0000      -4.649861      -126.5292
  40   2.0000      -4.645555      -126.4120
  41   2.0000      -4.645374      -126.4071
  42   2.0000      -4.643671      -126.3607
  43   2.0000      -0.994130       -27.0516
  44   2.0000      -0.987574       -26.8733
  45   2.0000      -0.953139       -25.9362
  46   2.0000      -0.942182       -25.6381
  47   2.0000      -0.764825       -20.8119
  48   2.0000      -0.724640       -19.7185
  49   2.0000      -0.712619       -19.3914
  50   2.0000      -0.693455       -18.8699
  51   2.0000      -0.680504       -18.5175
  52   2.0000      -0.675714       -18.3871
  53   2.0000      -0.651928       -17.7399
  54   2.0000      -0.640291       -17.4232
  55   2.0000      -0.603566       -16.4239
  56   2.0000      -0.594276       -16.1711
  57   2.0000      -0.571377       -15.5480
  58   2.0000      -0.565757       -15.3950
  59   2.0000      -0.559034       -15.2121
  60   2.0000      -0.510567       -13.8932
  61   2.0000      -0.500582       -13.6215
  62   2.0000      -0.482932       -13.1412
  63   2.0000      -0.468735       -12.7549
  64   2.0000      -0.460455       -12.5296
  65   2.0000      -0.445801       -12.1309
  66   2.0000      -0.439239       -11.9523
  67   2.0000      -0.437377       -11.9016
  68   2.0000      -0.427494       -11.6327
  69   2.0000      -0.415851       -11.3159
  70   2.0000      -0.408558       -11.1174
  71   2.0000      -0.401747       -10.9321
  72   2.0000      -0.396753       -10.7962
  73   2.0000      -0.385790       -10.4979
  74   2.0000      -0.377901       -10.2832
  75   2.0000      -0.377018       -10.2592
  76   2.0000      -0.367635       -10.0039
  77   2.0000      -0.362220        -9.8565
  78   2.0000      -0.357900        -9.7390
  79   2.0000      -0.352462        -9.5910
  80   2.0000      -0.350159        -9.5283
  81   2.0000      -0.347742        -9.4625
  82   2.0000      -0.339154        -9.2289
  83   2.0000      -0.336162        -9.1474
  84   2.0000      -0.332400        -9.0451
  85   2.0000      -0.321742        -8.7551
  86   2.0000      -0.312535        -8.5045
  87   2.0000      -0.305725        -8.3192
  88   2.0000      -0.297989        -8.1087
  89   2.0000      -0.292321        -7.9545
  90   2.0000      -0.287251        -7.8165
  91   2.0000      -0.280154        -7.6234
  92   2.0000      -0.267874        -7.2892
  93   2.0000      -0.265293        -7.2190
  94   2.0000      -0.257448        -7.0055
  95   2.0000      -0.239267        -6.5108
  96   2.0000      -0.220173        -5.9912
  97   2.0000      -0.216886        -5.9018
  98   2.0000      -0.207988        -5.6596
  99   2.0000      -0.205722        -5.5980
 100   2.0000      -0.201440        -5.4815
 101   0.0000      -0.047548        -1.2938
 102   0.0000      -0.027963        -0.7609
 103   0.0000      -0.001818        -0.0495
 104   0.0000      -0.000885        -0.0241
 105   0.0000       0.012074         0.3286

MULLIKEN ATOMIC CHARGES
-----------------------
   0 C :   -0.281889
   1 C :   -0.013999
   2 O :   -0.374612
   3 P :    0.615672
   4 S :   -0.331487
   5 O :   -0.355604
   6 C :   -0.001992
   7 C :   -0.307551
   8 S :   -0.088646
   9 C :   -0.364343
  10 S :   -0.100111
  11 P :    0.606958
  12 S :   -0.331783
  13 O :   -0.361427
  14 C :   -0.009712
  15 C :   -0.280390
  16 O :   -0.352531
  17 C :   -0.036868
  18 C :   -0.307299
  19 H :    0.120083
  20 H :    0.118263
  21 H :    0.114643
  22 H :    0.106261
  23 H :    0.108390
  24 H :    0.116172
  25 H :    0.106900
  26 H :    0.116373
  27 H :    0.123373
  28 H :    0.114435
  29 H :    0.194073
  30 H :    0.194218
  31 H :    0.101512
  32 H :    0.105446
  33 H :    0.116813
  34 H :    0.110575
  35 H :    0.120272
  36 H :    0.136770
  37 H :    0.101266
  38 H :    0.132702
  39 H :    0.104273
  40 H :    0.114801
Sum of atomic charges:    0.0000000

LOEWDIN ATOMIC CHARGES
----------------------
   0 C :   -0.350023
   1 C :   -0.119737
   2 O :   -0.245984
   3 P :    0.569968
   4 S :   -0.319444
   5 O :   -0.233517
   6 C :   -0.116382
   7 C :   -0.364668
   8 S :    0.092192
   9 C :   -0.487002
  10 S :    0.070120
  11 P :    0.568315
  12 S :   -0.309603
  13 O :   -0.237176
  14 C :   -0.120764
  15 C :   -0.350451
  16 O :   -0.229892
  17 C :   -0.122385
  18 C :   -0.368098
  19 H :    0.128206
  20 H :    0.127809
  21 H :    0.132255
  22 H :    0.111869
  23 H :    0.109545
  24 H :    0.112392
  25 H :    0.119346
  26 H :    0.126251
  27 H :    0.122025
  28 H :    0.131606
  29 H :    0.126702
  30 H :    0.130103
  31 H :    0.111370
  32 H :    0.106027
  33 H :    0.126892
  34 H :    0.130001
  35 H :    0.129102
  36 H :    0.106478
  37 H :    0.117917
  38 H :    0.115141
  39 H :    0.127764
  40 H :    0.125730

  Mayer bond orders larger than 0.100000
B(  0-C ,  1-C ) :   1.1614 B(  0-C , 19-H ) :   0.9515 B(  0-C , 20-H ) :   0.9503
B(  0-C , 21-H ) :   0.9414 B(  1-C ,  2-O ) :   0.9005 B(  1-C , 22-H ) :   0.9293
B(  1-C , 23-H ) :   0.9102 B(  2-O ,  3-P ) :   1.1135 B(  3-P ,  4-S ) :   1.6042
B(  3-P ,  5-O ) :   1.1200 B(  3-P ,  8-S ) :   0.9663 B(  4-S ,  8-S ) :   0.1079
B(  5-O ,  6-C ) :   0.8960 B(  6-C ,  7-C ) :   1.1644 B(  6-C , 24-H ) :   0.9163
B(  6-C , 25-H ) :   0.9337 B(  7-C , 26-H ) :   0.9459 B(  7-C , 27-H ) :   0.9349
B(  7-C , 28-H ) :   0.9390 B(  8-S ,  9-C ) :   0.9966 B(  9-C , 10-S ) :   1.0136
B(  9-C , 29-H ) :   0.8632 B(  9-C , 30-H ) :   0.8769 B( 10-S , 11-P ) :   0.9319
B( 10-S , 12-S ) :   0.1213 B( 11-P , 12-S ) :   1.6079 B( 11-P , 13-O ) :   1.1309
B( 11-P , 16-O ) :   1.1434 B( 13-O , 14-C ) :   0.9079 B( 14-C , 15-C ) :   1.1615
B( 14-C , 31-H ) :   0.9313 B( 14-C , 32-H ) :   0.9030 B( 15-C , 33-H ) :   0.9509
B( 15-C , 34-H ) :   0.9419 B( 15-C , 35-H ) :   0.9507 B( 16-O , 17-C ) :   0.9088
B( 17-C , 18-C ) :   1.1651 B( 17-C , 36-H ) :   0.8988 B( 17-C , 37-H ) :   0.9347
B( 18-C , 38-H ) :   0.9299 B( 18-C , 39-H ) :   0.9382 B( 18-C , 40-H ) :   0.9449

Dispersion correction           -0.063559510
FINAL SINGLE POINT ENERGY     -2929.528186287202

DIPOLE MOMENT
-------------

Method             : SCF
Type of density    : Electron Density
Multiplicity       :   1
Irrep              :   0
Energy             : -2929.6484039677156943 Eh
Relativity type    :
Basis              : AO
                                X                 Y                 Z
Electronic contribution:     -4.587797907      10.392575417      -6.340841690
Nuclear contribution   :      5.246186941     -11.029626820       6.931580040
                        -----------------------------------------
Total Dipole Moment    :      0.658389035      -0.637051403       0.590738350
                        -----------------------------------------
Magnitude (a.u.)       :      1.090083671
Magnitude (Debye)      :      2.770772495

Rotational constants in cm-1:             0.014139             0.004236             0.004101
Rotational constants in MHz :           423.868016           126.986705           122.956077

                             ****ORCA TERMINATED NORMALLY****
TOTAL RUN TIME: 0 days 0 hours 0 minutes 20 seconds 687 msec
