                         Program Version 6.0.1  -  RELEASE   -
|  1> ! r2scan-3c def2/J RI DEFGRID2 scfconv6 printgap
|  2> %output
|  3>     printlevel normal
|  4> end
|  5> * xyz 0 1
|  6> C 3.3669209136 -3.7747537996 -0.6260602014
|  7> C 4.0757415793 -2.4469538516 -0.8399771206
|  8> O 3.2383251372 -1.5403817435 -1.584697378
|  9> C 2.3979842272 -0.7737233042 -0.9299539297
| 10> O 2.2900554345 -0.7332098859 0.2795925145
| 11> C 1.5770516711 0.0947017046 -1.8602867592
| 12> C 0.3287076506 0.5658125684 -1.1301541047
| 13> H -0.2051595102 1.3280836679 -1.7054541665
| 14> C 0.6598609202 1.1524285389 0.2308990857
| 15> O 0.0277910311 0.8682568255 1.2302917971
| 16> O 1.5955709095 2.0611197935 0.1561411548
| 17> C 1.991279519 2.739813775 1.3670791159
| 18> C 3.1680693667 2.0293778106 2.0144965323
| 19> S -0.8158155687 -0.8299753122 -0.8554745907
| 20> P -2.2809453771 0.1678675568 0.3091476895
| 21> S -2.5093710948 2.0895972842 0.0125773
| 22> O -3.5830899284 -0.6616196004 -0.1577798553
| 23> C -4.1180685301 -0.5326044432 -1.4771772893
| 24> O -2.2794389752 -0.2844205269 1.8241554235
| 25> C -1.8949040781 -1.6067597547 2.2390548395
| 26> H 3.0788164557 -4.2031883515 -1.581744798
| 27> H 4.0329657674 -4.4594078574 -0.1115235109
| 28> H 2.4739816172 -3.628872152 -0.0219954219
| 29> H 4.966724049 -2.5655952751 -1.4564421106
| 30> H 4.3311727955 -1.9837256688 0.1170970978
| 31> H 1.3213911176 -0.4670705619 -2.7575799102
| 32> H 2.1802231786 0.9605039461 -2.1416383716
| 33> H 2.2567659346 3.7458484295 1.0408558978
| 34> H 1.1308013144 2.773372285 2.041289946
| 35> H 4.0264005043 2.0403827014 1.3488423613
| 36> H 3.4241467615 2.5298456651 2.9422709247
| 37> H 2.9021135677 0.995722976 2.2261522135
| 38> H -4.2199972769 0.5228267442 -1.7361110314
| 39> H -5.0930459956 -1.0119384187 -1.4462807059
| 40> H -3.4644131055 -1.0311905631 -2.1928993906
| 41> H -2.184972581 -1.6710904517 3.2845237424
| 42> H -0.8147206922 -1.7157660009 2.135416055
| 43> H -2.4137594811 -2.357226533 1.644055167
| 44> *
| 45>
| 46>                          ****END OF INPUT****

CARTESIAN COORDINATES (ANGSTROEM)
---------------------------------
  C      3.366921   -3.774754   -0.626060
  C      4.075742   -2.446954   -0.839977
  O      3.238325   -1.540382   -1.584697
  C      2.397984   -0.773723   -0.929954
  O      2.290055   -0.733210    0.279593
  C      1.577052    0.094702   -1.860287
  C      0.328708    0.565813   -1.130154
  H     -0.205160    1.328084   -1.705454
  C      0.659861    1.152429    0.230899
  O      0.027791    0.868257    1.230292
  O      1.595571    2.061120    0.156141
  C      1.991280    2.739814    1.367079
  C      3.168069    2.029378    2.014497
  S     -0.815816   -0.829975   -0.855475
  P     -2.280945    0.167868    0.309148
  S     -2.509371    2.089597    0.012577
  O     -3.583090   -0.661620   -0.157780
  C     -4.118069   -0.532604   -1.477177
  O     -2.279439   -0.284421    1.824155
  C     -1.894904   -1.606760    2.239055
  H      3.078816   -4.203188   -1.581745
  H      4.032966   -4.459408   -0.111524
  H      2.473982   -3.628872   -0.021995
  H      4.966724   -2.565595   -1.456442
  H      4.331173   -1.983726    0.117097
  H      1.321391   -0.467071   -2.757580
  H      2.180223    0.960504   -2.141638
  H      2.256766    3.745848    1.040856
  H      1.130801    2.773372    2.041290
  H      4.026401    2.040383    1.348842
  H      3.424147    2.529846    2.942271
  H      2.902114    0.995723    2.226152
  H     -4.219997    0.522827   -1.736111
  H     -5.093046   -1.011938   -1.446281
  H     -3.464413   -1.031191   -2.192899
  H     -2.184973   -1.671090    3.284524
  H     -0.814721   -1.715766    2.135416
  H     -2.413759   -2.357227    1.644055

 Total Charge           Charge          ....    0
 Multiplicity           Mult            ....    1
 Number of Electrons    NEL             ....  174
 Basis Dimension        Dim             ....  510

ORBITAL ENERGIES
----------------

  NO   OCC          E(Eh)            E(eV)
   0   2.0000     -88.567526     -2410.0449
   1   2.0000     -88.500177     -2408.2122
   2   2.0000     -76.901189     -2092.5877
   3   2.0000     -19.016690      -517.4704
   4   2.0000     -19.003621      -517.1148
   5   2.0000     -18.974454      -516.3211
   6   2.0000     -18.970659      -516.2179
   7   2.0000     -18.948848      -515.6244
   8   2.0000     -18.929016      -515.0847
   9   2.0000     -10.173744      -276.8416
  10   2.0000     -10.160993      -276.4947
  11   2.0000     -10.105816      -274.9932
  12   2.0000     -10.094373      -274.6819
  13   2.0000     -10.091231      -274.5963
  14   2.0000     -10.082713      -274.3646
  15   2.0000     -10.075588      -274.1707
  16   2.0000     -10.071579      -274.0616
  17   2.0000     -10.039871      -273.1988
  18   2.0000     -10.025811      -272.8162
  19   2.0000      -7.861950      -213.9345
  20   2.0000      -7.795186      -212.1178
  21   2.0000      -6.578625      -179.0135
  22   2.0000      -5.808819      -158.0660
  23   2.0000      -5.805886      -157.9862
  24   2.0000      -5.798985      -157.7984
  25   2.0000      -5.743118      -156.2782
  26   2.0000      -5.735671      -156.0755
  27   2.0000      -5.734653      -156.0478
  28   2.0000      -4.724210      -128.5523
  29   2.0000      -4.723998      -128.5465
  30   2.0000      -4.722062      -128.4938
  31   2.0000      -1.094390       -29.7799
  32   2.0000      -1.080929       -29.4136
  33   2.0000      -1.031702       -28.0740
  34   2.0000      -0.998334       -27.1660
  35   2.0000      -0.989268       -26.9194
  36   2.0000      -0.981827       -26.7169
  37   2.0000      -0.812524       -22.1099
  38   2.0000      -0.762531       -20.7495
  39   2.0000      -0.743540       -20.2327
  40   2.0000      -0.724818       -19.7233
  41   2.0000      -0.695494       -18.9253
  42   2.0000      -0.660209       -17.9652
  43   2.0000      -0.656027       -17.8514
  44   2.0000      -0.640378       -17.4256
  45   2.0000      -0.634469       -17.2648
  46   2.0000      -0.596825       -16.2404
  47   2.0000      -0.541086       -14.7237
  48   2.0000      -0.530267       -14.4293
  49   2.0000      -0.519942       -14.1483
  50   2.0000      -0.509498       -13.8641
  51   2.0000      -0.485808       -13.2195
  52   2.0000      -0.476871       -12.9763
  53   2.0000      -0.470484       -12.8025
  54   2.0000      -0.459502       -12.5037
  55   2.0000      -0.456423       -12.4199
  56   2.0000      -0.443267       -12.0619
  57   2.0000      -0.440952       -11.9989
  58   2.0000      -0.432634       -11.7726
  59   2.0000      -0.419428       -11.4132
  60   2.0000      -0.416925       -11.3451
  61   2.0000      -0.416309       -11.3284
  62   2.0000      -0.404702       -11.0125
  63   2.0000      -0.399450       -10.8696
  64   2.0000      -0.396648       -10.7933
  65   2.0000      -0.388016       -10.5585
  66   2.0000      -0.380924       -10.3655
  67   2.0000      -0.371876       -10.1193
  68   2.0000      -0.363628        -9.8948
  69   2.0000      -0.350151        -9.5281
  70   2.0000      -0.349297        -9.5049
  71   2.0000      -0.344137        -9.3644
  72   2.0000      -0.341473        -9.2920
  73   2.0000      -0.324339        -8.8257
  74   2.0000      -0.320278        -8.7152
  75   2.0000      -0.309970        -8.4347
  76   2.0000      -0.301680        -8.2091
  77   2.0000      -0.298813        -8.1311
  78   2.0000      -0.291423        -7.9300
  79   2.0000      -0.277731        -7.5574
  80   2.0000      -0.271227        -7.3805
  81   2.0000      -0.260783        -7.0963
  82   2.0000      -0.257182        -6.9983
  83   2.0000      -0.243002        -6.6124
  84   2.0000      -0.228969        -6.2306
  85   2.0000      -0.202721        -5.5163
  86   2.0000      -0.193891        -5.2760
  87   0.0000      -0.041553        -1.1307
  88   0.0000      -0.027383        -0.7451
  89   0.0000      -0.014349        -0.3905
  90   0.0000       0.011565         0.3147
  91   0.0000       0.034255         0.9321

MULLIKEN ATOMIC CHARGES
-----------------------
   0 C :   -0.461942
   1 C :   -0.141933
   2 O :   -0.158628
   3 C :    0.387854
   4 O :   -0.381443
   5 C :   -0.425055
   6 C :   -0.022299
   7 H :    0.237269
   8 C :    0.306987
   9 O :   -0.395510
  10 O :   -0.133251
  11 C :   -0.152885
  12 C :   -0.474775
  13 S :   -0.212838
  14 P :    0.801262
  15 S :   -0.466522
  16 O :   -0.366845
  17 C :   -0.302333
  18 O :   -0.296266
  19 C :   -0.300920
  20 H :    0.154778
  21 H :    0.150538
  22 H :    0.172176
  23 H :    0.151991
  24 H :    0.167995
  25 H :    0.189358
  26 H :    0.197613
  27 H :    0.149377
  28 H :    0.185554
  29 H :    0.145173
  30 H :    0.147000
  31 H :    0.187210
  32 H :    0.175152
  33 H :    0.147720
  34 H :    0.151234
  35 H :    0.152213
  36 H :    0.178939
  37 H :    0.156053
Sum of atomic charges:   -0.0000000

LOEWDIN ATOMIC CHARGES
----------------------
   0 C :   -0.386089
   1 C :    0.031951
   2 O :   -0.572961
   3 C :    0.367453
   4 O :   -0.430806
   5 C :   -0.206371
   6 C :   -0.198325
   7 H :    0.205594
   8 C :    0.351283
   9 O :   -0.454905
  10 O :   -0.569323
  11 C :    0.037154
  12 C :   -0.389191
  13 S :    0.208981
  14 P :    0.409230
  15 S :   -0.095131
  16 O :   -0.694605
  17 C :   -0.069709
  18 O :   -0.638766
  19 C :   -0.052932
  20 H :    0.158841
  21 H :    0.160979
  22 H :    0.165951
  23 H :    0.179908
  24 H :    0.188789
  25 H :    0.190020
  26 H :    0.201668
  27 H :    0.178445
  28 H :    0.195615
  29 H :    0.155211
  30 H :    0.158509
  31 H :    0.173751
  32 H :    0.175777
  33 H :    0.174382
  34 H :    0.164999
  35 H :    0.179443
  36 H :    0.177428
  37 H :    0.167751

  Mayer bond orders larger than 0.100000
B(  0-C ,  1-C ) :   0.9458 B(  0-C , 20-H ) :   0.9726 B(  0-C , 21-H ) :   0.9640
B(  0-C , 22-H ) :   0.9685 B(  1-C ,  2-O ) :   0.7977 B(  1-C , 23-H ) :   0.9612
B(  1-C , 24-H ) :   0.9658 B(  2-O ,  3-C ) :   1.1453 B(  3-C ,  4-O ) :   1.7533
B(  3-C ,  5-C ) :   0.9660 B(  4-O ,  8-C ) :   0.1546 B(  5-C ,  6-C ) :   0.8905
B(  5-C , 10-O ) :   0.1235 B(  5-C , 25-H ) :   0.9700 B(  5-C , 26-H ) :   0.9247
B(  6-C ,  7-H ) :   0.9098 B(  6-C ,  8-C ) :   0.8819 B(  6-C , 13-S ) :   0.9391
B(  8-C ,  9-O ) :   1.7651 B(  8-C , 10-O ) :   1.1632 B(  9-O , 14-P ) :   0.1136
B( 10-O , 11-C ) :   0.7846 B( 11-C , 12-C ) :   0.9317 B( 11-C , 27-H ) :   0.9610
B( 11-C , 28-H ) :   0.9720 B( 12-C , 29-H ) :   0.9701 B( 12-C , 30-H ) :   0.9658
B( 12-C , 31-H ) :   0.9677 B( 13-S , 14-P ) :   0.9693 B( 14-P , 15-S ) :   1.7786
B( 14-P , 16-O ) :   1.0030 B( 14-P , 18-O ) :   1.2049 B( 16-O , 17-C ) :   0.8412
B( 17-C , 32-H ) :   0.9587 B( 17-C , 33-H ) :   0.9698 B( 17-C , 34-H ) :   0.9577
B( 18-O , 19-C ) :   0.7966 B( 19-C , 35-H ) :   0.9655 B( 19-C , 36-H ) :   0.9564
B( 19-C , 37-H ) :   0.9653

Dispersion correction           -0.017289584
FINAL SINGLE POINT ENERGY     -1981.446425217522

DIPOLE MOMENT
-------------

Method             : SCF
Type of density    : Electron Density
Multiplicity       :   1
Irrep              :   0
Energy             : -1981.4671281377181913 Eh
Relativity type    :
Basis              : AO
                                X                 Y                 Z
Electronic contribution:    -16.800986421       8.476187645      -2.068642934
Nuclear contribution   :     18.786639753      -9.758680595       1.302184361
                        -----------------------------------------
Total Dipole Moment    :      1.985653332      -1.282492950      -0.766458573
                        -----------------------------------------
Magnitude (a.u.)       :      2.484968021
Magnitude (Debye)      :      6.316286746

Rotational constants in cm-1:             0.013575             0.006900             0.005696
Rotational constants in MHz :           406.963265           206.857974           170.751646

                             ****ORCA TERMINATED NORMALLY****
TOTAL RUN TIME: 0 days 0 hours 1 minutes 15 seconds 674 msec
