                         Program Version 6.0.1  -  RELEASE   -
|  1> ! r2scan-3c def2/J RI DEFGRID2 scfconv6 printgap
|  2> %output
|  3>     printlevel normal
|  4> end
|  5> %cpcm
|  6>     smd true
|  7>     smdsolvent "water"
|  8> end
|  9> * xyz 0 1
| 10> C 3.3669209136 -3.7747537996 -0.6260602014
| 11> C 4.0757415793 -2.4469538516 -0.8399771206
| 12> O 3.2383251372 -1.5403817435 -1.584697378
| 13> C 2.3979842272 -0.7737233042 -0.9299539297
| 14> O 2.2900554345 -0.7332098859 0.2795925145
| 15> C 1.5770516711 0.0947017046 -1.8602867592
| 16> C 0.3287076506 0.5658125684 -1.1301541047
| 17> H -0.2051595102 1.3280836679 -1.7054541665
| 18> C 0.6598609202 1.1524285389 0.2308990857
| 19> O 0.0277910311 0.8682568255 1.2302917971
| 20> O 1.5955709095 2.0611197935 0.1561411548
| 21> C 1.991279519 2.739813775 1.3670791159
| 22> C 3.1680693667 2.0293778106 2.0144965323
| 23> S -0.8158155687 -0.8299753122 -0.8554745907
| 24> P -2.2809453771 0.1678675568 0.3091476895
| 25> S -2.5093710948 2.0895972842 0.0125773
| 26> O -3.5830899284 -0.6616196004 -0.1577798553
| 27> C -4.1180685301 -0.5326044432 -1.4771772893
| 28> O -2.2794389752 -0.2844205269 1.8241554235
| 29> C -1.8949040781 -1.6067597547 2.2390548395
| 30> H 3.0788164557 -4.2031883515 -1.581744798
| 31> H 4.0329657674 -4.4594078574 -0.1115235109
| 32> H 2.4739816172 -3.628872152 -0.0219954219
| 33> H 4.966724049 -2.5655952751 -1.4564421106
| 34> H 4.3311727955 -1.9837256688 0.1170970978
| 35> H 1.3213911176 -0.4670705619 -2.7575799102
| 36> H 2.1802231786 0.9605039461 -2.1416383716
| 37> H 2.2567659346 3.7458484295 1.0408558978
| 38> H 1.1308013144 2.773372285 2.041289946
| 39> H 4.0264005043 2.0403827014 1.3488423613
| 40> H 3.4241467615 2.5298456651 2.9422709247
| 41> H 2.9021135677 0.995722976 2.2261522135
| 42> H -4.2199972769 0.5228267442 -1.7361110314
| 43> H -5.0930459956 -1.0119384187 -1.4462807059
| 44> H -3.4644131055 -1.0311905631 -2.1928993906
| 45> H -2.184972581 -1.6710904517 3.2845237424
| 46> H -0.8147206922 -1.7157660009 2.135416055
| 47> H -2.4137594811 -2.357226533 1.644055167
| 48> *
| 49>
| 50>                          ****END OF INPUT****

CARTESIAN COORDINATES (ANGSTROEM)
---------------------------------
  C      3.366921   -3.774754   -0.626060
  C      4.075742   -2.446954   -0.839977
  O      3.238325   -1.540382   -1.584697
  C      2.397984   -0.773723   -0.929954
  O      2.290055   -0.733210    0.279593
  C      1.577052    0.094702   -1.860287
  C      0.328708    0.565813   -1.130154
  H     -0.205160    1.328084   -1.705454
  C      0.659861    1.152429    0.230899
  O      0.027791    0.868257    1.230292
  O      1.595571    2.061120    0.156141
  C      1.991280    2.739814    1.367079
  C      3.168069    2.029378    2.014497
  S     -0.815816   -0.829975   -0.855475
  P     -2.280945    0.167868    0.309148
  S     -2.509371    2.089597    0.012577
  O     -3.583090   -0.661620   -0.157780
  C     -4.118069   -0.532604   -1.477177
  O     -2.279439   -0.284421    1.824155
  C     -1.894904   -1.606760    2.239055
  H      3.078816   -4.203188   -1.581745
  H      4.032966   -4.459408   -0.111524
  H      2.473982   -3.628872   -0.021995
  H      4.966724   -2.565595   -1.456442
  H      4.331173   -1.983726    0.117097
  H      1.321391   -0.467071   -2.757580
  H      2.180223    0.960504   -2.141638
  H      2.256766    3.745848    1.040856
  H      1.130801    2.773372    2.041290
  H      4.026401    2.040383    1.348842
  H      3.424147    2.529846    2.942271
  H      2.902114    0.995723    2.226152
  H     -4.219997    0.522827   -1.736111
  H     -5.093046   -1.011938   -1.446281
  H     -3.464413   -1.031191   -2.192899
  H     -2.184973   -1.671090    3.284524
  H     -0.814721   -1.715766    2.135416
  H     -2.413759   -2.357227    1.644055

 Total Charge           Charge          ....    0
 Multiplicity           Mult            ....    1
 Number of Electrons    NEL             ....  174
 Basis Dimension        Dim             ....  510

ORBITAL ENERGIES
----------------

  NO   OCC          E(Eh)            E(eV)
   0   2.0000     -88.576980     -2410.3022
   1   2.0000     -88.521934     -2408.8043
   2   2.0000     -76.918503     -2093.0589
   3   2.0000     -19.011273      -517.3230
   4   2.0000     -19.011201      -517.3211
   5   2.0000     -18.992454      -516.8109
   6   2.0000     -18.985211      -516.6139
   7   2.0000     -18.952694      -515.7290
   8   2.0000     -18.946872      -515.5706
   9   2.0000     -10.174601      -276.8650
  10   2.0000     -10.173819      -276.8437
  11   2.0000     -10.096401      -274.7370
  12   2.0000     -10.087348      -274.4907
  13   2.0000     -10.087203      -274.4867
  14   2.0000     -10.083872      -274.3961
  15   2.0000     -10.076891      -274.2062
  16   2.0000     -10.061403      -273.7847
  17   2.0000     -10.020076      -272.6601
  18   2.0000     -10.019232      -272.6372
  19   2.0000      -7.871311      -214.1893
  20   2.0000      -7.817309      -212.7198
  21   2.0000      -6.596112      -179.4893
  22   2.0000      -5.818192      -158.3211
  23   2.0000      -5.815262      -158.2413
  24   2.0000      -5.808333      -158.0528
  25   2.0000      -5.765096      -156.8762
  26   2.0000      -5.757803      -156.6778
  27   2.0000      -5.756836      -156.6515
  28   2.0000      -4.741708      -129.0284
  29   2.0000      -4.741359      -129.0189
  30   2.0000      -4.739672      -128.9730
  31   2.0000      -1.093316       -29.7506
  32   2.0000      -1.088042       -29.6071
  33   2.0000      -1.048220       -28.5235
  34   2.0000      -1.004514       -27.3342
  35   2.0000      -1.000457       -27.2238
  36   2.0000      -0.997566       -27.1452
  37   2.0000      -0.813007       -22.1230
  38   2.0000      -0.751495       -20.4492
  39   2.0000      -0.744328       -20.2542
  40   2.0000      -0.728179       -19.8148
  41   2.0000      -0.696451       -18.9514
  42   2.0000      -0.663652       -18.0589
  43   2.0000      -0.659675       -17.9507
  44   2.0000      -0.652828       -17.7643
  45   2.0000      -0.625332       -17.0162
  46   2.0000      -0.595430       -16.2025
  47   2.0000      -0.537261       -14.6196
  48   2.0000      -0.530113       -14.4251
  49   2.0000      -0.522703       -14.2235
  50   2.0000      -0.509498       -13.8641
  51   2.0000      -0.488508       -13.2930
  52   2.0000      -0.487527       -13.2663
  53   2.0000      -0.471479       -12.8296
  54   2.0000      -0.457057       -12.4372
  55   2.0000      -0.455692       -12.4000
  56   2.0000      -0.454208       -12.3596
  57   2.0000      -0.445382       -12.1194
  58   2.0000      -0.442308       -12.0358
  59   2.0000      -0.423976       -11.5370
  60   2.0000      -0.418304       -11.3826
  61   2.0000      -0.413611       -11.2549
  62   2.0000      -0.408049       -11.1036
  63   2.0000      -0.395514       -10.7625
  64   2.0000      -0.394145       -10.7252
  65   2.0000      -0.385987       -10.5032
  66   2.0000      -0.372585       -10.1386
  67   2.0000      -0.370976       -10.0948
  68   2.0000      -0.356081        -9.6895
  69   2.0000      -0.351048        -9.5525
  70   2.0000      -0.348360        -9.4793
  71   2.0000      -0.345784        -9.4093
  72   2.0000      -0.339381        -9.2350
  73   2.0000      -0.327948        -8.9239
  74   2.0000      -0.314274        -8.5518
  75   2.0000      -0.311006        -8.4629
  76   2.0000      -0.308523        -8.3953
  77   2.0000      -0.307041        -8.3550
  78   2.0000      -0.291073        -7.9205
  79   2.0000      -0.288484        -7.8500
  80   2.0000      -0.279929        -7.6172
  81   2.0000      -0.273695        -7.4476
  82   2.0000      -0.263516        -7.1706
  83   2.0000      -0.257925        -7.0185
  84   2.0000      -0.241096        -6.5606
  85   2.0000      -0.224163        -6.0998
  86   2.0000      -0.217097        -5.9075
  87   0.0000      -0.048956        -1.3322
  88   0.0000      -0.032133        -0.8744
  89   0.0000      -0.024327        -0.6620
  90   0.0000       0.003221         0.0876
  91   0.0000       0.020404         0.5552

MULLIKEN ATOMIC CHARGES
-----------------------
   0 C :   -0.493981
   1 C :   -0.143162
   2 O :   -0.169616
   3 C :    0.418045
   4 O :   -0.444402
   5 C :   -0.452015
   6 C :   -0.004953
   7 H :    0.264578
   8 C :    0.291081
   9 O :   -0.449736
  10 O :   -0.146149
  11 C :   -0.136352
  12 C :   -0.512152
  13 S :   -0.203573
  14 P :    0.802952
  15 S :   -0.518032
  16 O :   -0.401820
  17 C :   -0.308792
  18 O :   -0.349163
  19 C :   -0.304820
  20 H :    0.167694
  21 H :    0.172738
  22 H :    0.169804
  23 H :    0.177554
  24 H :    0.174967
  25 H :    0.221315
  26 H :    0.237322
  27 H :    0.177630
  28 H :    0.181562
  29 H :    0.169855
  30 H :    0.171984
  31 H :    0.175521
  32 H :    0.174935
  33 H :    0.175839
  34 H :    0.171218
  35 H :    0.181027
  36 H :    0.180690
  37 H :    0.180407
Sum of atomic charges:   -0.0000000

LOEWDIN ATOMIC CHARGES
----------------------
   0 C :   -0.389921
   1 C :    0.037824
   2 O :   -0.571852
   3 C :    0.376540
   4 O :   -0.475110
   5 C :   -0.195339
   6 C :   -0.189362
   7 H :    0.215702
   8 C :    0.352039
   9 O :   -0.504029
  10 O :   -0.568302
  11 C :    0.042056
  12 C :   -0.391131
  13 S :    0.222396
  14 P :    0.404929
  15 S :   -0.137657
  16 O :   -0.711522
  17 C :   -0.064152
  18 O :   -0.672856
  19 C :   -0.046089
  20 H :    0.162774
  21 H :    0.169076
  22 H :    0.163047
  23 H :    0.191038
  24 H :    0.191215
  25 H :    0.203282
  26 H :    0.216885
  27 H :    0.190891
  28 H :    0.193675
  29 H :    0.162813
  30 H :    0.168289
  31 H :    0.166954
  32 H :    0.175950
  33 H :    0.186337
  34 H :    0.173778
  35 H :    0.191455
  36 H :    0.179626
  37 H :    0.178750

  Mayer bond orders larger than 0.100000
B(  0-C ,  1-C ) :   0.9384 B(  0-C , 20-H ) :   0.9695 B(  0-C , 21-H ) :   0.9590
B(  0-C , 22-H ) :   0.9681 B(  1-C ,  2-O ) :   0.7820 B(  1-C , 23-H ) :   0.9517
B(  1-C , 24-H ) :   0.9623 B(  2-O ,  3-C ) :   1.1603 B(  3-C ,  4-O ) :   1.7040
B(  3-C ,  5-C ) :   0.9509 B(  4-O ,  8-C ) :   0.1534 B(  5-C ,  6-C ) :   0.8832
B(  5-C , 10-O ) :   0.1102 B(  5-C , 25-H ) :   0.9650 B(  5-C , 26-H ) :   0.9203
B(  6-C ,  7-H ) :   0.8916 B(  6-C ,  8-C ) :   0.8799 B(  6-C , 13-S ) :   0.9235
B(  8-C ,  9-O ) :   1.7272 B(  8-C , 10-O ) :   1.1680 B(  9-O , 14-P ) :   0.1145
B( 10-O , 11-C ) :   0.7708 B( 11-C , 12-C ) :   0.9200 B( 11-C , 27-H ) :   0.9497
B( 11-C , 28-H ) :   0.9665 B( 12-C , 29-H ) :   0.9672 B( 12-C , 30-H ) :   0.9590
B( 12-C , 31-H ) :   0.9692 B( 13-S , 14-P ) :   1.0006 B( 14-P , 15-S ) :   1.7736
B( 14-P , 16-O ) :   1.0016 B( 14-P , 18-O ) :   1.1911 B( 16-O , 17-C ) :   0.8335
B( 17-C , 32-H ) :   0.9553 B( 17-C , 33-H ) :   0.9593 B( 17-C , 34-H ) :   0.9506
B( 18-O , 19-C ) :   0.7905 B( 19-C , 35-H ) :   0.9543 B( 19-C , 36-H ) :   0.9494
B( 19-C , 37-H ) :   0.9545

Dispersion correction           -0.017289584
FINAL SINGLE POINT ENERGY     -1981.462714007444

DIPOLE MOMENT
-------------

Method             : SCF
Type of density    : Electron Density
Multiplicity       :   1
Irrep              :   0
Energy             : -1981.4834169276398370 Eh
Relativity type    :
Basis              : AO
                                X                 Y                 Z
Electronic contribution:    -16.142825671       8.113419909      -2.879587158
Nuclear contribution   :     18.786639753      -9.758680595       1.302184361
                        -----------------------------------------
Total Dipole Moment    :      2.643814082      -1.645260686      -1.577402797
                        -----------------------------------------
Magnitude (a.u.)       :      3.490678331
Magnitude (Debye)      :      8.872599199

Rotational constants in cm-1:             0.013575             0.006900             0.005696
Rotational constants in MHz :           406.963265           206.857974           170.751646

                             ****ORCA TERMINATED NORMALLY****
TOTAL RUN TIME: 0 days 0 hours 1 minutes 57 seconds 727 msec
