                         Program Version 6.0.0  -   RELEASE  -
|  1> ! r2scan-3c def2/J RI DEFGRID2 scfconv6 printgap
|  2> %output
|  3>     printlevel normal
|  4> end
|  5> * xyz 0 1
|  6> C 0.6085677661 1.7025741685 -0.0484983796
|  7> C 1.3961789927 0.4071991408 -0.2752039831
|  8> H 1.5869369255 0.2734335986 -1.3505068901
|  9> C 0.5572606756 -0.7869226997 0.2083084791
| 10> H 0.3990547137 -0.6867744335 1.2937080802
| 11> C -0.8050335318 -0.7682885913 -0.499754622
| 12> H -0.6441246781 -0.9334050118 -1.5694005832
| 13> C -1.4714069431 0.6084194461 -0.2890933956
| 14> H -2.3604095954 0.676635 -0.9312408178
| 15> O -0.6473366485 1.6651522167 -0.7099305694
| 16> O -1.8078862185 0.7055629882 1.06005246
| 17> O -1.6587648094 -1.7927257026 -0.0785933687
| 18> O 1.1980899822 -2.0045661924 -0.0789155845
| 19> O 2.6001482164 0.3865053867 0.455339219
| 20> H 1.1242412841 2.5646600918 -0.4718990241
| 21> H 0.468198983 1.8451899635 1.0301460662
| 22> H -2.3835762455 1.4704208857 1.2110700076
| 23> H -1.8743516786 -1.6526089046 0.8572068408
| 24> H 2.0891821742 -1.9698704591 0.3018066073
| 25> H 3.2039933153 1.0633227834 0.1192414162
| 26> *
| 27>
| 28>                          ****END OF INPUT****

CARTESIAN COORDINATES (ANGSTROEM)
---------------------------------
  C      0.608568    1.702574   -0.048498
  C      1.396179    0.407199   -0.275204
  H      1.586937    0.273434   -1.350507
  C      0.557261   -0.786923    0.208308
  H      0.399055   -0.686774    1.293708
  C     -0.805034   -0.768289   -0.499755
  H     -0.644125   -0.933405   -1.569401
  C     -1.471407    0.608419   -0.289093
  H     -2.360410    0.676635   -0.931241
  O     -0.647337    1.665152   -0.709931
  O     -1.807886    0.705563    1.060052
  O     -1.658765   -1.792726   -0.078593
  O      1.198090   -2.004566   -0.078916
  O      2.600148    0.386505    0.455339
  H      1.124241    2.564660   -0.471899
  H      0.468199    1.845190    1.030146
  H     -2.383576    1.470421    1.211070
  H     -1.874352   -1.652609    0.857207
  H      2.089182   -1.969870    0.301807
  H      3.203993    1.063323    0.119241

 Total Charge           Charge          ....    0
 Multiplicity           Mult            ....    1
 Number of Electrons    NEL             ....   80
 Basis Dimension        Dim             ....  265

ORBITAL ENERGIES
----------------

  NO   OCC          E(Eh)            E(eV)
   0   2.0000     -18.976467      -516.3759
   1   2.0000     -18.971414      -516.2384
   2   2.0000     -18.970830      -516.2225
   3   2.0000     -18.948756      -515.6219
   4   2.0000     -18.946648      -515.5645
   5   2.0000     -10.138317      -275.8776
   6   2.0000     -10.092240      -274.6238
   7   2.0000     -10.087588      -274.4972
   8   2.0000     -10.085819      -274.4491
   9   2.0000     -10.084661      -274.4176
  10   2.0000      -1.052983       -28.6531
  11   2.0000      -1.013722       -27.5848
  12   2.0000      -0.996459       -27.1150
  13   2.0000      -0.984261       -26.7831
  14   2.0000      -0.976269       -26.5656
  15   2.0000      -0.747220       -20.3329
  16   2.0000      -0.723860       -19.6972
  17   2.0000      -0.618945       -16.8424
  18   2.0000      -0.614346       -16.7172
  19   2.0000      -0.565787       -15.3958
  20   2.0000      -0.515011       -14.0142
  21   2.0000      -0.512265       -13.9394
  22   2.0000      -0.496526       -13.5111
  23   2.0000      -0.474116       -12.9013
  24   2.0000      -0.449093       -12.2204
  25   2.0000      -0.438641       -11.9360
  26   2.0000      -0.412798       -11.2328
  27   2.0000      -0.394932       -10.7467
  28   2.0000      -0.391108       -10.6426
  29   2.0000      -0.370987       -10.0951
  30   2.0000      -0.364768        -9.9258
  31   2.0000      -0.338972        -9.2239
  32   2.0000      -0.323046        -8.7905
  33   2.0000      -0.309879        -8.4322
  34   2.0000      -0.286284        -7.7902
  35   2.0000      -0.278896        -7.5891
  36   2.0000      -0.270220        -7.3531
  37   2.0000      -0.250741        -6.8230
  38   2.0000      -0.239698        -6.5225
  39   2.0000      -0.222961        -6.0671
  40   0.0000       0.030608         0.8329
  41   0.0000       0.042908         1.1676
  42   0.0000       0.066092         1.7984
  43   0.0000       0.094384         2.5683
  44   0.0000       0.100105         2.7240

MULLIKEN ATOMIC CHARGES
-----------------------
   0 C :   -0.260591
   1 C :    0.026218
   2 H :    0.148940
   3 C :    0.005821
   4 H :    0.167319
   5 C :   -0.162867
   6 H :    0.172238
   7 C :    0.068124
   8 H :    0.134787
   9 O :   -0.198605
  10 O :   -0.417942
  11 O :   -0.383342
  12 O :   -0.410050
  13 O :   -0.428352
  14 H :    0.141609
  15 H :    0.174176
  16 H :    0.306172
  17 H :    0.309725
  18 H :    0.309433
  19 H :    0.297188
Sum of atomic charges:    0.0000000

LOEWDIN ATOMIC CHARGES
----------------------
   0 C :    0.037948
   1 C :    0.097765
   2 H :    0.177905
   3 C :    0.107492
   4 H :    0.186244
   5 C :    0.122571
   6 H :    0.203485
   7 C :    0.283935
   8 H :    0.198357
   9 O :   -0.678645
  10 O :   -0.529751
  11 O :   -0.538505
  12 O :   -0.559021
  13 O :   -0.591495
  14 H :    0.182875
  15 H :    0.182411
  16 H :    0.280137
  17 H :    0.280366
  18 H :    0.281257
  19 H :    0.274670

  Mayer bond orders larger than 0.100000
B(  0-C ,  1-C ) :   0.8495 B(  0-C ,  9-O ) :   0.9304 B(  0-C , 14-H ) :   0.9380
B(  0-C , 15-H ) :   0.9916 B(  1-C ,  2-H ) :   0.9705 B(  1-C ,  3-C ) :   0.8917
B(  1-C , 13-O ) :   0.9128 B(  3-C ,  4-H ) :   0.9557 B(  3-C ,  5-C ) :   0.9343
B(  3-C , 12-O ) :   0.9436 B(  5-C ,  6-H ) :   0.9722 B(  5-C ,  7-C ) :   0.9136
B(  5-C , 11-O ) :   1.0087 B(  7-C ,  8-H ) :   0.9535 B(  7-C ,  9-O ) :   0.9623
B(  7-C , 10-O ) :   1.0018 B( 10-O , 16-H ) :   0.8912 B( 11-O , 17-H ) :   0.8729
B( 12-O , 18-H ) :   0.8782 B( 13-O , 19-H ) :   0.8973

Dispersion correction           -0.006270179
FINAL SINGLE POINT ENERGY      -572.561409676374

DIPOLE MOMENT
-------------

Method             : SCF
Type of density    : Electron Density
Multiplicity       :   1
Irrep              :   0
Energy             :  -572.5714450329755891 Eh
Relativity type    :
Basis              : AO
                                X                 Y                 Z
Electronic contribution:     -1.184697812      -1.143344087      -0.167924724
Nuclear contribution   :      1.504974273       2.471684152       0.469425999
                        -----------------------------------------
Total Dipole Moment    :      0.320276461       1.328340065       0.301501275
                        -----------------------------------------
Magnitude (a.u.)       :      1.399273869
Magnitude (Debye)      :      3.556671521

Rotational constants in cm-1:             0.057405             0.044445             0.028969
Rotational constants in MHz :          1720.958425          1332.438461           868.470200

                             ****ORCA TERMINATED NORMALLY****
TOTAL RUN TIME: 0 days 0 hours 0 minutes 44 seconds 404 msec
