                         Program Version 6.0.0  -   RELEASE  -
|  1> ! r2scan-3c def2/J RI DEFGRID2 scfconv6 printgap
|  2> %output
|  3>     printlevel normal
|  4> end
|  5> %cpcm
|  6>     smd true
|  7>     smdsolvent "water"
|  8> end
|  9> * xyz 0 1
| 10> C 0.6085677661 1.7025741685 -0.0484983796
| 11> C 1.3961789927 0.4071991408 -0.2752039831
| 12> H 1.5869369255 0.2734335986 -1.3505068901
| 13> C 0.5572606756 -0.7869226997 0.2083084791
| 14> H 0.3990547137 -0.6867744335 1.2937080802
| 15> C -0.8050335318 -0.7682885913 -0.499754622
| 16> H -0.6441246781 -0.9334050118 -1.5694005832
| 17> C -1.4714069431 0.6084194461 -0.2890933956
| 18> H -2.3604095954 0.676635 -0.9312408178
| 19> O -0.6473366485 1.6651522167 -0.7099305694
| 20> O -1.8078862185 0.7055629882 1.06005246
| 21> O -1.6587648094 -1.7927257026 -0.0785933687
| 22> O 1.1980899822 -2.0045661924 -0.0789155845
| 23> O 2.6001482164 0.3865053867 0.455339219
| 24> H 1.1242412841 2.5646600918 -0.4718990241
| 25> H 0.468198983 1.8451899635 1.0301460662
| 26> H -2.3835762455 1.4704208857 1.2110700076
| 27> H -1.8743516786 -1.6526089046 0.8572068408
| 28> H 2.0891821742 -1.9698704591 0.3018066073
| 29> H 3.2039933153 1.0633227834 0.1192414162
| 30> *
| 31>
| 32>                          ****END OF INPUT****

CARTESIAN COORDINATES (ANGSTROEM)
---------------------------------
  C      0.608568    1.702574   -0.048498
  C      1.396179    0.407199   -0.275204
  H      1.586937    0.273434   -1.350507
  C      0.557261   -0.786923    0.208308
  H      0.399055   -0.686774    1.293708
  C     -0.805034   -0.768289   -0.499755
  H     -0.644125   -0.933405   -1.569401
  C     -1.471407    0.608419   -0.289093
  H     -2.360410    0.676635   -0.931241
  O     -0.647337    1.665152   -0.709931
  O     -1.807886    0.705563    1.060052
  O     -1.658765   -1.792726   -0.078593
  O      1.198090   -2.004566   -0.078916
  O      2.600148    0.386505    0.455339
  H      1.124241    2.564660   -0.471899
  H      0.468199    1.845190    1.030146
  H     -2.383576    1.470421    1.211070
  H     -1.874352   -1.652609    0.857207
  H      2.089182   -1.969870    0.301807
  H      3.203993    1.063323    0.119241

 Total Charge           Charge          ....    0
 Multiplicity           Mult            ....    1
 Number of Electrons    NEL             ....   80
 Basis Dimension        Dim             ....  265

ORBITAL ENERGIES
----------------

  NO   OCC          E(Eh)            E(eV)
   0   2.0000     -18.970828      -516.2225
   1   2.0000     -18.966568      -516.1065
   2   2.0000     -18.962051      -515.9836
   3   2.0000     -18.961065      -515.9568
   4   2.0000     -18.957847      -515.8692
   5   2.0000     -10.133060      -275.7346
   6   2.0000     -10.088404      -274.5194
   7   2.0000     -10.084816      -274.4218
   8   2.0000     -10.084440      -274.4116
   9   2.0000     -10.075405      -274.1657
  10   2.0000      -1.048539       -28.5322
  11   2.0000      -1.011059       -27.5123
  12   2.0000      -1.001917       -27.2636
  13   2.0000      -0.984445       -26.7881
  14   2.0000      -0.977550       -26.6005
  15   2.0000      -0.744998       -20.2724
  16   2.0000      -0.718477       -19.5508
  17   2.0000      -0.615195       -16.7403
  18   2.0000      -0.611047       -16.6274
  19   2.0000      -0.562034       -15.2937
  20   2.0000      -0.509604       -13.8670
  21   2.0000      -0.506113       -13.7720
  22   2.0000      -0.493840       -13.4381
  23   2.0000      -0.471780       -12.8378
  24   2.0000      -0.448246       -12.1974
  25   2.0000      -0.437669       -11.9096
  26   2.0000      -0.411595       -11.2001
  27   2.0000      -0.393205       -10.6997
  28   2.0000      -0.390478       -10.6255
  29   2.0000      -0.372208       -10.1283
  30   2.0000      -0.359434        -9.7807
  31   2.0000      -0.341808        -9.3011
  32   2.0000      -0.328136        -8.9290
  33   2.0000      -0.315260        -8.5787
  34   2.0000      -0.284909        -7.7528
  35   2.0000      -0.277646        -7.5551
  36   2.0000      -0.268984        -7.3194
  37   2.0000      -0.252544        -6.8721
  38   2.0000      -0.247779        -6.7424
  39   2.0000      -0.227285        -6.1847
  40   0.0000       0.043152         1.1742
  41   0.0000       0.064030         1.7424
  42   0.0000       0.081485         2.2173
  43   0.0000       0.099464         2.7066
  44   0.0000       0.108377         2.9491

MULLIKEN ATOMIC CHARGES
-----------------------
   0 C :   -0.279902
   1 C :    0.033032
   2 H :    0.171121
   3 C :    0.006542
   4 H :    0.181247
   5 C :   -0.126348
   6 H :    0.192128
   7 C :    0.058363
   8 H :    0.161596
   9 O :   -0.254679
  10 O :   -0.463535
  11 O :   -0.466822
  12 O :   -0.489358
  13 O :   -0.489873
  14 H :    0.173599
  15 H :    0.180837
  16 H :    0.355302
  17 H :    0.355248
  18 H :    0.350331
  19 H :    0.351171
Sum of atomic charges:    0.0000000

LOEWDIN ATOMIC CHARGES
----------------------
   0 C :    0.042677
   1 C :    0.103889
   2 H :    0.185744
   3 C :    0.104335
   4 H :    0.193125
   5 C :    0.117789
   6 H :    0.209557
   7 C :    0.287123
   8 H :    0.207813
   9 O :   -0.702054
  10 O :   -0.535939
  11 O :   -0.575605
  12 O :   -0.596928
  13 O :   -0.605706
  14 H :    0.195974
  15 H :    0.185399
  16 H :    0.298636
  17 H :    0.294583
  18 H :    0.295066
  19 H :    0.294520

  Mayer bond orders larger than 0.100000
B(  0-C ,  1-C ) :   0.8541 B(  0-C ,  9-O ) :   0.9139 B(  0-C , 14-H ) :   0.9330
B(  0-C , 15-H ) :   0.9855 B(  1-C ,  2-H ) :   0.9663 B(  1-C ,  3-C ) :   0.9063
B(  1-C , 13-O ) :   0.9085 B(  3-C ,  4-H ) :   0.9469 B(  3-C ,  5-C ) :   0.9219
B(  3-C , 12-O ) :   0.9191 B(  5-C ,  6-H ) :   0.9642 B(  5-C ,  7-C ) :   0.9178
B(  5-C , 11-O ) :   0.9770 B(  7-C ,  8-H ) :   0.9523 B(  7-C ,  9-O ) :   0.9569
B(  7-C , 10-O ) :   0.9973 B( 10-O , 16-H ) :   0.8655 B( 11-O , 17-H ) :   0.8508
B( 12-O , 18-H ) :   0.8587 B( 13-O , 19-H ) :   0.8699

Dispersion correction           -0.006270179
FINAL SINGLE POINT ENERGY      -572.591553918608

DIPOLE MOMENT
-------------

Method             : SCF
Type of density    : Electron Density
Multiplicity       :   1
Irrep              :   0
Energy             :  -572.6015892752101308 Eh
Relativity type    :
Basis              : AO
                                X                 Y                 Z
Electronic contribution:     -1.042852733      -0.580530089      -0.087653552
Nuclear contribution   :      1.504974273       2.471684152       0.469425999
                        -----------------------------------------
Total Dipole Moment    :      0.462121539       1.891154064       0.381772448
                        -----------------------------------------
Magnitude (a.u.)       :      1.983877570
Magnitude (Debye)      :      5.042616039

Rotational constants in cm-1:             0.057405             0.044445             0.028969
Rotational constants in MHz :          1720.958425          1332.438461           868.470200

                             ****ORCA TERMINATED NORMALLY****
TOTAL RUN TIME: 0 days 0 hours 0 minutes 49 seconds 135 msec
