                         Program Version 6.0.0  -   RELEASE  -
|  1> ! pbe def2-sv(p) def2/J RI DEFGRID1 loosescf d4 GCP(DFT/SV(P)) printgap
|  2> %output
|  3>     printlevel normal
|  4> end
|  5> * xyz 0 1
|  6> C 2.0126585258 2.0939704532 -0.8864864433
|  7> C 2.2386058113 0.7782117921 -1.6022665354
|  8> O 2.8479740735 -0.2209620587 -0.7688407471
|  9> P 2.3294480308 -0.7298591682 0.6449916515
| 10> S 2.5492585656 0.4638918751 2.1894709726
| 11> O 3.1271270255 -2.0922853245 0.7693297013
| 12> C 4.391929451 -2.1818610453 1.4544784938
| 13> C 5.4976690167 -1.5099595256 0.6680103925
| 14> S 0.389720049 -1.5114964775 0.2862037492
| 15> C -0.5086760835 -0.6949526368 1.6353737971
| 16> S -1.1525277682 0.948471765 1.2040100236
| 17> P -2.2862322834 0.4548034663 -0.5208559919
| 18> S -1.3975124456 0.3836658675 -2.2715808733
| 19> O -3.5014340553 1.4791181589 -0.4747566824
| 20> C -3.4341165691 2.7730773457 -1.0950842643
| 21> C -2.4715427617 3.691011454 -0.3696004932
| 22> O -2.9543124025 -0.8868676284 -0.0133776851
| 23> C -3.4684794718 -1.8729961739 -0.9330759794
| 24> C -4.7155071203 -1.382357287 -1.6375750667
| 25> H 2.9402868137 2.4575881301 -0.4510911675
| 26> H 1.637007603 2.8224243771 -1.5983519143
| 27> H 1.2807091987 1.9739704915 -0.0879991352
| 28> H 2.9466430282 0.8911339152 -2.4251513624
| 29> H 1.2946326606 0.3825655532 -1.9900882491
| 30> H 4.2859806939 -1.722131279 2.4425544159
| 31> H 4.5590650652 -3.2545258995 1.5586702161
| 32> H 6.4462630016 -1.6629693687 1.1729272755
| 33> H 5.5482634941 -1.9225930953 -0.3360222952
| 34> H 5.2993759708 -0.4411381833 0.5975026497
| 35> H 0.1663150333 -0.5287511818 2.4761816483
| 36> H -1.3355549215 -1.3444061935 1.9072168445
| 37> H -3.1290698963 2.6420220196 -2.1387889591
| 38> H -4.4591517069 3.1429774069 -1.0499133087
| 39> H -2.7356136694 3.7622055124 0.6823255213
| 40> H -1.4578415431 3.297060866 -0.4458079009
| 41> H -2.5017947974 4.6784343084 -0.8186710565
| 42> H -2.6824246432 -2.1166522468 -1.6551221078
| 43> H -3.6718858714 -2.7392607791 -0.302359235
| 44> H -5.1276651695 -2.1849084035 -2.2411123677
| 45> H -5.454579934 -1.0576067501 -0.9099916822
| 46> H -4.4674141184 -0.5431152676 -2.2860868793
| 47> *
| 48>
| 49>                          ****END OF INPUT****

CARTESIAN COORDINATES (ANGSTROEM)
---------------------------------
  C      2.012659    2.093970   -0.886486
  C      2.238606    0.778212   -1.602267
  O      2.847974   -0.220962   -0.768841
  P      2.329448   -0.729859    0.644992
  S      2.549259    0.463892    2.189471
  O      3.127127   -2.092285    0.769330
  C      4.391929   -2.181861    1.454478
  C      5.497669   -1.509960    0.668010
  S      0.389720   -1.511496    0.286204
  C     -0.508676   -0.694953    1.635374
  S     -1.152528    0.948472    1.204010
  P     -2.286232    0.454803   -0.520856
  S     -1.397512    0.383666   -2.271581
  O     -3.501434    1.479118   -0.474757
  C     -3.434117    2.773077   -1.095084
  C     -2.471543    3.691011   -0.369600
  O     -2.954312   -0.886868   -0.013378
  C     -3.468479   -1.872996   -0.933076
  C     -4.715507   -1.382357   -1.637575
  H      2.940287    2.457588   -0.451091
  H      1.637008    2.822424   -1.598352
  H      1.280709    1.973970   -0.087999
  H      2.946643    0.891134   -2.425151
  H      1.294633    0.382566   -1.990088
  H      4.285981   -1.722131    2.442554
  H      4.559065   -3.254526    1.558670
  H      6.446263   -1.662969    1.172927
  H      5.548263   -1.922593   -0.336022
  H      5.299376   -0.441138    0.597503
  H      0.166315   -0.528751    2.476182
  H     -1.335555   -1.344406    1.907217
  H     -3.129070    2.642022   -2.138789
  H     -4.459152    3.142977   -1.049913
  H     -2.735614    3.762206    0.682326
  H     -1.457842    3.297061   -0.445808
  H     -2.501795    4.678434   -0.818671
  H     -2.682425   -2.116652   -1.655122
  H     -3.671886   -2.739261   -0.302359
  H     -5.127665   -2.184908   -2.241112
  H     -5.454580   -1.057607   -0.909992
  H     -4.467414   -0.543115   -2.286087

 Total Charge           Charge          ....    0
 Multiplicity           Mult            ....    1
 Number of Electrons    NEL             ....  202
 Basis Dimension        Dim             ....  334

ORBITAL ENERGIES
----------------

  NO   OCC          E(Eh)            E(eV)
   0   2.0000     -88.041963     -2395.7436
   1   2.0000     -88.041002     -2395.7175
   2   2.0000     -87.990737     -2394.3497
   3   2.0000     -87.988074     -2394.2772
   4   2.0000     -76.430494     -2079.7795
   5   2.0000     -76.424631     -2079.6199
   6   2.0000     -18.799529      -511.5612
   7   2.0000     -18.795705      -511.4571
   8   2.0000     -18.786978      -511.2197
   9   2.0000     -18.783760      -511.1321
  10   2.0000      -9.956564      -270.9319
  11   2.0000      -9.955557      -270.9045
  12   2.0000      -9.955363      -270.8992
  13   2.0000      -9.947423      -270.6831
  14   2.0000      -9.941719      -270.5279
  15   2.0000      -9.889048      -269.0947
  16   2.0000      -9.887155      -269.0432
  17   2.0000      -9.879639      -268.8386
  18   2.0000      -9.870905      -268.6010
  19   2.0000      -7.686820      -209.1690
  20   2.0000      -7.686106      -209.1496
  21   2.0000      -7.635447      -207.7711
  22   2.0000      -7.632957      -207.7033
  23   2.0000      -6.428115      -174.9179
  24   2.0000      -6.422065      -174.7533
  25   2.0000      -5.714885      -155.5099
  26   2.0000      -5.713969      -155.4850
  27   2.0000      -5.711333      -155.4133
  28   2.0000      -5.710697      -155.3960
  29   2.0000      -5.703615      -155.2032
  30   2.0000      -5.702967      -155.1856
  31   2.0000      -5.664158      -154.1296
  32   2.0000      -5.661807      -154.0656
  33   2.0000      -5.656144      -153.9115
  34   2.0000      -5.655766      -153.9012
  35   2.0000      -5.653776      -153.8471
  36   2.0000      -5.653001      -153.8260
  37   2.0000      -4.650768      -126.5538
  38   2.0000      -4.649895      -126.5301
  39   2.0000      -4.648473      -126.4914
  40   2.0000      -4.644354      -126.3793
  41   2.0000      -4.643946      -126.3682
  42   2.0000      -4.642725      -126.3350
  43   2.0000      -0.992841       -27.0166
  44   2.0000      -0.981135       -26.6980
  45   2.0000      -0.952864       -25.9287
  46   2.0000      -0.938938       -25.5498
  47   2.0000      -0.762199       -20.7405
  48   2.0000      -0.721534       -19.6339
  49   2.0000      -0.706259       -19.2183
  50   2.0000      -0.691261       -18.8102
  51   2.0000      -0.679324       -18.4854
  52   2.0000      -0.672416       -18.2974
  53   2.0000      -0.654895       -17.8206
  54   2.0000      -0.640566       -17.4307
  55   2.0000      -0.603720       -16.4281
  56   2.0000      -0.593154       -16.1405
  57   2.0000      -0.577196       -15.7063
  58   2.0000      -0.566583       -15.4175
  59   2.0000      -0.560894       -15.2627
  60   2.0000      -0.499360       -13.5883
  61   2.0000      -0.488894       -13.3035
  62   2.0000      -0.478487       -13.0203
  63   2.0000      -0.462354       -12.5813
  64   2.0000      -0.460604       -12.5337
  65   2.0000      -0.445077       -12.1112
  66   2.0000      -0.443220       -12.0606
  67   2.0000      -0.429685       -11.6923
  68   2.0000      -0.423984       -11.5372
  69   2.0000      -0.418802       -11.3962
  70   2.0000      -0.406798       -11.0695
  71   2.0000      -0.398177       -10.8350
  72   2.0000      -0.393756       -10.7146
  73   2.0000      -0.387327       -10.5397
  74   2.0000      -0.385900       -10.5009
  75   2.0000      -0.375895       -10.2286
  76   2.0000      -0.371030       -10.0962
  77   2.0000      -0.360045        -9.7973
  78   2.0000      -0.354518        -9.6469
  79   2.0000      -0.351099        -9.5539
  80   2.0000      -0.346386        -9.4256
  81   2.0000      -0.341397        -9.2899
  82   2.0000      -0.336754        -9.1635
  83   2.0000      -0.335346        -9.1252
  84   2.0000      -0.331427        -9.0186
  85   2.0000      -0.317250        -8.6328
  86   2.0000      -0.307957        -8.3799
  87   2.0000      -0.300073        -8.1654
  88   2.0000      -0.291030        -7.9193
  89   2.0000      -0.289462        -7.8767
  90   2.0000      -0.282214        -7.6794
  91   2.0000      -0.278156        -7.5690
  92   2.0000      -0.270200        -7.3525
  93   2.0000      -0.266414        -7.2495
  94   2.0000      -0.255585        -6.9548
  95   2.0000      -0.240966        -6.5570
  96   2.0000      -0.220879        -6.0104
  97   2.0000      -0.208420        -5.6714
  98   2.0000      -0.204440        -5.5631
  99   2.0000      -0.202138        -5.5005
 100   2.0000      -0.196314        -5.3420
 101   0.0000      -0.049236        -1.3398
 102   0.0000      -0.025867        -0.7039
 103   0.0000      -0.019953        -0.5429
 104   0.0000       0.003370         0.0917
 105   0.0000       0.016289         0.4432

MULLIKEN ATOMIC CHARGES
-----------------------
   0 C :   -0.338314
   1 C :   -0.017234
   2 O :   -0.372808
   3 P :    0.624186
   4 S :   -0.334279
   5 O :   -0.366933
   6 C :   -0.006376
   7 C :   -0.303478
   8 S :   -0.087140
   9 C :   -0.342722
  10 S :   -0.087563
  11 P :    0.613728
  12 S :   -0.322434
  13 O :   -0.366092
  14 C :   -0.004724
  15 C :   -0.333431
  16 O :   -0.374167
  17 C :   -0.008240
  18 C :   -0.305151
  19 H :    0.114913
  20 H :    0.109631
  21 H :    0.148112
  22 H :    0.099444
  23 H :    0.135684
  24 H :    0.110875
  25 H :    0.104202
  26 H :    0.109568
  27 H :    0.116636
  28 H :    0.123859
  29 H :    0.191998
  30 H :    0.190077
  31 H :    0.110172
  32 H :    0.107684
  33 H :    0.125682
  34 H :    0.136756
  35 H :    0.117871
  36 H :    0.117507
  37 H :    0.106265
  38 H :    0.114275
  39 H :    0.118674
  40 H :    0.123289
Sum of atomic charges:   -0.0000000

LOEWDIN ATOMIC CHARGES
----------------------
   0 C :   -0.374475
   1 C :   -0.120549
   2 O :   -0.240468
   3 P :    0.574980
   4 S :   -0.310412
   5 O :   -0.245284
   6 C :   -0.117912
   7 C :   -0.363695
   8 S :    0.087891
   9 C :   -0.478372
  10 S :    0.094288
  11 P :    0.572184
  12 S :   -0.309862
  13 O :   -0.241544
  14 C :   -0.121422
  15 C :   -0.370360
  16 O :   -0.239745
  17 C :   -0.117791
  18 C :   -0.364235
  19 H :    0.124087
  20 H :    0.128605
  21 H :    0.114297
  22 H :    0.117522
  23 H :    0.105826
  24 H :    0.108638
  25 H :    0.118370
  26 H :    0.129073
  27 H :    0.126543
  28 H :    0.123545
  29 H :    0.128998
  30 H :    0.134420
  31 H :    0.108945
  32 H :    0.120083
  33 H :    0.127852
  34 H :    0.121976
  35 H :    0.133695
  36 H :    0.112959
  37 H :    0.119000
  38 H :    0.131730
  39 H :    0.127578
  40 H :    0.123043

  Mayer bond orders larger than 0.100000
B(  0-C ,  1-C ) :   1.1674 B(  0-C , 19-H ) :   0.9424 B(  0-C , 20-H ) :   0.9343
B(  0-C , 21-H ) :   0.9192 B(  1-C ,  2-O ) :   0.9009 B(  1-C , 22-H ) :   0.9337
B(  1-C , 23-H ) :   0.9068 B(  2-O ,  3-P ) :   1.1242 B(  3-P ,  4-S ) :   1.5949
B(  3-P ,  5-O ) :   1.1319 B(  3-P ,  8-S ) :   0.9435 B(  4-S ,  8-S ) :   0.1146
B(  5-O ,  6-C ) :   0.9120 B(  6-C ,  7-C ) :   1.1629 B(  6-C , 24-H ) :   0.9135
B(  6-C , 25-H ) :   0.9346 B(  7-C , 26-H ) :   0.9391 B(  7-C , 27-H ) :   0.9467
B(  7-C , 28-H ) :   0.9372 B(  8-S ,  9-C ) :   1.0171 B(  9-C , 10-S ) :   0.9974
B(  9-C , 29-H ) :   0.8683 B(  9-C , 30-H ) :   0.8993 B( 10-S , 11-P ) :   0.9662
B( 10-S , 12-S ) :   0.1045 B( 11-P , 12-S ) :   1.6006 B( 11-P , 13-O ) :   1.1058
B( 11-P , 16-O ) :   1.1146 B( 13-O , 14-C ) :   0.9102 B( 14-C , 15-C ) :   1.1631
B( 14-C , 31-H ) :   0.9128 B( 14-C , 32-H ) :   0.9322 B( 15-C , 33-H ) :   0.9434
B( 15-C , 34-H ) :   0.9314 B( 15-C , 35-H ) :   0.9382 B( 16-O , 17-C ) :   0.8985
B( 17-C , 18-C ) :   1.1652 B( 17-C , 36-H ) :   0.9158 B( 17-C , 37-H ) :   0.9338
B( 18-C , 38-H ) :   0.9387 B( 18-C , 39-H ) :   0.9457 B( 18-C , 40-H ) :   0.9358

Dispersion correction           -0.065950959
FINAL SINGLE POINT ENERGY     -2929.521985053007

DIPOLE MOMENT
-------------

Method             : SCF
Type of density    : Electron Density
Multiplicity       :   1
Irrep              :   0
Energy             : -2929.6408518480825478 Eh
Relativity type    :
Basis              : AO
                                X                 Y                 Z
Electronic contribution:     -0.027973068      -6.487685958       7.247142701
Nuclear contribution   :     -0.637206459       6.340481115      -7.569685820
                        -----------------------------------------
Total Dipole Moment    :     -0.665179527      -0.147204843      -0.322543119
                        -----------------------------------------
Magnitude (a.u.)       :      0.753768620
Magnitude (Debye)      :      1.915927571

Rotational constants in cm-1:             0.014240             0.004599             0.004285
Rotational constants in MHz :           426.891860           137.887078           128.471854

                             ****ORCA TERMINATED NORMALLY****
TOTAL RUN TIME: 0 days 0 hours 0 minutes 21 seconds 87 msec
