                         Program Version 6.0.0  -   RELEASE  -
|  1> ! pbe def2-sv(p) def2/J RI DEFGRID1 loosescf d4 GCP(DFT/SV(P)) printgap
|  2> %output
|  3>     printlevel normal
|  4> end
|  5> * xyz 0 1
|  6> C 3.6442176726 -0.7699862583 -2.7862597609
|  7> C 2.2076950793 -1.087656748 -2.4284943248
|  8> O 2.0815804958 -1.4868071359 -1.0468042677
|  9> P 2.1772633786 -0.4518472943 0.1398667391
| 10> S 1.4263095797 1.3325232827 -0.2107736634
| 11> O 3.7313754283 -0.4570514041 0.4685325923
| 12> C 4.2877500347 0.3865399759 1.496578341
| 13> C 5.7969431037 0.3325699056 1.3723654422
| 14> S 1.368600936 -1.58454897 1.7264443785
| 15> C -0.3303645892 -0.9726728188 1.6857678752
| 16> S -1.1190192879 -1.2551667494 0.0640170027
| 17> P -2.4529065335 0.3818699429 0.1106009221
| 18> S -1.9564469093 1.9286634986 1.2186828711
| 19> O -3.7714146874 -0.3602567003 0.5705233794
| 20> C -4.8902216131 0.3415373018 1.1502989764
| 21> C -5.6129872604 1.18273175 0.1198824812
| 22> O -2.7708418641 0.6908509215 -1.4130022513
| 23> C -1.7963134505 1.2303625547 -2.3277223685
| 24> C -1.381593328 0.1594309745 -3.3181228842
| 25> H 4.2889464717 -1.6046393796 -2.5252832011
| 26> H 3.7149771685 -0.5752493147 -3.8518194285
| 27> H 3.9737999496 0.1126402191 -2.2403376736
| 28> H 1.8284929118 -1.9458259794 -2.9845891845
| 29> H 1.5665149564 -0.216640914 -2.597696877
| 30> H 3.9062949051 1.4039222026 1.3572053107
| 31> H 3.9537240327 0.0113665785 2.4681928513
| 32> H 6.1372263919 -0.6942062619 1.4694037537
| 33> H 6.1087017727 0.7174511718 0.4056665485
| 34> H 6.2404985826 0.9353325148 2.1579692797
| 35> H -0.3427378363 0.1028862175 1.8866717635
| 36> H -0.8670246481 -1.5235094624 2.4544570544
| 37> H -5.5229769855 -0.4549582073 1.5435059948
| 38> H -4.5202835755 0.9668716189 1.969285416
| 39> H -5.9034766537 0.5694163362 -0.7287578611
| 40> H -6.4965943513 1.6251844373 0.5690015446
| 41> H -4.9558562898 1.9778738145 -0.2302123666
| 42> H -2.2946506694 2.0624458732 -2.8289266783
| 43> H -0.9383535385 1.615295912 -1.7665529808
| 44> H -0.67693549 0.5814289735 -4.0275407106
| 45> H -0.9154064082 -0.6741687669 -2.7965533181
| 46> H -2.2545122485 -0.2074730802 -3.8499912763
| 47> *
| 48>
| 49>                          ****END OF INPUT****

CARTESIAN COORDINATES (ANGSTROEM)
---------------------------------
  C      3.644218   -0.769986   -2.786260
  C      2.207695   -1.087657   -2.428494
  O      2.081580   -1.486807   -1.046804
  P      2.177263   -0.451847    0.139867
  S      1.426310    1.332523   -0.210774
  O      3.731375   -0.457051    0.468533
  C      4.287750    0.386540    1.496578
  C      5.796943    0.332570    1.372365
  S      1.368601   -1.584549    1.726444
  C     -0.330365   -0.972673    1.685768
  S     -1.119019   -1.255167    0.064017
  P     -2.452907    0.381870    0.110601
  S     -1.956447    1.928663    1.218683
  O     -3.771415   -0.360257    0.570523
  C     -4.890222    0.341537    1.150299
  C     -5.612987    1.182732    0.119882
  O     -2.770842    0.690851   -1.413002
  C     -1.796313    1.230363   -2.327722
  C     -1.381593    0.159431   -3.318123
  H      4.288946   -1.604639   -2.525283
  H      3.714977   -0.575249   -3.851819
  H      3.973800    0.112640   -2.240338
  H      1.828493   -1.945826   -2.984589
  H      1.566515   -0.216641   -2.597697
  H      3.906295    1.403922    1.357205
  H      3.953724    0.011367    2.468193
  H      6.137226   -0.694206    1.469404
  H      6.108702    0.717451    0.405667
  H      6.240499    0.935333    2.157969
  H     -0.342738    0.102886    1.886672
  H     -0.867025   -1.523509    2.454457
  H     -5.522977   -0.454958    1.543506
  H     -4.520284    0.966872    1.969285
  H     -5.903477    0.569416   -0.728758
  H     -6.496594    1.625184    0.569002
  H     -4.955856    1.977874   -0.230212
  H     -2.294651    2.062446   -2.828927
  H     -0.938354    1.615296   -1.766553
  H     -0.676935    0.581429   -4.027541
  H     -0.915406   -0.674169   -2.796553
  H     -2.254512   -0.207473   -3.849991

 Total Charge           Charge          ....    0
 Multiplicity           Mult            ....    1
 Number of Electrons    NEL             ....  202
 Basis Dimension        Dim             ....  334

ORBITAL ENERGIES
----------------

  NO   OCC          E(Eh)            E(eV)
   0   2.0000     -88.045275     -2395.8337
   1   2.0000     -88.039271     -2395.6703
   2   2.0000     -87.984882     -2394.1904
   3   2.0000     -87.982016     -2394.1124
   4   2.0000     -76.426008     -2079.6574
   5   2.0000     -76.421953     -2079.5471
   6   2.0000     -18.794366      -511.4207
   7   2.0000     -18.791231      -511.3354
   8   2.0000     -18.790676      -511.3203
   9   2.0000     -18.785052      -511.1672
  10   2.0000      -9.953509      -270.8488
  11   2.0000      -9.953011      -270.8352
  12   2.0000      -9.951761      -270.8012
  13   2.0000      -9.948586      -270.7148
  14   2.0000      -9.947303      -270.6799
  15   2.0000      -9.889489      -269.1067
  16   2.0000      -9.885537      -268.9991
  17   2.0000      -9.884822      -268.9797
  18   2.0000      -9.880194      -268.8537
  19   2.0000      -7.690782      -209.2768
  20   2.0000      -7.684143      -209.0962
  21   2.0000      -7.629507      -207.6094
  22   2.0000      -7.627003      -207.5413
  23   2.0000      -6.423687      -174.7974
  24   2.0000      -6.419723      -174.6896
  25   2.0000      -5.718727      -155.6145
  26   2.0000      -5.715214      -155.5189
  27   2.0000      -5.711985      -155.4310
  28   2.0000      -5.708883      -155.3466
  29   2.0000      -5.707716      -155.3148
  30   2.0000      -5.700946      -155.1306
  31   2.0000      -5.658270      -153.9693
  32   2.0000      -5.655767      -153.9012
  33   2.0000      -5.650265      -153.7515
  34   2.0000      -5.649725      -153.7368
  35   2.0000      -5.647727      -153.6825
  36   2.0000      -5.647212      -153.6684
  37   2.0000      -4.646074      -126.4261
  38   2.0000      -4.645531      -126.4113
  39   2.0000      -4.644185      -126.3747
  40   2.0000      -4.642182      -126.3202
  41   2.0000      -4.641411      -126.2992
  42   2.0000      -4.640316      -126.2694
  43   2.0000      -0.988425       -26.8964
  44   2.0000      -0.983459       -26.7613
  45   2.0000      -0.947494       -25.7826
  46   2.0000      -0.942285       -25.6409
  47   2.0000      -0.762473       -20.7479
  48   2.0000      -0.721697       -19.6384
  49   2.0000      -0.708657       -19.2835
  50   2.0000      -0.690656       -18.7937
  51   2.0000      -0.685808       -18.6618
  52   2.0000      -0.672146       -18.2900
  53   2.0000      -0.648106       -17.6359
  54   2.0000      -0.632411       -17.2088
  55   2.0000      -0.600927       -16.3521
  56   2.0000      -0.594253       -16.1704
  57   2.0000      -0.567689       -15.4476
  58   2.0000      -0.565675       -15.3928
  59   2.0000      -0.559902       -15.2357
  60   2.0000      -0.505189       -13.7469
  61   2.0000      -0.495616       -13.4864
  62   2.0000      -0.479134       -13.0379
  63   2.0000      -0.473078       -12.8731
  64   2.0000      -0.451377       -12.2826
  65   2.0000      -0.450719       -12.2647
  66   2.0000      -0.436422       -11.8757
  67   2.0000      -0.432509       -11.7692
  68   2.0000      -0.429162       -11.6781
  69   2.0000      -0.409984       -11.1562
  70   2.0000      -0.404131       -10.9970
  71   2.0000      -0.398715       -10.8496
  72   2.0000      -0.393317       -10.7027
  73   2.0000      -0.385394       -10.4871
  74   2.0000      -0.382020       -10.3953
  75   2.0000      -0.374882       -10.2011
  76   2.0000      -0.370369       -10.0783
  77   2.0000      -0.357697        -9.7334
  78   2.0000      -0.357508        -9.7283
  79   2.0000      -0.350128        -9.5275
  80   2.0000      -0.347394        -9.4531
  81   2.0000      -0.345724        -9.4076
  82   2.0000      -0.340590        -9.2679
  83   2.0000      -0.337458        -9.1827
  84   2.0000      -0.332205        -9.0398
  85   2.0000      -0.314810        -8.5664
  86   2.0000      -0.307604        -8.3703
  87   2.0000      -0.302731        -8.2377
  88   2.0000      -0.292778        -7.9669
  89   2.0000      -0.285970        -7.7817
  90   2.0000      -0.283077        -7.7029
  91   2.0000      -0.276895        -7.5347
  92   2.0000      -0.270224        -7.3532
  93   2.0000      -0.263160        -7.1609
  94   2.0000      -0.259763        -7.0685
  95   2.0000      -0.235709        -6.4140
  96   2.0000      -0.224121        -6.0987
  97   2.0000      -0.210746        -5.7347
  98   2.0000      -0.197266        -5.3679
  99   2.0000      -0.197062        -5.3623
 100   2.0000      -0.190048        -5.1715
 101   0.0000      -0.043816        -1.1923
 102   0.0000      -0.030227        -0.8225
 103   0.0000      -0.006993        -0.1903
 104   0.0000       0.013097         0.3564
 105   0.0000       0.021375         0.5816

MULLIKEN ATOMIC CHARGES
-----------------------
   0 C :   -0.294180
   1 C :   -0.028603
   2 O :   -0.359823
   3 P :    0.613922
   4 S :   -0.322377
   5 O :   -0.376193
   6 C :   -0.013460
   7 C :   -0.280479
   8 S :   -0.093636
   9 C :   -0.351663
  10 S :   -0.098536
  11 P :    0.614829
  12 S :   -0.319645
  13 O :   -0.365771
  14 C :   -0.005557
  15 C :   -0.304019
  16 O :   -0.374032
  17 C :   -0.027495
  18 C :   -0.305450
  19 H :    0.117565
  20 H :    0.110118
  21 H :    0.122039
  22 H :    0.108599
  23 H :    0.119058
  24 H :    0.108314
  25 H :    0.103186
  26 H :    0.117427
  27 H :    0.119077
  28 H :    0.113282
  29 H :    0.209208
  30 H :    0.181493
  31 H :    0.103405
  32 H :    0.109339
  33 H :    0.115665
  34 H :    0.110004
  35 H :    0.123493
  36 H :    0.105701
  37 H :    0.133347
  38 H :    0.111597
  39 H :    0.135543
  40 H :    0.114708
Sum of atomic charges:    0.0000000

LOEWDIN ATOMIC CHARGES
----------------------
   0 C :   -0.361782
   1 C :   -0.118243
   2 O :   -0.236577
   3 P :    0.563377
   4 S :   -0.309628
   5 O :   -0.248087
   6 C :   -0.120963
   7 C :   -0.349941
   8 S :    0.086937
   9 C :   -0.478719
  10 S :    0.078217
  11 P :    0.569889
  12 S :   -0.306658
  13 O :   -0.244752
  14 C :   -0.118524
  15 C :   -0.363720
  16 O :   -0.243485
  17 C :   -0.118894
  18 C :   -0.360410
  19 H :    0.127273
  20 H :    0.129628
  21 H :    0.123446
  22 H :    0.119532
  23 H :    0.109204
  24 H :    0.110049
  25 H :    0.108990
  26 H :    0.127458
  27 H :    0.127596
  28 H :    0.131507
  29 H :    0.122973
  30 H :    0.135096
  31 H :    0.117831
  32 H :    0.108851
  33 H :    0.125989
  34 H :    0.129311
  35 H :    0.123908
  36 H :    0.118833
  37 H :    0.109177
  38 H :    0.128334
  39 H :    0.121147
  40 H :    0.125833

  Mayer bond orders larger than 0.100000
B(  0-C ,  1-C ) :   1.1621 B(  0-C , 19-H ) :   0.9460 B(  0-C , 20-H ) :   0.9393
B(  0-C , 21-H ) :   0.9377 B(  1-C ,  2-O ) :   0.9037 B(  1-C , 22-H ) :   0.9342
B(  1-C , 23-H ) :   0.9040 B(  2-O ,  3-P ) :   1.1373 B(  3-P ,  4-S ) :   1.6147
B(  3-P ,  5-O ) :   1.1021 B(  3-P ,  8-S ) :   0.9572 B(  4-S ,  8-S ) :   0.1154
B(  5-O ,  6-C ) :   0.9024 B(  6-C ,  7-C ) :   1.1599 B(  6-C , 24-H ) :   0.9128
B(  6-C , 25-H ) :   0.9262 B(  7-C , 26-H ) :   0.9502 B(  7-C , 27-H ) :   0.9518
B(  7-C , 28-H ) :   0.9419 B(  8-S ,  9-C ) :   1.0061 B(  9-C , 10-S ) :   0.9879
B(  9-C , 29-H ) :   0.8505 B(  9-C , 30-H ) :   0.9093 B( 10-S , 11-P ) :   0.9516
B( 10-S , 12-S ) :   0.1208 B( 11-P , 12-S ) :   1.6153 B( 11-P , 13-O ) :   1.1304
B( 11-P , 16-O ) :   1.1155 B( 13-O , 14-C ) :   0.9102 B( 14-C , 15-C ) :   1.1639
B( 14-C , 31-H ) :   0.9346 B( 14-C , 32-H ) :   0.9133 B( 15-C , 33-H ) :   0.9468
B( 15-C , 34-H ) :   0.9391 B( 15-C , 35-H ) :   0.9370 B( 16-O , 17-C ) :   0.8951
B( 17-C , 18-C ) :   1.1693 B( 17-C , 36-H ) :   0.9332 B( 17-C , 37-H ) :   0.8994
B( 18-C , 38-H ) :   0.9370 B( 18-C , 39-H ) :   0.9328 B( 18-C , 40-H ) :   0.9445

Dispersion correction           -0.064327811
FINAL SINGLE POINT ENERGY     -2929.522158059756

DIPOLE MOMENT
-------------

Method             : SCF
Type of density    : Electron Density
Multiplicity       :   1
Irrep              :   0
Energy             : -2929.6413412084775700 Eh
Relativity type    :
Basis              : AO
                                X                 Y                 Z
Electronic contribution:     -5.565467662      -4.860149534      13.033410099
Nuclear contribution   :      5.901130451       4.516001061     -13.598065404
                        -----------------------------------------
Total Dipole Moment    :      0.335662789      -0.344148474      -0.564655306
                        -----------------------------------------
Magnitude (a.u.)       :      0.741581617
Magnitude (Debye)      :      1.884950670

Rotational constants in cm-1:             0.014067             0.004593             0.004162
Rotational constants in MHz :           421.708827           137.691566           124.760151

                             ****ORCA TERMINATED NORMALLY****
TOTAL RUN TIME: 0 days 0 hours 0 minutes 19 seconds 929 msec
