                         Program Version 6.0.0  -   RELEASE  -
|  1> ! pbe def2-sv(p) def2/J RI DEFGRID1 loosescf d4 GCP(DFT/SV(P)) printgap
|  2> %output
|  3>     printlevel normal
|  4> end
|  5> * xyz 0 1
|  6> C 1.578858073 -0.6906300473 -3.0227498358
|  7> C 2.3581786638 -1.7023329493 -2.2085198752
|  8> O 3.1319903948 -1.0944746758 -1.1576060968
|  9> P 2.5585557017 -0.1620074705 -0.0064329042
| 10> S 2.1647203316 1.7139448762 -0.4093366061
| 11> O 3.727300892 -0.2103369125 1.0495940678
| 12> C 4.3525678269 -1.423024856 1.5447767176
| 13> C 3.8079804616 -1.7897770891 2.9115881011
| 14> S 0.9423904995 -1.3168119487 0.7613608733
| 15> C 0.1355355556 -0.020874036 1.7544643348
| 16> S -1.6540413575 -0.2365347553 1.7763275641
| 17> P -2.0483962337 0.7537191655 -0.0743488623
| 18> S -1.404937206 2.5989290255 -0.1768254546
| 19> O -3.613465201 0.5546846544 -0.2306888622
| 20> C -4.5372701995 1.271358481 0.6145688475
| 21> C -5.9096519983 1.1865381876 -0.0219371819
| 22> O -1.4501900054 -0.1683447211 -1.1998255671
| 23> C -1.8960464156 -1.5360555097 -1.4155720589
| 24> C -2.9090134191 -1.5905073729 -2.5388945762
| 25> H 1.0837137195 -1.1934081088 -3.8475542192
| 26> H 0.8292684775 -0.1952283152 -2.4058169017
| 27> H 2.246669978 0.0722888426 -3.4164746675
| 28> H 3.1097183249 -2.2071265697 -2.8184976206
| 29> H 1.6905444182 -2.440617333 -1.7552586998
| 30> H 4.1984337764 -2.2262025081 0.8225369078
| 31> H 5.4135461009 -1.1737547787 1.5963230857
| 32> H 2.7676452828 -2.097925111 2.8438589206
| 33> H 4.392184392 -2.6114600426 3.3137240458
| 34> H 3.8841286387 -0.9377572579 3.5819848704
| 35> H 0.3815411129 0.9543845115 1.3206841469
| 36> H 0.4756753397 -0.0935303319 2.7842496896
| 37> H -4.5234051088 0.8046070867 1.603119407
| 38> H -4.1954656338 2.3077877465 0.7027173957
| 39> H -5.8953995081 1.6507636505 -1.0040921181
| 40> H -6.2080866023 0.1473905903 -0.1249215863
| 41> H -6.6255182813 1.7047315382 0.6073964088
| 42> H -0.9868652766 -2.0844993891 -1.6677023428
| 43> H -2.3118066719 -1.9241786972 -0.4821819977
| 44> H -2.4881947077 -1.1575097264 -3.4422174826
| 45> H -3.1742217959 -2.626324404 -2.7256550644
| 46> H -3.8014136786 -1.033252838 -2.2674594198
| 47> *
| 48>
| 49>                          ****END OF INPUT****

CARTESIAN COORDINATES (ANGSTROEM)
---------------------------------
  C      1.578858   -0.690630   -3.022750
  C      2.358179   -1.702333   -2.208520
  O      3.131990   -1.094475   -1.157606
  P      2.558556   -0.162007   -0.006433
  S      2.164720    1.713945   -0.409337
  O      3.727301   -0.210337    1.049594
  C      4.352568   -1.423025    1.544777
  C      3.807980   -1.789777    2.911588
  S      0.942390   -1.316812    0.761361
  C      0.135536   -0.020874    1.754464
  S     -1.654041   -0.236535    1.776328
  P     -2.048396    0.753719   -0.074349
  S     -1.404937    2.598929   -0.176825
  O     -3.613465    0.554685   -0.230689
  C     -4.537270    1.271358    0.614569
  C     -5.909652    1.186538   -0.021937
  O     -1.450190   -0.168345   -1.199826
  C     -1.896046   -1.536056   -1.415572
  C     -2.909013   -1.590507   -2.538895
  H      1.083714   -1.193408   -3.847554
  H      0.829268   -0.195228   -2.405817
  H      2.246670    0.072289   -3.416475
  H      3.109718   -2.207127   -2.818498
  H      1.690544   -2.440617   -1.755259
  H      4.198434   -2.226203    0.822537
  H      5.413546   -1.173755    1.596323
  H      2.767645   -2.097925    2.843859
  H      4.392184   -2.611460    3.313724
  H      3.884129   -0.937757    3.581985
  H      0.381541    0.954385    1.320684
  H      0.475675   -0.093530    2.784250
  H     -4.523405    0.804607    1.603119
  H     -4.195466    2.307788    0.702717
  H     -5.895400    1.650764   -1.004092
  H     -6.208087    0.147391   -0.124922
  H     -6.625518    1.704732    0.607396
  H     -0.986865   -2.084499   -1.667702
  H     -2.311807   -1.924179   -0.482182
  H     -2.488195   -1.157510   -3.442217
  H     -3.174222   -2.626324   -2.725655
  H     -3.801414   -1.033253   -2.267459

 Total Charge           Charge          ....    0
 Multiplicity           Mult            ....    1
 Number of Electrons    NEL             ....  202
 Basis Dimension        Dim             ....  334

ORBITAL ENERGIES
----------------

  NO   OCC          E(Eh)            E(eV)
   0   2.0000     -88.043948     -2395.7976
   1   2.0000     -88.042796     -2395.7663
   2   2.0000     -87.977820     -2393.9982
   3   2.0000     -87.974347     -2393.9037
   4   2.0000     -76.424022     -2079.6034
   5   2.0000     -76.421570     -2079.5366
   6   2.0000     -18.797685      -511.5110
   7   2.0000     -18.795620      -511.4548
   8   2.0000     -18.794449      -511.4230
   9   2.0000     -18.786040      -511.1941
  10   2.0000      -9.959443      -271.0102
  11   2.0000      -9.957758      -270.9644
  12   2.0000      -9.957589      -270.9598
  13   2.0000      -9.954483      -270.8753
  14   2.0000      -9.954258      -270.8691
  15   2.0000      -9.892665      -269.1931
  16   2.0000      -9.888801      -269.0880
  17   2.0000      -9.886821      -269.0341
  18   2.0000      -9.879503      -268.8349
  19   2.0000      -7.689162      -209.2327
  20   2.0000      -7.687436      -209.1858
  21   2.0000      -7.623007      -207.4326
  22   2.0000      -7.619508      -207.3374
  23   2.0000      -6.421880      -174.7482
  24   2.0000      -6.418858      -174.6660
  25   2.0000      -5.716884      -155.5643
  26   2.0000      -5.715185      -155.5181
  27   2.0000      -5.713641      -155.4761
  28   2.0000      -5.711951      -155.4301
  29   2.0000      -5.706331      -155.2772
  30   2.0000      -5.704608      -155.2303
  31   2.0000      -5.652185      -153.8038
  32   2.0000      -5.648699      -153.7089
  33   2.0000      -5.643488      -153.5671
  34   2.0000      -5.643060      -153.5555
  35   2.0000      -5.640074      -153.4742
  36   2.0000      -5.639431      -153.4567
  37   2.0000      -4.644877      -126.3935
  38   2.0000      -4.643728      -126.3623
  39   2.0000      -4.641795      -126.3097
  40   2.0000      -4.641755      -126.3086
  41   2.0000      -4.640863      -126.2843
  42   2.0000      -4.638763      -126.2272
  43   2.0000      -0.992725       -27.0134
  44   2.0000      -0.986298       -26.8385
  45   2.0000      -0.949715       -25.8431
  46   2.0000      -0.942192       -25.6383
  47   2.0000      -0.762387       -20.7456
  48   2.0000      -0.722296       -19.6547
  49   2.0000      -0.713651       -19.4194
  50   2.0000      -0.696305       -18.9474
  51   2.0000      -0.689270       -18.7560
  52   2.0000      -0.677804       -18.4440
  53   2.0000      -0.646270       -17.5859
  54   2.0000      -0.631093       -17.1729
  55   2.0000      -0.589086       -16.0298
  56   2.0000      -0.586663       -15.9639
  57   2.0000      -0.576321       -15.6825
  58   2.0000      -0.573669       -15.6103
  59   2.0000      -0.565835       -15.3971
  60   2.0000      -0.511699       -13.9240
  61   2.0000      -0.502346       -13.6695
  62   2.0000      -0.485301       -13.2057
  63   2.0000      -0.471721       -12.8362
  64   2.0000      -0.452994       -12.3266
  65   2.0000      -0.448926       -12.2159
  66   2.0000      -0.444840       -12.1047
  67   2.0000      -0.439769       -11.9667
  68   2.0000      -0.435335       -11.8461
  69   2.0000      -0.420359       -11.4386
  70   2.0000      -0.409529       -11.1439
  71   2.0000      -0.406412       -11.0590
  72   2.0000      -0.393265       -10.7013
  73   2.0000      -0.386248       -10.5103
  74   2.0000      -0.383899       -10.4464
  75   2.0000      -0.366073        -9.9614
  76   2.0000      -0.359726        -9.7886
  77   2.0000      -0.357533        -9.7290
  78   2.0000      -0.356666        -9.7054
  79   2.0000      -0.352675        -9.5968
  80   2.0000      -0.349453        -9.5091
  81   2.0000      -0.346304        -9.4234
  82   2.0000      -0.344921        -9.3858
  83   2.0000      -0.339200        -9.2301
  84   2.0000      -0.333136        -9.0651
  85   2.0000      -0.319742        -8.7006
  86   2.0000      -0.314375        -8.5546
  87   2.0000      -0.304743        -8.2925
  88   2.0000      -0.299720        -8.1558
  89   2.0000      -0.293235        -7.9793
  90   2.0000      -0.290841        -7.9142
  91   2.0000      -0.277520        -7.5517
  92   2.0000      -0.274344        -7.4653
  93   2.0000      -0.262570        -7.1449
  94   2.0000      -0.258580        -7.0363
  95   2.0000      -0.237093        -6.4516
  96   2.0000      -0.221167        -6.0183
  97   2.0000      -0.208331        -5.6690
  98   2.0000      -0.195284        -5.3139
  99   2.0000      -0.187997        -5.1157
 100   2.0000      -0.180541        -4.9128
 101   0.0000      -0.038658        -1.0519
 102   0.0000      -0.030823        -0.8387
 103   0.0000      -0.016706        -0.4546
 104   0.0000       0.012061         0.3282
 105   0.0000       0.017406         0.4736

MULLIKEN ATOMIC CHARGES
-----------------------
   0 C :   -0.337761
   1 C :   -0.019051
   2 O :   -0.381053
   3 P :    0.587322
   4 S :   -0.272132
   5 O :   -0.355441
   6 C :   -0.004433
   7 C :   -0.300667
   8 S :   -0.141687
   9 C :   -0.345636
  10 S :   -0.109583
  11 P :    0.590702
  12 S :   -0.279463
  13 O :   -0.384461
  14 C :   -0.015418
  15 C :   -0.283289
  16 O :   -0.349927
  17 C :   -0.019720
  18 C :   -0.285028
  19 H :    0.105443
  20 H :    0.164807
  21 H :    0.127495
  22 H :    0.107500
  23 H :    0.113497
  24 H :    0.099473
  25 H :    0.111164
  26 H :    0.121758
  27 H :    0.108732
  28 H :    0.120141
  29 H :    0.207800
  30 H :    0.182388
  31 H :    0.106801
  32 H :    0.109447
  33 H :    0.124699
  34 H :    0.115873
  35 H :    0.115180
  36 H :    0.111493
  37 H :    0.101842
  38 H :    0.119659
  39 H :    0.108438
  40 H :    0.123094
Sum of atomic charges:    0.0000000

LOEWDIN ATOMIC CHARGES
----------------------
   0 C :   -0.374947
   1 C :   -0.114536
   2 O :   -0.244158
   3 P :    0.556455
   4 S :   -0.279688
   5 O :   -0.239790
   6 C :   -0.112301
   7 C :   -0.364199
   8 S :    0.051741
   9 C :   -0.477140
  10 S :    0.059537
  11 P :    0.566443
  12 S :   -0.293499
  13 O :   -0.249033
  14 C :   -0.119860
  15 C :   -0.350602
  16 O :   -0.227727
  17 C :   -0.118560
  18 C :   -0.358480
  19 H :    0.126849
  20 H :    0.129631
  21 H :    0.132462
  22 H :    0.120443
  23 H :    0.103142
  24 H :    0.107768
  25 H :    0.122439
  26 H :    0.117695
  27 H :    0.129329
  28 H :    0.128514
  29 H :    0.125057
  30 H :    0.133936
  31 H :    0.109864
  32 H :    0.111921
  33 H :    0.130591
  34 H :    0.125718
  35 H :    0.132571
  36 H :    0.113116
  37 H :    0.104856
  38 H :    0.128627
  39 H :    0.129200
  40 H :    0.126613

  Mayer bond orders larger than 0.100000
B(  0-C ,  1-C ) :   1.1669 B(  0-C , 19-H ) :   0.9341 B(  0-C , 20-H ) :   0.9141
B(  0-C , 21-H ) :   0.9407 B(  1-C ,  2-O ) :   0.9114 B(  1-C , 22-H ) :   0.9321
B(  1-C , 23-H ) :   0.9242 B(  2-O ,  3-P ) :   1.0849 B(  3-P ,  4-S ) :   1.6815
B(  3-P ,  5-O ) :   1.1282 B(  3-P ,  8-S ) :   0.9236 B(  4-S ,  8-S ) :   0.1139
B(  5-O ,  6-C ) :   0.8976 B(  6-C ,  7-C ) :   1.1647 B(  6-C , 24-H ) :   0.9188
B(  6-C , 25-H ) :   0.9358 B(  7-C , 26-H ) :   0.9344 B(  7-C , 27-H ) :   0.9396
B(  7-C , 28-H ) :   0.9468 B(  8-S ,  9-C ) :   0.9828 B(  9-C , 10-S ) :   1.0188
B(  9-C , 29-H ) :   0.8376 B(  9-C , 30-H ) :   0.9105 B( 10-S , 11-P ) :   0.9357
B( 10-S , 12-S ) :   0.1079 B( 11-P , 12-S ) :   1.6954 B( 11-P , 13-O ) :   1.0725
B( 11-P , 16-O ) :   1.1309 B( 13-O , 14-C ) :   0.9037 B( 14-C , 15-C ) :   1.1607
B( 14-C , 31-H ) :   0.9292 B( 14-C , 32-H ) :   0.9079 B( 15-C , 33-H ) :   0.9506
B( 15-C , 34-H ) :   0.9507 B( 15-C , 35-H ) :   0.9414 B( 16-O , 17-C ) :   0.8811
B( 17-C , 18-C ) :   1.1645 B( 17-C , 36-H ) :   0.9248 B( 17-C , 37-H ) :   0.9112
B( 18-C , 38-H ) :   0.9467 B( 18-C , 39-H ) :   0.9397 B( 18-C , 40-H ) :   0.9407

Dispersion correction           -0.064426865
FINAL SINGLE POINT ENERGY     -2929.512465096697

DIPOLE MOMENT
-------------

Method             : SCF
Type of density    : Electron Density
Multiplicity       :   1
Irrep              :   0
Energy             : -2929.6332966827158089 Eh
Relativity type    :
Basis              : AO
                                X                 Y                 Z
Electronic contribution:      8.821099992      13.645541374       6.495015057
Nuclear contribution   :     -9.565897258     -15.971442345      -6.369063806
                        -----------------------------------------
Total Dipole Moment    :     -0.744797266      -2.325900970       0.125951251
                        -----------------------------------------
Magnitude (a.u.)       :      2.445486047
Magnitude (Debye)      :      6.215931544

Rotational constants in cm-1:             0.013059             0.004723             0.004457
Rotational constants in MHz :           391.498992           141.594812           133.631775

                             ****ORCA TERMINATED NORMALLY****
TOTAL RUN TIME: 0 days 0 hours 0 minutes 21 seconds 107 msec
