                         Program Version 6.0.1  -  RELEASE   -
|  1> ! pbe def2-sv(p) def2/J RI DEFGRID1 loosescf d4 GCP(DFT/SV(P)) printgap
|  2> %output
|  3>     printlevel normal
|  4> end
|  5> * xyz 0 1
|  6> C 4.1019158004 -3.1883601766 0.7440726841
|  7> C 2.9270182663 -2.2544698399 0.9527132392
|  8> O 2.4984162519 -1.7817387513 -0.3390788039
|  9> C 1.6755924394 -0.7704349087 -0.3888553094
| 10> O 1.282551288 -0.1423856515 0.5830992486
| 11> C 1.2884977517 -0.3946578007 -1.8012905796
| 12> C 0.441750716 0.8698145387 -1.7599477925
| 13> H 0.3959279334 1.3267447881 -2.7529231712
| 14> C 1.0782653927 1.8789359832 -0.8093162042
| 15> O 2.2688043459 2.1097409666 -0.8435455874
| 16> O 0.208727093 2.496333469 -0.0477646618
| 17> C 0.6831014597 3.5074419422 0.8659648977
| 18> C -0.2865231471 4.6748766292 0.8608049733
| 19> S -1.3146004972 0.5742556353 -1.3756646555
| 20> P -1.4720017322 -0.7313930736 0.2958073433
| 21> S -0.6702627428 -2.5204631406 0.2248357058
| 22> O -1.219716152 0.0504360916 1.6448378235
| 23> C -1.9807476337 1.223984684 1.9918757628
| 24> O -3.0725027506 -0.8142977448 0.3279872725
| 25> C -3.8077639619 -1.5654382704 -0.6432693483
| 26> H 4.9231201411 -2.6562039581 0.273138253
| 27> H 4.4261554659 -3.5735027906 1.704865634
| 28> H 3.8038236269 -4.0150514479 0.1067264049
| 29> H 3.1889288459 -1.3877116238 1.5681641909
| 30> H 2.0765355536 -2.7670170207 1.4149650724
| 31> H 0.7576775721 -1.2262047247 -2.2676651501
| 32> H 2.2078396336 -0.213979973 -2.3611589351
| 33> H 0.7482953756 3.0374268806 1.850958341
| 34> H 1.685406328 3.8091955248 0.5480557977
| 35> H -1.2754460654 4.3497065091 1.1694561376
| 36> H 0.0712081049 5.4309737702 1.5517857454
| 37> H -0.3517174788 5.1048844862 -0.1346906576
| 38> H -1.4910761491 1.6274241316 2.874456634
| 39> H -3.0085031453 0.9411348113 2.2117614512
| 40> H -1.9543545642 1.9397454791 1.1707693667
| 41> H -3.8568104428 -1.0100771453 -1.5788070232
| 42> H -4.8005801077 -1.6980963555 -0.2208506631
| 43> H -3.3315033378 -2.5335981719 -0.8065816192
| 44> *
| 45>
| 46>                          ****END OF INPUT****

CARTESIAN COORDINATES (ANGSTROEM)
---------------------------------
  C      4.101916   -3.188360    0.744073
  C      2.927018   -2.254470    0.952713
  O      2.498416   -1.781739   -0.339079
  C      1.675592   -0.770435   -0.388855
  O      1.282551   -0.142386    0.583099
  C      1.288498   -0.394658   -1.801291
  C      0.441751    0.869815   -1.759948
  H      0.395928    1.326745   -2.752923
  C      1.078265    1.878936   -0.809316
  O      2.268804    2.109741   -0.843546
  O      0.208727    2.496333   -0.047765
  C      0.683101    3.507442    0.865965
  C     -0.286523    4.674877    0.860805
  S     -1.314600    0.574256   -1.375665
  P     -1.472002   -0.731393    0.295807
  S     -0.670263   -2.520463    0.224836
  O     -1.219716    0.050436    1.644838
  C     -1.980748    1.223985    1.991876
  O     -3.072503   -0.814298    0.327987
  C     -3.807764   -1.565438   -0.643269
  H      4.923120   -2.656204    0.273138
  H      4.426155   -3.573503    1.704866
  H      3.803824   -4.015051    0.106726
  H      3.188929   -1.387712    1.568164
  H      2.076536   -2.767017    1.414965
  H      0.757678   -1.226205   -2.267665
  H      2.207840   -0.213980   -2.361159
  H      0.748295    3.037427    1.850958
  H      1.685406    3.809196    0.548056
  H     -1.275446    4.349707    1.169456
  H      0.071208    5.430974    1.551786
  H     -0.351717    5.104884   -0.134691
  H     -1.491076    1.627424    2.874457
  H     -3.008503    0.941135    2.211761
  H     -1.954355    1.939745    1.170769
  H     -3.856810   -1.010077   -1.578807
  H     -4.800580   -1.698096   -0.220851
  H     -3.331503   -2.533598   -0.806582

 Total Charge           Charge          ....    0
 Multiplicity           Mult            ....    1
 Number of Electrons    NEL             ....  174
 Basis Dimension        Dim             ....  316

ORBITAL ENERGIES
----------------

  NO   OCC          E(Eh)            E(eV)
   0   2.0000     -88.035507     -2395.5679
   1   2.0000     -87.976647     -2393.9663
   2   2.0000     -76.423266     -2079.5828
   3   2.0000     -18.804727      -511.7026
   4   2.0000     -18.799596      -511.5630
   5   2.0000     -18.788615      -511.2642
   6   2.0000     -18.786687      -511.2117
   7   2.0000     -18.738069      -509.8888
   8   2.0000     -18.729978      -509.6686
   9   2.0000     -10.013764      -272.4884
  10   2.0000     -10.010334      -272.3950
  11   2.0000      -9.949158      -270.7303
  12   2.0000      -9.947686      -270.6903
  13   2.0000      -9.943146      -270.5668
  14   2.0000      -9.941069      -270.5102
  15   2.0000      -9.939294      -270.4619
  16   2.0000      -9.908667      -269.6285
  17   2.0000      -9.892692      -269.1938
  18   2.0000      -9.882727      -268.9227
  19   2.0000      -7.680192      -208.9887
  20   2.0000      -7.621906      -207.4026
  21   2.0000      -6.419833      -174.6925
  22   2.0000      -5.708294      -155.3306
  23   2.0000      -5.704491      -155.2271
  24   2.0000      -5.697155      -155.0275
  25   2.0000      -5.651081      -153.7737
  26   2.0000      -5.642180      -153.5315
  27   2.0000      -5.642039      -153.5277
  28   2.0000      -4.642916      -126.3402
  29   2.0000      -4.641779      -126.3092
  30   2.0000      -4.639897      -126.2580
  31   2.0000      -1.013297       -27.5732
  32   2.0000      -1.008172       -27.4338
  33   2.0000      -0.982662       -26.7396
  34   2.0000      -0.937370       -25.5071
  35   2.0000      -0.917936       -24.9783
  36   2.0000      -0.909686       -24.7538
  37   2.0000      -0.761240       -20.7144
  38   2.0000      -0.711956       -19.3733
  39   2.0000      -0.703990       -19.1565
  40   2.0000      -0.691812       -18.8252
  41   2.0000      -0.655685       -17.8421
  42   2.0000      -0.633981       -17.2515
  43   2.0000      -0.621770       -16.9192
  44   2.0000      -0.609875       -16.5955
  45   2.0000      -0.589950       -16.0534
  46   2.0000      -0.558135       -15.1876
  47   2.0000      -0.513161       -13.9638
  48   2.0000      -0.508991       -13.8503
  49   2.0000      -0.502468       -13.6729
  50   2.0000      -0.481554       -13.1037
  51   2.0000      -0.472228       -12.8500
  52   2.0000      -0.450249       -12.2519
  53   2.0000      -0.442945       -12.0531
  54   2.0000      -0.442039       -12.0285
  55   2.0000      -0.428406       -11.6575
  56   2.0000      -0.422483       -11.4963
  57   2.0000      -0.413743       -11.2585
  58   2.0000      -0.409937       -11.1550
  59   2.0000      -0.407632       -11.0922
  60   2.0000      -0.404106       -10.9963
  61   2.0000      -0.397424       -10.8145
  62   2.0000      -0.395352       -10.7581
  63   2.0000      -0.382762       -10.4155
  64   2.0000      -0.368208       -10.0195
  65   2.0000      -0.361048        -9.8246
  66   2.0000      -0.355665        -9.6781
  67   2.0000      -0.351082        -9.5534
  68   2.0000      -0.344217        -9.3666
  69   2.0000      -0.341069        -9.2810
  70   2.0000      -0.332658        -9.0521
  71   2.0000      -0.322979        -8.7887
  72   2.0000      -0.316435        -8.6106
  73   2.0000      -0.313832        -8.5398
  74   2.0000      -0.297411        -8.0930
  75   2.0000      -0.296670        -8.0728
  76   2.0000      -0.294314        -8.0087
  77   2.0000      -0.292175        -7.9505
  78   2.0000      -0.264261        -7.1909
  79   2.0000      -0.260756        -7.0955
  80   2.0000      -0.256791        -6.9876
  81   2.0000      -0.249756        -6.7962
  82   2.0000      -0.240497        -6.5442
  83   2.0000      -0.225865        -6.1461
  84   2.0000      -0.211581        -5.7574
  85   2.0000      -0.193783        -5.2731
  86   2.0000      -0.189220        -5.1489
  87   0.0000      -0.037885        -1.0309
  88   0.0000      -0.020052        -0.5456
  89   0.0000      -0.015099        -0.4109
  90   0.0000      -0.004821        -0.1312
  91   0.0000       0.027655         0.7525

MULLIKEN ATOMIC CHARGES
-----------------------
   0 C :   -0.276026
   1 C :   -0.029988
   2 O :   -0.210461
   3 C :    0.127102
   4 O :   -0.223859
   5 C :   -0.074658
   6 C :   -0.283633
   7 H :    0.144995
   8 C :    0.198569
   9 O :   -0.208397
  10 O :   -0.219452
  11 C :   -0.028800
  12 C :   -0.286766
  13 S :   -0.103722
  14 P :    0.627099
  15 S :   -0.331174
  16 O :   -0.352316
  17 C :   -0.124614
  18 O :   -0.397308
  19 C :   -0.102588
  20 H :    0.113783
  21 H :    0.110734
  22 H :    0.116787
  23 H :    0.109070
  24 H :    0.117792
  25 H :    0.137749
  26 H :    0.128096
  27 H :    0.114501
  28 H :    0.118253
  29 H :    0.114165
  30 H :    0.113399
  31 H :    0.115061
  32 H :    0.125373
  33 H :    0.123048
  34 H :    0.140023
  35 H :    0.117052
  36 H :    0.122296
  37 H :    0.118816
Sum of atomic charges:    0.0000000

LOEWDIN ATOMIC CHARGES
----------------------
   0 C :   -0.350857
   1 C :   -0.107432
   2 O :   -0.038449
   3 C :    0.024752
   4 O :   -0.169438
   5 C :   -0.253031
   6 C :   -0.262212
   7 H :    0.152019
   8 C :    0.014407
   9 O :   -0.174820
  10 O :   -0.051064
  11 C :   -0.107833
  12 C :   -0.350591
  13 S :    0.094101
  14 P :    0.579116
  15 S :   -0.307589
  16 O :   -0.228059
  17 C :   -0.213105
  18 O :   -0.262014
  19 C :   -0.217818
  20 H :    0.125603
  21 H :    0.130546
  22 H :    0.127652
  23 H :    0.118199
  24 H :    0.117535
  25 H :    0.146350
  26 H :    0.151865
  27 H :    0.120137
  28 H :    0.122194
  29 H :    0.121963
  30 H :    0.131451
  31 H :    0.127520
  32 H :    0.121777
  33 H :    0.115414
  34 H :    0.111192
  35 H :    0.109230
  36 H :    0.121053
  37 H :    0.110236

  Mayer bond orders larger than 0.100000
B(  0-C ,  1-C ) :   1.1548 B(  0-C , 20-H ) :   0.9514 B(  0-C , 21-H ) :   0.9442
B(  0-C , 22-H ) :   0.9484 B(  1-C ,  2-O ) :   0.8987 B(  1-C , 23-H ) :   0.9259
B(  1-C , 24-H ) :   0.9230 B(  2-O ,  3-C ) :   1.2813 B(  3-C ,  4-O ) :   1.8977
B(  3-C ,  5-C ) :   1.0126 B(  5-C ,  6-C ) :   1.0405 B(  5-C , 25-H ) :   0.8885
B(  5-C , 26-H ) :   0.8721 B(  6-C ,  7-H ) :   0.8664 B(  6-C ,  8-C ) :   0.8668
B(  6-C , 13-S ) :   1.0253 B(  8-C ,  9-O ) :   2.0565 B(  8-C , 10-O ) :   1.2678
B( 10-O , 11-C ) :   0.8977 B( 11-C , 12-C ) :   1.1637 B( 11-C , 27-H ) :   0.9304
B( 11-C , 28-H ) :   0.9097 B( 12-C , 29-H ) :   0.9474 B( 12-C , 30-H ) :   0.9437
B( 12-C , 31-H ) :   0.9497 B( 13-S , 14-P ) :   0.9823 B( 13-S , 15-S ) :   0.1152
B( 14-P , 15-S ) :   1.6028 B( 14-P , 16-O ) :   1.1318 B( 14-P , 18-O ) :   1.0429
B( 16-O , 17-C ) :   0.9199 B( 17-C , 32-H ) :   0.9565 B( 17-C , 33-H ) :   0.9447
B( 17-C , 34-H ) :   0.9227 B( 18-O , 19-C ) :   0.9340 B( 19-C , 35-H ) :   0.9495
B( 19-C , 36-H ) :   0.9585 B( 19-C , 37-H ) :   0.9305

Dispersion correction           -0.054579055
FINAL SINGLE POINT ENERGY     -1979.010464352110

DIPOLE MOMENT
-------------

Method             : SCF
Type of density    : Electron Density
Multiplicity       :   1
Irrep              :   0
Energy             : -1979.1402015287485483 Eh
Relativity type    :
Basis              : AO
                                X                 Y                 Z
Electronic contribution:     -5.887016354      -6.012187774      -5.730476653
Nuclear contribution   :      5.356146999       6.823036972       5.720159247
                        -----------------------------------------
Total Dipole Moment    :     -0.530869354       0.810849198      -0.010317406
                        -----------------------------------------
Magnitude (a.u.)       :      0.969229148
Magnitude (Debye)      :      2.463584711

Rotational constants in cm-1:             0.010887             0.009569             0.006472
Rotational constants in MHz :           326.371651           286.865888           194.018929

                             ****ORCA TERMINATED NORMALLY****
TOTAL RUN TIME: 0 days 0 hours 0 minutes 43 seconds 629 msec
