                         Program Version 6.0.0  -   RELEASE  -
|  1> ! pbe def2-sv(p) def2/J RI DEFGRID1 loosescf d4 GCP(DFT/SV(P)) printgap
|  2> %output
|  3>     printlevel normal
|  4> end
|  5> * xyz 0 1
|  6> C 0.6245880623 1.6916267066 -0.0769874948
|  7> C 1.4146086477 0.384302589 -0.2503700774
|  8> H 1.66785482 0.2265384826 -1.3079586728
|  9> C 0.5479464084 -0.8007088555 0.1922440314
| 10> H 0.3911686391 -0.7414155676 1.2785390305
| 11> C -0.8182430865 -0.7407431717 -0.5066909917
| 12> H -0.6501747501 -0.84100596 -1.5909575432
| 13> C -1.4773913724 0.6305924536 -0.2641846623
| 14> H -2.3793183585 0.7229000401 -0.8891213524
| 15> O -0.6351701914 1.6590173855 -0.7291684315
| 16> O -1.7794705842 0.7552615024 1.0851069285
| 17> O -1.5836179852 -1.8095462772 -0.0174662942
| 18> O 1.2202799219 -1.9878637835 -0.1465903712
| 19> O 2.5711853154 0.3995057509 0.5495913959
| 20> H 1.152689819 2.5330545965 -0.5251904787
| 21> H 0.4919649721 1.8658838336 0.9978130545
| 22> H -2.3130778829 1.5501885248 1.2394152869
| 23> H -2.4547996922 -1.8212093894 -0.4382599235
| 24> H 0.6610945958 -2.7349277707 0.1142344628
| 25> H 3.2413703253 0.9700895935 0.1478870337
| 26> *
| 27>
| 28>                          ****END OF INPUT****

CARTESIAN COORDINATES (ANGSTROEM)
---------------------------------
  C      0.624588    1.691627   -0.076987
  C      1.414609    0.384303   -0.250370
  H      1.667855    0.226538   -1.307959
  C      0.547946   -0.800709    0.192244
  H      0.391169   -0.741416    1.278539
  C     -0.818243   -0.740743   -0.506691
  H     -0.650175   -0.841006   -1.590958
  C     -1.477391    0.630592   -0.264185
  H     -2.379318    0.722900   -0.889121
  O     -0.635170    1.659017   -0.729168
  O     -1.779471    0.755262    1.085107
  O     -1.583618   -1.809546   -0.017466
  O      1.220280   -1.987864   -0.146590
  O      2.571185    0.399506    0.549591
  H      1.152690    2.533055   -0.525190
  H      0.491965    1.865884    0.997813
  H     -2.313078    1.550189    1.239415
  H     -2.454800   -1.821209   -0.438260
  H      0.661095   -2.734928    0.114234
  H      3.241370    0.970090    0.147887

 Total Charge           Charge          ....    0
 Multiplicity           Mult            ....    1
 Number of Electrons    NEL             ....   80
 Basis Dimension        Dim             ....  160

ORBITAL ENERGIES
----------------

  NO   OCC          E(Eh)            E(eV)
   0   2.0000     -18.766241      -510.6554
   1   2.0000     -18.765640      -510.6390
   2   2.0000     -18.757165      -510.4084
   3   2.0000     -18.745935      -510.1028
   4   2.0000     -18.734016      -509.7785
   5   2.0000      -9.986047      -271.7342
   6   2.0000      -9.938850      -270.4499
   7   2.0000      -9.936324      -270.3811
   8   2.0000      -9.930935      -270.2345
   9   2.0000      -9.928275      -270.1621
  10   2.0000      -0.981056       -26.6959
  11   2.0000      -0.937640       -25.5145
  12   2.0000      -0.928071       -25.2541
  13   2.0000      -0.911190       -24.7947
  14   2.0000      -0.904311       -24.6075
  15   2.0000      -0.695490       -18.9253
  16   2.0000      -0.676464       -18.4075
  17   2.0000      -0.583026       -15.8650
  18   2.0000      -0.572434       -15.5767
  19   2.0000      -0.522970       -14.2307
  20   2.0000      -0.488516       -13.2932
  21   2.0000      -0.479378       -13.0445
  22   2.0000      -0.473859       -12.8944
  23   2.0000      -0.458970       -12.4892
  24   2.0000      -0.435264       -11.8441
  25   2.0000      -0.400900       -10.9090
  26   2.0000      -0.390299       -10.6206
  27   2.0000      -0.365041        -9.9333
  28   2.0000      -0.357575        -9.7301
  29   2.0000      -0.346718        -9.4347
  30   2.0000      -0.330597        -8.9960
  31   2.0000      -0.318104        -8.6561
  32   2.0000      -0.294866        -8.0237
  33   2.0000      -0.267168        -7.2700
  34   2.0000      -0.260264        -7.0821
  35   2.0000      -0.255118        -6.9421
  36   2.0000      -0.240232        -6.5370
  37   2.0000      -0.223632        -6.0853
  38   2.0000      -0.212244        -5.7755
  39   2.0000      -0.198508        -5.4017
  40   0.0000       0.010550         0.2871
  41   0.0000       0.027245         0.7414
  42   0.0000       0.030905         0.8410
  43   0.0000       0.052807         1.4370
  44   0.0000       0.077711         2.1146

MULLIKEN ATOMIC CHARGES
-----------------------
   0 C :    0.076754
   1 C :   -0.001615
   2 H :    0.059743
   3 C :    0.055214
   4 H :    0.076414
   5 C :    0.066213
   6 H :    0.061704
   7 C :    0.127416
   8 H :    0.050054
   9 O :   -0.315823
  10 O :   -0.382991
  11 O :   -0.417043
  12 O :   -0.414320
  13 O :   -0.403637
  14 H :    0.081973
  15 H :    0.066375
  16 H :    0.307250
  17 H :    0.303009
  18 H :    0.303242
  19 H :    0.300069
Sum of atomic charges:   -0.0000000

LOEWDIN ATOMIC CHARGES
----------------------
   0 C :   -0.133239
   1 C :   -0.074475
   2 H :    0.103563
   3 C :   -0.061121
   4 H :    0.114026
   5 C :   -0.090676
   6 H :    0.104247
   7 C :   -0.015359
   8 H :    0.089151
   9 O :   -0.162180
  10 O :   -0.298638
  11 O :   -0.315303
  12 O :   -0.318476
  13 O :   -0.311596
  14 H :    0.111310
  15 H :    0.104453
  16 H :    0.291535
  17 H :    0.289099
  18 H :    0.285605
  19 H :    0.288075

  Mayer bond orders larger than 0.100000
B(  0-C ,  1-C ) :   1.0495 B(  0-C ,  9-O ) :   0.9947 B(  0-C , 14-H ) :   0.9288
B(  0-C , 15-H ) :   0.8862 B(  1-C ,  2-H ) :   0.8800 B(  1-C ,  3-C ) :   1.0265
B(  1-C , 13-O ) :   1.0879 B(  3-C ,  4-H ) :   0.8839 B(  3-C ,  5-C ) :   0.9908
B(  3-C , 12-O ) :   1.0952 B(  5-C ,  6-H ) :   0.8807 B(  5-C ,  7-C ) :   0.9645
B(  5-C , 11-O ) :   1.0717 B(  7-C ,  8-H ) :   0.8999 B(  7-C ,  9-O ) :   1.0588
B(  7-C , 10-O ) :   1.1274 B( 10-O , 16-H ) :   0.8411 B( 11-O , 17-H ) :   0.8468
B( 12-O , 18-H ) :   0.8403 B( 13-O , 19-H ) :   0.8508

Dispersion correction           -0.019062021
FINAL SINGLE POINT ENERGY      -571.412746771062

DIPOLE MOMENT
-------------

Method             : SCF
Type of density    : Electron Density
Multiplicity       :   1
Irrep              :   0
Energy             :  -571.5197987748625792 Eh
Relativity type    :
Basis              : AO
                                X                 Y                 Z
Electronic contribution:     -0.669363473      -0.955559589       0.431658383
Nuclear contribution   :     -0.182467479       1.608552818      -0.902417036
                        -----------------------------------------
Total Dipole Moment    :     -0.851830952       0.652993229      -0.470758653
                        -----------------------------------------
Magnitude (a.u.)       :      1.172019555
Magnitude (Debye)      :      2.979036960

Rotational constants in cm-1:             0.056178             0.045069             0.029101
Rotational constants in MHz :          1684.170139          1351.125474           872.435301

                             ****ORCA TERMINATED NORMALLY****
TOTAL RUN TIME: 0 days 0 hours 0 minutes 17 seconds 363 msec
