                         Program Version 6.0.0  -   RELEASE  -
|  1> ! pbe def2-sv(p) def2/J RI DEFGRID1 loosescf d4 GCP(DFT/SV(P)) printgap
|  2> %output
|  3>     printlevel normal
|  4> end
|  5> * xyz 0 1
|  6> C 2.5025731951 0.1305308309 -0.74298326
|  7> N 1.4866098166 -0.1025538418 0.2602246343
|  8> C 0.7352682078 1.0950257765 0.6300750651
|  9> C -0.6039554154 1.1944848413 -0.0960201805
| 10> N -1.4777153737 0.0995801179 0.308178244
| 11> C -0.715123149 -1.1015190775 0.6417689524
| 12> C 0.6002641578 -1.1932287576 -0.127612669
| 13> C -2.5246584083 -0.1234124283 -0.6650409714
| 14> H 3.0507850105 -0.7971725499 -0.9018975252
| 15> H 3.196324635 0.8866362681 -0.381019093
| 16> H 2.0906503853 0.4589060441 -1.7116694725
| 17> H 0.5492008576 1.0652044403 1.707974236
| 18> H 1.3394712058 1.9769097327 0.4144569429
| 19> H -1.0999602347 2.1378522717 0.1512748759
| 20> H -0.4222065684 1.1869708247 -1.1865151365
| 21> H -0.4947726611 -1.0825695928 1.7134322906
| 22> H -1.3260068804 -1.9812882199 0.4366068132
| 23> H 1.1037070239 -2.1390953773 0.0937115317
| 24> H 0.3838643733 -1.1741504304 -1.2116359125
| 25> H -2.1432936726 -0.4416408891 -1.6494955001
| 26> H -3.0775250557 0.8057372189 -0.7971016582
| 27> H -3.2067350002 -0.883391971 -0.2893277624
| 28> *
| 29>
| 30>                          ****END OF INPUT****

CARTESIAN COORDINATES (ANGSTROEM)
---------------------------------
  C      2.502573    0.130531   -0.742983
  N      1.486610   -0.102554    0.260225
  C      0.735268    1.095026    0.630075
  C     -0.603955    1.194485   -0.096020
  N     -1.477715    0.099580    0.308178
  C     -0.715123   -1.101519    0.641769
  C      0.600264   -1.193229   -0.127613
  C     -2.524658   -0.123412   -0.665041
  H      3.050785   -0.797173   -0.901898
  H      3.196325    0.886636   -0.381019
  H      2.090650    0.458906   -1.711669
  H      0.549201    1.065204    1.707974
  H      1.339471    1.976910    0.414457
  H     -1.099960    2.137852    0.151275
  H     -0.422207    1.186971   -1.186515
  H     -0.494773   -1.082570    1.713432
  H     -1.326007   -1.981288    0.436607
  H      1.103707   -2.139095    0.093712
  H      0.383864   -1.174150   -1.211636
  H     -2.143294   -0.441641   -1.649496
  H     -3.077525    0.805737   -0.797102
  H     -3.206735   -0.883392   -0.289328

 Total Charge           Charge          ....    0
 Multiplicity           Mult            ....    1
 Number of Electrons    NEL             ....   64
 Basis Dimension        Dim             ....  140

ORBITAL ENERGIES
----------------

  NO   OCC          E(Eh)            E(eV)
   0   2.0000     -13.976232      -380.3126
   1   2.0000     -13.976194      -380.3116
   2   2.0000      -9.906109      -269.5589
   3   2.0000      -9.906103      -269.5588
   4   2.0000      -9.904893      -269.5258
   5   2.0000      -9.904872      -269.5253
   6   2.0000      -9.898487      -269.3515
   7   2.0000      -9.898469      -269.3510
   8   2.0000      -0.855938       -23.2913
   9   2.0000      -0.812331       -22.1046
  10   2.0000      -0.680602       -18.5201
  11   2.0000      -0.661541       -18.0014
  12   2.0000      -0.600843       -16.3498
  13   2.0000      -0.582529       -15.8514
  14   2.0000      -0.544908       -14.8277
  15   2.0000      -0.469838       -12.7849
  16   2.0000      -0.452527       -12.3139
  17   2.0000      -0.444383       -12.0923
  18   2.0000      -0.427822       -11.6416
  19   2.0000      -0.389701       -10.6043
  20   2.0000      -0.382896       -10.4191
  21   2.0000      -0.368272       -10.0212
  22   2.0000      -0.365608        -9.9487
  23   2.0000      -0.346078        -9.4173
  24   2.0000      -0.341680        -9.2976
  25   2.0000      -0.327429        -8.9098
  26   2.0000      -0.315487        -8.5848
  27   2.0000      -0.306704        -8.3459
  28   2.0000      -0.301518        -8.2047
  29   2.0000      -0.291901        -7.9430
  30   2.0000      -0.160801        -4.3756
  31   2.0000      -0.160787        -4.3752
  32   0.0000       0.027303         0.7430
  33   0.0000       0.057047         1.5523
  34   0.0000       0.064310         1.7500
  35   0.0000       0.075981         2.0675
  36   0.0000       0.082170         2.2360

MULLIKEN ATOMIC CHARGES
-----------------------
   0 C :   -0.170800
   1 N :   -0.310915
   2 C :   -0.051984
   3 C :   -0.055839
   4 N :   -0.311002
   5 C :   -0.051955
   6 C :   -0.056039
   7 C :   -0.170804
   8 H :    0.102553
   9 H :    0.105308
  10 H :    0.071746
  11 H :    0.086470
  12 H :    0.084953
  13 H :    0.085923
  14 H :    0.052691
  15 H :    0.086503
  16 H :    0.084945
  17 H :    0.085875
  18 H :    0.052764
  19 H :    0.071762
  20 H :    0.102554
  21 H :    0.105290
Sum of atomic charges:   -0.0000000

LOEWDIN ATOMIC CHARGES
----------------------
   0 C :   -0.257994
   1 N :   -0.156045
   2 C :   -0.162771
   3 C :   -0.170857
   4 N :   -0.156051
   5 C :   -0.162775
   6 C :   -0.170854
   7 C :   -0.258005
   8 H :    0.113594
   9 H :    0.112541
  10 H :    0.085893
  11 H :    0.113623
  12 H :    0.118790
  13 H :    0.112599
  14 H :    0.090645
  15 H :    0.113620
  16 H :    0.118783
  17 H :    0.112595
  18 H :    0.090627
  19 H :    0.085893
  20 H :    0.113606
  21 H :    0.112544

  Mayer bond orders larger than 0.100000
B(  0-C ,  1-N ) :   1.0467 B(  0-C ,  8-H ) :   0.9545 B(  0-C ,  9-H ) :   0.9568
B(  0-C , 10-H ) :   0.9207 B(  1-N ,  2-C ) :   1.0549 B(  1-N ,  6-C ) :   1.0451
B(  2-C ,  3-C ) :   1.1663 B(  2-C , 11-H ) :   0.9047 B(  2-C , 12-H ) :   0.9166
B(  3-C ,  4-N ) :   1.0450 B(  3-C , 13-H ) :   0.9156 B(  3-C , 14-H ) :   0.8776
B(  4-N ,  5-C ) :   1.0548 B(  4-N ,  7-C ) :   1.0469 B(  5-C ,  6-C ) :   1.1662
B(  5-C , 15-H ) :   0.9047 B(  5-C , 16-H ) :   0.9166 B(  6-C , 17-H ) :   0.9156
B(  6-C , 18-H ) :   0.8777 B(  7-C , 19-H ) :   0.9206 B(  7-C , 20-H ) :   0.9545
B(  7-C , 21-H ) :   0.9568

Dispersion correction           -0.020621936
FINAL SINGLE POINT ENERGY      -345.700452268693

DIPOLE MOMENT
-------------

Method             : SCF
Type of density    : Electron Density
Multiplicity       :   1
Irrep              :   0
Energy             :  -345.7838554312009478 Eh
Relativity type    :
Basis              : AO
                                X                 Y                 Z
Electronic contribution:      0.047736931      -0.015986503       3.047647623
Nuclear contribution   :     -0.052954439       0.017722334      -3.384795774
                        -----------------------------------------
Total Dipole Moment    :     -0.005217508       0.001735831      -0.337148151
                        -----------------------------------------
Magnitude (a.u.)       :      0.337192988
Magnitude (Debye)      :      0.857076463

Rotational constants in cm-1:             0.129868             0.050867             0.044399
Rotational constants in MHz :          3893.348246          1524.947011          1331.044660

                             ****ORCA TERMINATED NORMALLY****
TOTAL RUN TIME: 0 days 0 hours 0 minutes 11 seconds 711 msec
