                         Program Version 6.0.0  -   RELEASE  -
|  1> ! r2scan-3c def2/J RI DEFGRID2 scfconv6 printgap
|  2> %output
|  3>     printlevel normal
|  4> end
|  5> * xyz 0 1
|  6> C -1.2548007656 -0.3047745402 0.0179024332
|  7> C -0.008896319 0.5720833546 0.0178659292
|  8> N 1.1909923376 -0.256496493 0.0178930385
|  9> H -2.1466656611 0.3117265824 0.0852926977
| 10> H -1.3044431352 -0.8927776197 -0.8958572901
| 11> H -1.2263760358 -0.9839187166 0.8647783973
| 12> H 0.013093704 1.1772066029 0.9287492512
| 13> H -0.0531919264 1.263079778 -0.842608134
| 14> H 1.208538706 -0.8270948899 -0.8211930432
| 15> H 2.0169484521 0.3308627266 0.0059702439
| 16> *
| 17>
| 18>                          ****END OF INPUT****

CARTESIAN COORDINATES (ANGSTROEM)
---------------------------------
  C     -1.254801   -0.304775    0.017902
  C     -0.008896    0.572083    0.017866
  N      1.190992   -0.256496    0.017893
  H     -2.146666    0.311727    0.085293
  H     -1.304443   -0.892778   -0.895857
  H     -1.226376   -0.983919    0.864778
  H      0.013094    1.177207    0.928749
  H     -0.053192    1.263080   -0.842608
  H      1.208539   -0.827095   -0.821193
  H      2.016948    0.330863    0.005970

 Total Charge           Charge          ....    0
 Multiplicity           Mult            ....    1
 Number of Electrons    NEL             ....   26
 Basis Dimension        Dim             ....   97

ORBITAL ENERGIES
----------------

  NO   OCC          E(Eh)            E(eV)
   0   2.0000     -14.133478      -384.5915
   1   2.0000     -10.049576      -273.4629
   2   2.0000     -10.014636      -272.5121
   3   2.0000      -0.844422       -22.9779
   4   2.0000      -0.694406       -18.8957
   5   2.0000      -0.567017       -15.4293
   6   2.0000      -0.454684       -12.3726
   7   2.0000      -0.428737       -11.6665
   8   2.0000      -0.391857       -10.6630
   9   2.0000      -0.336166        -9.1476
  10   2.0000      -0.328557        -8.9405
  11   2.0000      -0.313271        -8.5245
  12   2.0000      -0.203980        -5.5506
  13   0.0000       0.079162         2.1541
  14   0.0000       0.123078         3.3491
  15   0.0000       0.131094         3.5673
  16   0.0000       0.150596         4.0979
  17   0.0000       0.168693         4.5904

MULLIKEN ATOMIC CHARGES
-----------------------
   0 C :   -0.448895
   1 C :   -0.153326
   2 N :   -0.553454
   3 H :    0.141282
   4 H :    0.132205
   5 H :    0.157481
   6 H :    0.134199
   7 H :    0.116754
   8 H :    0.236007
   9 H :    0.237746
Sum of atomic charges:    0.0000000

LOEWDIN ATOMIC CHARGES
----------------------
   0 C :   -0.401218
   1 C :   -0.083573
   2 N :   -0.750855
   3 H :    0.151984
   4 H :    0.147544
   5 H :    0.157637
   6 H :    0.166438
   7 H :    0.142726
   8 H :    0.234185
   9 H :    0.235133

  Mayer bond orders larger than 0.100000
B(  0-C ,  1-C ) :   0.9409 B(  0-C ,  3-H ) :   0.9741 B(  0-C ,  4-H ) :   0.9717
B(  0-C ,  5-H ) :   0.9737 B(  1-C ,  2-N ) :   0.9132 B(  1-C ,  6-H ) :   0.9779
B(  1-C ,  7-H ) :   0.9600 B(  2-N ,  8-H ) :   0.9229 B(  2-N ,  9-H ) :   0.9198

Dispersion correction           -0.001482278
FINAL SINGLE POINT ENERGY      -135.125199535156

DIPOLE MOMENT
-------------

Method             : SCF
Type of density    : Electron Density
Multiplicity       :   1
Irrep              :   0
Energy             :  -135.1315936949102081 Eh
Relativity type    :
Basis              : AO
                                X                 Y                 Z
Electronic contribution:      1.416670888      -0.074401446       0.239293799
Nuclear contribution   :     -1.393280787       0.354233198      -0.633042918
                        -----------------------------------------
Total Dipole Moment    :      0.023390101       0.279831752      -0.393749118
                        -----------------------------------------
Magnitude (a.u.)       :      0.483623071
Magnitude (Debye)      :      1.229272155

Rotational constants in cm-1:             1.093427             0.300625             0.263530
Rotational constants in MHz :         32780.102680          9012.496893          7900.419592

                             ****ORCA TERMINATED NORMALLY****
TOTAL RUN TIME: 0 days 0 hours 0 minutes 7 seconds 940 msec
