                         Program Version 6.0.0  -   RELEASE  -
|  1> ! r2scan-3c def2/J RI DEFGRID2 scfconv6 printgap
|  2> %output
|  3>     printlevel normal
|  4> end
|  5> %cpcm
|  6>     smd true
|  7>     smdsolvent "water"
|  8> end
|  9> * xyz 0 1
| 10> C -1.2548007656 -0.3047745402 0.0179024332
| 11> C -0.008896319 0.5720833546 0.0178659292
| 12> N 1.1909923376 -0.256496493 0.0178930385
| 13> H -2.1466656611 0.3117265824 0.0852926977
| 14> H -1.3044431352 -0.8927776197 -0.8958572901
| 15> H -1.2263760358 -0.9839187166 0.8647783973
| 16> H 0.013093704 1.1772066029 0.9287492512
| 17> H -0.0531919264 1.263079778 -0.842608134
| 18> H 1.208538706 -0.8270948899 -0.8211930432
| 19> H 2.0169484521 0.3308627266 0.0059702439
| 20> *
| 21>
| 22>                          ****END OF INPUT****

CARTESIAN COORDINATES (ANGSTROEM)
---------------------------------
  C     -1.254801   -0.304775    0.017902
  C     -0.008896    0.572083    0.017866
  N      1.190992   -0.256496    0.017893
  H     -2.146666    0.311727    0.085293
  H     -1.304443   -0.892778   -0.895857
  H     -1.226376   -0.983919    0.864778
  H      0.013094    1.177207    0.928749
  H     -0.053192    1.263080   -0.842608
  H      1.208539   -0.827095   -0.821193
  H      2.016948    0.330863    0.005970

 Total Charge           Charge          ....    0
 Multiplicity           Mult            ....    1
 Number of Electrons    NEL             ....   26
 Basis Dimension        Dim             ....   97

ORBITAL ENERGIES
----------------

  NO   OCC          E(Eh)            E(eV)
   0   2.0000     -14.127483      -384.4284
   1   2.0000     -10.043327      -273.2928
   2   2.0000     -10.007981      -272.3310
   3   2.0000      -0.838640       -22.8206
   4   2.0000      -0.688370       -18.7315
   5   2.0000      -0.560815       -15.2606
   6   2.0000      -0.447429       -12.1752
   7   2.0000      -0.423433       -11.5222
   8   2.0000      -0.385018       -10.4769
   9   2.0000      -0.330259        -8.9868
  10   2.0000      -0.323046        -8.7905
  11   2.0000      -0.306246        -8.3334
  12   2.0000      -0.204756        -5.5717
  13   0.0000       0.090593         2.4652
  14   0.0000       0.129883         3.5343
  15   0.0000       0.140549         3.8245
  16   0.0000       0.160222         4.3599
  17   0.0000       0.173235         4.7140

MULLIKEN ATOMIC CHARGES
-----------------------
   0 C :   -0.485492
   1 C :   -0.167671
   2 N :   -0.642690
   3 H :    0.156057
   4 H :    0.153135
   5 H :    0.153831
   6 H :    0.146573
   7 H :    0.127152
   8 H :    0.279484
   9 H :    0.279622
Sum of atomic charges:    0.0000000

LOEWDIN ATOMIC CHARGES
----------------------
   0 C :   -0.410546
   1 C :   -0.085431
   2 N :   -0.773375
   3 H :    0.156463
   4 H :    0.153386
   5 H :    0.154348
   6 H :    0.168826
   7 H :    0.148001
   8 H :    0.243774
   9 H :    0.244554

  Mayer bond orders larger than 0.100000
B(  0-C ,  1-C ) :   0.9261 B(  0-C ,  3-H ) :   0.9706 B(  0-C ,  4-H ) :   0.9688
B(  0-C ,  5-H ) :   0.9730 B(  1-C ,  2-N ) :   0.9241 B(  1-C ,  6-H ) :   0.9783
B(  1-C ,  7-H ) :   0.9642 B(  2-N ,  8-H ) :   0.9061 B(  2-N ,  9-H ) :   0.9033

Dispersion correction           -0.001482278
FINAL SINGLE POINT ENERGY      -135.130673332689

DIPOLE MOMENT
-------------

Method             : SCF
Type of density    : Electron Density
Multiplicity       :   1
Irrep              :   0
Energy             :  -135.1370674924432649 Eh
Relativity type    :
Basis              : AO
                                X                 Y                 Z
Electronic contribution:      1.423196906       0.037878861       0.073488068
Nuclear contribution   :     -1.393280787       0.354233198      -0.633042918
                        -----------------------------------------
Total Dipole Moment    :      0.029916119       0.392112059      -0.559554850
                        -----------------------------------------
Magnitude (a.u.)       :      0.683921393
Magnitude (Debye)      :      1.738390028

Rotational constants in cm-1:             1.093427             0.300625             0.263530
Rotational constants in MHz :         32780.102680          9012.496893          7900.419592

                             ****ORCA TERMINATED NORMALLY****
TOTAL RUN TIME: 0 days 0 hours 0 minutes 9 seconds 219 msec
