                         Program Version 6.0.0  -   RELEASE  -
|  1> ! r2scan-3c def2/J RI DEFGRID2 scfconv6 printgap
|  2> %output
|  3>     printlevel normal
|  4> end
|  5> * xyz 0 1
|  6> C 2.7168610474 -0.0531262773 3.3706414278
|  7> C 1.4093324412 -0.3777846735 2.6793256133
|  8> O 1.326462712 0.24661546 1.3836593947
|  9> P 2.1971044517 -0.2338652564 0.1517154273
| 10> S 2.7439216583 -2.1190872817 0.1410728659
| 11> O 3.3892129277 0.8160459651 0.1868129315
| 12> C 4.6103948848 0.623879766 -0.5489616919
| 13> C 4.40022755 0.7360946931 -2.0452119099
| 14> S 0.9713457563 0.4243348049 -1.4380899586
| 15> C -0.0014460574 -1.0994783239 -1.5930816459
| 16> S -0.9722155107 -1.4938606486 -0.1117584563
| 17> P -2.1967100167 0.2269986883 -0.1617831181
| 18> S -2.74549667 0.8850236503 -1.9277624638
| 19> O -1.3241567023 1.2086034872 0.7223759914
| 20> C -1.4089251081 2.6414994243 0.5992575027
| 21> C -2.7158280152 3.1709302275 1.151138463
| 22> O -3.3875662376 -0.1115314664 0.8342241178
| 23> C -4.609774591 -0.730626876 0.3954430316
| 24> C -4.4004639682 -2.1683880545 -0.0342042659
| 25> H 2.7060739467 -0.4650404001 4.3748564433
| 26> H 3.5449841849 -0.4929996049 2.815864209
| 27> H 2.8593922216 1.0232002722 3.4197326387
| 28> H 0.5490011347 0.0220857368 3.2181379838
| 29> H 1.2936929478 -1.4594002847 2.5517231807
| 30> H 5.2679745382 1.4091872881 -0.173819163
| 31> H 5.0171118293 -0.3593463111 -0.2913547702
| 32> H 5.3624176797 0.7066261535 -2.546381348
| 33> H 3.7915512798 -0.0945531713 -2.4001227495
| 34> H 3.8940580404 1.6672645772 -2.2874951845
| 35> H 0.6654934391 -1.9455739417 -1.7548662211
| 36> H -0.66963784 -0.9501304709 -2.4404710349
| 37> H -0.5477735816 3.0040362681 1.1625984196
| 38> H -1.295867379 2.9066636593 -0.4573602077
| 39> H -3.5448471944 2.8084937169 0.5441436148
| 40> H -2.8561642807 2.8334665002 2.1746706506
| 41> H -2.705899029 4.256012915 1.123777586
| 42> H -5.2650384481 -0.6605027139 1.2646768439
| 43> H -5.0188346411 -0.1392659134 -0.4300732138
| 44> H -3.8917934389 -2.7268650072 0.747710052
| 45> H -5.3630806041 -2.626405561 -0.2378207852
| 46> H -3.7944232249 -2.2032610359 -0.9386149929
| 47> *
| 48>
| 49>                          ****END OF INPUT****

CARTESIAN COORDINATES (ANGSTROEM)
---------------------------------
  C      2.716861   -0.053126    3.370641
  C      1.409332   -0.377785    2.679326
  O      1.326463    0.246615    1.383659
  P      2.197104   -0.233865    0.151715
  S      2.743922   -2.119087    0.141073
  O      3.389213    0.816046    0.186813
  C      4.610395    0.623880   -0.548962
  C      4.400228    0.736095   -2.045212
  S      0.971346    0.424335   -1.438090
  C     -0.001446   -1.099478   -1.593082
  S     -0.972216   -1.493861   -0.111758
  P     -2.196710    0.226999   -0.161783
  S     -2.745497    0.885024   -1.927762
  O     -1.324157    1.208603    0.722376
  C     -1.408925    2.641499    0.599258
  C     -2.715828    3.170930    1.151138
  O     -3.387566   -0.111531    0.834224
  C     -4.609775   -0.730627    0.395443
  C     -4.400464   -2.168388   -0.034204
  H      2.706074   -0.465040    4.374856
  H      3.544984   -0.493000    2.815864
  H      2.859392    1.023200    3.419733
  H      0.549001    0.022086    3.218138
  H      1.293693   -1.459400    2.551723
  H      5.267975    1.409187   -0.173819
  H      5.017112   -0.359346   -0.291355
  H      5.362418    0.706626   -2.546381
  H      3.791551   -0.094553   -2.400123
  H      3.894058    1.667265   -2.287495
  H      0.665493   -1.945574   -1.754866
  H     -0.669638   -0.950130   -2.440471
  H     -0.547774    3.004036    1.162598
  H     -1.295867    2.906664   -0.457360
  H     -3.544847    2.808494    0.544144
  H     -2.856164    2.833467    2.174671
  H     -2.705899    4.256013    1.123778
  H     -5.265038   -0.660503    1.264677
  H     -5.018835   -0.139266   -0.430073
  H     -3.891793   -2.726865    0.747710
  H     -5.363081   -2.626406   -0.237821
  H     -3.794423   -2.203261   -0.938615

 Total Charge           Charge          ....    0
 Multiplicity           Mult            ....    1
 Number of Electrons    NEL             ....  202
 Basis Dimension        Dim             ....  539

ORBITAL ENERGIES
----------------

  NO   OCC          E(Eh)            E(eV)
   0   2.0000     -88.572740     -2410.1868
   1   2.0000     -88.572723     -2410.1863
   2   2.0000     -88.520989     -2408.7786
   3   2.0000     -88.520969     -2408.7780
   4   2.0000     -76.911960     -2092.8808
   5   2.0000     -76.911946     -2092.8805
   6   2.0000     -18.992336      -516.8077
   7   2.0000     -18.992314      -516.8071
   8   2.0000     -18.983910      -516.5785
   9   2.0000     -18.983869      -516.5773
  10   2.0000     -10.104366      -274.9538
  11   2.0000     -10.098603      -274.7970
  12   2.0000     -10.098578      -274.7963
  13   2.0000     -10.092991      -274.6442
  14   2.0000     -10.092956      -274.6433
  15   2.0000     -10.028329      -272.8847
  16   2.0000     -10.028320      -272.8845
  17   2.0000     -10.026343      -272.8307
  18   2.0000     -10.026301      -272.8295
  19   2.0000      -7.867116      -214.0751
  20   2.0000      -7.867097      -214.0746
  21   2.0000      -7.815780      -212.6782
  22   2.0000      -7.815764      -212.6778
  23   2.0000      -6.590578      -179.3387
  24   2.0000      -6.590563      -179.3383
  25   2.0000      -5.814011      -158.2073
  26   2.0000      -5.813986      -158.2066
  27   2.0000      -5.811059      -158.1269
  28   2.0000      -5.811037      -158.1263
  29   2.0000      -5.804118      -157.9381
  30   2.0000      -5.804107      -157.9378
  31   2.0000      -5.763344      -156.8286
  32   2.0000      -5.763315      -156.8278
  33   2.0000      -5.756082      -156.6309
  34   2.0000      -5.756074      -156.6307
  35   2.0000      -5.755847      -156.6246
  36   2.0000      -5.755835      -156.6242
  37   2.0000      -4.735902      -128.8704
  38   2.0000      -4.735887      -128.8700
  39   2.0000      -4.735446      -128.8580
  40   2.0000      -4.735432      -128.8577
  41   2.0000      -4.734525      -128.8330
  42   2.0000      -4.734510      -128.8326
  43   2.0000      -1.048281       -28.5252
  44   2.0000      -1.047186       -28.4954
  45   2.0000      -1.009145       -27.4602
  46   2.0000      -1.007608       -27.4184
  47   2.0000      -0.800883       -21.7931
  48   2.0000      -0.756087       -20.5742
  49   2.0000      -0.746103       -20.3025
  50   2.0000      -0.729764       -19.8579
  51   2.0000      -0.728943       -19.8356
  52   2.0000      -0.709703       -19.3120
  53   2.0000      -0.686329       -18.6759
  54   2.0000      -0.668533       -18.1917
  55   2.0000      -0.634687       -17.2707
  56   2.0000      -0.626235       -17.0407
  57   2.0000      -0.603275       -16.4159
  58   2.0000      -0.603064       -16.4102
  59   2.0000      -0.589721       -16.0471
  60   2.0000      -0.519597       -14.1390
  61   2.0000      -0.513943       -13.9851
  62   2.0000      -0.491861       -13.3842
  63   2.0000      -0.489614       -13.3231
  64   2.0000      -0.472158       -12.8481
  65   2.0000      -0.458859       -12.4862
  66   2.0000      -0.457124       -12.4390
  67   2.0000      -0.456311       -12.4169
  68   2.0000      -0.442786       -12.0488
  69   2.0000      -0.432036       -11.7563
  70   2.0000      -0.423943       -11.5361
  71   2.0000      -0.409461       -11.1420
  72   2.0000      -0.405526       -11.0349
  73   2.0000      -0.405043       -11.0218
  74   2.0000      -0.401239       -10.9183
  75   2.0000      -0.389553       -10.6003
  76   2.0000      -0.383808       -10.4440
  77   2.0000      -0.373439       -10.1618
  78   2.0000      -0.369642       -10.0585
  79   2.0000      -0.365649        -9.9498
  80   2.0000      -0.361406        -9.8344
  81   2.0000      -0.361189        -9.8285
  82   2.0000      -0.354551        -9.6478
  83   2.0000      -0.353478        -9.6186
  84   2.0000      -0.345478        -9.4009
  85   2.0000      -0.333661        -9.0794
  86   2.0000      -0.319921        -8.7055
  87   2.0000      -0.309213        -8.4141
  88   2.0000      -0.309164        -8.4128
  89   2.0000      -0.300323        -8.1722
  90   2.0000      -0.294132        -8.0037
  91   2.0000      -0.289333        -7.8732
  92   2.0000      -0.278870        -7.5884
  93   2.0000      -0.277898        -7.5620
  94   2.0000      -0.274751        -7.4763
  95   2.0000      -0.242962        -6.6113
  96   2.0000      -0.228318        -6.2128
  97   2.0000      -0.227960        -6.2031
  98   2.0000      -0.221296        -6.0218
  99   2.0000      -0.214280        -5.8309
 100   2.0000      -0.212482        -5.7819
 101   0.0000      -0.045507        -1.2383
 102   0.0000      -0.023109        -0.6288
 103   0.0000       0.001344         0.0366
 104   0.0000       0.003128         0.0851
 105   0.0000       0.014030         0.3818

MULLIKEN ATOMIC CHARGES
-----------------------
   0 C :   -0.442501
   1 C :   -0.158949
   2 O :   -0.263321
   3 P :    0.699071
   4 S :   -0.488512
   5 O :   -0.304817
   6 C :   -0.153704
   7 C :   -0.449628
   8 S :   -0.121071
   9 C :   -0.245949
  10 S :   -0.120920
  11 P :    0.698367
  12 S :   -0.488425
  13 O :   -0.263239
  14 C :   -0.159567
  15 C :   -0.442203
  16 O :   -0.304777
  17 C :   -0.152803
  18 C :   -0.450047
  19 H :    0.146255
  20 H :    0.166238
  21 H :    0.153906
  22 H :    0.156741
  23 H :    0.173488
  24 H :    0.148220
  25 H :    0.171998
  26 H :    0.147952
  27 H :    0.176504
  28 H :    0.155865
  29 H :    0.209319
  30 H :    0.209244
  31 H :    0.156739
  32 H :    0.173603
  33 H :    0.166227
  34 H :    0.153979
  35 H :    0.146286
  36 H :    0.148158
  37 H :    0.171791
  38 H :    0.155899
  39 H :    0.147963
  40 H :    0.176622
Sum of atomic charges:   -0.0000000

LOEWDIN ATOMIC CHARGES
----------------------
   0 C :   -0.399505
   1 C :    0.018491
   2 O :   -0.669621
   3 P :    0.380407
   4 S :   -0.132623
   5 O :   -0.659836
   6 C :    0.019459
   7 C :   -0.406966
   8 S :    0.180273
   9 C :   -0.418838
  10 S :    0.180315
  11 P :    0.380352
  12 S :   -0.132592
  13 O :   -0.669554
  14 C :    0.018548
  15 C :   -0.399505
  16 O :   -0.659893
  17 C :    0.019502
  18 C :   -0.407015
  19 H :    0.158915
  20 H :    0.164003
  21 H :    0.159718
  22 H :    0.181568
  23 H :    0.181252
  24 H :    0.179396
  25 H :    0.179445
  26 H :    0.159198
  27 H :    0.165477
  28 H :    0.160514
  29 H :    0.189798
  30 H :    0.189793
  31 H :    0.181572
  32 H :    0.181247
  33 H :    0.164005
  34 H :    0.159749
  35 H :    0.158927
  36 H :    0.179390
  37 H :    0.179415
  38 H :    0.160527
  39 H :    0.159201
  40 H :    0.165491

  Mayer bond orders larger than 0.100000
B(  0-C ,  1-C ) :   0.9217 B(  0-C , 19-H ) :   0.9634 B(  0-C , 20-H ) :   0.9613
B(  0-C , 21-H ) :   0.9728 B(  1-C ,  2-O ) :   0.7902 B(  1-C , 22-H ) :   0.9635
B(  1-C , 23-H ) :   0.9643 B(  2-O ,  3-P ) :   1.1522 B(  3-P ,  4-S ) :   1.7370
B(  3-P ,  5-O ) :   1.0671 B(  3-P ,  8-S ) :   1.0879 B(  5-O ,  6-C ) :   0.8128
B(  6-C ,  7-C ) :   0.9234 B(  6-C , 24-H ) :   0.9583 B(  6-C , 25-H ) :   0.9677
B(  7-C , 26-H ) :   0.9590 B(  7-C , 27-H ) :   0.9627 B(  7-C , 28-H ) :   0.9683
B(  8-S ,  9-C ) :   0.9033 B(  9-C , 10-S ) :   0.9033 B(  9-C , 29-H ) :   0.9100
B(  9-C , 30-H ) :   0.9100 B( 10-S , 11-P ) :   1.0879 B( 11-P , 12-S ) :   1.7375
B( 11-P , 13-O ) :   1.1522 B( 11-P , 16-O ) :   1.0669 B( 13-O , 14-C ) :   0.7903
B( 14-C , 15-C ) :   0.9217 B( 14-C , 31-H ) :   0.9634 B( 14-C , 32-H ) :   0.9643
B( 15-C , 33-H ) :   0.9611 B( 15-C , 34-H ) :   0.9728 B( 15-C , 35-H ) :   0.9633
B( 16-O , 17-C ) :   0.8130 B( 17-C , 18-C ) :   0.9231 B( 17-C , 36-H ) :   0.9583
B( 17-C , 37-H ) :   0.9677 B( 18-C , 38-H ) :   0.9683 B( 18-C , 39-H ) :   0.9589
B( 18-C , 40-H ) :   0.9628

Dispersion correction           -0.021856338
FINAL SINGLE POINT ENERGY     -2932.464811274100

DIPOLE MOMENT
-------------

Method             : SCF
Type of density    : Electron Density
Multiplicity       :   1
Irrep              :   0
Energy             : -2932.4893737398410849 Eh
Relativity type    :
Basis              : AO
                                X                 Y                 Z
Electronic contribution:      0.001029669      -5.661483964      -8.204535268
Nuclear contribution   :     -0.001732094       6.215766715       9.007775561
                        -----------------------------------------
Total Dipole Moment    :     -0.000702425       0.554282751       0.803240293
                        -----------------------------------------
Magnitude (a.u.)       :      0.975922554
Magnitude (Debye)      :      2.480597995

Rotational constants in cm-1:             0.012794             0.004928             0.004927
Rotational constants in MHz :           383.558989           147.740925           147.720611

                             ****ORCA TERMINATED NORMALLY****
TOTAL RUN TIME: 0 days 0 hours 1 minutes 26 seconds 262 msec
