                         Program Version 6.0.0  -   RELEASE  -
|  1> ! r2scan-3c def2/J RI DEFGRID2 scfconv6 printgap
|  2> %output
|  3>     printlevel normal
|  4> end
|  5> %cpcm
|  6>     smd true
|  7>     smdsolvent "water"
|  8> end
|  9> * xyz 0 1
| 10> C 2.7168610474 -0.0531262773 3.3706414278
| 11> C 1.4093324412 -0.3777846735 2.6793256133
| 12> O 1.326462712 0.24661546 1.3836593947
| 13> P 2.1971044517 -0.2338652564 0.1517154273
| 14> S 2.7439216583 -2.1190872817 0.1410728659
| 15> O 3.3892129277 0.8160459651 0.1868129315
| 16> C 4.6103948848 0.623879766 -0.5489616919
| 17> C 4.40022755 0.7360946931 -2.0452119099
| 18> S 0.9713457563 0.4243348049 -1.4380899586
| 19> C -0.0014460574 -1.0994783239 -1.5930816459
| 20> S -0.9722155107 -1.4938606486 -0.1117584563
| 21> P -2.1967100167 0.2269986883 -0.1617831181
| 22> S -2.74549667 0.8850236503 -1.9277624638
| 23> O -1.3241567023 1.2086034872 0.7223759914
| 24> C -1.4089251081 2.6414994243 0.5992575027
| 25> C -2.7158280152 3.1709302275 1.151138463
| 26> O -3.3875662376 -0.1115314664 0.8342241178
| 27> C -4.609774591 -0.730626876 0.3954430316
| 28> C -4.4004639682 -2.1683880545 -0.0342042659
| 29> H 2.7060739467 -0.4650404001 4.3748564433
| 30> H 3.5449841849 -0.4929996049 2.815864209
| 31> H 2.8593922216 1.0232002722 3.4197326387
| 32> H 0.5490011347 0.0220857368 3.2181379838
| 33> H 1.2936929478 -1.4594002847 2.5517231807
| 34> H 5.2679745382 1.4091872881 -0.173819163
| 35> H 5.0171118293 -0.3593463111 -0.2913547702
| 36> H 5.3624176797 0.7066261535 -2.546381348
| 37> H 3.7915512798 -0.0945531713 -2.4001227495
| 38> H 3.8940580404 1.6672645772 -2.2874951845
| 39> H 0.6654934391 -1.9455739417 -1.7548662211
| 40> H -0.66963784 -0.9501304709 -2.4404710349
| 41> H -0.5477735816 3.0040362681 1.1625984196
| 42> H -1.295867379 2.9066636593 -0.4573602077
| 43> H -3.5448471944 2.8084937169 0.5441436148
| 44> H -2.8561642807 2.8334665002 2.1746706506
| 45> H -2.705899029 4.256012915 1.123777586
| 46> H -5.2650384481 -0.6605027139 1.2646768439
| 47> H -5.0188346411 -0.1392659134 -0.4300732138
| 48> H -3.8917934389 -2.7268650072 0.747710052
| 49> H -5.3630806041 -2.626405561 -0.2378207852
| 50> H -3.7944232249 -2.2032610359 -0.9386149929
| 51> *
| 52>
| 53>                          ****END OF INPUT****

CARTESIAN COORDINATES (ANGSTROEM)
---------------------------------
  C      2.716861   -0.053126    3.370641
  C      1.409332   -0.377785    2.679326
  O      1.326463    0.246615    1.383659
  P      2.197104   -0.233865    0.151715
  S      2.743922   -2.119087    0.141073
  O      3.389213    0.816046    0.186813
  C      4.610395    0.623880   -0.548962
  C      4.400228    0.736095   -2.045212
  S      0.971346    0.424335   -1.438090
  C     -0.001446   -1.099478   -1.593082
  S     -0.972216   -1.493861   -0.111758
  P     -2.196710    0.226999   -0.161783
  S     -2.745497    0.885024   -1.927762
  O     -1.324157    1.208603    0.722376
  C     -1.408925    2.641499    0.599258
  C     -2.715828    3.170930    1.151138
  O     -3.387566   -0.111531    0.834224
  C     -4.609775   -0.730627    0.395443
  C     -4.400464   -2.168388   -0.034204
  H      2.706074   -0.465040    4.374856
  H      3.544984   -0.493000    2.815864
  H      2.859392    1.023200    3.419733
  H      0.549001    0.022086    3.218138
  H      1.293693   -1.459400    2.551723
  H      5.267975    1.409187   -0.173819
  H      5.017112   -0.359346   -0.291355
  H      5.362418    0.706626   -2.546381
  H      3.791551   -0.094553   -2.400123
  H      3.894058    1.667265   -2.287495
  H      0.665493   -1.945574   -1.754866
  H     -0.669638   -0.950130   -2.440471
  H     -0.547774    3.004036    1.162598
  H     -1.295867    2.906664   -0.457360
  H     -3.544847    2.808494    0.544144
  H     -2.856164    2.833467    2.174671
  H     -2.705899    4.256013    1.123778
  H     -5.265038   -0.660503    1.264677
  H     -5.018835   -0.139266   -0.430073
  H     -3.891793   -2.726865    0.747710
  H     -5.363081   -2.626406   -0.237821
  H     -3.794423   -2.203261   -0.938615

 Total Charge           Charge          ....    0
 Multiplicity           Mult            ....    1
 Number of Electrons    NEL             ....  202
 Basis Dimension        Dim             ....  539

ORBITAL ENERGIES
----------------

  NO   OCC          E(Eh)            E(eV)
   0   2.0000     -88.577292     -2410.3106
   1   2.0000     -88.577279     -2410.3103
   2   2.0000     -88.528337     -2408.9785
   3   2.0000     -88.528315     -2408.9779
   4   2.0000     -76.917910     -2093.0427
   5   2.0000     -76.917885     -2093.0421
   6   2.0000     -18.995400      -516.8911
   7   2.0000     -18.995326      -516.8891
   8   2.0000     -18.989499      -516.7305
   9   2.0000     -18.989474      -516.7299
  10   2.0000     -10.104616      -274.9606
  11   2.0000     -10.089624      -274.5526
  12   2.0000     -10.089616      -274.5524
  13   2.0000     -10.088157      -274.5127
  14   2.0000     -10.088154      -274.5126
  15   2.0000     -10.018460      -272.6162
  16   2.0000     -10.018453      -272.6160
  17   2.0000     -10.018121      -272.6069
  18   2.0000     -10.018108      -272.6066
  19   2.0000      -7.871706      -214.2000
  20   2.0000      -7.871692      -214.1996
  21   2.0000      -7.823390      -212.8853
  22   2.0000      -7.823373      -212.8848
  23   2.0000      -6.596570      -179.5018
  24   2.0000      -6.596545      -179.5011
  25   2.0000      -5.818587      -158.3318
  26   2.0000      -5.818568      -158.3313
  27   2.0000      -5.815639      -158.2516
  28   2.0000      -5.815621      -158.2511
  29   2.0000      -5.808737      -158.0638
  30   2.0000      -5.808729      -158.0636
  31   2.0000      -5.770913      -157.0345
  32   2.0000      -5.770882      -157.0337
  33   2.0000      -5.763672      -156.8375
  34   2.0000      -5.763664      -156.8373
  35   2.0000      -5.763468      -156.8319
  36   2.0000      -5.763454      -156.8316
  37   2.0000      -4.741860      -129.0326
  38   2.0000      -4.741834      -129.0319
  39   2.0000      -4.741454      -129.0215
  40   2.0000      -4.741428      -129.0208
  41   2.0000      -4.740557      -128.9971
  42   2.0000      -4.740534      -128.9965
  43   2.0000      -1.052215       -28.6322
  44   2.0000      -1.050978       -28.5986
  45   2.0000      -1.012678       -27.5564
  46   2.0000      -1.011168       -27.5153
  47   2.0000      -0.803846       -21.8738
  48   2.0000      -0.754874       -20.5412
  49   2.0000      -0.741743       -20.1838
  50   2.0000      -0.722942       -19.6723
  51   2.0000      -0.722424       -19.6582
  52   2.0000      -0.709858       -19.3162
  53   2.0000      -0.690298       -18.7840
  54   2.0000      -0.674862       -18.3639
  55   2.0000      -0.634668       -17.2702
  56   2.0000      -0.623989       -16.9796
  57   2.0000      -0.598388       -16.2830
  58   2.0000      -0.598250       -16.2792
  59   2.0000      -0.589711       -16.0468
  60   2.0000      -0.517816       -14.0905
  61   2.0000      -0.511708       -13.9243
  62   2.0000      -0.490322       -13.3423
  63   2.0000      -0.488416       -13.2905
  64   2.0000      -0.473270       -12.8783
  65   2.0000      -0.458420       -12.4742
  66   2.0000      -0.453902       -12.3513
  67   2.0000      -0.453162       -12.3312
  68   2.0000      -0.440790       -11.9945
  69   2.0000      -0.429585       -11.6896
  70   2.0000      -0.420830       -11.4514
  71   2.0000      -0.408658       -11.1201
  72   2.0000      -0.405217       -11.0265
  73   2.0000      -0.403003       -10.9663
  74   2.0000      -0.401459       -10.9242
  75   2.0000      -0.388140       -10.5618
  76   2.0000      -0.382714       -10.4142
  77   2.0000      -0.369963       -10.0672
  78   2.0000      -0.364621        -9.9218
  79   2.0000      -0.363717        -9.8972
  80   2.0000      -0.353516        -9.6197
  81   2.0000      -0.353495        -9.6191
  82   2.0000      -0.348280        -9.4772
  83   2.0000      -0.347649        -9.4600
  84   2.0000      -0.343784        -9.3548
  85   2.0000      -0.332190        -9.0394
  86   2.0000      -0.319337        -8.6896
  87   2.0000      -0.304824        -8.2947
  88   2.0000      -0.304447        -8.2844
  89   2.0000      -0.301641        -8.2081
  90   2.0000      -0.295607        -8.0439
  91   2.0000      -0.290116        -7.8944
  92   2.0000      -0.279662        -7.6100
  93   2.0000      -0.279073        -7.5940
  94   2.0000      -0.277225        -7.5437
  95   2.0000      -0.247954        -6.7472
  96   2.0000      -0.235798        -6.4164
  97   2.0000      -0.235045        -6.3959
  98   2.0000      -0.228592        -6.2203
  99   2.0000      -0.221985        -6.0405
 100   2.0000      -0.219050        -5.9607
 101   0.0000      -0.051169        -1.3924
 102   0.0000      -0.029917        -0.8141
 103   0.0000      -0.003020        -0.0822
 104   0.0000      -0.002427        -0.0660
 105   0.0000       0.012193         0.3318

MULLIKEN ATOMIC CHARGES
-----------------------
   0 C :   -0.485015
   1 C :   -0.151613
   2 O :   -0.295096
   3 P :    0.734588
   4 S :   -0.530187
   5 O :   -0.332006
   6 C :   -0.153930
   7 C :   -0.485663
   8 S :   -0.133780
   9 C :   -0.258354
  10 S :   -0.133548
  11 P :    0.733385
  12 S :   -0.530347
  13 O :   -0.294481
  14 C :   -0.152776
  15 C :   -0.484610
  16 O :   -0.331122
  17 C :   -0.153112
  18 C :   -0.486176
  19 H :    0.171447
  20 H :    0.167377
  21 H :    0.169080
  22 H :    0.178188
  23 H :    0.176200
  24 H :    0.175357
  25 H :    0.178253
  26 H :    0.172815
  27 H :    0.172626
  28 H :    0.169065
  29 H :    0.231781
  30 H :    0.231087
  31 H :    0.178228
  32 H :    0.176408
  33 H :    0.167436
  34 H :    0.169115
  35 H :    0.171494
  36 H :    0.175305
  37 H :    0.177949
  38 H :    0.169105
  39 H :    0.172796
  40 H :    0.172733
Sum of atomic charges:   -0.0000000

LOEWDIN ATOMIC CHARGES
----------------------
   0 C :   -0.402456
   1 C :    0.021838
   2 O :   -0.687637
   3 P :    0.385077
   4 S :   -0.157350
   5 O :   -0.671980
   6 C :    0.025285
   7 C :   -0.410062
   8 S :    0.173745
   9 C :   -0.412040
  10 S :    0.173798
  11 P :    0.385031
  12 S :   -0.157499
  13 O :   -0.687418
  14 C :    0.021829
  15 C :   -0.402477
  16 O :   -0.671764
  17 C :    0.025336
  18 C :   -0.410121
  19 H :    0.168394
  20 H :    0.162244
  21 H :    0.163790
  22 H :    0.190294
  23 H :    0.182060
  24 H :    0.190938
  25 H :    0.181546
  26 H :    0.168340
  27 H :    0.161528
  28 H :    0.163580
  29 H :    0.196850
  30 H :    0.196622
  31 H :    0.190300
  32 H :    0.182057
  33 H :    0.162274
  34 H :    0.163813
  35 H :    0.168405
  36 H :    0.190933
  37 H :    0.181474
  38 H :    0.163582
  39 H :    0.168315
  40 H :    0.161527

  Mayer bond orders larger than 0.100000
B(  0-C ,  1-C ) :   0.9145 B(  0-C , 19-H ) :   0.9571 B(  0-C , 20-H ) :   0.9604
B(  0-C , 21-H ) :   0.9712 B(  1-C ,  2-O ) :   0.7779 B(  1-C , 22-H ) :   0.9532
B(  1-C , 23-H ) :   0.9593 B(  2-O ,  3-P ) :   1.1549 B(  3-P ,  4-S ) :   1.7003
B(  3-P ,  5-O ) :   1.0753 B(  3-P ,  8-S ) :   1.0988 B(  5-O ,  6-C ) :   0.8006
B(  6-C ,  7-C ) :   0.9104 B(  6-C , 24-H ) :   0.9485 B(  6-C , 25-H ) :   0.9660
B(  7-C , 26-H ) :   0.9536 B(  7-C , 27-H ) :   0.9637 B(  7-C , 28-H ) :   0.9657
B(  8-S ,  9-C ) :   0.8944 B(  9-C , 10-S ) :   0.8943 B(  9-C , 29-H ) :   0.9044
B(  9-C , 30-H ) :   0.9046 B( 10-S , 11-P ) :   1.0990 B( 11-P , 12-S ) :   1.7004
B( 11-P , 13-O ) :   1.1553 B( 11-P , 16-O ) :   1.0755 B( 13-O , 14-C ) :   0.7779
B( 14-C , 15-C ) :   0.9146 B( 14-C , 31-H ) :   0.9532 B( 14-C , 32-H ) :   0.9594
B( 15-C , 33-H ) :   0.9602 B( 15-C , 34-H ) :   0.9712 B( 15-C , 35-H ) :   0.9571
B( 16-O , 17-C ) :   0.8008 B( 17-C , 18-C ) :   0.9101 B( 17-C , 36-H ) :   0.9485
B( 17-C , 37-H ) :   0.9660 B( 18-C , 38-H ) :   0.9657 B( 18-C , 39-H ) :   0.9535
B( 18-C , 40-H ) :   0.9638

Dispersion correction           -0.021856338
FINAL SINGLE POINT ENERGY     -2932.472084310550

DIPOLE MOMENT
-------------

Method             : SCF
Type of density    : Electron Density
Multiplicity       :   1
Irrep              :   0
Energy             : -2932.4966467762910725 Eh
Relativity type    :
Basis              : AO
                                X                 Y                 Z
Electronic contribution:      0.001367554      -5.548328127      -8.036284640
Nuclear contribution   :     -0.001732094       6.215766715       9.007775561
                        -----------------------------------------
Total Dipole Moment    :     -0.000364540       0.667438589       0.971490921
                        -----------------------------------------
Magnitude (a.u.)       :      1.178672564
Magnitude (Debye)      :      2.995947565

Rotational constants in cm-1:             0.012794             0.004928             0.004927
Rotational constants in MHz :           383.558989           147.740925           147.720611

                             ****ORCA TERMINATED NORMALLY****
TOTAL RUN TIME: 0 days 0 hours 1 minutes 56 seconds 204 msec
