                         Program Version 6.0.0  -   RELEASE  -
|  1> ! r2scan-3c def2/J RI DEFGRID2 scfconv6 printgap
|  2> %output
|  3>     printlevel normal
|  4> end
|  5> * xyz 0 1
|  6> C -0.6761041152 -0.5139855519 0.3721443867
|  7> C 0.6690706103 -0.539168446 -0.3491781429
|  8> O 1.4969854594 0.4693597376 0.1908056991
|  9> O -1.4906497408 0.4810333259 -0.2115918384
| 10> H -0.4917398455 -0.2986520091 1.4306271294
| 11> H -1.1534410402 -1.4979296899 0.2754862344
| 12> H 0.4877034705 -0.3682781581 -1.4162438768
| 13> H 1.1328156248 -1.524348304 -0.208767005
| 14> H 2.2955599781 0.5533473715 -0.347152766
| 15> H -2.287655281 0.5994330027 0.3223277697
| 16> *
| 17>
| 18>                          ****END OF INPUT****

CARTESIAN COORDINATES (ANGSTROEM)
---------------------------------
  C     -0.676104   -0.513986    0.372144
  C      0.669071   -0.539168   -0.349178
  O      1.496985    0.469360    0.190806
  O     -1.490650    0.481033   -0.211592
  H     -0.491740   -0.298652    1.430627
  H     -1.153441   -1.497930    0.275486
  H      0.487703   -0.368278   -1.416244
  H      1.132816   -1.524348   -0.208767
  H      2.295560    0.553347   -0.347153
  H     -2.287655    0.599433    0.322328

 Total Charge           Charge          ....    0
 Multiplicity           Mult            ....    1
 Number of Electrons    NEL             ....   34
 Basis Dimension        Dim             ....  116

ORBITAL ENERGIES
----------------

  NO   OCC          E(Eh)            E(eV)
   0   2.0000     -18.946774      -515.5679
   1   2.0000     -18.946770      -515.5678
   2   2.0000     -10.076924      -274.2070
   3   2.0000     -10.076789      -274.2034
   4   2.0000      -0.991319       -26.9752
   5   2.0000      -0.976056       -26.5598
   6   2.0000      -0.705109       -19.1870
   7   2.0000      -0.573900       -15.6166
   8   2.0000      -0.492864       -13.4115
   9   2.0000      -0.488222       -13.2852
  10   2.0000      -0.394929       -10.7466
  11   2.0000      -0.393388       -10.7046
  12   2.0000      -0.387557       -10.5460
  13   2.0000      -0.320424        -8.7192
  14   2.0000      -0.287139        -7.8134
  15   2.0000      -0.241931        -6.5833
  16   2.0000      -0.232193        -6.3183
  17   0.0000       0.061103         1.6627
  18   0.0000       0.066365         1.8059
  19   0.0000       0.116427         3.1681
  20   0.0000       0.125817         3.4236
  21   0.0000       0.153753         4.1838

MULLIKEN ATOMIC CHARGES
-----------------------
   0 C :   -0.116653
   1 C :   -0.116659
   2 O :   -0.420745
   3 O :   -0.420814
   4 H :    0.130389
   5 H :    0.114655
   6 H :    0.130380
   7 H :    0.114660
   8 H :    0.292369
   9 H :    0.292418
Sum of atomic charges:   -0.0000000

LOEWDIN ATOMIC CHARGES
----------------------
   0 C :    0.022458
   1 C :    0.022448
   2 O :   -0.616311
   3 O :   -0.616297
   4 H :    0.169563
   5 H :    0.157154
   6 H :    0.169538
   7 H :    0.157171
   8 H :    0.267116
   9 H :    0.267159

  Mayer bond orders larger than 0.100000
B(  0-C ,  1-C ) :   0.9959 B(  0-C ,  3-O ) :   0.9418 B(  0-C ,  4-H ) :   0.9638
B(  0-C ,  5-H ) :   0.9519 B(  1-C ,  2-O ) :   0.9418 B(  1-C ,  6-H ) :   0.9638
B(  1-C ,  7-H ) :   0.9519 B(  2-O ,  8-H ) :   0.9007 B(  3-O ,  9-H ) :   0.9007

Dispersion correction           -0.001538561
FINAL SINGLE POINT ENERGY      -230.205266247639

DIPOLE MOMENT
-------------

Method             : SCF
Type of density    : Electron Density
Multiplicity       :   1
Irrep              :   0
Energy             :  -230.2110883217911805 Eh
Relativity type    :
Basis              : AO
                                X                 Y                 Z
Electronic contribution:      0.012068553       1.794404335      -0.039768906
Nuclear contribution   :     -0.015626915      -2.365486942       0.052489173
                        -----------------------------------------
Total Dipole Moment    :     -0.003558362      -0.571082607       0.012720267
                        -----------------------------------------
Magnitude (a.u.)       :      0.571235338
Magnitude (Debye)      :      1.451964839

Rotational constants in cm-1:             0.596807             0.160805             0.146112
Rotational constants in MHz :         17891.814323          4820.822592          4380.339556

                             ****ORCA TERMINATED NORMALLY****
TOTAL RUN TIME: 0 days 0 hours 0 minutes 10 seconds 227 msec
