                         Program Version 6.0.0  -   RELEASE  -
|  1> ! r2scan-3c def2/J RI DEFGRID2 scfconv6 printgap
|  2> %output
|  3>     printlevel normal
|  4> end
|  5> %cpcm
|  6>     smd true
|  7>     smdsolvent "water"
|  8> end
|  9> * xyz 0 1
| 10> C -0.6761041152 -0.5139855519 0.3721443867
| 11> C 0.6690706103 -0.539168446 -0.3491781429
| 12> O 1.4969854594 0.4693597376 0.1908056991
| 13> O -1.4906497408 0.4810333259 -0.2115918384
| 14> H -0.4917398455 -0.2986520091 1.4306271294
| 15> H -1.1534410402 -1.4979296899 0.2754862344
| 16> H 0.4877034705 -0.3682781581 -1.4162438768
| 17> H 1.1328156248 -1.524348304 -0.208767005
| 18> H 2.2955599781 0.5533473715 -0.347152766
| 19> H -2.287655281 0.5994330027 0.3223277697
| 20> *
| 21>
| 22>                          ****END OF INPUT****

CARTESIAN COORDINATES (ANGSTROEM)
---------------------------------
  C     -0.676104   -0.513986    0.372144
  C      0.669071   -0.539168   -0.349178
  O      1.496985    0.469360    0.190806
  O     -1.490650    0.481033   -0.211592
  H     -0.491740   -0.298652    1.430627
  H     -1.153441   -1.497930    0.275486
  H      0.487703   -0.368278   -1.416244
  H      1.132816   -1.524348   -0.208767
  H      2.295560    0.553347   -0.347153
  H     -2.287655    0.599433    0.322328

 Total Charge           Charge          ....    0
 Multiplicity           Mult            ....    1
 Number of Electrons    NEL             ....   34
 Basis Dimension        Dim             ....  116

ORBITAL ENERGIES
----------------

  NO   OCC          E(Eh)            E(eV)
   0   2.0000     -18.951921      -515.7080
   1   2.0000     -18.951900      -515.7074
   2   2.0000     -10.072134      -274.0767
   3   2.0000     -10.072000      -274.0731
   4   2.0000      -0.995255       -27.0823
   5   2.0000      -0.980036       -26.6681
   6   2.0000      -0.702253       -19.1093
   7   2.0000      -0.570890       -15.5347
   8   2.0000      -0.492271       -13.3954
   9   2.0000      -0.486504       -13.2384
  10   2.0000      -0.394831       -10.7439
  11   2.0000      -0.391301       -10.6478
  12   2.0000      -0.390180       -10.6173
  13   2.0000      -0.329373        -8.9627
  14   2.0000      -0.289449        -7.8763
  15   2.0000      -0.248769        -6.7693
  16   2.0000      -0.239012        -6.5039
  17   0.0000       0.075419         2.0522
  18   0.0000       0.083294         2.2665
  19   0.0000       0.125354         3.4111
  20   0.0000       0.136029         3.7015
  21   0.0000       0.160839         4.3767

MULLIKEN ATOMIC CHARGES
-----------------------
   0 C :   -0.125274
   1 C :   -0.125427
   2 O :   -0.507549
   3 O :   -0.507688
   4 H :    0.144121
   5 H :    0.140775
   6 H :    0.144167
   7 H :    0.140811
   8 H :    0.348004
   9 H :    0.348059
Sum of atomic charges:    0.0000000

LOEWDIN ATOMIC CHARGES
----------------------
   0 C :    0.023032
   1 C :    0.023011
   2 O :   -0.653301
   3 O :   -0.653311
   4 H :    0.174453
   5 H :    0.169303
   6 H :    0.174442
   7 H :    0.169331
   8 H :    0.286495
   9 H :    0.286546

  Mayer bond orders larger than 0.100000
B(  0-C ,  1-C ) :   0.9729 B(  0-C ,  3-O ) :   0.9236 B(  0-C ,  4-H ) :   0.9620
B(  0-C ,  5-H ) :   0.9537 B(  1-C ,  2-O ) :   0.9236 B(  1-C ,  6-H ) :   0.9620
B(  1-C ,  7-H ) :   0.9536 B(  2-O ,  8-H ) :   0.8733 B(  3-O ,  9-H ) :   0.8732

Dispersion correction           -0.001538561
FINAL SINGLE POINT ENERGY      -230.221892629376

DIPOLE MOMENT
-------------

Method             : SCF
Type of density    : Electron Density
Multiplicity       :   1
Irrep              :   0
Energy             :  -230.2277147035283065 Eh
Relativity type    :
Basis              : AO
                                X                 Y                 Z
Electronic contribution:      0.010126940       1.506497685      -0.033258957
Nuclear contribution   :     -0.015626915      -2.365486942       0.052489173
                        -----------------------------------------
Total Dipole Moment    :     -0.005499975      -0.858989257       0.019230216
                        -----------------------------------------
Magnitude (a.u.)       :      0.859222087
Magnitude (Debye)      :      2.183968981

Rotational constants in cm-1:             0.596807             0.160805             0.146112
Rotational constants in MHz :         17891.814323          4820.822592          4380.339556

                             ****ORCA TERMINATED NORMALLY****
TOTAL RUN TIME: 0 days 0 hours 0 minutes 11 seconds 506 msec
