                         Program Version 6.0.0  -   RELEASE  -
|  1> ! pbe def2-sv(p) def2/J RI DEFGRID1 loosescf d4 GCP(DFT/SV(P)) printgap
|  2> %output
|  3>     printlevel normal
|  4> end
|  5> * xyz 0 1
|  6> C -1.8350518116 -1.4537302084 -5.08837e-05
|  7> C -0.528277109 -0.7116925189 2.46584e-05
|  8> C 0.6798028514 -1.393607712 0.0001587753
|  9> C 1.890470395 -0.723235556 -5.43488e-05
| 10> C 1.9069362084 0.6605115292 -3.47861e-05
| 11> C 0.7170752552 1.3625429484 -3.3596e-06
| 12> C -0.4979258108 0.6867722384 -5.8238e-05
| 13> O -1.6327582512 1.4441212127 2.83765e-05
| 14> H -1.6532078227 -2.5245514612 -0.0003012084
| 15> H -2.4210849015 -1.211430211 0.8865700071
| 16> H -2.4211464107 -1.2109756089 -0.8865046765
| 17> H 0.6691214604 -2.4739609625 -0.0001236726
| 18> H 2.8155353206 -1.2789104319 -9.32063e-05
| 19> H 2.8438901132 1.1960794453 0.0001135391
| 20> H 0.7011834403 2.4414143958 3.29201e-05
| 21> H -2.4175829739 0.8766452158 7.25318e-05
| 22> *
| 23>
| 24>                          ****END OF INPUT****

CARTESIAN COORDINATES (ANGSTROEM)
---------------------------------
  C     -1.835052   -1.453730   -0.000051
  C     -0.528277   -0.711693    0.000025
  C      0.679803   -1.393608    0.000159
  C      1.890470   -0.723236   -0.000054
  C      1.906936    0.660512   -0.000035
  C      0.717075    1.362543   -0.000003
  C     -0.497926    0.686772   -0.000058
  O     -1.632758    1.444121    0.000028
  H     -1.653208   -2.524551   -0.000301
  H     -2.421085   -1.211430    0.886570
  H     -2.421146   -1.210976   -0.886505
  H      0.669121   -2.473961   -0.000124
  H      2.815535   -1.278910   -0.000093
  H      2.843890    1.196079    0.000114
  H      0.701183    2.441414    0.000033
  H     -2.417583    0.876645    0.000073

 Total Charge           Charge          ....    0
 Multiplicity           Mult            ....    1
 Number of Electrons    NEL             ....   58
 Basis Dimension        Dim             ....  128

ORBITAL ENERGIES
----------------

  NO   OCC          E(Eh)            E(eV)
   0   2.0000     -18.779789      -511.0240
   1   2.0000      -9.946042      -270.6456
   2   2.0000      -9.898888      -269.3624
   3   2.0000      -9.897374      -269.3212
   4   2.0000      -9.888624      -269.0831
   5   2.0000      -9.887501      -269.0526
   6   2.0000      -9.881768      -268.8966
   7   2.0000      -9.881479      -268.8887
   8   2.0000      -0.960576       -26.1386
   9   2.0000      -0.770532       -20.9672
  10   2.0000      -0.699268       -19.0281
  11   2.0000      -0.661194       -17.9920
  12   2.0000      -0.620905       -16.8957
  13   2.0000      -0.546359       -14.8672
  14   2.0000      -0.538971       -14.6661
  15   2.0000      -0.484988       -13.1972
  16   2.0000      -0.441042       -12.0014
  17   2.0000      -0.414055       -11.2670
  18   2.0000      -0.395040       -10.7496
  19   2.0000      -0.384190       -10.4543
  20   2.0000      -0.366731        -9.9793
  21   2.0000      -0.354259        -9.6399
  22   2.0000      -0.346952        -9.4410
  23   2.0000      -0.334382        -9.0990
  24   2.0000      -0.308654        -8.3989
  25   2.0000      -0.293447        -7.9851
  26   2.0000      -0.289463        -7.8767
  27   2.0000      -0.220567        -6.0019
  28   2.0000      -0.190961        -5.1963
  29   0.0000      -0.028112        -0.7650
  30   0.0000      -0.015961        -0.4343
  31   0.0000       0.017425         0.4742
  32   0.0000       0.050223         1.3666
  33   0.0000       0.079855         2.1730

MULLIKEN ATOMIC CHARGES
-----------------------
   0 C :   -0.287553
   1 C :    0.004968
   2 C :   -0.141878
   3 C :   -0.043176
   4 C :   -0.046688
   5 C :   -0.128451
   6 C :    0.143413
   7 O :   -0.334883
   8 H :    0.112590
   9 H :    0.119480
  10 H :    0.119466
  11 H :    0.032862
  12 H :    0.044156
  13 H :    0.051604
  14 H :    0.041898
  15 H :    0.312190
Sum of atomic charges:   -0.0000000

LOEWDIN ATOMIC CHARGES
----------------------
   0 C :   -0.335434
   1 C :   -0.094381
   2 C :   -0.120680
   3 C :   -0.148360
   4 C :   -0.120329
   5 C :   -0.147846
   6 C :    0.025785
   7 O :   -0.236062
   8 H :    0.134206
   9 H :    0.126947
  10 H :    0.126941
  11 H :    0.120111
  12 H :    0.121357
  13 H :    0.123540
  14 H :    0.129457
  15 H :    0.294748

  Mayer bond orders larger than 0.100000
B(  0-C ,  1-C ) :   1.0845 B(  0-C ,  8-H ) :   0.9331 B(  0-C ,  9-H ) :   0.9311
B(  0-C , 10-H ) :   0.9311 B(  1-C ,  2-C ) :   1.4082 B(  1-C ,  6-C ) :   1.3128
B(  2-C ,  3-C ) :   1.3614 B(  2-C , 11-H ) :   0.9572 B(  3-C ,  4-C ) :   1.3590
B(  3-C , 12-H ) :   0.9660 B(  4-C ,  5-C ) :   1.3686 B(  4-C , 13-H ) :   0.9671
B(  5-C ,  6-C ) :   1.3722 B(  5-C , 14-H ) :   0.9623 B(  6-C ,  7-O ) :   1.2290
B(  7-O , 15-H ) :   0.8312

Dispersion correction           -0.015703870
FINAL SINGLE POINT ENERGY      -346.022693038226

DIPOLE MOMENT
-------------

Method             : SCF
Type of density    : Electron Density
Multiplicity       :   1
Irrep              :   0
Energy             :  -346.0728450969498908 Eh
Relativity type    :
Basis              : AO
                                X                 Y                 Z
Electronic contribution:      1.290597466       3.435485927       0.000204595
Nuclear contribution   :     -1.791088340      -3.905470957      -0.000218892
                        -----------------------------------------
Total Dipole Moment    :     -0.500490874      -0.469985030      -0.000014297
                        -----------------------------------------
Magnitude (a.u.)       :      0.686569038
Magnitude (Debye)      :      1.745119808

Rotational constants in cm-1:             0.109027             0.074285             0.044552
Rotational constants in MHz :          3268.550935          2227.009206          1335.633711

                             ****ORCA TERMINATED NORMALLY****
TOTAL RUN TIME: 0 days 0 hours 0 minutes 9 seconds 262 msec
