                         Program Version 6.0.0  -   RELEASE  -
|  1> ! pbe def2-sv(p) def2/J RI DEFGRID1 loosescf d4 GCP(DFT/SV(P)) printgap
|  2> %output
|  3>     printlevel normal
|  4> end
|  5> * xyz 0 1
|  6> C 4.1251752498 2.6871051286 -0.9731656142
|  7> C 3.9350194512 1.2724489431 -1.4857974663
|  8> O 3.7675258408 0.3335498815 -0.4085424926
|  9> P 2.3726518271 0.0344760811 0.2912527771
| 10> S 1.6678636341 1.4645396392 1.4361818765
| 11> O 2.7319518584 -1.3098268751 1.0346993957
| 12> C 2.6868263305 -1.4874289735 2.4686358852
| 13> C 1.6615815427 -2.5402876677 2.8385094623
| 14> S 1.1925302858 -0.6109297305 -1.3682169397
| 15> C 0.1208131789 -1.785358456 -0.4943113007
| 16> S -0.9467962754 -1.0164375345 0.7421559432
| 17> P -2.2343625822 -0.0125054655 -0.6324860785
| 18> S -2.4986045418 -0.9149856423 -2.3471119001
| 19> O -1.6321362052 1.4216505562 -0.8855127199
| 20> C -1.4637802576 2.4244508275 0.1444160446
| 21> C -2.6110629404 3.4117737531 0.1163484551
| 22> O -3.5063629814 0.3118549352 0.2611842181
| 23> C -4.2108795273 -0.6412677958 1.0802834221
| 24> C -4.6486892591 -1.8688915486 0.3100247038
| 25> H 4.3081154409 3.3501463932 -1.8126438316
| 26> H 3.2374463213 3.0227356543 -0.4417121741
| 27> H 4.9709770015 2.7254789303 -0.2921726434
| 28> H 4.8248982417 0.9190930865 -2.010507418
| 29> H 3.0709220541 1.2062000539 -2.1553798937
| 30> H 3.6942122263 -1.7959641093 2.7529596553
| 31> H 2.4511621789 -0.5265264163 2.9382788156
| 32> H 0.6592979505 -2.204200886 2.5775963133
| 33> H 1.8743699907 -3.4721645808 2.3218121116
| 34> H 1.7065279044 -2.7102652259 3.9092884632
| 35> H 0.7293851185 -2.5275801926 0.0154626668
| 36> H -0.5007955322 -2.2378497251 -1.269101613
| 37> H -1.3791209177 1.93447266 1.1183939072
| 38> H -0.5135456808 2.9085886308 -0.0894065418
| 39> H -2.4293031204 4.1843052202 0.8567776785
| 40> H -2.6848902649 3.8654151574 -0.8682369527
| 41> H -3.5472628821 2.9076937072 0.3413614993
| 42> H -3.5612351759 -0.9183962072 1.9152352935
| 43> H -5.0681269115 -0.076196833 1.4503678687
| 44> H -5.2350586566 -1.5821673124 -0.5597009634
| 45> H -3.7799216259 -2.4287788519 -0.0330422443
| 46> H -5.2473875552 -2.5037071181 0.9551455554
| 47> *
| 48>
| 49>                          ****END OF INPUT****

CARTESIAN COORDINATES (ANGSTROEM)
---------------------------------
  C      4.125175    2.687105   -0.973166
  C      3.935019    1.272449   -1.485797
  O      3.767526    0.333550   -0.408542
  P      2.372652    0.034476    0.291253
  S      1.667864    1.464540    1.436182
  O      2.731952   -1.309827    1.034699
  C      2.686826   -1.487429    2.468636
  C      1.661582   -2.540288    2.838509
  S      1.192530   -0.610930   -1.368217
  C      0.120813   -1.785358   -0.494311
  S     -0.946796   -1.016438    0.742156
  P     -2.234363   -0.012505   -0.632486
  S     -2.498605   -0.914986   -2.347112
  O     -1.632136    1.421651   -0.885513
  C     -1.463780    2.424451    0.144416
  C     -2.611063    3.411774    0.116348
  O     -3.506363    0.311855    0.261184
  C     -4.210880   -0.641268    1.080283
  C     -4.648689   -1.868892    0.310025
  H      4.308115    3.350146   -1.812644
  H      3.237446    3.022736   -0.441712
  H      4.970977    2.725479   -0.292173
  H      4.824898    0.919093   -2.010507
  H      3.070922    1.206200   -2.155380
  H      3.694212   -1.795964    2.752960
  H      2.451162   -0.526526    2.938279
  H      0.659298   -2.204201    2.577596
  H      1.874370   -3.472165    2.321812
  H      1.706528   -2.710265    3.909288
  H      0.729385   -2.527580    0.015463
  H     -0.500796   -2.237850   -1.269102
  H     -1.379121    1.934473    1.118394
  H     -0.513546    2.908589   -0.089407
  H     -2.429303    4.184305    0.856778
  H     -2.684890    3.865415   -0.868237
  H     -3.547263    2.907694    0.341361
  H     -3.561235   -0.918396    1.915235
  H     -5.068127   -0.076197    1.450368
  H     -5.235059   -1.582167   -0.559701
  H     -3.779922   -2.428779   -0.033042
  H     -5.247388   -2.503707    0.955146

 Total Charge           Charge          ....    0
 Multiplicity           Mult            ....    1
 Number of Electrons    NEL             ....  202
 Basis Dimension        Dim             ....  334

ORBITAL ENERGIES
----------------

  NO   OCC          E(Eh)            E(eV)
   0   2.0000     -88.044459     -2395.8115
   1   2.0000     -88.039161     -2395.6674
   2   2.0000     -87.986809     -2394.2428
   3   2.0000     -87.981766     -2394.1056
   4   2.0000     -76.428447     -2079.7238
   5   2.0000     -76.425375     -2079.6402
   6   2.0000     -18.798014      -511.5200
   7   2.0000     -18.797292      -511.5003
   8   2.0000     -18.788934      -511.2729
   9   2.0000     -18.784705      -511.1578
  10   2.0000      -9.960561      -271.0406
  11   2.0000      -9.957423      -270.9553
  12   2.0000      -9.957170      -270.9484
  13   2.0000      -9.956109      -270.9195
  14   2.0000      -9.943197      -270.5681
  15   2.0000      -9.892329      -269.1840
  16   2.0000      -9.884551      -268.9723
  17   2.0000      -9.881532      -268.8902
  18   2.0000      -9.878473      -268.8069
  19   2.0000      -7.688893      -209.2254
  20   2.0000      -7.684270      -209.0996
  21   2.0000      -7.631776      -207.6712
  22   2.0000      -7.627108      -207.5442
  23   2.0000      -6.425909      -174.8579
  24   2.0000      -6.422579      -174.7673
  25   2.0000      -5.716561      -155.5555
  26   2.0000      -5.713441      -155.4706
  27   2.0000      -5.712296      -155.4395
  28   2.0000      -5.708919      -155.3476
  29   2.0000      -5.706149      -155.2722
  30   2.0000      -5.700967      -155.1312
  31   2.0000      -5.660487      -154.0297
  32   2.0000      -5.656200      -153.9130
  33   2.0000      -5.652612      -153.8154
  34   2.0000      -5.651883      -153.7956
  35   2.0000      -5.647650      -153.6804
  36   2.0000      -5.647119      -153.6659
  37   2.0000      -4.648631      -126.4957
  38   2.0000      -4.647892      -126.4756
  39   2.0000      -4.646020      -126.4246
  40   2.0000      -4.645463      -126.4095
  41   2.0000      -4.644540      -126.3844
  42   2.0000      -4.642621      -126.3321
  43   2.0000      -0.989682       -26.9306
  44   2.0000      -0.987577       -26.8733
  45   2.0000      -0.948188       -25.8015
  46   2.0000      -0.942298       -25.6412
  47   2.0000      -0.763887       -20.7864
  48   2.0000      -0.722987       -19.6735
  49   2.0000      -0.711083       -19.3496
  50   2.0000      -0.689376       -18.7589
  51   2.0000      -0.688700       -18.7405
  52   2.0000      -0.673014       -18.3136
  53   2.0000      -0.651692       -17.7334
  54   2.0000      -0.639313       -17.3966
  55   2.0000      -0.597277       -16.2527
  56   2.0000      -0.590349       -16.0642
  57   2.0000      -0.574038       -15.6204
  58   2.0000      -0.569880       -15.5072
  59   2.0000      -0.566629       -15.4188
  60   2.0000      -0.508000       -13.8234
  61   2.0000      -0.498219       -13.5572
  62   2.0000      -0.480103       -13.0643
  63   2.0000      -0.470962       -12.8155
  64   2.0000      -0.462403       -12.5826
  65   2.0000      -0.445979       -12.1357
  66   2.0000      -0.440391       -11.9837
  67   2.0000      -0.431750       -11.7485
  68   2.0000      -0.430594       -11.7171
  69   2.0000      -0.412497       -11.2246
  70   2.0000      -0.407499       -11.0886
  71   2.0000      -0.406167       -11.0524
  72   2.0000      -0.397581       -10.8187
  73   2.0000      -0.388390       -10.5686
  74   2.0000      -0.381733       -10.3875
  75   2.0000      -0.375628       -10.2214
  76   2.0000      -0.364919        -9.9300
  77   2.0000      -0.356923        -9.7124
  78   2.0000      -0.352360        -9.5882
  79   2.0000      -0.348102        -9.4724
  80   2.0000      -0.347480        -9.4554
  81   2.0000      -0.345452        -9.4002
  82   2.0000      -0.339379        -9.2350
  83   2.0000      -0.337848        -9.1933
  84   2.0000      -0.336346        -9.1524
  85   2.0000      -0.324134        -8.8201
  86   2.0000      -0.314906        -8.5690
  87   2.0000      -0.299630        -8.1533
  88   2.0000      -0.297451        -8.0940
  89   2.0000      -0.291730        -7.9384
  90   2.0000      -0.283090        -7.7033
  91   2.0000      -0.279215        -7.5978
  92   2.0000      -0.275049        -7.4845
  93   2.0000      -0.264796        -7.2055
  94   2.0000      -0.256497        -6.9796
  95   2.0000      -0.240468        -6.5435
  96   2.0000      -0.218485        -5.9453
  97   2.0000      -0.205931        -5.6037
  98   2.0000      -0.199597        -5.4313
  99   2.0000      -0.199115        -5.4182
 100   2.0000      -0.191199        -5.2028
 101   0.0000      -0.048507        -1.3199
 102   0.0000      -0.025953        -0.7062
 103   0.0000      -0.020307        -0.5526
 104   0.0000      -0.003949        -0.1074
 105   0.0000       0.013644         0.3713

MULLIKEN ATOMIC CHARGES
-----------------------
   0 C :   -0.294236
   1 C :   -0.023589
   2 O :   -0.361770
   3 P :    0.606801
   4 S :   -0.325493
   5 O :   -0.368430
   6 C :   -0.008201
   7 C :   -0.316253
   8 S :   -0.088333
   9 C :   -0.364541
  10 S :   -0.121610
  11 P :    0.618143
  12 S :   -0.312404
  13 O :   -0.346268
  14 C :   -0.015673
  15 C :   -0.282749
  16 O :   -0.381043
  17 C :   -0.009837
  18 C :   -0.308232
  19 H :    0.108030
  20 H :    0.127175
  21 H :    0.115885
  22 H :    0.111482
  23 H :    0.116704
  24 H :    0.108461
  25 H :    0.116607
  26 H :    0.132577
  27 H :    0.121104
  28 H :    0.115686
  29 H :    0.191820
  30 H :    0.196063
  31 H :    0.104482
  32 H :    0.113664
  33 H :    0.107980
  34 H :    0.116278
  35 H :    0.115282
  36 H :    0.112473
  37 H :    0.109409
  38 H :    0.128201
  39 H :    0.123283
  40 H :    0.111073
Sum of atomic charges:   -0.0000000

LOEWDIN ATOMIC CHARGES
----------------------
   0 C :   -0.364617
   1 C :   -0.114954
   2 O :   -0.244257
   3 P :    0.566254
   4 S :   -0.307377
   5 O :   -0.237620
   6 C :   -0.117290
   7 C :   -0.361607
   8 S :    0.078013
   9 C :   -0.481079
  10 S :    0.068526
  11 P :    0.572359
  12 S :   -0.305852
  13 O :   -0.228200
  14 C :   -0.117663
  15 C :   -0.359390
  16 O :   -0.243242
  17 C :   -0.115041
  18 C :   -0.369207
  19 H :    0.128598
  20 H :    0.122325
  21 H :    0.127609
  22 H :    0.121357
  23 H :    0.107297
  24 H :    0.119262
  25 H :    0.108468
  26 H :    0.116873
  27 H :    0.125620
  28 H :    0.133903
  29 H :    0.131428
  30 H :    0.129721
  31 H :    0.103547
  32 H :    0.116748
  33 H :    0.128584
  34 H :    0.127229
  35 H :    0.123311
  36 H :    0.107700
  37 H :    0.121175
  38 H :    0.131181
  39 H :    0.120278
  40 H :    0.130031

  Mayer bond orders larger than 0.100000
B(  0-C ,  1-C ) :   1.1616 B(  0-C , 19-H ) :   0.9386 B(  0-C , 20-H ) :   0.9330
B(  0-C , 21-H ) :   0.9469 B(  1-C ,  2-O ) :   0.9139 B(  1-C , 22-H ) :   0.9359
B(  1-C , 23-H ) :   0.9185 B(  2-O ,  3-P ) :   1.1174 B(  3-P ,  4-S ) :   1.6294
B(  3-P ,  5-O ) :   1.1198 B(  3-P ,  8-S ) :   0.9562 B(  4-S ,  8-S ) :   0.1068
B(  5-O ,  6-C ) :   0.9014 B(  6-C ,  7-C ) :   1.1676 B(  6-C , 24-H ) :   0.9323
B(  6-C , 25-H ) :   0.8973 B(  7-C , 26-H ) :   0.9313 B(  7-C , 27-H ) :   0.9435
B(  7-C , 28-H ) :   0.9373 B(  8-S ,  9-C ) :   1.0094 B(  9-C , 10-S ) :   1.0149
B(  9-C , 29-H ) :   0.8926 B(  9-C , 30-H ) :   0.8696 B( 10-S , 11-P ) :   0.9279
B( 10-S , 12-S ) :   0.1072 B( 11-P , 12-S ) :   1.6396 B( 11-P , 13-O ) :   1.1541
B( 11-P , 16-O ) :   1.0804 B( 13-O , 14-C ) :   0.8868 B( 14-C , 15-C ) :   1.1561
B( 14-C , 31-H ) :   0.9172 B( 14-C , 32-H ) :   0.9284 B( 15-C , 33-H ) :   0.9413
B( 15-C , 34-H ) :   0.9465 B( 15-C , 35-H ) :   0.9429 B( 16-O , 17-C ) :   0.9114
B( 17-C , 18-C ) :   1.1669 B( 17-C , 36-H ) :   0.9258 B( 17-C , 37-H ) :   0.9328
B( 18-C , 38-H ) :   0.9428 B( 18-C , 39-H ) :   0.9322 B( 18-C , 40-H ) :   0.9347

Dispersion correction           -0.065435317
FINAL SINGLE POINT ENERGY     -2929.514983141039

DIPOLE MOMENT
-------------

Method             : SCF
Type of density    : Electron Density
Multiplicity       :   1
Irrep              :   0
Energy             : -2929.6341735159803648 Eh
Relativity type    :
Basis              : AO
                                X                 Y                 Z
Electronic contribution:      2.585207221      -4.056560859     -10.009030035
Nuclear contribution   :     -2.356222337       3.813309195      11.251696446
                        -----------------------------------------
Total Dipole Moment    :      0.228984883      -0.243251664       1.242666412
                        -----------------------------------------
Magnitude (a.u.)       :      1.286788739
Magnitude (Debye)      :      3.270757044

Rotational constants in cm-1:             0.011424             0.005231             0.004727
Rotational constants in MHz :           342.497105           156.830349           141.722979

                             ****ORCA TERMINATED NORMALLY****
TOTAL RUN TIME: 0 days 0 hours 0 minutes 21 seconds 164 msec
