                         Program Version 6.0.0  -   RELEASE  -
|  1> ! wb97x-v def2-tzvp def2/J RIJCOSX DEFGRID2 scfconv7 GCP(DFT/TZ) printgap
|  2> %output
|  3>     printlevel normal
|  4> end
|  5> * xyz 0 1
|  6> C 5.362502348158586 -2.125996652320409 -1.5423712096792328
|  7> C 4.569212822848113 -0.8845043151800788 -1.2295539146040413
|  8> O 3.42513085893646 -1.300273511955378 -0.4046930965843265
|  9> P 2.3421298212395176 -0.2191041777188681 0.10225274997446829
| 10> S 3.023281904365574 1.4511775893797203 0.834834259038605
| 11> O 1.444893993207702 -1.1323393753462307 1.0682159797941517
| 12> C 1.6678582793499759 -1.1882380448223422 2.521463372568828
| 13> C 2.9045199393267684 -1.9792747252162173 2.868895486455562
| 14> S 1.1140885095297495 -0.05684766896082549 -1.6179316153061734
| 15> C 0.230279617987057 1.51190644080462 -1.2621878436344447
| 16> S -0.9268947073540201 1.5125044134225392 0.1596144640439757
| 17> P -2.4894574938411176 0.27482025254323533 -0.5861601664822088
| 18> S -2.8806085555963548 0.47670818352740374 -2.47921503023182
| 19> O -3.6463853918255333 0.6138996884669515 0.4799206432518674
| 20> C -4.382799220686856 1.8861292434285244 0.42925271910797447
| 21> C -5.509921874166185 1.783631116532706 1.422806216139214
| 22> O -2.1556485214040544 -1.2476993865519155 -0.22068936960957883
| 23> C -1.8632964419453006 -1.6906996663698346 1.1577562500220537
| 24> C -3.0668929121903417 -2.382983118998476 1.745232618241743
| 25> H 6.227346082527417 -1.8483885241359488 -2.1524717778849345
| 26> H 5.724554996209102 -2.5984057959538855 -0.6248136134795579
| 27> H 4.760420691239364 -2.8462946607554023 -2.103063348254017
| 28> H 4.18759295251462 -0.4062306801448629 -2.1378112452342743
| 29> H 5.154310308200704 -0.1584133597729374 -0.6575354648036957
| 30> H 1.7125733721690943 -0.16287810318912738 2.9009865941488777
| 31> H 0.7620666318378778 -1.6688445305311508 2.8973157132053022
| 32> H 3.8149631657123235 -1.4765774638414024 2.5290323325065938
| 33> H 2.959062319989394 -2.080736291796855 3.9578091201769166
| 34> H 2.8641524487958914 -2.9805048770367564 2.4305709418145582
| 35> H -0.3165681059015979 1.756908988153147 -2.177711970504574
| 36> H 0.9596487609751523 2.298416769783743 -1.0485222292426564
| 37> H -3.6899506652250396 2.695001395116804 0.6815256335767588
| 38> H -4.750778885076365 2.0284227238504737 -0.5914930267112689
| 39> H -6.069355074740319 2.724096791644674 1.4209081856353645
| 40> H -6.19379221557238 0.9733922327337692 1.155093543849009
| 41> H -5.12731814967842 1.6117699041355722 2.4328213004485004
| 42> H -1.0179471002871567 -2.3728622143520592 1.0489800617560057
| 43> H -1.5461930417331342 -0.8312177106051307 1.7566098253343905
| 44> H -3.907381141260478 -1.6949343681385953 1.8652810722661475
| 45> H -3.3773557407841475 -3.2236430249646704 1.1183183526882405
| 46> H -2.7962684234748667 -2.7733986399697046 2.731928629975847
| 47> *
| 48>
| 49>                          ****END OF INPUT****

CARTESIAN COORDINATES (ANGSTROEM)
---------------------------------
  C      5.362502   -2.125997   -1.542371
  C      4.569213   -0.884504   -1.229554
  O      3.425131   -1.300274   -0.404693
  P      2.342130   -0.219104    0.102253
  S      3.023282    1.451178    0.834834
  O      1.444894   -1.132339    1.068216
  C      1.667858   -1.188238    2.521463
  C      2.904520   -1.979275    2.868895
  S      1.114089   -0.056848   -1.617932
  C      0.230280    1.511906   -1.262188
  S     -0.926895    1.512504    0.159614
  P     -2.489457    0.274820   -0.586160
  S     -2.880609    0.476708   -2.479215
  O     -3.646385    0.613900    0.479921
  C     -4.382799    1.886129    0.429253
  C     -5.509922    1.783631    1.422806
  O     -2.155649   -1.247699   -0.220689
  C     -1.863296   -1.690700    1.157756
  C     -3.066893   -2.382983    1.745233
  H      6.227346   -1.848389   -2.152472
  H      5.724555   -2.598406   -0.624814
  H      4.760421   -2.846295   -2.103063
  H      4.187593   -0.406231   -2.137811
  H      5.154310   -0.158413   -0.657535
  H      1.712573   -0.162878    2.900987
  H      0.762067   -1.668845    2.897316
  H      3.814963   -1.476577    2.529032
  H      2.959062   -2.080736    3.957809
  H      2.864152   -2.980505    2.430571
  H     -0.316568    1.756909   -2.177712
  H      0.959649    2.298417   -1.048522
  H     -3.689951    2.695001    0.681526
  H     -4.750779    2.028423   -0.591493
  H     -6.069355    2.724097    1.420908
  H     -6.193792    0.973392    1.155094
  H     -5.127318    1.611770    2.432821
  H     -1.017947   -2.372862    1.048980
  H     -1.546193   -0.831218    1.756610
  H     -3.907381   -1.694934    1.865281
  H     -3.377356   -3.223643    1.118318
  H     -2.796268   -2.773399    2.731929

 Total Charge           Charge          ....    0
 Multiplicity           Mult            ....    1
 Number of Electrons    NEL             ....  202
 Basis Dimension        Dim             ....  757

ORBITAL ENERGIES
----------------

  NO   OCC          E(Eh)            E(eV)
   0   2.0000     -94.143090     -2561.7637
   1   2.0000     -94.142929     -2561.7593
   2   2.0000     -94.087053     -2560.2389
   3   2.0000     -94.077354     -2559.9749
   4   2.0000     -82.121952     -2234.6519
   5   2.0000     -82.117283     -2234.5249
   6   2.0000     -21.713287      -590.8486
   7   2.0000     -21.713073      -590.8428
   8   2.0000     -21.712242      -590.8201
   9   2.0000     -21.705911      -590.6479
  10   2.0000     -12.122788      -329.8778
  11   2.0000     -12.120166      -329.8065
  12   2.0000     -12.118208      -329.7532
  13   2.0000     -12.117480      -329.7334
  14   2.0000     -12.114397      -329.6495
  15   2.0000     -12.052644      -327.9691
  16   2.0000     -12.051452      -327.9367
  17   2.0000     -12.051121      -327.9277
  18   2.0000     -12.046206      -327.7939
  19   2.0000      -9.654401      -262.7096
  20   2.0000      -9.654331      -262.7077
  21   2.0000      -9.599970      -261.2285
  22   2.0000      -9.590148      -260.9612
  23   2.0000      -8.235246      -224.0924
  24   2.0000      -8.230392      -223.9603
  25   2.0000      -7.632145      -207.6812
  26   2.0000      -7.631968      -207.6764
  27   2.0000      -7.631392      -207.6607
  28   2.0000      -7.630776      -207.6440
  29   2.0000      -7.629973      -207.6221
  30   2.0000      -7.629138      -207.5994
  31   2.0000      -7.577580      -206.1964
  32   2.0000      -7.575818      -206.1485
  33   2.0000      -7.575734      -206.1462
  34   2.0000      -7.567723      -205.9282
  35   2.0000      -7.566060      -205.8830
  36   2.0000      -7.565894      -205.8784
  37   2.0000      -6.399419      -174.1370
  38   2.0000      -6.399337      -174.1348
  39   2.0000      -6.398870      -174.1221
  40   2.0000      -6.394755      -174.0101
  41   2.0000      -6.394409      -174.0007
  42   2.0000      -6.393841      -173.9852
  43   2.0000      -1.723487       -46.8985
  44   2.0000      -1.721205       -46.8364
  45   2.0000      -1.700402       -46.2703
  46   2.0000      -1.695476       -46.1362
  47   2.0000      -1.330030       -36.1919
  48   2.0000      -1.316314       -35.8187
  49   2.0000      -1.305379       -35.5212
  50   2.0000      -1.292565       -35.1725
  51   2.0000      -1.291806       -35.1518
  52   2.0000      -1.252877       -34.0925
  53   2.0000      -1.229443       -33.4548
  54   2.0000      -1.207682       -32.8627
  55   2.0000      -1.178112       -32.0581
  56   2.0000      -1.165247       -31.7080
  57   2.0000      -1.151766       -31.3411
  58   2.0000      -1.150799       -31.3148
  59   2.0000      -1.119590       -30.4656
  60   2.0000      -1.081493       -29.4289
  61   2.0000      -1.073671       -29.2161
  62   2.0000      -1.050267       -28.5792
  63   2.0000      -1.049529       -28.5591
  64   2.0000      -1.001417       -27.2499
  65   2.0000      -0.990921       -26.9643
  66   2.0000      -0.988789       -26.9063
  67   2.0000      -0.982983       -26.7483
  68   2.0000      -0.981118       -26.6976
  69   2.0000      -0.970762       -26.4158
  70   2.0000      -0.963150       -26.2086
  71   2.0000      -0.959159       -26.1001
  72   2.0000      -0.920269       -25.0418
  73   2.0000      -0.892587       -24.2885
  74   2.0000      -0.883414       -24.0389
  75   2.0000      -0.878424       -23.9031
  76   2.0000      -0.876495       -23.8506
  77   2.0000      -0.870974       -23.7004
  78   2.0000      -0.865491       -23.5512
  79   2.0000      -0.848394       -23.0860
  80   2.0000      -0.847378       -23.0583
  81   2.0000      -0.842656       -22.9298
  82   2.0000      -0.839329       -22.8393
  83   2.0000      -0.833409       -22.6782
  84   2.0000      -0.828516       -22.5451
  85   2.0000      -0.826790       -22.4981
  86   2.0000      -0.825587       -22.4654
  87   2.0000      -0.825050       -22.4507
  88   2.0000      -0.821073       -22.3425
  89   2.0000      -0.793084       -21.5809
  90   2.0000      -0.792247       -21.5581
  91   2.0000      -0.790337       -21.5062
  92   2.0000      -0.788763       -21.4633
  93   2.0000      -0.775211       -21.0946
  94   2.0000      -0.751561       -20.4510
  95   2.0000      -0.689332       -18.7577
  96   2.0000      -0.675145       -18.3716
  97   2.0000      -0.650604       -17.7038
  98   2.0000      -0.644346       -17.5335
  99   2.0000      -0.640440       -17.4273
 100   2.0000      -0.632991       -17.2246
 101   0.0000      -0.316913        -8.6236
 102   0.0000      -0.313178        -8.5220
 103   0.0000      -0.270398        -7.3579
 104   0.0000      -0.241921        -6.5830
 105   0.0000      -0.233349        -6.3497

MULLIKEN ATOMIC CHARGES
-----------------------
   0 C :   -0.313965
   1 C :   -0.054318
   2 O :   -0.309168
   3 P :    0.606520
   4 S :   -0.423186
   5 O :   -0.294708
   6 C :   -0.057202
   7 C :   -0.315020
   8 S :   -0.104810
   9 C :   -0.195136
  10 S :   -0.149055
  11 P :    0.616264
  12 S :   -0.406047
  13 O :   -0.308201
  14 C :   -0.063670
  15 C :   -0.319706
  16 O :   -0.282323
  17 C :   -0.051379
  18 C :   -0.319524
  19 H :    0.114001
  20 H :    0.117203
  21 H :    0.121975
  22 H :    0.115165
  23 H :    0.126158
  24 H :    0.134863
  25 H :    0.105838
  26 H :    0.126713
  27 H :    0.116769
  28 H :    0.118347
  29 H :    0.177753
  30 H :    0.174149
  31 H :    0.116048
  32 H :    0.128074
  33 H :    0.117727
  34 H :    0.123408
  35 H :    0.115403
  36 H :    0.129972
  37 H :    0.108056
  38 H :    0.126898
  39 H :    0.122870
  40 H :    0.107245
Sum of atomic charges:    0.0000000

LOEWDIN ATOMIC CHARGES
----------------------
   0 C :   -0.303404
   1 C :   -0.323391
   2 O :    0.026191
   3 P :   -0.029456
   4 S :   -0.116984
   5 O :    0.030331
   6 C :   -0.320981
   7 C :   -0.309635
   8 S :    0.362260
   9 C :   -0.705871
  10 S :    0.340054
  11 P :   -0.037236
  12 S :   -0.111150
  13 O :    0.026309
  14 C :   -0.319400
  15 C :   -0.304502
  16 O :    0.039162
  17 C :   -0.318840
  18 C :   -0.307260
  19 H :    0.126055
  20 H :    0.121930
  21 H :    0.122950
  22 H :    0.119959
  23 H :    0.121658
  24 H :    0.122529
  25 H :    0.122379
  26 H :    0.121723
  27 H :    0.126488
  28 H :    0.122939
  29 H :    0.115463
  30 H :    0.114572
  31 H :    0.118669
  32 H :    0.123678
  33 H :    0.126777
  34 H :    0.123318
  35 H :    0.120867
  36 H :    0.127690
  37 H :    0.116171
  38 H :    0.120577
  39 H :    0.123951
  40 H :    0.123460

  Mayer bond orders larger than 0.100000
B(  0-C ,  1-C ) :   1.0060 B(  0-C , 19-H ) :   0.9702 B(  0-C , 20-H ) :   0.9754
B(  0-C , 21-H ) :   0.9747 B(  1-C ,  2-O ) :   0.8823 B(  1-C , 22-H ) :   0.9631
B(  1-C , 23-H ) :   0.9655 B(  2-O ,  3-P ) :   1.1851 B(  3-P ,  4-S ) :   1.7886
B(  3-P ,  5-O ) :   1.2114 B(  3-P ,  8-S ) :   1.0995 B(  5-O ,  6-C ) :   0.8739
B(  6-C ,  7-C ) :   1.0066 B(  6-C , 24-H ) :   0.9714 B(  6-C , 25-H ) :   0.9661
B(  7-C , 26-H ) :   0.9696 B(  7-C , 27-H ) :   0.9671 B(  7-C , 28-H ) :   0.9700
B(  8-S ,  9-C ) :   1.0216 B(  9-C , 10-S ) :   1.0104 B(  9-C , 29-H ) :   0.9313
B(  9-C , 30-H ) :   0.9338 B( 10-S , 11-P ) :   1.0478 B( 11-P , 12-S ) :   1.8689
B( 11-P , 13-O ) :   1.1560 B( 11-P , 16-O ) :   1.2420 B( 13-O , 14-C ) :   0.8925
B( 14-C , 15-C ) :   1.0070 B( 14-C , 31-H ) :   0.9655 B( 14-C , 32-H ) :   0.9623
B( 15-C , 33-H ) :   0.9689 B( 15-C , 34-H ) :   0.9753 B( 15-C , 35-H ) :   0.9752
B( 16-O , 17-C ) :   0.8622 B( 17-C , 18-C ) :   0.9860 B( 17-C , 36-H ) :   0.9674
B( 17-C , 37-H ) :   0.9702 B( 18-C , 38-H ) :   0.9740 B( 18-C , 39-H ) :   0.9742
B( 18-C , 40-H ) :   0.9719

FINAL SINGLE POINT ENERGY     -2932.536662571216

DIPOLE MOMENT
-------------

Method             : SCF
Type of density    : Electron Density
Multiplicity       :   1
Irrep              :   0
Energy             : -2932.5664444440158150 Eh
Relativity type    :
Basis              : AO
                                X                 Y                 Z
Electronic contribution:     -0.542911690      11.390804289     -15.857990836
Nuclear contribution   :      0.892065676     -11.792166731      17.318193211
                        -----------------------------------------
Total Dipole Moment    :      0.349153986      -0.401362441       1.460202375
                        -----------------------------------------
Magnitude (a.u.)       :      1.554088573
Magnitude (Debye)      :      3.950179227

Rotational constants in cm-1:             0.012812             0.004290             0.003967
Rotational constants in MHz :           384.087633           128.604478           118.925977

                             ****ORCA TERMINATED NORMALLY****
TOTAL RUN TIME: 0 days 0 hours 14 minutes 41 seconds 610 msec
