                         Program Version 6.0.0  -   RELEASE  -
|  1> ! wb97x-v def2-tzvp def2/J RIJCOSX DEFGRID2 scfconv7 GCP(DFT/TZ) printgap
|  2> %output
|  3>     printlevel normal
|  4> end
|  5> %cpcm
|  6>     smd true
|  7>     smdsolvent "water"
|  8> end
|  9> * xyz 0 1
| 10> C 5.362502348158586 -2.125996652320409 -1.5423712096792328
| 11> C 4.569212822848113 -0.8845043151800788 -1.2295539146040413
| 12> O 3.42513085893646 -1.300273511955378 -0.4046930965843265
| 13> P 2.3421298212395176 -0.2191041777188681 0.10225274997446829
| 14> S 3.023281904365574 1.4511775893797203 0.834834259038605
| 15> O 1.444893993207702 -1.1323393753462307 1.0682159797941517
| 16> C 1.6678582793499759 -1.1882380448223422 2.521463372568828
| 17> C 2.9045199393267684 -1.9792747252162173 2.868895486455562
| 18> S 1.1140885095297495 -0.05684766896082549 -1.6179316153061734
| 19> C 0.230279617987057 1.51190644080462 -1.2621878436344447
| 20> S -0.9268947073540201 1.5125044134225392 0.1596144640439757
| 21> P -2.4894574938411176 0.27482025254323533 -0.5861601664822088
| 22> S -2.8806085555963548 0.47670818352740374 -2.47921503023182
| 23> O -3.6463853918255333 0.6138996884669515 0.4799206432518674
| 24> C -4.382799220686856 1.8861292434285244 0.42925271910797447
| 25> C -5.509921874166185 1.783631116532706 1.422806216139214
| 26> O -2.1556485214040544 -1.2476993865519155 -0.22068936960957883
| 27> C -1.8632964419453006 -1.6906996663698346 1.1577562500220537
| 28> C -3.0668929121903417 -2.382983118998476 1.745232618241743
| 29> H 6.227346082527417 -1.8483885241359488 -2.1524717778849345
| 30> H 5.724554996209102 -2.5984057959538855 -0.6248136134795579
| 31> H 4.760420691239364 -2.8462946607554023 -2.103063348254017
| 32> H 4.18759295251462 -0.4062306801448629 -2.1378112452342743
| 33> H 5.154310308200704 -0.1584133597729374 -0.6575354648036957
| 34> H 1.7125733721690943 -0.16287810318912738 2.9009865941488777
| 35> H 0.7620666318378778 -1.6688445305311508 2.8973157132053022
| 36> H 3.8149631657123235 -1.4765774638414024 2.5290323325065938
| 37> H 2.959062319989394 -2.080736291796855 3.9578091201769166
| 38> H 2.8641524487958914 -2.9805048770367564 2.4305709418145582
| 39> H -0.3165681059015979 1.756908988153147 -2.177711970504574
| 40> H 0.9596487609751523 2.298416769783743 -1.0485222292426564
| 41> H -3.6899506652250396 2.695001395116804 0.6815256335767588
| 42> H -4.750778885076365 2.0284227238504737 -0.5914930267112689
| 43> H -6.069355074740319 2.724096791644674 1.4209081856353645
| 44> H -6.19379221557238 0.9733922327337692 1.155093543849009
| 45> H -5.12731814967842 1.6117699041355722 2.4328213004485004
| 46> H -1.0179471002871567 -2.3728622143520592 1.0489800617560057
| 47> H -1.5461930417331342 -0.8312177106051307 1.7566098253343905
| 48> H -3.907381141260478 -1.6949343681385953 1.8652810722661475
| 49> H -3.3773557407841475 -3.2236430249646704 1.1183183526882405
| 50> H -2.7962684234748667 -2.7733986399697046 2.731928629975847
| 51> *
| 52>
| 53>                          ****END OF INPUT****

CARTESIAN COORDINATES (ANGSTROEM)
---------------------------------
  C      5.362502   -2.125997   -1.542371
  C      4.569213   -0.884504   -1.229554
  O      3.425131   -1.300274   -0.404693
  P      2.342130   -0.219104    0.102253
  S      3.023282    1.451178    0.834834
  O      1.444894   -1.132339    1.068216
  C      1.667858   -1.188238    2.521463
  C      2.904520   -1.979275    2.868895
  S      1.114089   -0.056848   -1.617932
  C      0.230280    1.511906   -1.262188
  S     -0.926895    1.512504    0.159614
  P     -2.489457    0.274820   -0.586160
  S     -2.880609    0.476708   -2.479215
  O     -3.646385    0.613900    0.479921
  C     -4.382799    1.886129    0.429253
  C     -5.509922    1.783631    1.422806
  O     -2.155649   -1.247699   -0.220689
  C     -1.863296   -1.690700    1.157756
  C     -3.066893   -2.382983    1.745233
  H      6.227346   -1.848389   -2.152472
  H      5.724555   -2.598406   -0.624814
  H      4.760421   -2.846295   -2.103063
  H      4.187593   -0.406231   -2.137811
  H      5.154310   -0.158413   -0.657535
  H      1.712573   -0.162878    2.900987
  H      0.762067   -1.668845    2.897316
  H      3.814963   -1.476577    2.529032
  H      2.959062   -2.080736    3.957809
  H      2.864152   -2.980505    2.430571
  H     -0.316568    1.756909   -2.177712
  H      0.959649    2.298417   -1.048522
  H     -3.689951    2.695001    0.681526
  H     -4.750779    2.028423   -0.591493
  H     -6.069355    2.724097    1.420908
  H     -6.193792    0.973392    1.155094
  H     -5.127318    1.611770    2.432821
  H     -1.017947   -2.372862    1.048980
  H     -1.546193   -0.831218    1.756610
  H     -3.907381   -1.694934    1.865281
  H     -3.377356   -3.223643    1.118318
  H     -2.796268   -2.773399    2.731929

 Total Charge           Charge          ....    0
 Multiplicity           Mult            ....    1
 Number of Electrons    NEL             ....  202
 Basis Dimension        Dim             ....  757

ORBITAL ENERGIES
----------------

  NO   OCC          E(Eh)            E(eV)
   0   2.0000     -94.148562     -2561.9126
   1   2.0000     -94.148328     -2561.9063
   2   2.0000     -94.093084     -2560.4030
   3   2.0000     -94.091696     -2560.3652
   4   2.0000     -82.126554     -2234.7772
   5   2.0000     -82.126113     -2234.7651
   6   2.0000     -21.714882      -590.8920
   7   2.0000     -21.713644      -590.8583
   8   2.0000     -21.713469      -590.8535
   9   2.0000     -21.712184      -590.8186
  10   2.0000     -12.123781      -329.9048
  11   2.0000     -12.107555      -329.4633
  12   2.0000     -12.106829      -329.4436
  13   2.0000     -12.106335      -329.4301
  14   2.0000     -12.105952      -329.4197
  15   2.0000     -12.035788      -327.5104
  16   2.0000     -12.035474      -327.5019
  17   2.0000     -12.035153      -327.4932
  18   2.0000     -12.034172      -327.4665
  19   2.0000      -9.659941      -262.8604
  20   2.0000      -9.659702      -262.8539
  21   2.0000      -9.606223      -261.3986
  22   2.0000      -9.604853      -261.3613
  23   2.0000      -8.239727      -224.2144
  24   2.0000      -8.239447      -224.2068
  25   2.0000      -7.637663      -207.8314
  26   2.0000      -7.637404      -207.8243
  27   2.0000      -7.636861      -207.8095
  28   2.0000      -7.636223      -207.7922
  29   2.0000      -7.635455      -207.7713
  30   2.0000      -7.634596      -207.7479
  31   2.0000      -7.583843      -206.3669
  32   2.0000      -7.582454      -206.3290
  33   2.0000      -7.582136      -206.3204
  34   2.0000      -7.582061      -206.3184
  35   2.0000      -7.580848      -206.2854
  36   2.0000      -7.580689      -206.2810
  37   2.0000      -6.404059      -174.2633
  38   2.0000      -6.403755      -174.2550
  39   2.0000      -6.403605      -174.2509
  40   2.0000      -6.403532      -174.2490
  41   2.0000      -6.403245      -174.2412
  42   2.0000      -6.403094      -174.2370
  43   2.0000      -1.725495       -46.9531
  44   2.0000      -1.724026       -46.9131
  45   2.0000      -1.700927       -46.2846
  46   2.0000      -1.700555       -46.2745
  47   2.0000      -1.332134       -36.2492
  48   2.0000      -1.312539       -35.7160
  49   2.0000      -1.300872       -35.3985
  50   2.0000      -1.283938       -34.9377
  51   2.0000      -1.280973       -34.8571
  52   2.0000      -1.253403       -34.1068
  53   2.0000      -1.232491       -33.5378
  54   2.0000      -1.214368       -33.0446
  55   2.0000      -1.173694       -31.9378
  56   2.0000      -1.165072       -31.7032
  57   2.0000      -1.146109       -31.1872
  58   2.0000      -1.142782       -31.0967
  59   2.0000      -1.120456       -30.4892
  60   2.0000      -1.078170       -29.3385
  61   2.0000      -1.070456       -29.1286
  62   2.0000      -1.049791       -28.5663
  63   2.0000      -1.045171       -28.4405
  64   2.0000      -0.999359       -27.1940
  65   2.0000      -0.991574       -26.9821
  66   2.0000      -0.990364       -26.9492
  67   2.0000      -0.980615       -26.6839
  68   2.0000      -0.977555       -26.6006
  69   2.0000      -0.970211       -26.4008
  70   2.0000      -0.961942       -26.1758
  71   2.0000      -0.959591       -26.1118
  72   2.0000      -0.922365       -25.0988
  73   2.0000      -0.890985       -24.2449
  74   2.0000      -0.875587       -23.8259
  75   2.0000      -0.869014       -23.6471
  76   2.0000      -0.867324       -23.6011
  77   2.0000      -0.864646       -23.5282
  78   2.0000      -0.860674       -23.4201
  79   2.0000      -0.841880       -22.9087
  80   2.0000      -0.838069       -22.8050
  81   2.0000      -0.836320       -22.7574
  82   2.0000      -0.833294       -22.6751
  83   2.0000      -0.828260       -22.5381
  84   2.0000      -0.827802       -22.5256
  85   2.0000      -0.811323       -22.0772
  86   2.0000      -0.811236       -22.0749
  87   2.0000      -0.810130       -22.0448
  88   2.0000      -0.809899       -22.0385
  89   2.0000      -0.787193       -21.4206
  90   2.0000      -0.778901       -21.1950
  91   2.0000      -0.777895       -21.1676
  92   2.0000      -0.777217       -21.1491
  93   2.0000      -0.773910       -21.0592
  94   2.0000      -0.757583       -20.6149
  95   2.0000      -0.695178       -18.9168
  96   2.0000      -0.681257       -18.5379
  97   2.0000      -0.657622       -17.8948
  98   2.0000      -0.656199       -17.8561
  99   2.0000      -0.651248       -17.7214
 100   2.0000      -0.648391       -17.6436
 101   0.0000      -0.322974        -8.7886
 102   0.0000      -0.318736        -8.6733
 103   0.0000      -0.274101        -7.4587
 104   0.0000      -0.246207        -6.6996
 105   0.0000      -0.237370        -6.4592

MULLIKEN ATOMIC CHARGES
-----------------------
   0 C :   -0.366358
   1 C :   -0.043581
   2 O :   -0.340818
   3 P :    0.643279
   4 S :   -0.465627
   5 O :   -0.325108
   6 C :   -0.054185
   7 C :   -0.364919
   8 S :   -0.136214
   9 C :   -0.198226
  10 S :   -0.149213
  11 P :    0.629829
  12 S :   -0.461071
  13 O :   -0.321117
  14 C :   -0.052739
  15 C :   -0.366509
  16 O :   -0.334502
  17 C :   -0.041194
  18 C :   -0.374922
  19 H :    0.137352
  20 H :    0.134002
  21 H :    0.133288
  22 H :    0.132909
  23 H :    0.134588
  24 H :    0.137080
  25 H :    0.146251
  26 H :    0.131787
  27 H :    0.143706
  28 H :    0.132629
  29 H :    0.197793
  30 H :    0.199208
  31 H :    0.135423
  32 H :    0.131491
  33 H :    0.140500
  34 H :    0.133665
  35 H :    0.133718
  36 H :    0.143860
  37 H :    0.136554
  38 H :    0.134016
  39 H :    0.132685
  40 H :    0.140688
Sum of atomic charges:    0.0000000

LOEWDIN ATOMIC CHARGES
----------------------
   0 C :   -0.305941
   1 C :   -0.318260
   2 O :    0.014270
   3 P :   -0.023811
   4 S :   -0.141078
   5 O :    0.019088
   6 C :   -0.313601
   7 C :   -0.313041
   8 S :    0.345712
   9 C :   -0.699571
  10 S :    0.344680
  11 P :   -0.035961
  12 S :   -0.152597
  13 O :    0.022715
  14 C :   -0.313972
  15 C :   -0.305458
  16 O :    0.015200
  17 C :   -0.312571
  18 C :   -0.308798
  19 H :    0.133170
  20 H :    0.124897
  21 H :    0.124522
  22 H :    0.125052
  23 H :    0.124644
  24 H :    0.123360
  25 H :    0.134901
  26 H :    0.120620
  27 H :    0.134374
  28 H :    0.125217
  29 H :    0.121166
  30 H :    0.122003
  31 H :    0.124856
  32 H :    0.124954
  33 H :    0.133686
  34 H :    0.124924
  35 H :    0.124946
  36 H :    0.132431
  37 H :    0.123784
  38 H :    0.120617
  39 H :    0.125113
  40 H :    0.133759

  Mayer bond orders larger than 0.100000
B(  0-C ,  1-C ) :   1.0117 B(  0-C , 19-H ) :   0.9658 B(  0-C , 20-H ) :   0.9724
B(  0-C , 21-H ) :   0.9724 B(  1-C ,  2-O ) :   0.8552 B(  1-C , 22-H ) :   0.9587
B(  1-C , 23-H ) :   0.9627 B(  2-O ,  3-P ) :   1.1899 B(  3-P ,  4-S ) :   1.7598
B(  3-P ,  5-O ) :   1.2209 B(  3-P ,  8-S ) :   1.0975 B(  5-O ,  6-C ) :   0.8426
B(  6-C ,  7-C ) :   1.0023 B(  6-C , 24-H ) :   0.9712 B(  6-C , 25-H ) :   0.9594
B(  7-C , 26-H ) :   0.9679 B(  7-C , 27-H ) :   0.9635 B(  7-C , 28-H ) :   0.9684
B(  8-S ,  9-C ) :   1.0053 B(  9-C , 10-S ) :   1.0007 B(  9-C , 29-H ) :   0.9277
B(  9-C , 30-H ) :   0.9293 B( 10-S , 11-P ) :   1.0644 B( 11-P , 12-S ) :   1.8366
B( 11-P , 13-O ) :   1.1768 B( 11-P , 16-O ) :   1.2380 B( 13-O , 14-C ) :   0.8668
B( 14-C , 15-C ) :   1.0148 B( 14-C , 31-H ) :   0.9607 B( 14-C , 32-H ) :   0.9599
B( 15-C , 33-H ) :   0.9641 B( 15-C , 34-H ) :   0.9723 B( 15-C , 35-H ) :   0.9719
B( 16-O , 17-C ) :   0.8193 B( 17-C , 18-C ) :   0.9912 B( 17-C , 36-H ) :   0.9598
B( 17-C , 37-H ) :   0.9670 B( 18-C , 38-H ) :   0.9738 B( 18-C , 39-H ) :   0.9709
B( 18-C , 40-H ) :   0.9680

FINAL SINGLE POINT ENERGY     -2932.549962054071

DIPOLE MOMENT
-------------

Method             : SCF
Type of density    : Electron Density
Multiplicity       :   1
Irrep              :   0
Energy             : -2932.5797439268712878 Eh
Relativity type    :
Basis              : AO
                                X                 Y                 Z
Electronic contribution:     -0.399821647      11.535628658     -15.230953675
Nuclear contribution   :      0.892065676     -11.792166731      17.318193211
                        -----------------------------------------
Total Dipole Moment    :      0.492244029      -0.256538073       2.087239536
                        -----------------------------------------
Magnitude (a.u.)       :      2.159788149
Magnitude (Debye)      :      5.489745197

Rotational constants in cm-1:             0.012812             0.004290             0.003967
Rotational constants in MHz :           384.087633           128.604478           118.925977

                             ****ORCA TERMINATED NORMALLY****
TOTAL RUN TIME: 0 days 0 hours 14 minutes 39 seconds 135 msec
