                         Program Version 6.0.0  -   RELEASE  -
|  1> ! wb97x-v def2-tzvp def2/J RIJCOSX DEFGRID2 scfconv7 GCP(DFT/TZ) printgap
|  2> %output
|  3>     printlevel normal
|  4> end
|  5> * xyz 0 1
|  6> C -2.414076124610797 -0.0846525269953569 -0.006819606988916339
|  7> C -1.8374071078090393 -1.3543030440440262 -0.0033780701918133373
|  8> C -0.4507686248399172 -1.4696185742437344 0.007564242334415988
|  9> C 0.33383835879400214 -0.32520141937671715 0.0184379999841398
| 10> C -0.2170200159200594 0.9670090828888371 0.018096261703089395
| 11> C -1.620650209684761 1.0525365609990174 0.0012299182155545998
| 12> N 0.5606035868160313 2.1069187892026062 0.09620081653726757
| 13> Cl 2.0920523565443907 -0.499933859959594 0.03289797474677892
| 14> H -3.4940083437490257 0.022429187615788125 -0.020111817623912166
| 15> H -2.453094487919314 -2.246781500714618 -0.010847616843876598
| 16> H 0.02394118502007747 -2.444710209131703 0.006733418931839793
| 17> H -2.074593228706833 2.039752198592547 -0.004084107274010503
| 18> H 1.4991303967681697 2.024190831476894 -0.26875208451964844
| 19> H 0.09383204574776202 2.9464562898734545 -0.21660127583381103
| 20> *
| 21>
| 22>                          ****END OF INPUT****

CARTESIAN COORDINATES (ANGSTROEM)
---------------------------------
  C     -2.414076   -0.084653   -0.006820
  C     -1.837407   -1.354303   -0.003378
  C     -0.450769   -1.469619    0.007564
  C      0.333838   -0.325201    0.018438
  C     -0.217020    0.967009    0.018096
  C     -1.620650    1.052537    0.001230
  N      0.560604    2.106919    0.096201
  Cl     2.092052   -0.499934    0.032898
  H     -3.494008    0.022429   -0.020112
  H     -2.453094   -2.246782   -0.010848
  H      0.023941   -2.444710    0.006733
  H     -2.074593    2.039752   -0.004084
  H      1.499130    2.024191   -0.268752
  H      0.093832    2.946456   -0.216601

 Total Charge           Charge          ....    0
 Multiplicity           Mult            ....    1
 Number of Electrons    NEL             ....   66
 Basis Dimension        Dim             ....  290

ORBITAL ENERGIES
----------------

  NO   OCC          E(Eh)            E(eV)
   0   2.0000    -107.143704     -2915.5284
   1   2.0000     -16.540246      -450.0830
   2   2.0000     -12.109078      -329.5048
   3   2.0000     -12.106631      -329.4382
   4   2.0000     -12.062657      -328.2416
   5   2.0000     -12.058764      -328.1357
   6   2.0000     -12.055076      -328.0353
   7   2.0000     -12.049731      -327.8899
   8   2.0000     -11.296711      -307.3991
   9   2.0000      -9.088256      -247.3040
  10   2.0000      -9.085678      -247.2339
  11   2.0000      -9.085609      -247.2320
  12   2.0000      -1.505305       -40.9614
  13   2.0000      -1.421277       -38.6749
  14   2.0000      -1.370270       -37.2869
  15   2.0000      -1.277943       -34.7746
  16   2.0000      -1.265126       -34.4258
  17   2.0000      -1.128147       -30.6984
  18   2.0000      -1.116190       -30.3731
  19   2.0000      -1.025238       -27.8981
  20   2.0000      -1.013940       -27.5907
  21   2.0000      -0.958937       -26.0940
  22   2.0000      -0.945727       -25.7345
  23   2.0000      -0.912927       -24.8420
  24   2.0000      -0.891942       -24.2710
  25   2.0000      -0.848410       -23.0864
  26   2.0000      -0.841039       -22.8858
  27   2.0000      -0.825119       -22.4526
  28   2.0000      -0.803848       -21.8738
  29   2.0000      -0.790975       -21.5235
  30   2.0000      -0.752906       -20.4876
  31   2.0000      -0.651277       -17.7221
  32   2.0000      -0.626941       -17.0599
  33   0.0000      -0.265290        -7.2189
  34   0.0000      -0.254168        -6.9163
  35   0.0000      -0.246188        -6.6991
  36   0.0000      -0.081261        -2.2112
  37   0.0000      -0.074439        -2.0256

MULLIKEN ATOMIC CHARGES
-----------------------
   0 C :   -0.090318
   1 C :   -0.161199
   2 C :   -0.139295
   3 C :    0.017734
   4 C :    0.241598
   5 C :   -0.244909
   6 N :   -0.439253
   7 Cl:   -0.124891
   8 H :    0.118755
   9 H :    0.118225
  10 H :    0.132114
  11 H :    0.108626
  12 H :    0.235601
  13 H :    0.227212
Sum of atomic charges:   -0.0000000

LOEWDIN ATOMIC CHARGES
----------------------
   0 C :   -0.139234
   1 C :   -0.159463
   2 C :   -0.143163
   3 C :   -0.389908
   4 C :   -0.247176
   5 C :   -0.130961
   6 N :   -0.040439
   7 Cl:    0.352972
   8 H :    0.143829
   9 H :    0.141504
  10 H :    0.147621
  11 H :    0.141911
  12 H :    0.158177
  13 H :    0.164329

  Mayer bond orders larger than 0.100000
B(  0-C ,  1-C ) :   1.4176 B(  0-C ,  5-C ) :   1.4938 B(  0-C ,  8-H ) :   0.9703
B(  1-C ,  2-C ) :   1.4281 B(  1-C ,  9-H ) :   0.9737 B(  2-C ,  3-C ) :   1.4162
B(  2-C , 10-H ) :   0.9642 B(  3-C ,  4-C ) :   1.3143 B(  3-C ,  7-Cl) :   1.0050
B(  4-C ,  5-C ) :   1.3534 B(  4-C ,  6-N ) :   1.1151 B(  5-C , 11-H ) :   0.9598
B(  6-N , 12-H ) :   0.9117 B(  6-N , 13-H ) :   0.9249

FINAL SINGLE POINT ENERGY      -747.166467967397

DIPOLE MOMENT
-------------

Method             : SCF
Type of density    : Electron Density
Multiplicity       :   1
Irrep              :   0
Energy             :  -747.1739046269972278 Eh
Relativity type    :
Basis              : AO
                                X                 Y                 Z
Electronic contribution:      8.409034032      -2.370023220       0.235281823
Nuclear contribution   :     -8.848180273       2.893893564      -0.606889188
                        -----------------------------------------
Total Dipole Moment    :     -0.439146242       0.523870343      -0.371607366
                        -----------------------------------------
Magnitude (a.u.)       :      0.778062718
Magnitude (Debye)      :      1.977678259

Rotational constants in cm-1:             0.097266             0.050894             0.033440
Rotational constants in MHz :          2915.963524          1525.771895          1002.514141

                             ****ORCA TERMINATED NORMALLY****
TOTAL RUN TIME: 0 days 0 hours 2 minutes 19 seconds 529 msec
