                         Program Version 6.0.0  -   RELEASE  -
|  1> ! wb97x-v def2-tzvp def2/J RIJCOSX DEFGRID2 scfconv7 GCP(DFT/TZ) printgap
|  2> %output
|  3>     printlevel normal
|  4> end
|  5> %cpcm
|  6>     smd true
|  7>     smdsolvent "water"
|  8> end
|  9> * xyz 0 1
| 10> C -2.414076124610797 -0.0846525269953569 -0.006819606988916339
| 11> C -1.8374071078090393 -1.3543030440440262 -0.0033780701918133373
| 12> C -0.4507686248399172 -1.4696185742437344 0.007564242334415988
| 13> C 0.33383835879400214 -0.32520141937671715 0.0184379999841398
| 14> C -0.2170200159200594 0.9670090828888371 0.018096261703089395
| 15> C -1.620650209684761 1.0525365609990174 0.0012299182155545998
| 16> N 0.5606035868160313 2.1069187892026062 0.09620081653726757
| 17> Cl 2.0920523565443907 -0.499933859959594 0.03289797474677892
| 18> H -3.4940083437490257 0.022429187615788125 -0.020111817623912166
| 19> H -2.453094487919314 -2.246781500714618 -0.010847616843876598
| 20> H 0.02394118502007747 -2.444710209131703 0.006733418931839793
| 21> H -2.074593228706833 2.039752198592547 -0.004084107274010503
| 22> H 1.4991303967681697 2.024190831476894 -0.26875208451964844
| 23> H 0.09383204574776202 2.9464562898734545 -0.21660127583381103
| 24> *
| 25>
| 26>                          ****END OF INPUT****

CARTESIAN COORDINATES (ANGSTROEM)
---------------------------------
  C     -2.414076   -0.084653   -0.006820
  C     -1.837407   -1.354303   -0.003378
  C     -0.450769   -1.469619    0.007564
  C      0.333838   -0.325201    0.018438
  C     -0.217020    0.967009    0.018096
  C     -1.620650    1.052537    0.001230
  N      0.560604    2.106919    0.096201
  Cl     2.092052   -0.499934    0.032898
  H     -3.494008    0.022429   -0.020112
  H     -2.453094   -2.246782   -0.010848
  H      0.023941   -2.444710    0.006733
  H     -2.074593    2.039752   -0.004084
  H      1.499130    2.024191   -0.268752
  H      0.093832    2.946456   -0.216601

 Total Charge           Charge          ....    0
 Multiplicity           Mult            ....    1
 Number of Electrons    NEL             ....   66
 Basis Dimension        Dim             ....  290

ORBITAL ENERGIES
----------------

  NO   OCC          E(Eh)            E(eV)
   0   2.0000    -107.147164     -2915.6226
   1   2.0000     -16.529331      -449.7860
   2   2.0000     -12.107976      -329.4748
   3   2.0000     -12.103928      -329.3646
   4   2.0000     -12.060107      -328.1722
   5   2.0000     -12.053971      -328.0052
   6   2.0000     -12.049016      -327.8704
   7   2.0000     -12.045564      -327.7765
   8   2.0000     -11.300255      -307.4956
   9   2.0000      -9.091789      -247.4001
  10   2.0000      -9.089243      -247.3309
  11   2.0000      -9.089188      -247.3294
  12   2.0000      -1.496802       -40.7301
  13   2.0000      -1.422793       -38.7162
  14   2.0000      -1.368891       -37.2494
  15   2.0000      -1.274789       -34.6888
  16   2.0000      -1.262575       -34.3564
  17   2.0000      -1.123502       -30.5720
  18   2.0000      -1.111948       -30.2576
  19   2.0000      -1.018686       -27.7199
  20   2.0000      -1.005031       -27.3483
  21   2.0000      -0.956278       -26.0216
  22   2.0000      -0.939299       -25.5596
  23   2.0000      -0.909570       -24.7507
  24   2.0000      -0.886599       -24.1256
  25   2.0000      -0.845090       -22.9961
  26   2.0000      -0.837353       -22.7855
  27   2.0000      -0.819947       -22.3119
  28   2.0000      -0.804034       -21.8789
  29   2.0000      -0.793559       -21.5938
  30   2.0000      -0.751109       -20.4387
  31   2.0000      -0.650666       -17.7055
  32   2.0000      -0.624359       -16.9897
  33   0.0000      -0.266779        -7.2594
  34   0.0000      -0.253211        -6.8902
  35   0.0000      -0.244075        -6.6416
  36   0.0000      -0.078540        -2.1372
  37   0.0000      -0.063894        -1.7386

MULLIKEN ATOMIC CHARGES
-----------------------
   0 C :   -0.115719
   1 C :   -0.223264
   2 C :   -0.170052
   3 C :    0.001437
   4 C :    0.223961
   5 C :   -0.299376
   6 N :   -0.484692
   7 Cl:   -0.136263
   8 H :    0.163445
   9 H :    0.161887
  10 H :    0.168330
  11 H :    0.161912
  12 H :    0.266694
  13 H :    0.281701
Sum of atomic charges:   -0.0000000

LOEWDIN ATOMIC CHARGES
----------------------
   0 C :   -0.146574
   1 C :   -0.171167
   2 C :   -0.152389
   3 C :   -0.402777
   4 C :   -0.255807
   5 C :   -0.132362
   6 N :   -0.045289
   7 Cl:    0.340891
   8 H :    0.153827
   9 H :    0.150682
  10 H :    0.156146
  11 H :    0.156037
  12 H :    0.166743
  13 H :    0.182041

  Mayer bond orders larger than 0.100000
B(  0-C ,  1-C ) :   1.3871 B(  0-C ,  5-C ) :   1.4575 B(  0-C ,  8-H ) :   0.9713
B(  1-C ,  2-C ) :   1.4177 B(  1-C ,  9-H ) :   0.9778 B(  2-C ,  3-C ) :   1.3829
B(  2-C , 10-H ) :   0.9672 B(  3-C ,  4-C ) :   1.2948 B(  3-C ,  7-Cl) :   1.0157
B(  4-C ,  5-C ) :   1.3366 B(  4-C ,  6-N ) :   1.1562 B(  5-C , 11-H ) :   0.9685
B(  6-N , 12-H ) :   0.9034 B(  6-N , 13-H ) :   0.9009

FINAL SINGLE POINT ENERGY      -747.173703501027

DIPOLE MOMENT
-------------

Method             : SCF
Type of density    : Electron Density
Multiplicity       :   1
Irrep              :   0
Energy             :  -747.1811401606271374 Eh
Relativity type    :
Basis              : AO
                                X                 Y                 Z
Electronic contribution:      8.238226963      -2.160501682       0.099290667
Nuclear contribution   :     -8.848180273       2.893893564      -0.606889188
                        -----------------------------------------
Total Dipole Moment    :     -0.609953311       0.733391882      -0.507598522
                        -----------------------------------------
Magnitude (a.u.)       :      1.080538270
Magnitude (Debye)      :      2.746510014

Rotational constants in cm-1:             0.097266             0.050894             0.033440
Rotational constants in MHz :          2915.963524          1525.771895          1002.514141

                             ****ORCA TERMINATED NORMALLY****
TOTAL RUN TIME: 0 days 0 hours 2 minutes 12 seconds 326 msec
