                         Program Version 6.0.0  -   RELEASE  -
|  1> ! pbe def2-sv(p) def2/J RI DEFGRID1 loosescf d4 GCP(DFT/SV(P)) printgap
|  2> %output
|  3>     printlevel normal
|  4> end
|  5> * xyz 0 1
|  6> C 3.21177881 0.3684389033 3.3539921117
|  7> C 1.9001592103 -0.151472535 2.8053926028
|  8> O 1.6344314739 0.3990304226 1.4987492858
|  9> P 2.4068203056 -0.0941686357 0.2058912946
| 10> S 3.0433374676 -1.9504320555 0.3221492861
| 11> O 3.4913986881 1.054321177 0.0502073722
| 12> C 4.1762165989 1.4033941336 -1.1660762112
| 13> C 4.8146078405 0.2108405072 -1.8477484374
| 14> S 1.0106330736 0.3193660233 -1.3334717285
| 15> C 0.0723307755 -1.2173163378 -1.1428477539
| 16> S -1.0534625724 -1.1716877515 0.266943539
| 17> P -2.4499521883 0.1992711076 -0.5975813492
| 18> S -2.7158936515 -0.0793106089 -2.5179378199
| 19> O -1.99447488 1.6724234318 -0.2830740466
| 20> C -2.206473544 2.3877217263 0.9599289167
| 21> C -1.4517884144 1.7694075904 2.1169715427
| 22> O -3.7363589106 0.027076617 0.3141890198
| 23> C -4.5505383796 -1.1620773989 0.2268767094
| 24> C -5.8822181422 -0.8620606297 0.8840102974
| 25> H 3.3630223485 -0.0157689722 4.3576954625
| 26> H 4.0305531028 0.0348054326 2.7170983297
| 27> H 3.2070574714 1.454766695 3.375944478
| 28> H 1.048533742 0.1637160513 3.4091456544
| 29> H 1.9156160107 -1.2433841729 2.7281840226
| 30> H 3.4583918309 1.8907283942 -1.832161879
| 31> H 4.9269250813 2.1253685311 -0.8393561332
| 32> H 4.0468616764 -0.4824656784 -2.1895861387
| 33> H 5.3890940972 0.5498760575 -2.703831804
| 34> H 5.4717443614 -0.3146692244 -1.1587402255
| 35> H 0.7632216597 -2.0457936807 -0.9791412711
| 36> H -0.5058089045 -1.3509854274 -2.0580397686
| 37> H -1.8415912099 3.3903393953 0.7313687766
| 38> H -3.279131648 2.415555337 1.1584844907
| 39> H -1.5695998276 2.3988254037 2.9936438456
| 40> H -1.8415309266 0.7766256327 2.3351672025
| 41> H -0.3951490617 1.687222466 1.8733211676
| 42> H -4.6722790063 -1.423180766 -0.8294056661
| 43> H -4.0237910009 -1.9725144999 0.7373644736
| 44> H -6.3795939335 -0.0470413434 0.365730558
| 45> H -6.5069230437 -1.7479802521 0.8385902304
| 46> H -5.7314341646 -0.5816742386 1.9222864747
| 47> *
| 48>
| 49>                          ****END OF INPUT****

CARTESIAN COORDINATES (ANGSTROEM)
---------------------------------
  C      3.211779    0.368439    3.353992
  C      1.900159   -0.151473    2.805393
  O      1.634431    0.399030    1.498749
  P      2.406820   -0.094169    0.205891
  S      3.043337   -1.950432    0.322149
  O      3.491399    1.054321    0.050207
  C      4.176217    1.403394   -1.166076
  C      4.814608    0.210841   -1.847748
  S      1.010633    0.319366   -1.333472
  C      0.072331   -1.217316   -1.142848
  S     -1.053463   -1.171688    0.266944
  P     -2.449952    0.199271   -0.597581
  S     -2.715894   -0.079311   -2.517938
  O     -1.994475    1.672423   -0.283074
  C     -2.206474    2.387722    0.959929
  C     -1.451788    1.769408    2.116972
  O     -3.736359    0.027077    0.314189
  C     -4.550538   -1.162077    0.226877
  C     -5.882218   -0.862061    0.884010
  H      3.363022   -0.015769    4.357695
  H      4.030553    0.034805    2.717098
  H      3.207057    1.454767    3.375944
  H      1.048534    0.163716    3.409146
  H      1.915616   -1.243384    2.728184
  H      3.458392    1.890728   -1.832162
  H      4.926925    2.125369   -0.839356
  H      4.046862   -0.482466   -2.189586
  H      5.389094    0.549876   -2.703832
  H      5.471744   -0.314669   -1.158740
  H      0.763222   -2.045794   -0.979141
  H     -0.505809   -1.350985   -2.058040
  H     -1.841591    3.390339    0.731369
  H     -3.279132    2.415555    1.158484
  H     -1.569600    2.398825    2.993644
  H     -1.841531    0.776626    2.335167
  H     -0.395149    1.687222    1.873321
  H     -4.672279   -1.423181   -0.829406
  H     -4.023791   -1.972514    0.737364
  H     -6.379594   -0.047041    0.365731
  H     -6.506923   -1.747980    0.838590
  H     -5.731434   -0.581674    1.922286

 Total Charge           Charge          ....    0
 Multiplicity           Mult            ....    1
 Number of Electrons    NEL             ....  202
 Basis Dimension        Dim             ....  334

ORBITAL ENERGIES
----------------

  NO   OCC          E(Eh)            E(eV)
   0   2.0000     -88.042146     -2395.7486
   1   2.0000     -88.038494     -2395.6492
   2   2.0000     -87.988345     -2394.2846
   3   2.0000     -87.982224     -2394.1180
   4   2.0000     -76.428445     -2079.7237
   5   2.0000     -76.425885     -2079.6540
   6   2.0000     -18.799909      -511.5715
   7   2.0000     -18.795817      -511.4602
   8   2.0000     -18.791271      -511.3365
   9   2.0000     -18.790775      -511.3230
  10   2.0000      -9.959971      -271.0246
  11   2.0000      -9.956944      -270.9422
  12   2.0000      -9.956096      -270.9192
  13   2.0000      -9.950485      -270.7665
  14   2.0000      -9.948587      -270.7148
  15   2.0000      -9.892291      -269.1829
  16   2.0000      -9.884515      -268.9713
  17   2.0000      -9.884194      -268.9626
  18   2.0000      -9.883854      -268.9533
  19   2.0000      -7.687256      -209.1809
  20   2.0000      -7.683498      -209.0786
  21   2.0000      -7.633256      -207.7115
  22   2.0000      -7.627555      -207.5563
  23   2.0000      -6.425876      -174.8570
  24   2.0000      -6.423401      -174.7896
  25   2.0000      -5.714986      -155.5127
  26   2.0000      -5.711868      -155.4278
  27   2.0000      -5.711161      -155.4086
  28   2.0000      -5.708186      -155.3276
  29   2.0000      -5.704281      -155.2214
  30   2.0000      -5.700557      -155.1200
  31   2.0000      -5.662083      -154.0731
  32   2.0000      -5.656535      -153.9221
  33   2.0000      -5.653988      -153.8528
  34   2.0000      -5.653411      -153.8371
  35   2.0000      -5.648263      -153.6970
  36   2.0000      -5.647519      -153.6768
  37   2.0000      -4.648390      -126.4891
  38   2.0000      -4.647766      -126.4722
  39   2.0000      -4.646547      -126.4390
  40   2.0000      -4.646273      -126.4315
  41   2.0000      -4.644940      -126.3953
  42   2.0000      -4.643521      -126.3566
  43   2.0000      -0.991300       -26.9746
  44   2.0000      -0.988983       -26.9116
  45   2.0000      -0.947880       -25.7931
  46   2.0000      -0.946739       -25.7621
  47   2.0000      -0.763329       -20.7712
  48   2.0000      -0.722730       -19.6665
  49   2.0000      -0.711389       -19.3579
  50   2.0000      -0.694758       -18.9053
  51   2.0000      -0.688680       -18.7399
  52   2.0000      -0.675781       -18.3889
  53   2.0000      -0.650441       -17.6994
  54   2.0000      -0.635786       -17.3006
  55   2.0000      -0.599482       -16.3127
  56   2.0000      -0.592921       -16.1342
  57   2.0000      -0.575684       -15.6652
  58   2.0000      -0.575010       -15.6468
  59   2.0000      -0.560221       -15.2444
  60   2.0000      -0.509319       -13.8593
  61   2.0000      -0.495878       -13.4935
  62   2.0000      -0.476074       -12.9546
  63   2.0000      -0.471861       -12.8400
  64   2.0000      -0.461856       -12.5677
  65   2.0000      -0.447373       -12.1736
  66   2.0000      -0.443126       -12.0581
  67   2.0000      -0.438280       -11.9262
  68   2.0000      -0.431651       -11.7458
  69   2.0000      -0.419198       -11.4070
  70   2.0000      -0.410868       -11.1803
  71   2.0000      -0.400839       -10.9074
  72   2.0000      -0.392736       -10.6869
  73   2.0000      -0.387199       -10.5362
  74   2.0000      -0.376397       -10.2423
  75   2.0000      -0.376208       -10.2371
  76   2.0000      -0.370892       -10.0925
  77   2.0000      -0.357866        -9.7380
  78   2.0000      -0.351847        -9.5742
  79   2.0000      -0.351482        -9.5643
  80   2.0000      -0.348081        -9.4718
  81   2.0000      -0.347606        -9.4588
  82   2.0000      -0.344724        -9.3804
  83   2.0000      -0.339511        -9.2386
  84   2.0000      -0.335878        -9.1397
  85   2.0000      -0.323058        -8.7909
  86   2.0000      -0.312833        -8.5126
  87   2.0000      -0.305873        -8.3232
  88   2.0000      -0.298807        -8.1310
  89   2.0000      -0.294735        -8.0201
  90   2.0000      -0.288190        -7.8421
  91   2.0000      -0.277223        -7.5436
  92   2.0000      -0.275022        -7.4837
  93   2.0000      -0.265261        -7.2181
  94   2.0000      -0.254302        -6.9199
  95   2.0000      -0.233462        -6.3528
  96   2.0000      -0.219601        -5.9757
  97   2.0000      -0.209827        -5.7097
  98   2.0000      -0.201815        -5.4917
  99   2.0000      -0.201675        -5.4878
 100   2.0000      -0.194799        -5.3008
 101   0.0000      -0.045542        -1.2393
 102   0.0000      -0.024815        -0.6753
 103   0.0000      -0.005262        -0.1432
 104   0.0000       0.000506         0.0138
 105   0.0000       0.015939         0.4337

MULLIKEN ATOMIC CHARGES
-----------------------
   0 C :   -0.300899
   1 C :   -0.008984
   2 O :   -0.355875
   3 P :    0.611652
   4 S :   -0.333353
   5 O :   -0.373930
   6 C :   -0.012551
   7 C :   -0.311358
   8 S :   -0.072739
   9 C :   -0.379796
  10 S :   -0.100056
  11 P :    0.617313
  12 S :   -0.320550
  13 O :   -0.354367
  14 C :    0.011732
  15 C :   -0.353594
  16 O :   -0.390701
  17 C :   -0.011354
  18 C :   -0.281106
  19 H :    0.111091
  20 H :    0.122897
  21 H :    0.113650
  22 H :    0.105929
  23 H :    0.114409
  24 H :    0.117717
  25 H :    0.109952
  26 H :    0.127640
  27 H :    0.112998
  28 H :    0.125932
  29 H :    0.191923
  30 H :    0.198764
  31 H :    0.109751
  32 H :    0.108367
  33 H :    0.108120
  34 H :    0.117617
  35 H :    0.156972
  36 H :    0.109733
  37 H :    0.106134
  38 H :    0.121812
  39 H :    0.114850
  40 H :    0.114256
Sum of atomic charges:   -0.0000000

LOEWDIN ATOMIC CHARGES
----------------------
   0 C :   -0.362306
   1 C :   -0.120438
   2 O :   -0.234574
   3 P :    0.575758
   4 S :   -0.316595
   5 O :   -0.243912
   6 C :   -0.113281
   7 C :   -0.369752
   8 S :    0.088565
   9 C :   -0.491362
  10 S :    0.066807
  11 P :    0.571288
  12 S :   -0.313303
  13 O :   -0.233184
  14 C :   -0.104937
  15 C :   -0.375870
  16 O :   -0.249993
  17 C :   -0.119255
  18 C :   -0.350352
  19 H :    0.129943
  20 H :    0.123505
  21 H :    0.125149
  22 H :    0.115955
  23 H :    0.109050
  24 H :    0.111729
  25 H :    0.121851
  26 H :    0.122182
  27 H :    0.130843
  28 H :    0.129367
  29 H :    0.126830
  30 H :    0.128056
  31 H :    0.122938
  32 H :    0.113288
  33 H :    0.128580
  34 H :    0.115868
  35 H :    0.132227
  36 H :    0.111540
  37 H :    0.110205
  38 H :    0.129501
  39 H :    0.132540
  40 H :    0.125547

  Mayer bond orders larger than 0.100000
B(  0-C ,  1-C ) :   1.1640 B(  0-C , 19-H ) :   0.9400 B(  0-C , 20-H ) :   0.9366
B(  0-C , 21-H ) :   0.9473 B(  1-C ,  2-O ) :   0.8965 B(  1-C , 22-H ) :   0.9303
B(  1-C , 23-H ) :   0.9102 B(  2-O ,  3-P ) :   1.1164 B(  3-P ,  4-S ) :   1.5899
B(  3-P ,  5-O ) :   1.1147 B(  3-P ,  8-S ) :   0.9599 B(  4-S ,  8-S ) :   0.1099
B(  5-O ,  6-C ) :   0.9115 B(  6-C ,  7-C ) :   1.1649 B(  6-C , 24-H ) :   0.9281
B(  6-C , 25-H ) :   0.9341 B(  7-C , 26-H ) :   0.9326 B(  7-C , 27-H ) :   0.9348
B(  7-C , 28-H ) :   0.9426 B(  8-S ,  9-C ) :   1.0060 B(  9-C , 10-S ) :   1.0113
B(  9-C , 29-H ) :   0.8648 B(  9-C , 30-H ) :   0.8640 B( 10-S , 11-P ) :   0.9391
B( 10-S , 12-S ) :   0.1138 B( 11-P , 12-S ) :   1.6451 B( 11-P , 13-O ) :   1.1475
B( 11-P , 16-O ) :   1.0762 B( 13-O , 14-C ) :   0.8970 B( 14-C , 15-C ) :   1.1704
B( 14-C , 31-H ) :   0.9337 B( 14-C , 32-H ) :   0.9282 B( 15-C , 33-H ) :   0.9350
B( 15-C , 34-H ) :   0.9399 B( 15-C , 35-H ) :   0.9204 B( 16-O , 17-C ) :   0.8987
B( 17-C , 18-C ) :   1.1599 B( 17-C , 36-H ) :   0.9099 B( 17-C , 37-H ) :   0.9285
B( 18-C , 38-H ) :   0.9506 B( 18-C , 39-H ) :   0.9415 B( 18-C , 40-H ) :   0.9513

Dispersion correction           -0.064384088
FINAL SINGLE POINT ENERGY     -2929.518821055732

DIPOLE MOMENT
-------------

Method             : SCF
Type of density    : Electron Density
Multiplicity       :   1
Irrep              :   0
Energy             : -2929.6397726831064574 Eh
Relativity type    :
Basis              : AO
                                X                 Y                 Z
Electronic contribution:     -0.979093531      -4.621806576     -15.000924914
Nuclear contribution   :      0.841478699       5.348489497      16.373355024
                        -----------------------------------------
Total Dipole Moment    :     -0.137614832       0.726682921       1.372430110
                        -----------------------------------------
Magnitude (a.u.)       :      1.559028645
Magnitude (Debye)      :      3.962735892

Rotational constants in cm-1:             0.013414             0.004559             0.004181
Rotational constants in MHz :           402.130028           136.670394           125.335355

                             ****ORCA TERMINATED NORMALLY****
TOTAL RUN TIME: 0 days 0 hours 0 minutes 21 seconds 230 msec
