                         Program Version 6.0.0  -   RELEASE  -
|  1> ! pbe def2-sv(p) def2/J RI DEFGRID1 loosescf d4 GCP(DFT/SV(P)) printgap
|  2> %output
|  3>     printlevel normal
|  4> end
|  5> * xyz 0 1
|  6> C 2.8533944792 -0.7108446225 -2.6574253051
|  7> C 1.6630561855 0.0297832537 -2.0853962538
|  8> O 1.2735808945 -0.5005710767 -0.8055421632
|  9> P 2.1858174709 -0.2409161202 0.4979812332
| 10> S 3.2302460239 1.4088460893 0.5025000362
| 11> O 3.1404403155 -1.4997889224 0.6202084669
| 12> C 2.6822789074 -2.8732955306 0.5443816931
| 13> C 2.5747191597 -3.4817864612 1.9281002871
| 14> S 0.7609532621 -0.5475018479 2.012922485
| 15> C -0.0794963907 1.0703760874 2.0038281991
| 16> S -0.295742063 1.8198213595 0.3691098946
| 17> P -1.8238396444 0.5760854419 -0.4277130199
| 18> S -1.9808916895 0.6522165648 -2.37754521
| 19> O -3.1116726952 0.9844602222 0.4235683215
| 20> C -3.7689044373 2.2509418217 0.2391893261
| 21> C -4.9095577093 2.1313120213 -0.7531268537
| 22> O -1.5129783111 -0.8309942923 0.2118961147
| 23> C -1.8584715949 -2.0654534048 -0.4470071556
| 24> C -3.3543778811 -2.2938242428 -0.4250727617
| 25> H 2.6333307164 -1.7715646304 -2.7471141328
| 26> H 3.0855219785 -0.307198277 -3.6378677631
| 27> H 3.7165032605 -0.5770950897 -2.0053050012
| 28> H 0.7735162977 -0.0798044261 -2.7098122573
| 29> H 1.8889491263 1.0949888466 -1.9645821046
| 30> H 1.7244032191 -2.9006986568 0.018564736
| 31> H 3.4444966582 -3.3803203327 -0.0501929394
| 32> H 3.5241505129 -3.3874575126 2.4475922817
| 33> H 1.8062011347 -2.9776947573 2.5103026402
| 34> H 2.3204042016 -4.5328333388 1.8335091488
| 35> H 0.5229510856 1.7819318069 2.5656333034
| 36> H -1.0478255278 0.9096938498 2.4727298252
| 37> H -4.1352867497 2.5220360199 1.2312469015
| 38> H -3.0349296081 2.9928814195 -0.0936140258
| 39> H -5.4195601457 3.0861609478 -0.8289786486
| 40> H -4.5292244089 1.8548417042 -1.7341002961
| 41> H -5.6133069458 1.3727650147 -0.4222701768
| 42> H -1.4849540998 -2.0316252703 -1.4752956835
| 43> H -1.3206820256 -2.8244081066 0.1232370661
| 44> H -3.7239223378 -2.2602823144 0.5961263658
| 45> H -3.8500916636 -1.516773692 -1.005881128
| 46> H -3.5798337221 -3.261238768 -0.8623730395
| 47> *
| 48>
| 49>                          ****END OF INPUT****

CARTESIAN COORDINATES (ANGSTROEM)
---------------------------------
  C      2.853394   -0.710845   -2.657425
  C      1.663056    0.029783   -2.085396
  O      1.273581   -0.500571   -0.805542
  P      2.185817   -0.240916    0.497981
  S      3.230246    1.408846    0.502500
  O      3.140440   -1.499789    0.620208
  C      2.682279   -2.873296    0.544382
  C      2.574719   -3.481786    1.928100
  S      0.760953   -0.547502    2.012922
  C     -0.079496    1.070376    2.003828
  S     -0.295742    1.819821    0.369110
  P     -1.823840    0.576085   -0.427713
  S     -1.980892    0.652217   -2.377545
  O     -3.111673    0.984460    0.423568
  C     -3.768904    2.250942    0.239189
  C     -4.909558    2.131312   -0.753127
  O     -1.512978   -0.830994    0.211896
  C     -1.858472   -2.065453   -0.447007
  C     -3.354378   -2.293824   -0.425073
  H      2.633331   -1.771565   -2.747114
  H      3.085522   -0.307198   -3.637868
  H      3.716503   -0.577095   -2.005305
  H      0.773516   -0.079804   -2.709812
  H      1.888949    1.094989   -1.964582
  H      1.724403   -2.900699    0.018565
  H      3.444497   -3.380320   -0.050193
  H      3.524151   -3.387458    2.447592
  H      1.806201   -2.977695    2.510303
  H      2.320404   -4.532833    1.833509
  H      0.522951    1.781932    2.565633
  H     -1.047826    0.909694    2.472730
  H     -4.135287    2.522036    1.231247
  H     -3.034930    2.992881   -0.093614
  H     -5.419560    3.086161   -0.828979
  H     -4.529224    1.854842   -1.734100
  H     -5.613307    1.372765   -0.422270
  H     -1.484954   -2.031625   -1.475296
  H     -1.320682   -2.824408    0.123237
  H     -3.723922   -2.260282    0.596126
  H     -3.850092   -1.516774   -1.005881
  H     -3.579834   -3.261239   -0.862373

 Total Charge           Charge          ....    0
 Multiplicity           Mult            ....    1
 Number of Electrons    NEL             ....  202
 Basis Dimension        Dim             ....  334

ORBITAL ENERGIES
----------------

  NO   OCC          E(Eh)            E(eV)
   0   2.0000     -88.045486     -2395.8395
   1   2.0000     -88.040011     -2395.6905
   2   2.0000     -87.994121     -2394.4418
   3   2.0000     -87.978712     -2394.0225
   4   2.0000     -76.430245     -2079.7727
   5   2.0000     -76.422426     -2079.5599
   6   2.0000     -18.794410      -511.4219
   7   2.0000     -18.794090      -511.4132
   8   2.0000     -18.793014      -511.3839
   9   2.0000     -18.783570      -511.1269
  10   2.0000      -9.962550      -271.0948
  11   2.0000      -9.959345      -271.0075
  12   2.0000      -9.956944      -270.9422
  13   2.0000      -9.956775      -270.9376
  14   2.0000      -9.935554      -270.3602
  15   2.0000      -9.890848      -269.1437
  16   2.0000      -9.887391      -269.0496
  17   2.0000      -9.883532      -268.9446
  18   2.0000      -9.877149      -268.7709
  19   2.0000      -7.690018      -209.2560
  20   2.0000      -7.685304      -209.1278
  21   2.0000      -7.639059      -207.8694
  22   2.0000      -7.624097      -207.4622
  23   2.0000      -6.427802      -174.9094
  24   2.0000      -6.419743      -174.6901
  25   2.0000      -5.718362      -155.6045
  26   2.0000      -5.714318      -155.4945
  27   2.0000      -5.713387      -155.4692
  28   2.0000      -5.709881      -155.3738
  29   2.0000      -5.706744      -155.2884
  30   2.0000      -5.701911      -155.1569
  31   2.0000      -5.667878      -154.2308
  32   2.0000      -5.659858      -154.0126
  33   2.0000      -5.659133      -153.9928
  34   2.0000      -5.653222      -153.8320
  35   2.0000      -5.644708      -153.6003
  36   2.0000      -5.644023      -153.5817
  37   2.0000      -4.650233      -126.5393
  38   2.0000      -4.649771      -126.5267
  39   2.0000      -4.648242      -126.4851
  40   2.0000      -4.642698      -126.3342
  41   2.0000      -4.641258      -126.2951
  42   2.0000      -4.640182      -126.2658
  43   2.0000      -0.991480       -26.9795
  44   2.0000      -0.980738       -26.6872
  45   2.0000      -0.949230       -25.8299
  46   2.0000      -0.938102       -25.5271
  47   2.0000      -0.764946       -20.8152
  48   2.0000      -0.722332       -19.6556
  49   2.0000      -0.710245       -19.3268
  50   2.0000      -0.689109       -18.7516
  51   2.0000      -0.686808       -18.6890
  52   2.0000      -0.673569       -18.3287
  53   2.0000      -0.656146       -17.8546
  54   2.0000      -0.638747       -17.3812
  55   2.0000      -0.600212       -16.3326
  56   2.0000      -0.586667       -15.9640
  57   2.0000      -0.577159       -15.7053
  58   2.0000      -0.571191       -15.5429
  59   2.0000      -0.563928       -15.3453
  60   2.0000      -0.505846       -13.7648
  61   2.0000      -0.497110       -13.5271
  62   2.0000      -0.479724       -13.0540
  63   2.0000      -0.471190       -12.8217
  64   2.0000      -0.458772       -12.4838
  65   2.0000      -0.447726       -12.1832
  66   2.0000      -0.442238       -12.0339
  67   2.0000      -0.433822       -11.8049
  68   2.0000      -0.425648       -11.5825
  69   2.0000      -0.412025       -11.2118
  70   2.0000      -0.409753       -11.1500
  71   2.0000      -0.403448       -10.9784
  72   2.0000      -0.396024       -10.7764
  73   2.0000      -0.389808       -10.6072
  74   2.0000      -0.376047       -10.2328
  75   2.0000      -0.373277       -10.1574
  76   2.0000      -0.365393        -9.9429
  77   2.0000      -0.361454        -9.8357
  78   2.0000      -0.357318        -9.7231
  79   2.0000      -0.355356        -9.6697
  80   2.0000      -0.353060        -9.6072
  81   2.0000      -0.346106        -9.4180
  82   2.0000      -0.339480        -9.2377
  83   2.0000      -0.338130        -9.2010
  84   2.0000      -0.334631        -9.1058
  85   2.0000      -0.321594        -8.7510
  86   2.0000      -0.310911        -8.4603
  87   2.0000      -0.303990        -8.2720
  88   2.0000      -0.298503        -8.1227
  89   2.0000      -0.295309        -8.0358
  90   2.0000      -0.280407        -7.6303
  91   2.0000      -0.273277        -7.4363
  92   2.0000      -0.270410        -7.3582
  93   2.0000      -0.264637        -7.2011
  94   2.0000      -0.257889        -7.0175
  95   2.0000      -0.228607        -6.2207
  96   2.0000      -0.220465        -5.9992
  97   2.0000      -0.216098        -5.8803
  98   2.0000      -0.205625        -5.5953
  99   2.0000      -0.193952        -5.2777
 100   2.0000      -0.192539        -5.2393
 101   0.0000      -0.045153        -1.2287
 102   0.0000      -0.026599        -0.7238
 103   0.0000      -0.009394        -0.2556
 104   0.0000      -0.001050        -0.0286
 105   0.0000       0.012806         0.3485

MULLIKEN ATOMIC CHARGES
-----------------------
   0 C :   -0.308972
   1 C :   -0.024544
   2 O :   -0.388282
   3 P :    0.616834
   4 S :   -0.312102
   5 O :   -0.366722
   6 C :   -0.036819
   7 C :   -0.294495
   8 S :   -0.112670
   9 C :   -0.310835
  10 S :   -0.069574
  11 P :    0.617050
  12 S :   -0.321510
  13 O :   -0.373607
  14 C :   -0.012600
  15 C :   -0.292421
  16 O :   -0.362687
  17 C :   -0.007275
  18 C :   -0.302947
  19 H :    0.104535
  20 H :    0.112239
  21 H :    0.126253
  22 H :    0.114737
  23 H :    0.113499
  24 H :    0.114053
  25 H :    0.111892
  26 H :    0.124735
  27 H :    0.132062
  28 H :    0.109970
  29 H :    0.193692
  30 H :    0.179433
  31 H :    0.105084
  32 H :    0.101246
  33 H :    0.108717
  34 H :    0.129484
  35 H :    0.112625
  36 H :    0.113854
  37 H :    0.103455
  38 H :    0.115689
  39 H :    0.125201
  40 H :    0.111723
Sum of atomic charges:   -0.0000000

LOEWDIN ATOMIC CHARGES
----------------------
   0 C :   -0.366008
   1 C :   -0.134126
   2 O :   -0.257639
   3 P :    0.564568
   4 S :   -0.316699
   5 O :   -0.242861
   6 C :   -0.118918
   7 C :   -0.360852
   8 S :    0.083019
   9 C :   -0.466387
  10 S :    0.109781
  11 P :    0.574024
  12 S :   -0.306115
  13 O :   -0.251820
  14 C :   -0.119366
  15 C :   -0.363869
  16 O :   -0.231791
  17 C :   -0.114607
  18 C :   -0.364559
  19 H :    0.118770
  20 H :    0.131045
  21 H :    0.123010
  22 H :    0.109079
  23 H :    0.109001
  24 H :    0.108765
  25 H :    0.121427
  26 H :    0.131606
  27 H :    0.118917
  28 H :    0.130175
  29 H :    0.140671
  30 H :    0.134018
  31 H :    0.117502
  32 H :    0.105951
  33 H :    0.129203
  34 H :    0.124024
  35 H :    0.124727
  36 H :    0.111331
  37 H :    0.115008
  38 H :    0.126363
  39 H :    0.123213
  40 H :    0.130416

  Mayer bond orders larger than 0.100000
B(  0-C ,  1-C ) :   1.1604 B(  0-C , 19-H ) :   0.9469 B(  0-C , 20-H ) :   0.9408
B(  0-C , 21-H ) :   0.9346 B(  1-C ,  2-O ) :   0.8981 B(  1-C , 22-H ) :   0.9146
B(  1-C , 23-H ) :   0.9132 B(  2-O ,  3-P ) :   1.0531 B(  3-P ,  4-S ) :   1.6437
B(  3-P ,  5-O ) :   1.1146 B(  3-P ,  8-S ) :   0.9793 B(  4-S ,  8-S ) :   0.1063
B(  5-O ,  6-C ) :   0.9006 B(  6-C ,  7-C ) :   1.1669 B(  6-C , 24-H ) :   0.9131
B(  6-C , 25-H ) :   0.9328 B(  7-C , 26-H ) :   0.9453 B(  7-C , 27-H ) :   0.9344
B(  7-C , 28-H ) :   0.9387 B(  8-S ,  9-C ) :   0.9787 B(  9-C , 10-S ) :   1.0049
B(  9-C , 29-H ) :   0.9035 B(  9-C , 30-H ) :   0.9055 B( 10-S , 11-P ) :   0.9564
B( 11-P , 12-S ) :   1.6192 B( 11-P , 13-O ) :   1.0808 B( 11-P , 16-O ) :   1.1298
B( 13-O , 14-C ) :   0.9086 B( 14-C , 15-C ) :   1.1671 B( 14-C , 31-H ) :   0.9359
B( 14-C , 32-H ) :   0.9131 B( 15-C , 33-H ) :   0.9398 B( 15-C , 34-H ) :   0.9317
B( 15-C , 35-H ) :   0.9466 B( 16-O , 17-C ) :   0.8982 B( 17-C , 18-C ) :   1.1637
B( 17-C , 36-H ) :   0.9173 B( 17-C , 37-H ) :   0.9292 B( 18-C , 38-H ) :   0.9457
B( 18-C , 39-H ) :   0.9341 B( 18-C , 40-H ) :   0.9390

Dispersion correction           -0.068106546
FINAL SINGLE POINT ENERGY     -2929.516068351119

DIPOLE MOMENT
-------------

Method             : SCF
Type of density    : Electron Density
Multiplicity       :   1
Irrep              :   0
Energy             : -2929.6343654376473751 Eh
Relativity type    :
Basis              : AO
                                X                 Y                 Z
Electronic contribution:     10.648143566      14.367863924       5.863742283
Nuclear contribution   :    -11.914932777     -15.615789107      -5.454441670
                        -----------------------------------------
Total Dipole Moment    :     -1.266789211      -1.247925182       0.409300613
                        -----------------------------------------
Magnitude (a.u.)       :      1.824718926
Magnitude (Debye)      :      4.638066916

Rotational constants in cm-1:             0.012304             0.005452             0.005230
Rotational constants in MHz :           368.860831           163.439177           156.785417

                             ****ORCA TERMINATED NORMALLY****
TOTAL RUN TIME: 0 days 0 hours 0 minutes 22 seconds 18 msec
