                         Program Version 6.0.1  -  RELEASE   -
|  1> ! r2scan-3c def2/J RI DEFGRID2 scfconv6 printgap
|  2> %output
|  3>     printlevel normal
|  4> end
|  5> * xyz 0 1
|  6> C 5.134717825 -2.123504406 -0.4422862798
|  7> C 3.8452473896 -2.771033504 -0.921173424
|  8> O 3.0325167376 -1.8241329484 -1.6433029663
|  9> C 2.2154974121 -1.0502270219 -0.9674526696
| 10> O 2.0583549175 -1.0891492267 0.2368351569
| 11> C 1.4800519683 -0.0779604547 -1.8652696278
| 12> C 0.2800289165 0.4870610359 -1.1205880336
| 13> H -0.1592441002 1.3330274316 -1.6574272857
| 14> C 0.6566144924 0.958994782 0.272820802
| 15> O -0.0183404636 0.6988939507 1.2505709036
| 16> O 1.6938187755 1.7529494661 0.2537148882
| 17> C 2.1654433778 2.3032265174 1.5022038582
| 18> C 3.3009017611 1.456841195 2.0531079536
| 19> S -1.0154009105 -0.7856985095 -0.9318705957
| 20> P -2.3717672958 0.2917977634 0.2922125444
| 21> S -2.3996087509 2.2407851582 0.1094161984
| 22> O -3.750744035 -0.3681180506 -0.2236319953
| 23> C -4.2621767018 -0.10452062 -1.5322060376
| 24> O -2.4277032768 -0.2494844861 1.7770738051
| 25> C -2.1942852144 -1.6294929824 2.1081294621
| 26> H 4.9153315149 -1.3410499835 0.2808128156
| 27> H 5.7584356268 -2.8739996244 0.0318644258
| 28> H 5.6704386587 -1.6908255661 -1.2825036494
| 29> H 3.2664442343 -3.1566491906 -0.0772270677
| 30> H 4.04179333 -3.5643453807 -1.6420663039
| 31> H 1.1746050221 -0.5819151192 -2.7813523947
| 32> H 2.1650775256 0.7335992821 -2.1197821454
| 33> H 2.4986148503 3.3106663129 1.2505004562
| 34> H 1.3261897241 2.3446068809 2.2019002261
| 35> H 4.1421653817 1.4651265858 1.3656210085
| 36> H 3.615186904 1.8556225333 3.0117151069
| 37> H 2.9628728346 0.4308549496 2.1851088438
| 38> H -5.2836433946 -0.4758827971 -1.5281432796
| 39> H -3.6630631135 -0.6284047189 -2.2770277182
| 40> H -4.2474765732 0.9691226495 -1.7284013801
| 41> H -2.8035070303 -2.2783202116 1.4801592291
| 42> H -2.4783619264 -1.7216622015 3.1531490449
| 43> H -1.1354800405 -1.857219694 1.978926691
| 44> *
| 45>
| 46>                          ****END OF INPUT****

CARTESIAN COORDINATES (ANGSTROEM)
---------------------------------
  C      5.134718   -2.123504   -0.442286
  C      3.845247   -2.771034   -0.921173
  O      3.032517   -1.824133   -1.643303
  C      2.215497   -1.050227   -0.967453
  O      2.058355   -1.089149    0.236835
  C      1.480052   -0.077960   -1.865270
  C      0.280029    0.487061   -1.120588
  H     -0.159244    1.333027   -1.657427
  C      0.656614    0.958995    0.272821
  O     -0.018340    0.698894    1.250571
  O      1.693819    1.752949    0.253715
  C      2.165443    2.303227    1.502204
  C      3.300902    1.456841    2.053108
  S     -1.015401   -0.785699   -0.931871
  P     -2.371767    0.291798    0.292213
  S     -2.399609    2.240785    0.109416
  O     -3.750744   -0.368118   -0.223632
  C     -4.262177   -0.104521   -1.532206
  O     -2.427703   -0.249484    1.777074
  C     -2.194285   -1.629493    2.108129
  H      4.915332   -1.341050    0.280813
  H      5.758436   -2.874000    0.031864
  H      5.670439   -1.690826   -1.282504
  H      3.266444   -3.156649   -0.077227
  H      4.041793   -3.564345   -1.642066
  H      1.174605   -0.581915   -2.781352
  H      2.165078    0.733599   -2.119782
  H      2.498615    3.310666    1.250500
  H      1.326190    2.344607    2.201900
  H      4.142165    1.465127    1.365621
  H      3.615187    1.855623    3.011715
  H      2.962873    0.430855    2.185109
  H     -5.283643   -0.475883   -1.528143
  H     -3.663063   -0.628405   -2.277028
  H     -4.247477    0.969123   -1.728401
  H     -2.803507   -2.278320    1.480159
  H     -2.478362   -1.721662    3.153149
  H     -1.135480   -1.857220    1.978927

 Total Charge           Charge          ....    0
 Multiplicity           Mult            ....    1
 Number of Electrons    NEL             ....  174
 Basis Dimension        Dim             ....  510

ORBITAL ENERGIES
----------------

  NO   OCC          E(Eh)            E(eV)
   0   2.0000     -88.566758     -2410.0240
   1   2.0000     -88.499295     -2408.1882
   2   2.0000     -76.900436     -2092.5672
   3   2.0000     -19.017111      -517.4819
   4   2.0000     -19.004329      -517.1341
   5   2.0000     -18.973582      -516.2974
   6   2.0000     -18.969659      -516.1907
   7   2.0000     -18.949548      -515.6434
   8   2.0000     -18.929224      -515.0904
   9   2.0000     -10.174302      -276.8568
  10   2.0000     -10.161429      -276.5065
  11   2.0000     -10.106632      -275.0154
  12   2.0000     -10.094305      -274.6800
  13   2.0000     -10.092318      -274.6259
  14   2.0000     -10.081748      -274.3383
  15   2.0000     -10.074748      -274.1478
  16   2.0000     -10.072122      -274.0764
  17   2.0000     -10.041804      -273.2514
  18   2.0000     -10.028148      -272.8798
  19   2.0000      -7.861169      -213.9133
  20   2.0000      -7.794314      -212.0941
  21   2.0000      -6.577837      -178.9920
  22   2.0000      -5.808071      -158.0456
  23   2.0000      -5.805091      -157.9646
  24   2.0000      -5.798186      -157.7767
  25   2.0000      -5.742244      -156.2544
  26   2.0000      -5.734812      -156.0522
  27   2.0000      -5.733767      -156.0237
  28   2.0000      -4.723426      -128.5309
  29   2.0000      -4.723212      -128.5251
  30   2.0000      -4.721275      -128.4724
  31   2.0000      -1.094931       -29.7946
  32   2.0000      -1.081512       -29.4294
  33   2.0000      -1.030793       -28.0493
  34   2.0000      -0.998882       -27.1810
  35   2.0000      -0.988438       -26.8968
  36   2.0000      -0.982064       -26.7233
  37   2.0000      -0.812542       -22.1104
  38   2.0000      -0.763319       -20.7710
  39   2.0000      -0.744941       -20.2709
  40   2.0000      -0.724659       -19.7190
  41   2.0000      -0.695561       -18.9272
  42   2.0000      -0.660145       -17.9635
  43   2.0000      -0.655487       -17.8367
  44   2.0000      -0.639963       -17.4143
  45   2.0000      -0.635738       -17.2993
  46   2.0000      -0.596943       -16.2437
  47   2.0000      -0.541496       -14.7349
  48   2.0000      -0.531056       -14.4508
  49   2.0000      -0.520013       -14.1503
  50   2.0000      -0.510353       -13.8874
  51   2.0000      -0.486119       -13.2280
  52   2.0000      -0.476061       -12.9543
  53   2.0000      -0.470777       -12.8105
  54   2.0000      -0.460073       -12.5192
  55   2.0000      -0.456910       -12.4332
  56   2.0000      -0.445249       -12.1158
  57   2.0000      -0.438510       -11.9325
  58   2.0000      -0.432384       -11.7658
  59   2.0000      -0.420480       -11.4418
  60   2.0000      -0.416681       -11.3385
  61   2.0000      -0.415680       -11.3112
  62   2.0000      -0.406306       -11.0561
  63   2.0000      -0.400024       -10.8852
  64   2.0000      -0.399250       -10.8641
  65   2.0000      -0.384468       -10.4619
  66   2.0000      -0.382273       -10.4022
  67   2.0000      -0.372436       -10.1345
  68   2.0000      -0.364164        -9.9094
  69   2.0000      -0.354869        -9.6565
  70   2.0000      -0.349300        -9.5049
  71   2.0000      -0.345181        -9.3928
  72   2.0000      -0.340696        -9.2708
  73   2.0000      -0.324000        -8.8165
  74   2.0000      -0.321109        -8.7378
  75   2.0000      -0.311046        -8.4640
  76   2.0000      -0.301087        -8.1930
  77   2.0000      -0.297990        -8.1087
  78   2.0000      -0.291634        -7.9358
  79   2.0000      -0.277329        -7.5465
  80   2.0000      -0.271843        -7.3972
  81   2.0000      -0.259927        -7.0730
  82   2.0000      -0.257673        -7.0116
  83   2.0000      -0.242875        -6.6090
  84   2.0000      -0.228419        -6.2156
  85   2.0000      -0.201853        -5.4927
  86   2.0000      -0.192902        -5.2491
  87   0.0000      -0.040191        -1.0937
  88   0.0000      -0.027898        -0.7592
  89   0.0000      -0.015135        -0.4118
  90   0.0000       0.012285         0.3343
  91   0.0000       0.035297         0.9605

MULLIKEN ATOMIC CHARGES
-----------------------
   0 C :   -0.469269
   1 C :   -0.135602
   2 O :   -0.160565
   3 C :    0.396810
   4 O :   -0.383522
   5 C :   -0.432077
   6 C :   -0.020349
   7 H :    0.236622
   8 C :    0.311424
   9 O :   -0.394910
  10 O :   -0.132451
  11 C :   -0.152708
  12 C :   -0.484463
  13 S :   -0.212185
  14 P :    0.801483
  15 S :   -0.468045
  16 O :   -0.368112
  17 C :   -0.302588
  18 O :   -0.296865
  19 C :   -0.300767
  20 H :    0.169849
  21 H :    0.151974
  22 H :    0.155460
  23 H :    0.170403
  24 H :    0.153049
  25 H :    0.189221
  26 H :    0.196767
  27 H :    0.149597
  28 H :    0.188669
  29 H :    0.145114
  30 H :    0.147858
  31 H :    0.188877
  32 H :    0.147543
  33 H :    0.151097
  34 H :    0.175138
  35 H :    0.156677
  36 H :    0.151913
  37 H :    0.178933
Sum of atomic charges:   -0.0000000

LOEWDIN ATOMIC CHARGES
----------------------
   0 C :   -0.387656
   1 C :    0.032739
   2 O :   -0.572315
   3 C :    0.368986
   4 O :   -0.432196
   5 C :   -0.206528
   6 C :   -0.198404
   7 H :    0.205407
   8 C :    0.352899
   9 O :   -0.454902
  10 O :   -0.570177
  11 C :    0.037809
  12 C :   -0.390592
  13 S :    0.209935
  14 P :    0.409183
  15 S :   -0.095931
  16 O :   -0.695272
  17 C :   -0.069993
  18 O :   -0.638911
  19 C :   -0.052956
  20 H :    0.164387
  21 H :    0.161537
  22 H :    0.158837
  23 H :    0.189467
  24 H :    0.180593
  25 H :    0.190666
  26 H :    0.201185
  27 H :    0.178536
  28 H :    0.196616
  29 H :    0.154292
  30 H :    0.158876
  31 H :    0.174166
  32 H :    0.174279
  33 H :    0.164917
  34 H :    0.175761
  35 H :    0.167987
  36 H :    0.179326
  37 H :    0.177447

  Mayer bond orders larger than 0.100000
B(  0-C ,  1-C ) :   0.9381 B(  0-C , 20-H ) :   0.9700 B(  0-C , 21-H ) :   0.9636
B(  0-C , 22-H ) :   0.9732 B(  1-C ,  2-O ) :   0.7979 B(  1-C , 23-H ) :   0.9666
B(  1-C , 24-H ) :   0.9612 B(  2-O ,  3-C ) :   1.1391 B(  3-C ,  4-O ) :   1.7596
B(  3-C ,  5-C ) :   0.9709 B(  4-O ,  8-C ) :   0.1513 B(  5-C ,  6-C ) :   0.8972
B(  5-C , 10-O ) :   0.1282 B(  5-C , 25-H ) :   0.9672 B(  5-C , 26-H ) :   0.9234
B(  6-C ,  7-H ) :   0.9109 B(  6-C ,  8-C ) :   0.8847 B(  6-C , 13-S ) :   0.9307
B(  8-C ,  9-O ) :   1.7614 B(  8-C , 10-O ) :   1.1641 B(  9-O , 14-P ) :   0.1163
B( 10-O , 11-C ) :   0.7823 B( 11-C , 12-C ) :   0.9273 B( 11-C , 27-H ) :   0.9603
B( 11-C , 28-H ) :   0.9719 B( 12-C , 29-H ) :   0.9714 B( 12-C , 30-H ) :   0.9649
B( 12-C , 31-H ) :   0.9680 B( 13-S , 14-P ) :   0.9696 B( 14-P , 15-S ) :   1.7797
B( 14-P , 16-O ) :   1.0019 B( 14-P , 18-O ) :   1.2040 B( 16-O , 17-C ) :   0.8414
B( 17-C , 32-H ) :   0.9699 B( 17-C , 33-H ) :   0.9577 B( 17-C , 34-H ) :   0.9587
B( 18-O , 19-C ) :   0.7968 B( 19-C , 35-H ) :   0.9652 B( 19-C , 36-H ) :   0.9656
B( 19-C , 37-H ) :   0.9560

Dispersion correction           -0.017366587
FINAL SINGLE POINT ENERGY     -1981.445899971797

DIPOLE MOMENT
-------------

Method             : SCF
Type of density    : Electron Density
Multiplicity       :   1
Irrep              :   0
Energy             : -1981.4665857914446860 Eh
Relativity type    :
Basis              : AO
                                X                 Y                 Z
Electronic contribution:    -20.577309893       6.266257963      -2.321905817
Nuclear contribution   :     22.647349579      -7.568684516       1.518872152
                        -----------------------------------------
Total Dipole Moment    :      2.070039686      -1.302426553      -0.803033665
                        -----------------------------------------
Magnitude (a.u.)       :      2.574148849
Magnitude (Debye)      :      6.542966395

Rotational constants in cm-1:             0.015811             0.006266             0.005489
Rotational constants in MHz :           473.991075           187.840586           164.567859

                             ****ORCA TERMINATED NORMALLY****
TOTAL RUN TIME: 0 days 0 hours 1 minutes 17 seconds 280 msec
