                         Program Version 6.0.1  -  RELEASE   -
|  1> ! r2scan-3c def2/J RI DEFGRID2 scfconv6 printgap
|  2> %output
|  3>     printlevel normal
|  4> end
|  5> %cpcm
|  6>     smd true
|  7>     smdsolvent "water"
|  8> end
|  9> * xyz 0 1
| 10> C 5.134717825 -2.123504406 -0.4422862798
| 11> C 3.8452473896 -2.771033504 -0.921173424
| 12> O 3.0325167376 -1.8241329484 -1.6433029663
| 13> C 2.2154974121 -1.0502270219 -0.9674526696
| 14> O 2.0583549175 -1.0891492267 0.2368351569
| 15> C 1.4800519683 -0.0779604547 -1.8652696278
| 16> C 0.2800289165 0.4870610359 -1.1205880336
| 17> H -0.1592441002 1.3330274316 -1.6574272857
| 18> C 0.6566144924 0.958994782 0.272820802
| 19> O -0.0183404636 0.6988939507 1.2505709036
| 20> O 1.6938187755 1.7529494661 0.2537148882
| 21> C 2.1654433778 2.3032265174 1.5022038582
| 22> C 3.3009017611 1.456841195 2.0531079536
| 23> S -1.0154009105 -0.7856985095 -0.9318705957
| 24> P -2.3717672958 0.2917977634 0.2922125444
| 25> S -2.3996087509 2.2407851582 0.1094161984
| 26> O -3.750744035 -0.3681180506 -0.2236319953
| 27> C -4.2621767018 -0.10452062 -1.5322060376
| 28> O -2.4277032768 -0.2494844861 1.7770738051
| 29> C -2.1942852144 -1.6294929824 2.1081294621
| 30> H 4.9153315149 -1.3410499835 0.2808128156
| 31> H 5.7584356268 -2.8739996244 0.0318644258
| 32> H 5.6704386587 -1.6908255661 -1.2825036494
| 33> H 3.2664442343 -3.1566491906 -0.0772270677
| 34> H 4.04179333 -3.5643453807 -1.6420663039
| 35> H 1.1746050221 -0.5819151192 -2.7813523947
| 36> H 2.1650775256 0.7335992821 -2.1197821454
| 37> H 2.4986148503 3.3106663129 1.2505004562
| 38> H 1.3261897241 2.3446068809 2.2019002261
| 39> H 4.1421653817 1.4651265858 1.3656210085
| 40> H 3.615186904 1.8556225333 3.0117151069
| 41> H 2.9628728346 0.4308549496 2.1851088438
| 42> H -5.2836433946 -0.4758827971 -1.5281432796
| 43> H -3.6630631135 -0.6284047189 -2.2770277182
| 44> H -4.2474765732 0.9691226495 -1.7284013801
| 45> H -2.8035070303 -2.2783202116 1.4801592291
| 46> H -2.4783619264 -1.7216622015 3.1531490449
| 47> H -1.1354800405 -1.857219694 1.978926691
| 48> *
| 49>
| 50>                          ****END OF INPUT****

CARTESIAN COORDINATES (ANGSTROEM)
---------------------------------
  C      5.134718   -2.123504   -0.442286
  C      3.845247   -2.771034   -0.921173
  O      3.032517   -1.824133   -1.643303
  C      2.215497   -1.050227   -0.967453
  O      2.058355   -1.089149    0.236835
  C      1.480052   -0.077960   -1.865270
  C      0.280029    0.487061   -1.120588
  H     -0.159244    1.333027   -1.657427
  C      0.656614    0.958995    0.272821
  O     -0.018340    0.698894    1.250571
  O      1.693819    1.752949    0.253715
  C      2.165443    2.303227    1.502204
  C      3.300902    1.456841    2.053108
  S     -1.015401   -0.785699   -0.931871
  P     -2.371767    0.291798    0.292213
  S     -2.399609    2.240785    0.109416
  O     -3.750744   -0.368118   -0.223632
  C     -4.262177   -0.104521   -1.532206
  O     -2.427703   -0.249484    1.777074
  C     -2.194285   -1.629493    2.108129
  H      4.915332   -1.341050    0.280813
  H      5.758436   -2.874000    0.031864
  H      5.670439   -1.690826   -1.282504
  H      3.266444   -3.156649   -0.077227
  H      4.041793   -3.564345   -1.642066
  H      1.174605   -0.581915   -2.781352
  H      2.165078    0.733599   -2.119782
  H      2.498615    3.310666    1.250500
  H      1.326190    2.344607    2.201900
  H      4.142165    1.465127    1.365621
  H      3.615187    1.855623    3.011715
  H      2.962873    0.430855    2.185109
  H     -5.283643   -0.475883   -1.528143
  H     -3.663063   -0.628405   -2.277028
  H     -4.247477    0.969123   -1.728401
  H     -2.803507   -2.278320    1.480159
  H     -2.478362   -1.721662    3.153149
  H     -1.135480   -1.857220    1.978927

 Total Charge           Charge          ....    0
 Multiplicity           Mult            ....    1
 Number of Electrons    NEL             ....  174
 Basis Dimension        Dim             ....  510

ORBITAL ENERGIES
----------------

  NO   OCC          E(Eh)            E(eV)
   0   2.0000     -88.576661     -2410.2935
   1   2.0000     -88.521549     -2408.7938
   2   2.0000     -76.918273     -2093.0526
   3   2.0000     -19.011002      -517.3157
   4   2.0000     -19.010911      -517.3132
   5   2.0000     -18.992169      -516.8032
   6   2.0000     -18.984779      -516.6021
   7   2.0000     -18.952668      -515.7283
   8   2.0000     -18.946642      -515.5643
   9   2.0000     -10.174562      -276.8639
  10   2.0000     -10.173655      -276.8392
  11   2.0000     -10.096204      -274.7317
  12   2.0000     -10.087408      -274.4923
  13   2.0000     -10.086980      -274.4807
  14   2.0000     -10.083742      -274.3926
  15   2.0000     -10.076664      -274.2000
  16   2.0000     -10.061471      -273.7865
  17   2.0000     -10.019927      -272.6561
  18   2.0000     -10.019146      -272.6348
  19   2.0000      -7.870980      -214.1803
  20   2.0000      -7.816935      -212.7096
  21   2.0000      -6.595845      -179.4821
  22   2.0000      -5.817885      -158.3127
  23   2.0000      -5.814918      -158.2319
  24   2.0000      -5.807997      -158.0436
  25   2.0000      -5.764719      -156.8660
  26   2.0000      -5.757445      -156.6680
  27   2.0000      -5.756445      -156.6408
  28   2.0000      -4.741446      -129.0213
  29   2.0000      -4.741093      -129.0117
  30   2.0000      -4.739404      -128.9658
  31   2.0000      -1.093187       -29.7471
  32   2.0000      -1.087702       -29.5979
  33   2.0000      -1.047889       -28.5145
  34   2.0000      -1.004145       -27.3242
  35   2.0000      -1.000216       -27.2173
  36   2.0000      -0.997410       -27.1409
  37   2.0000      -0.812693       -22.1145
  38   2.0000      -0.751240       -20.4423
  39   2.0000      -0.744300       -20.2534
  40   2.0000      -0.727972       -19.8091
  41   2.0000      -0.696484       -18.9523
  42   2.0000      -0.663400       -18.0520
  43   2.0000      -0.659428       -17.9440
  44   2.0000      -0.652352       -17.7514
  45   2.0000      -0.625586       -17.0231
  46   2.0000      -0.594803       -16.1854
  47   2.0000      -0.536906       -14.6100
  48   2.0000      -0.530499       -14.4356
  49   2.0000      -0.522504       -14.2180
  50   2.0000      -0.509674       -13.8689
  51   2.0000      -0.488573       -13.2948
  52   2.0000      -0.487265       -13.2592
  53   2.0000      -0.469557       -12.7773
  54   2.0000      -0.462628       -12.5887
  55   2.0000      -0.455793       -12.4028
  56   2.0000      -0.449876       -12.2418
  57   2.0000      -0.443964       -12.0809
  58   2.0000      -0.442377       -12.0377
  59   2.0000      -0.424106       -11.5405
  60   2.0000      -0.416283       -11.3276
  61   2.0000      -0.414812       -11.2876
  62   2.0000      -0.407602       -11.0914
  63   2.0000      -0.397359       -10.8127
  64   2.0000      -0.394848       -10.7444
  65   2.0000      -0.385221       -10.4824
  66   2.0000      -0.371517       -10.1095
  67   2.0000      -0.367110        -9.9896
  68   2.0000      -0.359457        -9.7813
  69   2.0000      -0.351774        -9.5723
  70   2.0000      -0.348753        -9.4901
  71   2.0000      -0.344478        -9.3737
  72   2.0000      -0.339499        -9.2382
  73   2.0000      -0.326991        -8.8979
  74   2.0000      -0.314069        -8.5463
  75   2.0000      -0.310205        -8.4411
  76   2.0000      -0.308461        -8.3937
  77   2.0000      -0.307684        -8.3725
  78   2.0000      -0.290910        -7.9161
  79   2.0000      -0.287619        -7.8265
  80   2.0000      -0.279824        -7.6144
  81   2.0000      -0.273248        -7.4355
  82   2.0000      -0.264025        -7.1845
  83   2.0000      -0.257562        -7.0086
  84   2.0000      -0.240867        -6.5543
  85   2.0000      -0.223724        -6.0878
  86   2.0000      -0.216541        -5.8924
  87   0.0000      -0.047885        -1.3030
  88   0.0000      -0.030913        -0.8412
  89   0.0000      -0.025625        -0.6973
  90   0.0000       0.003575         0.0973
  91   0.0000       0.020825         0.5667

MULLIKEN ATOMIC CHARGES
-----------------------
   0 C :   -0.496003
   1 C :   -0.140389
   2 O :   -0.171992
   3 C :    0.426986
   4 O :   -0.444057
   5 C :   -0.460156
   6 C :   -0.003079
   7 H :    0.263673
   8 C :    0.296044
   9 O :   -0.449805
  10 O :   -0.143132
  11 C :   -0.138426
  12 C :   -0.515509
  13 S :   -0.205404
  14 P :    0.802698
  15 S :   -0.519327
  16 O :   -0.402904
  17 C :   -0.309522
  18 O :   -0.349101
  19 C :   -0.304767
  20 H :    0.169624
  21 H :    0.172920
  22 H :    0.167811
  23 H :    0.175613
  24 H :    0.177628
  25 H :    0.222036
  26 H :    0.236486
  27 H :    0.177005
  28 H :    0.183264
  29 H :    0.170288
  30 H :    0.171580
  31 H :    0.176258
  32 H :    0.175688
  33 H :    0.171197
  34 H :    0.175037
  35 H :    0.180670
  36 H :    0.180928
  37 H :    0.180135
Sum of atomic charges:   -0.0000000

LOEWDIN ATOMIC CHARGES
----------------------
   0 C :   -0.390535
   1 C :    0.037956
   2 O :   -0.571773
   3 C :    0.377846
   4 O :   -0.475691
   5 C :   -0.195672
   6 C :   -0.189209
   7 H :    0.215460
   8 C :    0.353889
   9 O :   -0.504602
  10 O :   -0.568079
  11 C :    0.042612
  12 C :   -0.391282
  13 S :    0.221826
  14 P :    0.404814
  15 S :   -0.138418
  16 O :   -0.712379
  17 C :   -0.064566
  18 O :   -0.672982
  19 C :   -0.046301
  20 H :    0.162998
  21 H :    0.169055
  22 H :    0.163112
  23 H :    0.191213
  24 H :    0.191182
  25 H :    0.203940
  26 H :    0.216724
  27 H :    0.190613
  28 H :    0.194181
  29 H :    0.162770
  30 H :    0.168052
  31 H :    0.167781
  32 H :    0.186225
  33 H :    0.173705
  34 H :    0.175954
  35 H :    0.178787
  36 H :    0.191396
  37 H :    0.179397

  Mayer bond orders larger than 0.100000
B(  0-C ,  1-C ) :   0.9367 B(  0-C , 20-H ) :   0.9670 B(  0-C , 21-H ) :   0.9591
B(  0-C , 22-H ) :   0.9697 B(  1-C ,  2-O ) :   0.7815 B(  1-C , 23-H ) :   0.9624
B(  1-C , 24-H ) :   0.9521 B(  2-O ,  3-C ) :   1.1540 B(  3-C ,  4-O ) :   1.7128
B(  3-C ,  5-C ) :   0.9546 B(  4-O ,  8-C ) :   0.1510 B(  5-C ,  6-C ) :   0.8907
B(  5-C , 10-O ) :   0.1148 B(  5-C , 25-H ) :   0.9635 B(  5-C , 26-H ) :   0.9174
B(  6-C ,  7-H ) :   0.8927 B(  6-C ,  8-C ) :   0.8829 B(  6-C , 13-S ) :   0.9162
B(  8-C ,  9-O ) :   1.7228 B(  8-C , 10-O ) :   1.1718 B(  9-O , 14-P ) :   0.1179
B( 10-O , 11-C ) :   0.7679 B( 11-C , 12-C ) :   0.9196 B( 11-C , 27-H ) :   0.9492
B( 11-C , 28-H ) :   0.9668 B( 12-C , 29-H ) :   0.9673 B( 12-C , 30-H ) :   0.9589
B( 12-C , 31-H ) :   0.9691 B( 13-S , 14-P ) :   1.0011 B( 14-P , 15-S ) :   1.7750
B( 14-P , 16-O ) :   1.0000 B( 14-P , 18-O ) :   1.1901 B( 16-O , 17-C ) :   0.8336
B( 17-C , 32-H ) :   0.9594 B( 17-C , 33-H ) :   0.9507 B( 17-C , 34-H ) :   0.9553
B( 18-O , 19-C ) :   0.7907 B( 19-C , 35-H ) :   0.9545 B( 19-C , 36-H ) :   0.9543
B( 19-C , 37-H ) :   0.9493

Dispersion correction           -0.017366587
FINAL SINGLE POINT ENERGY     -1981.462393374082

DIPOLE MOMENT
-------------

Method             : SCF
Type of density    : Electron Density
Multiplicity       :   1
Irrep              :   0
Energy             : -1981.4830791937290542 Eh
Relativity type    :
Basis              : AO
                                X                 Y                 Z
Electronic contribution:    -19.924914193       5.895060119      -3.147864098
Nuclear contribution   :     22.647349579      -7.568684516       1.518872152
                        -----------------------------------------
Total Dipole Moment    :      2.722435386      -1.673624397      -1.628991947
                        -----------------------------------------
Magnitude (a.u.)       :      3.586960804
Magnitude (Debye)      :      9.117329799

Rotational constants in cm-1:             0.015811             0.006266             0.005489
Rotational constants in MHz :           473.991075           187.840586           164.567859

                             ****ORCA TERMINATED NORMALLY****
TOTAL RUN TIME: 0 days 0 hours 1 minutes 50 seconds 865 msec
