                         Program Version 6.0.0  -   RELEASE  -
|  1> ! pbe def2-sv(p) def2/J RI DEFGRID1 loosescf d4 GCP(DFT/SV(P)) printgap
|  2> %output
|  3>     printlevel normal
|  4> end
|  5> * xyz 0 1
|  6> C 3.0203091618 2.4913804195 -0.9820100554
|  7> C 2.2378642395 1.2500846864 -1.3549643786
|  8> O 1.3326788388 0.8824621329 -0.2797534133
|  9> P 1.6729413573 -0.2453395501 0.7764674689
| 10> S 0.4842380175 -0.143520216 2.3255422215
| 11> O 3.2094851295 0.0220202787 1.0779326939
| 12> C 4.1309603026 -0.9556241296 1.5973001867
| 13> C 3.628243883 -1.6348676946 2.8533033898
| 14> S 1.7663284622 -2.0618781133 -0.3523169465
| 15> C 0.2236404041 -1.9384576472 -1.2955326185
| 16> S -1.2639143019 -1.6959633334 -0.280667292
| 17> P -1.8270771214 0.238344194 -0.9147117972
| 18> S -1.0760362916 0.888907069 -2.5959599246
| 19> O -1.5314044286 1.1486305164 0.3584772841
| 20> C -1.2741507104 2.5571910872 0.2600444173
| 21> C -2.5501122479 3.3340691798 0.0094023816
| 22> O -3.4070254356 0.1316216538 -1.0510839866
| 23> C -4.2867417235 -0.6589064582 -0.2216880265
| 24> C -4.1872524691 -0.3037475507 1.2471469082
| 25> H 3.6578869606 2.7686070604 -1.8155711698
| 26> H 2.340861106 3.310744674 -0.7632416971
| 27> H 3.6328889616 2.300006041 -0.104794862
| 28> H 2.9045136695 0.4095528974 -1.5632426119
| 29> H 1.589627011 1.4291373061 -2.2165654479
| 30> H 4.3220328719 -1.6925629306 0.8120153134
| 31> H 5.0353783267 -0.3765566085 1.7920455274
| 32> H 4.3965194372 -2.2995497932 3.2348471861
| 33> H 3.3789166185 -0.8966756027 3.6119023068
| 34> H 2.7334329043 -2.2158754523 2.6330242733
| 35> H 0.1232902795 -2.897915751 -1.797906114
| 36> H 0.2853493707 -1.1227203898 -2.0215222045
| 37> H -0.817148462 2.8096837561 1.2186468279
| 38> H -0.5531083843 2.7249331206 -0.5463816011
| 39> H -2.3217907833 4.3939348881 -0.0426929118
| 40> H -2.9921728278 3.0169449047 -0.9352697724
| 41> H -3.2628947299 3.158166969 0.8106317601
| 42> H -5.2761836237 -0.4359746651 -0.6244266121
| 43> H -4.050635365 -1.7142171001 -0.3819736465
| 44> H -3.1815410277 -0.4981154407 1.6193461759
| 45> H -4.4185249389 0.7470642676 1.4017170793
| 46> H -4.8911829581 -0.910963339 1.8076446688
| 47> *
| 48>
| 49>                          ****END OF INPUT****

CARTESIAN COORDINATES (ANGSTROEM)
---------------------------------
  C      3.020309    2.491380   -0.982010
  C      2.237864    1.250085   -1.354964
  O      1.332679    0.882462   -0.279753
  P      1.672941   -0.245340    0.776467
  S      0.484238   -0.143520    2.325542
  O      3.209485    0.022020    1.077933
  C      4.130960   -0.955624    1.597300
  C      3.628244   -1.634868    2.853303
  S      1.766328   -2.061878   -0.352317
  C      0.223640   -1.938458   -1.295533
  S     -1.263914   -1.695963   -0.280667
  P     -1.827077    0.238344   -0.914712
  S     -1.076036    0.888907   -2.595960
  O     -1.531404    1.148631    0.358477
  C     -1.274151    2.557191    0.260044
  C     -2.550112    3.334069    0.009402
  O     -3.407025    0.131622   -1.051084
  C     -4.286742   -0.658906   -0.221688
  C     -4.187252   -0.303748    1.247147
  H      3.657887    2.768607   -1.815571
  H      2.340861    3.310745   -0.763242
  H      3.632889    2.300006   -0.104795
  H      2.904514    0.409553   -1.563243
  H      1.589627    1.429137   -2.216565
  H      4.322033   -1.692563    0.812015
  H      5.035378   -0.376557    1.792046
  H      4.396519   -2.299550    3.234847
  H      3.378917   -0.896676    3.611902
  H      2.733433   -2.215875    2.633024
  H      0.123290   -2.897916   -1.797906
  H      0.285349   -1.122720   -2.021522
  H     -0.817148    2.809684    1.218647
  H     -0.553108    2.724933   -0.546382
  H     -2.321791    4.393935   -0.042693
  H     -2.992173    3.016945   -0.935270
  H     -3.262895    3.158167    0.810632
  H     -5.276184   -0.435975   -0.624427
  H     -4.050635   -1.714217   -0.381974
  H     -3.181541   -0.498115    1.619346
  H     -4.418525    0.747064    1.401717
  H     -4.891183   -0.910963    1.807645

 Total Charge           Charge          ....    0
 Multiplicity           Mult            ....    1
 Number of Electrons    NEL             ....  202
 Basis Dimension        Dim             ....  334

ORBITAL ENERGIES
----------------

  NO   OCC          E(Eh)            E(eV)
   0   2.0000     -88.043693     -2395.7907
   1   2.0000     -88.042131     -2395.7482
   2   2.0000     -87.984488     -2394.1796
   3   2.0000     -87.976233     -2393.9550
   4   2.0000     -76.423980     -2079.6022
   5   2.0000     -76.422796     -2079.5700
   6   2.0000     -18.792194      -511.3616
   7   2.0000     -18.789692      -511.2935
   8   2.0000     -18.788097      -511.2501
   9   2.0000     -18.780214      -511.0356
  10   2.0000      -9.960319      -271.0341
  11   2.0000      -9.958582      -270.9868
  12   2.0000      -9.955351      -270.8989
  13   2.0000      -9.946894      -270.6687
  14   2.0000      -9.940159      -270.4855
  15   2.0000      -9.885999      -269.0117
  16   2.0000      -9.883594      -268.9463
  17   2.0000      -9.882941      -268.9285
  18   2.0000      -9.878322      -268.8028
  19   2.0000      -7.688565      -209.2165
  20   2.0000      -7.687212      -209.1797
  21   2.0000      -7.629692      -207.6145
  22   2.0000      -7.621446      -207.3901
  23   2.0000      -6.420993      -174.7241
  24   2.0000      -6.420575      -174.7127
  25   2.0000      -5.716417      -155.5516
  26   2.0000      -5.715069      -155.5149
  27   2.0000      -5.713208      -155.4643
  28   2.0000      -5.711594      -155.4204
  29   2.0000      -5.705380      -155.2513
  30   2.0000      -5.704368      -155.2237
  31   2.0000      -5.658570      -153.9775
  32   2.0000      -5.650718      -153.7639
  33   2.0000      -5.650651      -153.7620
  34   2.0000      -5.649335      -153.7262
  35   2.0000      -5.641725      -153.5191
  36   2.0000      -5.641634      -153.5167
  37   2.0000      -4.644106      -126.3726
  38   2.0000      -4.643279      -126.3501
  39   2.0000      -4.643179      -126.3473
  40   2.0000      -4.642005      -126.3154
  41   2.0000      -4.641268      -126.2953
  42   2.0000      -4.640632      -126.2780
  43   2.0000      -0.987219       -26.8636
  44   2.0000      -0.977717       -26.6050
  45   2.0000      -0.943529       -25.6747
  46   2.0000      -0.937890       -25.5213
  47   2.0000      -0.762161       -20.7395
  48   2.0000      -0.718129       -19.5413
  49   2.0000      -0.708503       -19.2793
  50   2.0000      -0.690524       -18.7901
  51   2.0000      -0.687453       -18.7066
  52   2.0000      -0.672477       -18.2990
  53   2.0000      -0.648463       -17.6456
  54   2.0000      -0.638740       -17.3810
  55   2.0000      -0.595263       -16.1979
  56   2.0000      -0.585621       -15.9356
  57   2.0000      -0.573554       -15.6072
  58   2.0000      -0.571533       -15.5522
  59   2.0000      -0.563524       -15.3343
  60   2.0000      -0.503723       -13.7070
  61   2.0000      -0.489419       -13.3178
  62   2.0000      -0.472823       -12.8662
  63   2.0000      -0.470348       -12.7988
  64   2.0000      -0.454230       -12.3602
  65   2.0000      -0.451962       -12.2985
  66   2.0000      -0.436561       -11.8794
  67   2.0000      -0.432175       -11.7601
  68   2.0000      -0.425193       -11.5701
  69   2.0000      -0.414054       -11.2670
  70   2.0000      -0.407537       -11.0896
  71   2.0000      -0.406205       -11.0534
  72   2.0000      -0.392563       -10.6822
  73   2.0000      -0.385485       -10.4896
  74   2.0000      -0.381503       -10.3812
  75   2.0000      -0.369829       -10.0635
  76   2.0000      -0.356567        -9.7027
  77   2.0000      -0.354761        -9.6535
  78   2.0000      -0.351184        -9.5562
  79   2.0000      -0.347856        -9.4656
  80   2.0000      -0.346462        -9.4277
  81   2.0000      -0.343627        -9.3506
  82   2.0000      -0.341046        -9.2803
  83   2.0000      -0.336287        -9.1508
  84   2.0000      -0.334173        -9.0933
  85   2.0000      -0.319739        -8.7005
  86   2.0000      -0.308087        -8.3835
  87   2.0000      -0.301836        -8.2134
  88   2.0000      -0.296903        -8.0792
  89   2.0000      -0.289248        -7.8708
  90   2.0000      -0.276169        -7.5149
  91   2.0000      -0.274474        -7.4688
  92   2.0000      -0.268662        -7.3107
  93   2.0000      -0.258591        -7.0366
  94   2.0000      -0.255651        -6.9566
  95   2.0000      -0.239294        -6.5115
  96   2.0000      -0.221406        -6.0248
  97   2.0000      -0.204461        -5.5637
  98   2.0000      -0.199303        -5.4233
  99   2.0000      -0.190549        -5.1851
 100   2.0000      -0.183334        -4.9888
 101   0.0000      -0.048057        -1.3077
 102   0.0000      -0.029420        -0.8006
 103   0.0000      -0.016895        -0.4597
 104   0.0000       0.001654         0.0450
 105   0.0000       0.023395         0.6366

MULLIKEN ATOMIC CHARGES
-----------------------
   0 C :   -0.286748
   1 C :   -0.022268
   2 O :   -0.359471
   3 P :    0.586609
   4 S :   -0.281775
   5 O :   -0.379592
   6 C :   -0.014523
   7 C :   -0.310977
   8 S :   -0.129569
   9 C :   -0.331882
  10 S :   -0.097202
  11 P :    0.636979
  12 S :   -0.327751
  13 O :   -0.359508
  14 C :   -0.013190
  15 C :   -0.310687
  16 O :   -0.374282
  17 C :   -0.015540
  18 C :   -0.328690
  19 H :    0.108287
  20 H :    0.117375
  21 H :    0.118490
  22 H :    0.094896
  23 H :    0.122073
  24 H :    0.114515
  25 H :    0.110177
  26 H :    0.111173
  27 H :    0.128689
  28 H :    0.129242
  29 H :    0.183262
  30 H :    0.199008
  31 H :    0.104737
  32 H :    0.118432
  33 H :    0.108111
  34 H :    0.124266
  35 H :    0.116999
  36 H :    0.111705
  37 H :    0.116126
  38 H :    0.144985
  39 H :    0.123714
  40 H :    0.113809
Sum of atomic charges:   -0.0000000

LOEWDIN ATOMIC CHARGES
----------------------
   0 C :   -0.356858
   1 C :   -0.126363
   2 O :   -0.232219
   3 P :    0.562212
   4 S :   -0.295269
   5 O :   -0.246387
   6 C :   -0.116137
   7 C :   -0.370859
   8 S :    0.049290
   9 C :   -0.476272
  10 S :    0.097088
  11 P :    0.577285
  12 S :   -0.298684
  13 O :   -0.231875
  14 C :   -0.121652
  15 C :   -0.364507
  16 O :   -0.246331
  17 C :   -0.118565
  18 C :   -0.368797
  19 H :    0.129466
  20 H :    0.125980
  21 H :    0.124834
  22 H :    0.103338
  23 H :    0.111454
  24 H :    0.107528
  25 H :    0.121678
  26 H :    0.129889
  27 H :    0.130937
  28 H :    0.122318
  29 H :    0.139521
  30 H :    0.121854
  31 H :    0.117520
  32 H :    0.106592
  33 H :    0.128935
  34 H :    0.123952
  35 H :    0.122008
  36 H :    0.122837
  37 H :    0.108457
  38 H :    0.127000
  39 H :    0.126863
  40 H :    0.131940

  Mayer bond orders larger than 0.100000
B(  0-C ,  1-C ) :   1.1698 B(  0-C , 19-H ) :   0.9402 B(  0-C , 20-H ) :   0.9488
B(  0-C , 21-H ) :   0.9420 B(  1-C ,  2-O ) :   0.8814 B(  1-C , 22-H ) :   0.9118
B(  1-C , 23-H ) :   0.9073 B(  2-O ,  3-P ) :   1.1099 B(  3-P ,  4-S ) :   1.6951
B(  3-P ,  5-O ) :   1.0646 B(  3-P ,  8-S ) :   0.9380 B(  4-S ,  8-S ) :   0.1132
B(  5-O ,  6-C ) :   0.9170 B(  6-C ,  7-C ) :   1.1672 B(  6-C , 24-H ) :   0.9238
B(  6-C , 25-H ) :   0.9333 B(  7-C , 26-H ) :   0.9337 B(  7-C , 27-H ) :   0.9412
B(  7-C , 28-H ) :   0.9326 B(  8-S ,  9-C ) :   0.9919 B(  9-C , 10-S ) :   1.0193
B(  9-C , 29-H ) :   0.9127 B(  9-C , 30-H ) :   0.8502 B( 10-S , 11-P ) :   0.9669
B( 10-S , 12-S ) :   0.1056 B( 11-P , 12-S ) :   1.5870 B( 11-P , 13-O ) :   1.1128
B( 11-P , 16-O ) :   1.1118 B( 12-S , 30-H ) :   0.1138 B( 13-O , 14-C ) :   0.9031
B( 14-C , 15-C ) :   1.1564 B( 14-C , 31-H ) :   0.9292 B( 14-C , 32-H ) :   0.9095
B( 15-C , 33-H ) :   0.9404 B( 15-C , 34-H ) :   0.9379 B( 15-C , 35-H ) :   0.9427
B( 16-O , 17-C ) :   0.9112 B( 17-C , 18-C ) :   1.1630 B( 17-C , 36-H ) :   0.9340
B( 17-C , 37-H ) :   0.9187 B( 18-C , 38-H ) :   0.9326 B( 18-C , 39-H ) :   0.9419
B( 18-C , 40-H ) :   0.9350

Dispersion correction           -0.069822626
FINAL SINGLE POINT ENERGY     -2929.508623633882

DIPOLE MOMENT
-------------

Method             : SCF
Type of density    : Electron Density
Multiplicity       :   1
Irrep              :   0
Energy             : -2929.6274673601815266 Eh
Relativity type    :
Basis              : AO
                                X                 Y                 Z
Electronic contribution:     -2.078466624     -11.513775355      -5.808500688
Nuclear contribution   :      2.607005113      11.391046373       5.900571525
                        -----------------------------------------
Total Dipole Moment    :      0.528538489      -0.122728982       0.092070837
                        -----------------------------------------
Magnitude (a.u.)       :      0.550356590
Magnitude (Debye)      :      1.398895281

Rotational constants in cm-1:             0.012093             0.005908             0.005471
Rotational constants in MHz :           362.548789           177.110135           164.011314

                             ****ORCA TERMINATED NORMALLY****
TOTAL RUN TIME: 0 days 0 hours 0 minutes 22 seconds 83 msec
