                         Program Version 6.0.0  -   RELEASE  -
|  1> ! pbe def2-sv(p) def2/J RI DEFGRID1 loosescf d4 GCP(DFT/SV(P)) printgap
|  2> %output
|  3>     printlevel normal
|  4> end
|  5> * xyz 0 1
|  6> C 4.375156188 -2.2214581166 -0.9830824369
|  7> C 4.463154847 -0.7953029564 -0.4760503705
|  8> O 3.4301524052 0.0244302394 -1.0829519329
|  9> P 2.1561609191 0.56425578 -0.3318349875
| 10> S 1.1800320588 1.7590574616 -1.5325175043
| 11> O 2.7946325869 1.156675247 0.9941949515
| 12> C 2.088099905 1.7355217317 2.1072952236
| 13> C 1.6860543146 3.1696573704 1.8312918347
| 14> S 1.1684431492 -1.190009178 0.403309886
| 15> C 0.5318976016 -1.796675999 -1.1726014959
| 16> S -0.9472348936 -0.9284788142 -1.8146335882
| 17> P -1.9533567331 -0.4381935057 -0.0188026086
| 18> S -1.3237543557 1.0290407053 1.1279754964
| 19> O -2.0320082465 -1.8661928717 0.6476010441
| 20> C -2.2386306528 -2.044399602 2.0662076102
| 21> C -3.6507982701 -1.6767877974 2.4676256493
| 22> O -3.4304469524 -0.2220343888 -0.5656839879
| 23> C -3.8764021398 1.0337865684 -1.1161288771
| 24> C -4.7357547945 1.7728447738 -0.1083808961
| 25> H 4.3725317945 -2.230677418 -2.0696915012
| 26> H 5.2380937739 -2.7743486234 -0.625628786
| 27> H 3.4717516442 -2.7044461388 -0.6192279532
| 28> H 5.3988217209 -0.3241476524 -0.7806525324
| 29> H 4.3658097621 -0.7496873812 0.6097006082
| 30> H 1.2089819539 1.1280488345 2.3362313782
| 31> H 2.8044217157 1.674344573 2.9288404523
| 32> H 0.9430163677 3.2045759755 1.0370563507
| 33> H 1.2528632893 3.5967132494 2.7297696573
| 34> H 2.5516285578 3.7530676419 1.5291827943
| 35> H 0.2706584108 -2.8403340775 -1.0137688416
| 36> H 1.2931140571 -1.6895712055 -1.9445615206
| 37> H -2.027567234 -3.1016426064 2.2295068857
| 38> H -1.5086097924 -1.4298359591 2.6024759014
| 39> H -4.3678669709 -2.2351647108 1.8718925187
| 40> H -3.7981190055 -1.9006721362 3.5193878524
| 41> H -3.8122324957 -0.6119377553 2.3048116542
| 42> H -3.0092211297 1.6356383022 -1.4059264203
| 43> H -4.4447735206 0.7675405486 -2.0091720911
| 44> H -4.1409444987 2.0449679819 0.7611926553
| 45> H -5.1250217051 2.6764059502 -0.566225984
| 46> H -5.5618250891 1.1427119307 0.2088591889
| 47> *
| 48>
| 49>                          ****END OF INPUT****

CARTESIAN COORDINATES (ANGSTROEM)
---------------------------------
  C      4.375156   -2.221458   -0.983082
  C      4.463155   -0.795303   -0.476050
  O      3.430152    0.024430   -1.082952
  P      2.156161    0.564256   -0.331835
  S      1.180032    1.759057   -1.532518
  O      2.794633    1.156675    0.994195
  C      2.088100    1.735522    2.107295
  C      1.686054    3.169657    1.831292
  S      1.168443   -1.190009    0.403310
  C      0.531898   -1.796676   -1.172601
  S     -0.947235   -0.928479   -1.814634
  P     -1.953357   -0.438194   -0.018803
  S     -1.323754    1.029041    1.127975
  O     -2.032008   -1.866193    0.647601
  C     -2.238631   -2.044400    2.066208
  C     -3.650798   -1.676788    2.467626
  O     -3.430447   -0.222034   -0.565684
  C     -3.876402    1.033787   -1.116129
  C     -4.735755    1.772845   -0.108381
  H      4.372532   -2.230677   -2.069692
  H      5.238094   -2.774349   -0.625629
  H      3.471752   -2.704446   -0.619228
  H      5.398822   -0.324148   -0.780653
  H      4.365810   -0.749687    0.609701
  H      1.208982    1.128049    2.336231
  H      2.804422    1.674345    2.928840
  H      0.943016    3.204576    1.037056
  H      1.252863    3.596713    2.729770
  H      2.551629    3.753068    1.529183
  H      0.270658   -2.840334   -1.013769
  H      1.293114   -1.689571   -1.944562
  H     -2.027567   -3.101643    2.229507
  H     -1.508610   -1.429836    2.602476
  H     -4.367867   -2.235165    1.871893
  H     -3.798119   -1.900672    3.519388
  H     -3.812232   -0.611938    2.304812
  H     -3.009221    1.635638   -1.405926
  H     -4.444774    0.767541   -2.009172
  H     -4.140944    2.044968    0.761193
  H     -5.125022    2.676406   -0.566226
  H     -5.561825    1.142712    0.208859

 Total Charge           Charge          ....    0
 Multiplicity           Mult            ....    1
 Number of Electrons    NEL             ....  202
 Basis Dimension        Dim             ....  334

ORBITAL ENERGIES
----------------

  NO   OCC          E(Eh)            E(eV)
   0   2.0000     -88.042611     -2395.7613
   1   2.0000     -88.031807     -2395.4672
   2   2.0000     -87.981702     -2394.1038
   3   2.0000     -87.972914     -2393.8647
   4   2.0000     -76.424067     -2079.6046
   5   2.0000     -76.421360     -2079.5309
   6   2.0000     -18.792093      -511.3589
   7   2.0000     -18.790312      -511.3104
   8   2.0000     -18.787394      -511.2310
   9   2.0000     -18.787049      -511.2216
  10   2.0000      -9.958973      -270.9974
  11   2.0000      -9.954656      -270.8800
  12   2.0000      -9.951925      -270.8056
  13   2.0000      -9.950185      -270.7583
  14   2.0000      -9.949107      -270.7290
  15   2.0000      -9.888775      -269.0873
  16   2.0000      -9.883741      -268.9503
  17   2.0000      -9.878838      -268.8169
  18   2.0000      -9.872170      -268.6354
  19   2.0000      -7.686896      -209.1711
  20   2.0000      -7.677246      -208.9085
  21   2.0000      -7.626517      -207.5281
  22   2.0000      -7.618155      -207.3005
  23   2.0000      -6.421219      -174.7303
  24   2.0000      -6.418328      -174.6516
  25   2.0000      -5.714704      -155.5050
  26   2.0000      -5.711393      -155.4149
  27   2.0000      -5.705480      -155.2540
  28   2.0000      -5.704014      -155.2141
  29   2.0000      -5.701873      -155.1558
  30   2.0000      -5.693670      -154.9326
  31   2.0000      -5.655264      -153.8876
  32   2.0000      -5.647404      -153.6737
  33   2.0000      -5.647268      -153.6700
  34   2.0000      -5.646693      -153.6543
  35   2.0000      -5.638664      -153.4358
  36   2.0000      -5.638075      -153.4198
  37   2.0000      -4.643913      -126.3673
  38   2.0000      -4.643073      -126.3444
  39   2.0000      -4.641569      -126.3035
  40   2.0000      -4.641298      -126.2961
  41   2.0000      -4.640330      -126.2698
  42   2.0000      -4.638276      -126.2139
  43   2.0000      -0.984916       -26.8009
  44   2.0000      -0.984611       -26.7926
  45   2.0000      -0.944672       -25.7058
  46   2.0000      -0.940634       -25.5960
  47   2.0000      -0.759771       -20.6744
  48   2.0000      -0.717958       -19.5366
  49   2.0000      -0.708868       -19.2893
  50   2.0000      -0.685941       -18.6654
  51   2.0000      -0.685042       -18.6409
  52   2.0000      -0.666550       -18.1378
  53   2.0000      -0.649469       -17.6730
  54   2.0000      -0.634059       -17.2536
  55   2.0000      -0.594168       -16.1681
  56   2.0000      -0.579696       -15.7743
  57   2.0000      -0.574801       -15.6411
  58   2.0000      -0.567494       -15.4423
  59   2.0000      -0.564229       -15.3534
  60   2.0000      -0.505303       -13.7500
  61   2.0000      -0.495408       -13.4807
  62   2.0000      -0.476687       -12.9713
  63   2.0000      -0.473547       -12.8859
  64   2.0000      -0.454635       -12.3713
  65   2.0000      -0.441162       -12.0046
  66   2.0000      -0.439093       -11.9483
  67   2.0000      -0.432128       -11.7588
  68   2.0000      -0.426419       -11.6034
  69   2.0000      -0.407655       -11.0929
  70   2.0000      -0.401330       -10.9207
  71   2.0000      -0.398080       -10.8323
  72   2.0000      -0.394042       -10.7224
  73   2.0000      -0.386153       -10.5078
  74   2.0000      -0.382019       -10.3953
  75   2.0000      -0.370520       -10.0824
  76   2.0000      -0.359618        -9.7857
  77   2.0000      -0.358715        -9.7611
  78   2.0000      -0.353321        -9.6143
  79   2.0000      -0.351490        -9.5645
  80   2.0000      -0.346178        -9.4200
  81   2.0000      -0.339876        -9.2485
  82   2.0000      -0.338140        -9.2013
  83   2.0000      -0.329317        -8.9612
  84   2.0000      -0.326805        -8.8928
  85   2.0000      -0.317514        -8.6400
  86   2.0000      -0.314866        -8.5679
  87   2.0000      -0.296157        -8.0588
  88   2.0000      -0.294053        -8.0016
  89   2.0000      -0.288890        -7.8611
  90   2.0000      -0.284313        -7.7365
  91   2.0000      -0.274733        -7.4759
  92   2.0000      -0.268808        -7.3146
  93   2.0000      -0.259042        -7.0489
  94   2.0000      -0.255815        -6.9611
  95   2.0000      -0.243820        -6.6347
  96   2.0000      -0.220939        -6.0121
  97   2.0000      -0.203434        -5.5357
  98   2.0000      -0.189478        -5.1559
  99   2.0000      -0.181051        -4.9266
 100   2.0000      -0.178595        -4.8598
 101   0.0000      -0.048409        -1.3173
 102   0.0000      -0.025385        -0.6908
 103   0.0000      -0.013928        -0.3790
 104   0.0000       0.003219         0.0876
 105   0.0000       0.021277         0.5790

MULLIKEN ATOMIC CHARGES
-----------------------
   0 C :   -0.298173
   1 C :   -0.005379
   2 O :   -0.362464
   3 P :    0.604850
   4 S :   -0.287855
   5 O :   -0.382415
   6 C :   -0.017342
   7 C :   -0.302679
   8 S :   -0.128082
   9 C :   -0.323542
  10 S :   -0.081618
  11 P :    0.616549
  12 S :   -0.326273
  13 O :   -0.369569
  14 C :   -0.003190
  15 C :   -0.308772
  16 O :   -0.372646
  17 C :   -0.014118
  18 C :   -0.291106
  19 H :    0.120301
  20 H :    0.110710
  21 H :    0.118687
  22 H :    0.110726
  23 H :    0.104457
  24 H :    0.121127
  25 H :    0.099237
  26 H :    0.144332
  27 H :    0.104715
  28 H :    0.112116
  29 H :    0.185762
  30 H :    0.185261
  31 H :    0.101937
  32 H :    0.109514
  33 H :    0.117603
  34 H :    0.110773
  35 H :    0.127988
  36 H :    0.115496
  37 H :    0.106738
  38 H :    0.126559
  39 H :    0.107962
  40 H :    0.111825
Sum of atomic charges:   -0.0000000

LOEWDIN ATOMIC CHARGES
----------------------
   0 C :   -0.361968
   1 C :   -0.112738
   2 O :   -0.240902
   3 P :    0.560225
   4 S :   -0.294786
   5 O :   -0.244648
   6 C :   -0.115577
   7 C :   -0.364826
   8 S :    0.067367
   9 C :   -0.469350
  10 S :    0.077264
  11 P :    0.568808
  12 S :   -0.312446
  13 O :   -0.240639
  14 C :   -0.117856
  15 C :   -0.364781
  16 O :   -0.248030
  17 C :   -0.116551
  18 C :   -0.361032
  19 H :    0.127763
  20 H :    0.130348
  21 H :    0.118300
  22 H :    0.121897
  23 H :    0.109619
  24 H :    0.105314
  25 H :    0.115287
  26 H :    0.127121
  27 H :    0.128170
  28 H :    0.125349
  29 H :    0.134834
  30 H :    0.132454
  31 H :    0.117215
  32 H :    0.108810
  33 H :    0.127015
  34 H :    0.129946
  35 H :    0.124101
  36 H :    0.113900
  37 H :    0.117859
  38 H :    0.124263
  39 H :    0.128876
  40 H :    0.124026

  Mayer bond orders larger than 0.100000
B(  0-C ,  1-C ) :   1.1649 B(  0-C , 19-H ) :   0.9454 B(  0-C , 20-H ) :   0.9401
B(  0-C , 21-H ) :   0.9358 B(  1-C ,  2-O ) :   0.8972 B(  1-C , 22-H ) :   0.9352
B(  1-C , 23-H ) :   0.9175 B(  2-O ,  3-P ) :   1.1170 B(  3-P ,  4-S ) :   1.7058
B(  3-P ,  5-O ) :   1.0950 B(  3-P ,  8-S ) :   0.9103 B(  4-S ,  8-S ) :   0.1165
B(  5-O ,  6-C ) :   0.9017 B(  6-C ,  7-C ) :   1.1735 B(  6-C , 24-H ) :   0.9114
B(  6-C , 25-H ) :   0.9349 B(  7-C , 26-H ) :   0.9291 B(  7-C , 27-H ) :   0.9381
B(  7-C , 28-H ) :   0.9468 B(  8-S ,  9-C ) :   1.0100 B(  9-C , 10-S ) :   0.9842
B(  9-C , 29-H ) :   0.9093 B(  9-C , 30-H ) :   0.8983 B( 10-S , 11-P ) :   0.9880
B( 10-S , 12-S ) :   0.1148 B( 11-P , 12-S ) :   1.5780 B( 11-P , 13-O ) :   1.1202
B( 11-P , 16-O ) :   1.1106 B( 13-O , 14-C ) :   0.9004 B( 14-C , 15-C ) :   1.1664
B( 14-C , 31-H ) :   0.9344 B( 14-C , 32-H ) :   0.9142 B( 15-C , 33-H ) :   0.9460
B( 15-C , 34-H ) :   0.9387 B( 15-C , 35-H ) :   0.9333 B( 16-O , 17-C ) :   0.9015
B( 17-C , 18-C ) :   1.1691 B( 17-C , 36-H ) :   0.9140 B( 17-C , 37-H ) :   0.9341
B( 18-C , 38-H ) :   0.9345 B( 18-C , 39-H ) :   0.9397 B( 18-C , 40-H ) :   0.9470

Dispersion correction           -0.067430747
FINAL SINGLE POINT ENERGY     -2929.510556847277

DIPOLE MOMENT
-------------

Method             : SCF
Type of density    : Electron Density
Multiplicity       :   1
Irrep              :   0
Energy             : -2929.6263826709096065 Eh
Relativity type    :
Basis              : AO
                                X                 Y                 Z
Electronic contribution:      4.674953732      -0.088653480     -12.176368780
Nuclear contribution   :     -4.510723944      -1.054028353      13.156842976
                        -----------------------------------------
Total Dipole Moment    :      0.164229788      -1.142681833       0.980474195
                        -----------------------------------------
Magnitude (a.u.)       :      1.514603196
Magnitude (Debye)      :      3.849815374

Rotational constants in cm-1:             0.012023             0.005397             0.005016
Rotational constants in MHz :           360.449876           161.798287           150.365184

                             ****ORCA TERMINATED NORMALLY****
TOTAL RUN TIME: 0 days 0 hours 0 minutes 21 seconds 166 msec
