                         Program Version 6.0.0  -   RELEASE  -
|  1> ! pbe def2-sv(p) def2/J RI DEFGRID1 loosescf d4 GCP(DFT/SV(P)) printgap
|  2> %output
|  3>     printlevel normal
|  4> end
|  5> * xyz 0 1
|  6> C 4.6296825115 -1.4504125318 -1.1154162769
|  7> C 4.7113844802 -0.0754091718 -0.4849494465
|  8> O 3.6198243971 0.17048692 0.4169791343
|  9> P 2.11947619 0.3440903031 -0.0885108775
| 10> S 1.9921706437 1.2757342004 -1.8152226868
| 11> O 1.4585826486 0.9574838134 1.216425634
| 12> C 1.9497673396 2.1371371725 1.8922580206
| 13> C 1.6623999565 3.4019957749 1.1090013013
| 14> S 1.2830148551 -1.5944415625 -0.0064837712
| 15> C 0.2727903586 -1.5815865039 -1.5235424209
| 16> S -1.4604614454 -2.013929237 -1.2223529749
| 17> P -2.0018848294 -0.4341550481 0.0572816979
| 18> S -1.3325973335 1.3624581358 -0.3772981863
| 19> O -1.5971199752 -1.0251571735 1.4655980626
| 20> C -1.4241550067 -0.1998604333 2.6352328975
| 21> C -2.7318827474 0.4138978527 3.0870184605
| 22> O -3.5849140622 -0.5508393102 0.0952958646
| 23> C -4.4069909116 -0.0643715173 -0.984437504
| 24> C -5.829487502 0.0437675151 -0.473568445
| 25> H 4.5175542618 -2.2125450319 -0.3485240802
| 26> H 3.7738036827 -1.4975773311 -1.7874013249
| 27> H 5.5343631294 -1.6386200492 -1.6843827915
| 28> H 4.7028255612 0.7009346756 -1.2567200206
| 29> H 5.5978943149 0.0299452799 0.1418110051
| 30> H 1.4127201937 2.1293045035 2.8428059706
| 31> H 3.0204410863 2.0146350768 2.0709988991
| 32> H 0.6077959923 3.4449605251 0.8431152928
| 33> H 1.9187456149 4.2672981081 1.7116709298
| 34> H 2.244718005 3.4220100328 0.1895139311
| 35> H 0.6484593323 -2.3473045802 -2.1975218422
| 36> H 0.3416176847 -0.5885512983 -1.978486538
| 37> H -1.0141780296 -0.8868061477 3.3768357923
| 38> H -0.6885827112 0.5758077528 2.4012692184
| 39> H -2.5782131427 0.9472420496 4.019951899
| 40> H -3.0892517747 1.1133064674 2.3318033674
| 41> H -3.4794235215 -0.3619495674 3.229267325
| 42> H -4.0187700134 0.9076789906 -1.3076622358
| 43> H -4.3334461357 -0.7718229126 -1.8147947739
| 44> H -5.8825393475 0.757969765 0.3431648932
| 45> H -6.4730466596 0.3753315235 -1.2816987176
| 46> H -6.1671286267 -0.9250181534 -0.1174328804
| 47> *
| 48>
| 49>                          ****END OF INPUT****

CARTESIAN COORDINATES (ANGSTROEM)
---------------------------------
  C      4.629683   -1.450413   -1.115416
  C      4.711384   -0.075409   -0.484949
  O      3.619824    0.170487    0.416979
  P      2.119476    0.344090   -0.088511
  S      1.992171    1.275734   -1.815223
  O      1.458583    0.957484    1.216426
  C      1.949767    2.137137    1.892258
  C      1.662400    3.401996    1.109001
  S      1.283015   -1.594442   -0.006484
  C      0.272790   -1.581587   -1.523542
  S     -1.460461   -2.013929   -1.222353
  P     -2.001885   -0.434155    0.057282
  S     -1.332597    1.362458   -0.377298
  O     -1.597120   -1.025157    1.465598
  C     -1.424155   -0.199860    2.635233
  C     -2.731883    0.413898    3.087018
  O     -3.584914   -0.550839    0.095296
  C     -4.406991   -0.064372   -0.984438
  C     -5.829488    0.043768   -0.473568
  H      4.517554   -2.212545   -0.348524
  H      3.773804   -1.497577   -1.787401
  H      5.534363   -1.638620   -1.684383
  H      4.702826    0.700935   -1.256720
  H      5.597894    0.029945    0.141811
  H      1.412720    2.129305    2.842806
  H      3.020441    2.014635    2.070999
  H      0.607796    3.444961    0.843115
  H      1.918746    4.267298    1.711671
  H      2.244718    3.422010    0.189514
  H      0.648459   -2.347305   -2.197522
  H      0.341618   -0.588551   -1.978487
  H     -1.014178   -0.886806    3.376836
  H     -0.688583    0.575808    2.401269
  H     -2.578213    0.947242    4.019952
  H     -3.089252    1.113306    2.331803
  H     -3.479424   -0.361950    3.229267
  H     -4.018770    0.907679   -1.307662
  H     -4.333446   -0.771823   -1.814795
  H     -5.882539    0.757970    0.343165
  H     -6.473047    0.375332   -1.281699
  H     -6.167129   -0.925018   -0.117433

 Total Charge           Charge          ....    0
 Multiplicity           Mult            ....    1
 Number of Electrons    NEL             ....  202
 Basis Dimension        Dim             ....  334

ORBITAL ENERGIES
----------------

  NO   OCC          E(Eh)            E(eV)
   0   2.0000     -88.040382     -2395.7006
   1   2.0000     -88.039476     -2395.6759
   2   2.0000     -87.984750     -2394.1868
   3   2.0000     -87.979595     -2394.0465
   4   2.0000     -76.424912     -2079.6276
   5   2.0000     -76.420929     -2079.5192
   6   2.0000     -18.791725      -511.3488
   7   2.0000     -18.789954      -511.3006
   8   2.0000     -18.787517      -511.2343
   9   2.0000     -18.784289      -511.1465
  10   2.0000      -9.951969      -270.8068
  11   2.0000      -9.951928      -270.8057
  12   2.0000      -9.950382      -270.7637
  13   2.0000      -9.950165      -270.7578
  14   2.0000      -9.945555      -270.6323
  15   2.0000      -9.886826      -269.0342
  16   2.0000      -9.882727      -268.9227
  17   2.0000      -9.880184      -268.8535
  18   2.0000      -9.876145      -268.7436
  19   2.0000      -7.685321      -209.1282
  20   2.0000      -7.685244      -209.1261
  21   2.0000      -7.629649      -207.6133
  22   2.0000      -7.624305      -207.4679
  23   2.0000      -6.422153      -174.7557
  24   2.0000      -6.418552      -174.6577
  25   2.0000      -5.713220      -155.4646
  26   2.0000      -5.713192      -155.4639
  27   2.0000      -5.709917      -155.3747
  28   2.0000      -5.709628      -155.3669
  29   2.0000      -5.702173      -155.1640
  30   2.0000      -5.702158      -155.1636
  31   2.0000      -5.658488      -153.9753
  32   2.0000      -5.653067      -153.8278
  33   2.0000      -5.650521      -153.7585
  34   2.0000      -5.649618      -153.7339
  35   2.0000      -5.645025      -153.6089
  36   2.0000      -5.644540      -153.5957
  37   2.0000      -4.644855      -126.3929
  38   2.0000      -4.643639      -126.3599
  39   2.0000      -4.642781      -126.3365
  40   2.0000      -4.640922      -126.2859
  41   2.0000      -4.640386      -126.2713
  42   2.0000      -4.639102      -126.2364
  43   2.0000      -0.985755       -26.8238
  44   2.0000      -0.982808       -26.7436
  45   2.0000      -0.941805       -25.6278
  46   2.0000      -0.940985       -25.6055
  47   2.0000      -0.760142       -20.6845
  48   2.0000      -0.719553       -19.5800
  49   2.0000      -0.706299       -19.2194
  50   2.0000      -0.685999       -18.6670
  51   2.0000      -0.684706       -18.6318
  52   2.0000      -0.671702       -18.2779
  53   2.0000      -0.648575       -17.6486
  54   2.0000      -0.631524       -17.1846
  55   2.0000      -0.597955       -16.2712
  56   2.0000      -0.590111       -16.0577
  57   2.0000      -0.574619       -15.6362
  58   2.0000      -0.563485       -15.3332
  59   2.0000      -0.558017       -15.1844
  60   2.0000      -0.500328       -13.6146
  61   2.0000      -0.495191       -13.4748
  62   2.0000      -0.471674       -12.8349
  63   2.0000      -0.466714       -12.6999
  64   2.0000      -0.452943       -12.3252
  65   2.0000      -0.445501       -12.1227
  66   2.0000      -0.432948       -11.7811
  67   2.0000      -0.431960       -11.7542
  68   2.0000      -0.426333       -11.6011
  69   2.0000      -0.415451       -11.3050
  70   2.0000      -0.405982       -11.0473
  71   2.0000      -0.403227       -10.9724
  72   2.0000      -0.391167       -10.6442
  73   2.0000      -0.385793       -10.4980
  74   2.0000      -0.375173       -10.2090
  75   2.0000      -0.370518       -10.0823
  76   2.0000      -0.368190       -10.0189
  77   2.0000      -0.354894        -9.6572
  78   2.0000      -0.351298        -9.5593
  79   2.0000      -0.345599        -9.4042
  80   2.0000      -0.343798        -9.3552
  81   2.0000      -0.340637        -9.2692
  82   2.0000      -0.339216        -9.2305
  83   2.0000      -0.332306        -9.0425
  84   2.0000      -0.331978        -9.0336
  85   2.0000      -0.311818        -8.4850
  86   2.0000      -0.310517        -8.4496
  87   2.0000      -0.298281        -8.1166
  88   2.0000      -0.293994        -8.0000
  89   2.0000      -0.287069        -7.8115
  90   2.0000      -0.280360        -7.6290
  91   2.0000      -0.272582        -7.4173
  92   2.0000      -0.270059        -7.3487
  93   2.0000      -0.261163        -7.1066
  94   2.0000      -0.257907        -7.0180
  95   2.0000      -0.231747        -6.3062
  96   2.0000      -0.220175        -5.9913
  97   2.0000      -0.213396        -5.8068
  98   2.0000      -0.199841        -5.4379
  99   2.0000      -0.192796        -5.2463
 100   2.0000      -0.185131        -5.0377
 101   0.0000      -0.038404        -1.0450
 102   0.0000      -0.032606        -0.8873
 103   0.0000      -0.005455        -0.1484
 104   0.0000       0.014598         0.3972
 105   0.0000       0.018398         0.5006

MULLIKEN ATOMIC CHARGES
-----------------------
   0 C :   -0.309042
   1 C :   -0.002013
   2 O :   -0.381741
   3 P :    0.632530
   4 S :   -0.310762
   5 O :   -0.363482
   6 C :   -0.003453
   7 C :   -0.314819
   8 S :   -0.086818
   9 C :   -0.360387
  10 S :   -0.093743
  11 P :    0.608986
  12 S :   -0.320707
  13 O :   -0.356761
  14 C :   -0.026885
  15 C :   -0.307356
  16 O :   -0.377583
  17 C :   -0.011533
  18 C :   -0.280851
  19 H :    0.118046
  20 H :    0.118076
  21 H :    0.111604
  22 H :    0.109639
  23 H :    0.101757
  24 H :    0.103089
  25 H :    0.107588
  26 H :    0.133143
  27 H :    0.105048
  28 H :    0.126357
  29 H :    0.179998
  30 H :    0.210651
  31 H :    0.103141
  32 H :    0.138805
  33 H :    0.107189
  34 H :    0.121097
  35 H :    0.115968
  36 H :    0.105442
  37 H :    0.102429
  38 H :    0.118729
  39 H :    0.111816
  40 H :    0.116810
Sum of atomic charges:    0.0000000

LOEWDIN ATOMIC CHARGES
----------------------
   0 C :   -0.368201
   1 C :   -0.121356
   2 O :   -0.248031
   3 P :    0.573583
   4 S :   -0.295887
   5 O :   -0.236622
   6 C :   -0.110570
   7 C :   -0.368019
   8 S :    0.090146
   9 C :   -0.479695
  10 S :    0.079446
  11 P :    0.561132
  12 S :   -0.310806
  13 O :   -0.234932
  14 C :   -0.118093
  15 C :   -0.366113
  16 O :   -0.248794
  17 C :   -0.121096
  18 C :   -0.350206
  19 H :    0.124629
  20 H :    0.118807
  21 H :    0.130040
  22 H :    0.108837
  23 H :    0.116778
  24 H :    0.114705
  25 H :    0.110777
  26 H :    0.129598
  27 H :    0.126764
  28 H :    0.121936
  29 H :    0.134617
  30 H :    0.125178
  31 H :    0.118836
  32 H :    0.114777
  33 H :    0.127985
  34 H :    0.121043
  35 H :    0.125698
  36 H :    0.108183
  37 H :    0.109564
  38 H :    0.127570
  39 H :    0.130739
  40 H :    0.127051

  Mayer bond orders larger than 0.100000
B(  0-C ,  1-C ) :   1.1660 B(  0-C , 19-H ) :   0.9443 B(  0-C , 20-H ) :   0.9372
B(  0-C , 21-H ) :   0.9383 B(  1-C ,  2-O ) :   0.9130 B(  1-C , 22-H ) :   0.9126
B(  1-C , 23-H ) :   0.9331 B(  2-O ,  3-P ) :   1.0838 B(  3-P ,  4-S ) :   1.5994
B(  3-P ,  5-O ) :   1.1212 B(  3-P ,  8-S ) :   0.9659 B(  4-S ,  8-S ) :   0.1245
B(  5-O ,  6-C ) :   0.9021 B(  6-C ,  7-C ) :   1.1684 B(  6-C , 24-H ) :   0.9300
B(  6-C , 25-H ) :   0.9275 B(  7-C , 26-H ) :   0.9408 B(  7-C , 27-H ) :   0.9373
B(  7-C , 28-H ) :   0.9349 B(  8-S ,  9-C ) :   0.9993 B(  9-C , 10-S ) :   1.0011
B(  9-C , 29-H ) :   0.9113 B(  9-C , 30-H ) :   0.8474 B( 10-S , 11-P ) :   0.9604
B( 10-S , 12-S ) :   0.1108 B( 11-P , 12-S ) :   1.6256 B( 11-P , 13-O ) :   1.1385
B( 11-P , 16-O ) :   1.0980 B( 13-O , 14-C ) :   0.9024 B( 14-C , 15-C ) :   1.1599
B( 14-C , 31-H ) :   0.9352 B( 14-C , 32-H ) :   0.9056 B( 15-C , 33-H ) :   0.9391
B( 15-C , 34-H ) :   0.9346 B( 15-C , 35-H ) :   0.9450 B( 16-O , 17-C ) :   0.9054
B( 17-C , 18-C ) :   1.1600 B( 17-C , 36-H ) :   0.9088 B( 17-C , 37-H ) :   0.9290
B( 18-C , 38-H ) :   0.9518 B( 18-C , 39-H ) :   0.9421 B( 18-C , 40-H ) :   0.9504

Dispersion correction           -0.066757886
FINAL SINGLE POINT ENERGY     -2929.520367304578

DIPOLE MOMENT
-------------

Method             : SCF
Type of density    : Electron Density
Multiplicity       :   1
Irrep              :   0
Energy             : -2929.6387130723842347 Eh
Relativity type    :
Basis              : AO
                                X                 Y                 Z
Electronic contribution:      3.489288776      -9.095045519      -8.543354665
Nuclear contribution   :     -3.313759521       8.973489998       9.300394834
                        -----------------------------------------
Total Dipole Moment    :      0.175529255      -0.121555520       0.757040169
                        -----------------------------------------
Magnitude (a.u.)       :      0.786572362
Magnitude (Debye)      :      1.999308057

Rotational constants in cm-1:             0.013075             0.005225             0.004681
Rotational constants in MHz :           391.991254           156.639037           140.337766

                             ****ORCA TERMINATED NORMALLY****
TOTAL RUN TIME: 0 days 0 hours 0 minutes 20 seconds 960 msec
