                         Program Version 6.0.0  -   RELEASE  -
|  1> ! pbe def2-sv(p) def2/J RI DEFGRID1 loosescf d4 GCP(DFT/SV(P)) printgap
|  2> %output
|  3>     printlevel normal
|  4> end
|  5> * xyz 0 1
|  6> C 3.5776945757 -2.0954883011 -1.9863199941
|  7> C 4.0430135021 -0.6821644907 -1.697548038
|  8> O 3.5802179528 -0.2045254134 -0.4255443956
|  9> P 2.045014484 0.0925652054 -0.1088581082
| 10> S 1.0958039279 0.9027937732 -1.6241363843
| 11> O 2.191101455 0.9001805156 1.239252115
| 12> C 2.3120864328 2.3342806854 1.2984605024
| 13> C 3.553311398 2.8386878924 0.5934251793
| 14> S 1.2932041554 -1.7207838047 0.6725297723
| 15> C -0.0628412759 -2.0574372128 -0.5061413567
| 16> S -1.7089894206 -2.0852120134 0.2557225984
| 17> P -2.1395939613 -0.0313042736 0.3246112808
| 18> S -0.9997980207 1.2064062879 1.3482667443
| 19> O -3.6609786475 0.0221006753 0.7858401358
| 20> C -4.0459596749 0.1194317217 2.167206139
| 21> C -3.6953706291 -1.1364169717 2.9383840208
| 22> O -2.2592618217 0.2482297871 -1.2268543763
| 23> C -2.4768907228 1.5786983337 -1.7472066229
| 24> C -2.1925451975 1.5463081625 -3.2336203961
| 25> H 3.820544662 -2.7500772807 -1.1531237598
| 26> H 2.4997505257 -2.1074006716 -2.1424828882
| 27> H 4.066937021 -2.4571802904 -2.8850131297
| 28> H 3.6898652984 0.0043453207 -2.4742018358
| 29> H 5.129451482 -0.6250373185 -1.6182536759
| 30> H 1.4054657393 2.7723766598 0.8680302541
| 31> H 2.33592448 2.5435247642 2.3688834852
| 32> H 4.434579555 2.3343573434 0.981466885
| 33> H 3.4783668398 2.6466275116 -0.4766127897
| 34> H 3.6454952847 3.9083056677 0.7539297468
| 35> H 0.0865985806 -3.0590072044 -0.8999228917
| 36> H -0.0442855024 -1.3042520774 -1.2981973689
| 37> H -3.5489628733 0.9920546956 2.6038471447
| 38> H -5.1233601285 0.2846719982 2.1283615301
| 39> H -4.0953764032 -1.0663793651 3.944774221
| 40> H -4.107657516 -2.011566877 2.4425932642
| 41> H -2.6123780762 -1.2452761782 2.995445847
| 42> H -3.5125434945 1.8565689011 -1.537515946
| 43> H -1.8052757079 2.2700961085 -1.2267847285
| 44> H -2.8142391343 0.7958379536 -3.7125229262
| 45> H -2.4064417243 2.5217133457 -3.6576655058
| 46> H -1.1459954775 1.3044859561 -3.4033042205
| 47> *
| 48>
| 49>                          ****END OF INPUT****

CARTESIAN COORDINATES (ANGSTROEM)
---------------------------------
  C      3.577695   -2.095488   -1.986320
  C      4.043014   -0.682164   -1.697548
  O      3.580218   -0.204525   -0.425544
  P      2.045014    0.092565   -0.108858
  S      1.095804    0.902794   -1.624136
  O      2.191101    0.900181    1.239252
  C      2.312086    2.334281    1.298461
  C      3.553311    2.838688    0.593425
  S      1.293204   -1.720784    0.672530
  C     -0.062841   -2.057437   -0.506141
  S     -1.708989   -2.085212    0.255723
  P     -2.139594   -0.031304    0.324611
  S     -0.999798    1.206406    1.348267
  O     -3.660979    0.022101    0.785840
  C     -4.045960    0.119432    2.167206
  C     -3.695371   -1.136417    2.938384
  O     -2.259262    0.248230   -1.226854
  C     -2.476891    1.578698   -1.747207
  C     -2.192545    1.546308   -3.233620
  H      3.820545   -2.750077   -1.153124
  H      2.499751   -2.107401   -2.142483
  H      4.066937   -2.457180   -2.885013
  H      3.689865    0.004345   -2.474202
  H      5.129451   -0.625037   -1.618254
  H      1.405466    2.772377    0.868030
  H      2.335924    2.543525    2.368883
  H      4.434580    2.334357    0.981467
  H      3.478367    2.646628   -0.476613
  H      3.645495    3.908306    0.753930
  H      0.086599   -3.059007   -0.899923
  H     -0.044286   -1.304252   -1.298197
  H     -3.548963    0.992055    2.603847
  H     -5.123360    0.284672    2.128362
  H     -4.095376   -1.066379    3.944774
  H     -4.107658   -2.011567    2.442593
  H     -2.612378   -1.245276    2.995446
  H     -3.512543    1.856569   -1.537516
  H     -1.805276    2.270096   -1.226785
  H     -2.814239    0.795838   -3.712523
  H     -2.406442    2.521713   -3.657666
  H     -1.145995    1.304486   -3.403304

 Total Charge           Charge          ....    0
 Multiplicity           Mult            ....    1
 Number of Electrons    NEL             ....  202
 Basis Dimension        Dim             ....  334

ORBITAL ENERGIES
----------------

  NO   OCC          E(Eh)            E(eV)
   0   2.0000     -88.040941     -2395.7158
   1   2.0000     -88.037782     -2395.6298
   2   2.0000     -87.989400     -2394.3133
   3   2.0000     -87.978331     -2394.0121
   4   2.0000     -76.424265     -2079.6100
   5   2.0000     -76.420377     -2079.5042
   6   2.0000     -18.787968      -511.2466
   7   2.0000     -18.784635      -511.1559
   8   2.0000     -18.784412      -511.1498
   9   2.0000     -18.783939      -511.1370
  10   2.0000      -9.956255      -270.9235
  11   2.0000      -9.949695      -270.7450
  12   2.0000      -9.948338      -270.7080
  13   2.0000      -9.946514      -270.6584
  14   2.0000      -9.943678      -270.5812
  15   2.0000      -9.884868      -268.9809
  16   2.0000      -9.881687      -268.8944
  17   2.0000      -9.879745      -268.8415
  18   2.0000      -9.878658      -268.8120
  19   2.0000      -7.686675      -209.1651
  20   2.0000      -7.683205      -209.0706
  21   2.0000      -7.634052      -207.7331
  22   2.0000      -7.623020      -207.4329
  23   2.0000      -6.421568      -174.7397
  24   2.0000      -6.418190      -174.6478
  25   2.0000      -5.714620      -155.5027
  26   2.0000      -5.711131      -155.4078
  27   2.0000      -5.711108      -155.4072
  28   2.0000      -5.707888      -155.3195
  29   2.0000      -5.703502      -155.2002
  30   2.0000      -5.699895      -155.1020
  31   2.0000      -5.662741      -154.0910
  32   2.0000      -5.655235      -153.8868
  33   2.0000      -5.653864      -153.8495
  34   2.0000      -5.651826      -153.7940
  35   2.0000      -5.643622      -153.5708
  36   2.0000      -5.643349      -153.5633
  37   2.0000      -4.643761      -126.3632
  38   2.0000      -4.643236      -126.3489
  39   2.0000      -4.642515      -126.3293
  40   2.0000      -4.640792      -126.2824
  41   2.0000      -4.639967      -126.2599
  42   2.0000      -4.638556      -126.2215
  43   2.0000      -0.981799       -26.7161
  44   2.0000      -0.981584       -26.7102
  45   2.0000      -0.940109       -25.5817
  46   2.0000      -0.939181       -25.5564
  47   2.0000      -0.759725       -20.6732
  48   2.0000      -0.718938       -19.5633
  49   2.0000      -0.705100       -19.1867
  50   2.0000      -0.684736       -18.6326
  51   2.0000      -0.682799       -18.5799
  52   2.0000      -0.671545       -18.2737
  53   2.0000      -0.650477       -17.7004
  54   2.0000      -0.632398       -17.2084
  55   2.0000      -0.602257       -16.3882
  56   2.0000      -0.588056       -16.0018
  57   2.0000      -0.569854       -15.5065
  58   2.0000      -0.566157       -15.4059
  59   2.0000      -0.555841       -15.1252
  60   2.0000      -0.498797       -13.5730
  61   2.0000      -0.488668       -13.2973
  62   2.0000      -0.470023       -12.7900
  63   2.0000      -0.466890       -12.7047
  64   2.0000      -0.450445       -12.2572
  65   2.0000      -0.441520       -12.0144
  66   2.0000      -0.437909       -11.9161
  67   2.0000      -0.432827       -11.7778
  68   2.0000      -0.423716       -11.5299
  69   2.0000      -0.417749       -11.3675
  70   2.0000      -0.409227       -11.1356
  71   2.0000      -0.394004       -10.7214
  72   2.0000      -0.387026       -10.5315
  73   2.0000      -0.386649       -10.5212
  74   2.0000      -0.379301       -10.3213
  75   2.0000      -0.378327       -10.2948
  76   2.0000      -0.364731        -9.9248
  77   2.0000      -0.351347        -9.5606
  78   2.0000      -0.350430        -9.5357
  79   2.0000      -0.347962        -9.4685
  80   2.0000      -0.345639        -9.4053
  81   2.0000      -0.340169        -9.2565
  82   2.0000      -0.336235        -9.1494
  83   2.0000      -0.331709        -9.0263
  84   2.0000      -0.329296        -8.9606
  85   2.0000      -0.311876        -8.4866
  86   2.0000      -0.308238        -8.3876
  87   2.0000      -0.293178        -7.9778
  88   2.0000      -0.292084        -7.9480
  89   2.0000      -0.285034        -7.7562
  90   2.0000      -0.279598        -7.6083
  91   2.0000      -0.269947        -7.3456
  92   2.0000      -0.267090        -7.2679
  93   2.0000      -0.261163        -7.1066
  94   2.0000      -0.256880        -6.9901
  95   2.0000      -0.234844        -6.3904
  96   2.0000      -0.220876        -6.0103
  97   2.0000      -0.210905        -5.7390
  98   2.0000      -0.204423        -5.5626
  99   2.0000      -0.192231        -5.2309
 100   2.0000      -0.184816        -5.0291
 101   0.0000      -0.038583        -1.0499
 102   0.0000      -0.030633        -0.8336
 103   0.0000      -0.014066        -0.3828
 104   0.0000       0.002980         0.0811
 105   0.0000       0.022824         0.6211

MULLIKEN ATOMIC CHARGES
-----------------------
   0 C :   -0.317157
   1 C :    0.000007
   2 O :   -0.371586
   3 P :    0.628273
   4 S :   -0.337359
   5 O :   -0.362556
   6 C :    0.000542
   7 C :   -0.308802
   8 S :   -0.067748
   9 C :   -0.376013
  10 S :   -0.075066
  11 P :    0.616647
  12 S :   -0.330786
  13 O :   -0.377817
  14 C :   -0.001586
  15 C :   -0.325908
  16 O :   -0.370963
  17 C :   -0.001023
  18 C :   -0.288143
  19 H :    0.121433
  20 H :    0.119243
  21 H :    0.111638
  22 H :    0.106762
  23 H :    0.103736
  24 H :    0.119119
  25 H :    0.106499
  26 H :    0.117101
  27 H :    0.122780
  28 H :    0.110289
  29 H :    0.185054
  30 H :    0.205673
  31 H :    0.110482
  32 H :    0.103160
  33 H :    0.114039
  34 H :    0.118800
  35 H :    0.133404
  36 H :    0.099018
  37 H :    0.109015
  38 H :    0.112576
  39 H :    0.106686
  40 H :    0.130541
Sum of atomic charges:   -0.0000000

LOEWDIN ATOMIC CHARGES
----------------------
   0 C :   -0.368549
   1 C :   -0.120220
   2 O :   -0.248012
   3 P :    0.577539
   4 S :   -0.305519
   5 O :   -0.231784
   6 C :   -0.113226
   7 C :   -0.367083
   8 S :    0.090018
   9 C :   -0.480950
  10 S :    0.093781
  11 P :    0.567478
  12 S :   -0.315427
  13 O :   -0.246598
  14 C :   -0.121302
  15 C :   -0.371443
  16 O :   -0.242501
  17 C :   -0.116967
  18 C :   -0.352955
  19 H :    0.125922
  20 H :    0.118234
  21 H :    0.129977
  22 H :    0.107308
  23 H :    0.118243
  24 H :    0.110559
  25 H :    0.120890
  26 H :    0.126329
  27 H :    0.121337
  28 H :    0.129819
  29 H :    0.136697
  30 H :    0.124198
  31 H :    0.109606
  32 H :    0.117705
  33 H :    0.131750
  34 H :    0.124062
  35 H :    0.123806
  36 H :    0.110336
  37 H :    0.108687
  38 H :    0.125429
  39 H :    0.128881
  40 H :    0.123945

  Mayer bond orders larger than 0.100000
B(  0-C ,  1-C ) :   1.1639 B(  0-C , 19-H ) :   0.9425 B(  0-C , 20-H ) :   0.9387
B(  0-C , 21-H ) :   0.9379 B(  1-C ,  2-O ) :   0.9232 B(  1-C , 22-H ) :   0.9144
B(  1-C , 23-H ) :   0.9339 B(  2-O ,  3-P ) :   1.0893 B(  3-P ,  4-S ) :   1.5652
B(  3-P ,  5-O ) :   1.1497 B(  3-P ,  8-S ) :   0.9613 B(  4-S ,  8-S ) :   0.1160
B(  5-O ,  6-C ) :   0.9020 B(  6-C ,  7-C ) :   1.1634 B(  6-C , 24-H ) :   0.9172
B(  6-C , 25-H ) :   0.9361 B(  7-C , 26-H ) :   0.9446 B(  7-C , 27-H ) :   0.9354
B(  7-C , 28-H ) :   0.9379 B(  8-S ,  9-C ) :   1.0039 B(  9-C , 10-S ) :   0.9984
B(  9-C , 29-H ) :   0.9091 B(  9-C , 30-H ) :   0.8490 B( 10-S , 11-P ) :   0.9702
B( 10-S , 12-S ) :   0.1160 B( 11-P , 12-S ) :   1.6261 B( 11-P , 13-O ) :   1.0997
B( 11-P , 16-O ) :   1.1246 B( 13-O , 14-C ) :   0.9101 B( 14-C , 15-C ) :   1.1641
B( 14-C , 31-H ) :   0.9125 B( 14-C , 32-H ) :   0.9329 B( 15-C , 33-H ) :   0.9382
B( 15-C , 34-H ) :   0.9444 B( 15-C , 35-H ) :   0.9331 B( 16-O , 17-C ) :   0.8927
B( 17-C , 18-C ) :   1.1646 B( 17-C , 36-H ) :   0.9309 B( 17-C , 37-H ) :   0.9096
B( 18-C , 38-H ) :   0.9491 B( 18-C , 39-H ) :   0.9412 B( 18-C , 40-H ) :   0.9447

Dispersion correction           -0.067465516
FINAL SINGLE POINT ENERGY     -2929.519958914237

DIPOLE MOMENT
-------------

Method             : SCF
Type of density    : Electron Density
Multiplicity       :   1
Irrep              :   0
Energy             : -2929.6372341925020919 Eh
Relativity type    :
Basis              : AO
                                X                 Y                 Z
Electronic contribution:     -3.189362241      -7.126038002       6.791400097
Nuclear contribution   :      3.259261172       7.147038305      -7.146989101
                        -----------------------------------------
Total Dipole Moment    :      0.069898931       0.021000302      -0.355589003
                        -----------------------------------------
Magnitude (a.u.)       :      0.363001945
Magnitude (Debye)      :      0.922677619

Rotational constants in cm-1:             0.011534             0.005363             0.005252
Rotational constants in MHz :           345.780522           160.782093           157.455245

                             ****ORCA TERMINATED NORMALLY****
TOTAL RUN TIME: 0 days 0 hours 0 minutes 21 seconds 352 msec
