                         Program Version 6.0.0  -   RELEASE  -
|  1> ! pbe def2-sv(p) def2/J RI DEFGRID1 loosescf d4 GCP(DFT/SV(P)) printgap
|  2> %output
|  3>     printlevel normal
|  4> end
|  5> * xyz 0 1
|  6> C 2.3387063157 0.1689489847 -3.1789457622
|  7> C 3.4091648613 0.4730344376 -2.150267283
|  8> O 3.2808226774 -0.3563165915 -0.9847210132
|  9> P 2.0770768516 -0.2126025493 0.0462099455
| 10> S 1.6517850411 1.6637924548 0.4522884828
| 11> O 2.6024043957 -1.0673449307 1.267490871
| 12> C 3.063031286 -0.5095735918 2.5179525153
| 13> C 2.1698370239 -0.9858371802 3.6465215729
| 14> S 0.672883231 -1.5933748049 -0.7241634339
| 15> C -0.2890220027 -1.9086649958 0.7847275049
| 16> S -0.9717612947 -0.4070934587 1.5459738274
| 17> P -2.0564396227 0.3511156038 -0.1032673962
| 18> S -1.2182996365 1.2205428384 -1.6551622498
| 19> O -3.1336841224 1.280336132 0.6098590509
| 20> C -2.9171196779 2.6794550938 0.8499626243
| 21> C -1.8549177706 2.9122755487 1.9055866632
| 22> O -2.9158933273 -0.9346780478 -0.4300028177
| 23> C -3.3577634079 -1.3074847716 -1.7538686215
| 24> C -2.7270770683 -2.6283837767 -2.1485215959
| 25> H 2.5360789531 0.7327591701 -4.0849231883
| 26> H 2.3255977588 -0.8938048923 -3.4081096259
| 27> H 1.3582293053 0.4583556977 -2.7979530586
| 28> H 3.3573792071 1.5218554678 -1.8390493656
| 29> H 4.4075045949 0.2454361428 -2.5262847166
| 30> H 4.0887244342 -0.8612399128 2.6399918968
| 31> H 3.0542690883 0.5827974971 2.4454185156
| 32> H 2.5484595456 -0.5944540733 4.5850274046
| 33> H 1.1525917899 -0.6274416103 3.4971185987
| 34> H 2.1639047864 -2.0713677492 3.6888240026
| 35> H 0.3499066287 -2.367929147 1.53571359
| 36> H -1.1004246816 -2.5729457036 0.4958318076
| 37> H -2.6322153312 3.1553777737 -0.0944782483
| 38> H -3.8932580886 3.04547669 1.1711327373
| 39> H -2.0890350352 2.3518268147 2.8073638379
| 40> H -0.8801263057 2.5913018824 1.5355452689
| 41> H -1.8026451348 3.9705711195 2.1398582786
| 42> H -4.4446096555 -1.3821798143 -1.6926105423
| 43> H -3.0817036663 -0.5158178164 -2.4578176002
| 44> H -1.643758599 -2.5285298005 -2.1938777071
| 45> H -2.9851473543 -3.3989086236 -1.4274608807
| 46> H -3.0967722083 -2.9174436222 -3.1268514228
| 47> *
| 48>
| 49>                          ****END OF INPUT****

CARTESIAN COORDINATES (ANGSTROEM)
---------------------------------
  C      2.338706    0.168949   -3.178946
  C      3.409165    0.473034   -2.150267
  O      3.280823   -0.356317   -0.984721
  P      2.077077   -0.212603    0.046210
  S      1.651785    1.663792    0.452288
  O      2.602404   -1.067345    1.267491
  C      3.063031   -0.509574    2.517953
  C      2.169837   -0.985837    3.646522
  S      0.672883   -1.593375   -0.724163
  C     -0.289022   -1.908665    0.784728
  S     -0.971761   -0.407093    1.545974
  P     -2.056440    0.351116   -0.103267
  S     -1.218300    1.220543   -1.655162
  O     -3.133684    1.280336    0.609859
  C     -2.917120    2.679455    0.849963
  C     -1.854918    2.912276    1.905587
  O     -2.915893   -0.934678   -0.430003
  C     -3.357763   -1.307485   -1.753869
  C     -2.727077   -2.628384   -2.148522
  H      2.536079    0.732759   -4.084923
  H      2.325598   -0.893805   -3.408110
  H      1.358229    0.458356   -2.797953
  H      3.357379    1.521855   -1.839049
  H      4.407505    0.245436   -2.526285
  H      4.088724   -0.861240    2.639992
  H      3.054269    0.582797    2.445419
  H      2.548460   -0.594454    4.585027
  H      1.152592   -0.627442    3.497119
  H      2.163905   -2.071368    3.688824
  H      0.349907   -2.367929    1.535714
  H     -1.100425   -2.572946    0.495832
  H     -2.632215    3.155378   -0.094478
  H     -3.893258    3.045477    1.171133
  H     -2.089035    2.351827    2.807364
  H     -0.880126    2.591302    1.535545
  H     -1.802645    3.970571    2.139858
  H     -4.444610   -1.382180   -1.692611
  H     -3.081704   -0.515818   -2.457818
  H     -1.643759   -2.528530   -2.193878
  H     -2.985147   -3.398909   -1.427461
  H     -3.096772   -2.917444   -3.126851

 Total Charge           Charge          ....    0
 Multiplicity           Mult            ....    1
 Number of Electrons    NEL             ....  202
 Basis Dimension        Dim             ....  334

ORBITAL ENERGIES
----------------

  NO   OCC          E(Eh)            E(eV)
   0   2.0000     -88.041227     -2395.7236
   1   2.0000     -88.041113     -2395.7205
   2   2.0000     -87.980355     -2394.0672
   3   2.0000     -87.980254     -2394.0644
   4   2.0000     -76.423353     -2079.5851
   5   2.0000     -76.423307     -2079.5839
   6   2.0000     -18.790452      -511.3142
   7   2.0000     -18.790336      -511.3110
   8   2.0000     -18.785328      -511.1748
   9   2.0000     -18.785326      -511.1747
  10   2.0000      -9.960049      -271.0267
  11   2.0000      -9.950430      -270.7650
  12   2.0000      -9.950427      -270.7649
  13   2.0000      -9.945302      -270.6254
  14   2.0000      -9.945229      -270.6234
  15   2.0000      -9.887371      -269.0490
  16   2.0000      -9.887285      -269.0467
  17   2.0000      -9.876632      -268.7568
  18   2.0000      -9.876505      -268.7534
  19   2.0000      -7.685978      -209.1461
  20   2.0000      -7.685878      -209.1434
  21   2.0000      -7.624934      -207.4850
  22   2.0000      -7.624837      -207.4824
  23   2.0000      -6.420665      -174.7152
  24   2.0000      -6.420631      -174.7143
  25   2.0000      -5.714094      -155.4884
  26   2.0000      -5.714005      -155.4860
  27   2.0000      -5.710543      -155.3918
  28   2.0000      -5.710452      -155.3893
  29   2.0000      -5.702661      -155.1773
  30   2.0000      -5.702540      -155.1740
  31   2.0000      -5.653839      -153.8488
  32   2.0000      -5.653709      -153.8452
  33   2.0000      -5.645526      -153.6226
  34   2.0000      -5.645444      -153.6203
  35   2.0000      -5.645155      -153.6125
  36   2.0000      -5.645102      -153.6110
  37   2.0000      -4.643272      -126.3499
  38   2.0000      -4.643256      -126.3494
  39   2.0000      -4.642505      -126.3290
  40   2.0000      -4.642490      -126.3286
  41   2.0000      -4.640986      -126.2876
  42   2.0000      -4.640982      -126.2875
  43   2.0000      -0.982868       -26.7452
  44   2.0000      -0.982617       -26.7384
  45   2.0000      -0.942662       -25.6511
  46   2.0000      -0.942617       -25.6499
  47   2.0000      -0.763972       -20.7887
  48   2.0000      -0.719753       -19.5855
  49   2.0000      -0.708409       -19.2768
  50   2.0000      -0.682102       -18.5609
  51   2.0000      -0.681972       -18.5574
  52   2.0000      -0.669070       -18.2063
  53   2.0000      -0.650141       -17.6912
  54   2.0000      -0.634670       -17.2702
  55   2.0000      -0.598278       -16.2800
  56   2.0000      -0.589734       -16.0475
  57   2.0000      -0.570047       -15.5118
  58   2.0000      -0.569364       -15.4932
  59   2.0000      -0.560705       -15.2575
  60   2.0000      -0.497320       -13.5328
  61   2.0000      -0.497137       -13.5278
  62   2.0000      -0.467958       -12.7338
  63   2.0000      -0.467731       -12.7276
  64   2.0000      -0.460383       -12.5277
  65   2.0000      -0.438122       -11.9219
  66   2.0000      -0.437762       -11.9121
  67   2.0000      -0.429811       -11.6958
  68   2.0000      -0.425359       -11.5746
  69   2.0000      -0.415192       -11.2979
  70   2.0000      -0.411907       -11.2086
  71   2.0000      -0.393821       -10.7164
  72   2.0000      -0.388737       -10.5781
  73   2.0000      -0.386018       -10.5041
  74   2.0000      -0.384633       -10.4664
  75   2.0000      -0.372230       -10.1289
  76   2.0000      -0.368664       -10.0319
  77   2.0000      -0.357852        -9.7376
  78   2.0000      -0.353779        -9.6268
  79   2.0000      -0.349804        -9.5187
  80   2.0000      -0.347041        -9.4435
  81   2.0000      -0.341795        -9.3007
  82   2.0000      -0.340336        -9.2610
  83   2.0000      -0.336049        -9.1444
  84   2.0000      -0.329579        -8.9683
  85   2.0000      -0.320441        -8.7196
  86   2.0000      -0.302812        -8.2399
  87   2.0000      -0.295074        -8.0294
  88   2.0000      -0.290184        -7.8963
  89   2.0000      -0.282616        -7.6904
  90   2.0000      -0.278274        -7.5722
  91   2.0000      -0.275198        -7.4885
  92   2.0000      -0.265217        -7.2169
  93   2.0000      -0.258091        -7.0230
  94   2.0000      -0.257032        -6.9942
  95   2.0000      -0.249646        -6.7932
  96   2.0000      -0.220530        -6.0009
  97   2.0000      -0.210368        -5.7244
  98   2.0000      -0.189693        -5.1618
  99   2.0000      -0.186491        -5.0747
 100   2.0000      -0.182904        -4.9771
 101   0.0000      -0.052285        -1.4227
 102   0.0000      -0.031741        -0.8637
 103   0.0000      -0.008910        -0.2425
 104   0.0000      -0.007252        -0.1973
 105   0.0000       0.024998         0.6802

MULLIKEN ATOMIC CHARGES
-----------------------
   0 C :   -0.347711
   1 C :    0.001596
   2 O :   -0.367069
   3 P :    0.617574
   4 S :   -0.304461
   5 O :   -0.375823
   6 C :   -0.002095
   7 C :   -0.311327
   8 S :   -0.101596
   9 C :   -0.349609
  10 S :   -0.102061
  11 P :    0.617490
  12 S :   -0.303974
  13 O :   -0.366920
  14 C :    0.002020
  15 C :   -0.348277
  16 O :   -0.376020
  17 C :   -0.001979
  18 C :   -0.311618
  19 H :    0.112321
  20 H :    0.115879
  21 H :    0.156647
  22 H :    0.110342
  23 H :    0.102526
  24 H :    0.106026
  25 H :    0.110558
  26 H :    0.113670
  27 H :    0.130299
  28 H :    0.116474
  29 H :    0.191021
  30 H :    0.191236
  31 H :    0.110217
  32 H :    0.102414
  33 H :    0.115704
  34 H :    0.157060
  35 H :    0.112235
  36 H :    0.106081
  37 H :    0.110435
  38 H :    0.130632
  39 H :    0.116426
  40 H :    0.113655
Sum of atomic charges:    0.0000000

LOEWDIN ATOMIC CHARGES
----------------------
   0 C :   -0.375480
   1 C :   -0.119911
   2 O :   -0.245252
   3 P :    0.568590
   4 S :   -0.299540
   5 O :   -0.244233
   6 C :   -0.117330
   7 C :   -0.360032
   8 S :    0.091218
   9 C :   -0.472952
  10 S :    0.091394
  11 P :    0.568528
  12 S :   -0.299678
  13 O :   -0.245046
  14 C :   -0.119902
  15 C :   -0.375584
  16 O :   -0.244378
  17 C :   -0.117325
  18 C :   -0.360228
  19 H :    0.131597
  20 H :    0.122705
  21 H :    0.122750
  22 H :    0.109719
  23 H :    0.117318
  24 H :    0.117616
  25 H :    0.107439
  26 H :    0.132272
  27 H :    0.120934
  28 H :    0.123210
  29 H :    0.133072
  30 H :    0.133066
  31 H :    0.109690
  32 H :    0.117258
  33 H :    0.122671
  34 H :    0.122583
  35 H :    0.131547
  36 H :    0.117701
  37 H :    0.107476
  38 H :    0.121160
  39 H :    0.123083
  40 H :    0.132278

  Mayer bond orders larger than 0.100000
B(  0-C ,  1-C ) :   1.1624 B(  0-C , 19-H ) :   0.9378 B(  0-C , 20-H ) :   0.9438
B(  0-C , 21-H ) :   0.9214 B(  1-C ,  2-O ) :   0.9108 B(  1-C , 22-H ) :   0.9131
B(  1-C , 23-H ) :   0.9332 B(  2-O ,  3-P ) :   1.1189 B(  3-P ,  4-S ) :   1.6202
B(  3-P ,  5-O ) :   1.1139 B(  3-P ,  8-S ) :   0.9476 B(  4-S ,  8-S ) :   0.1124
B(  5-O ,  6-C ) :   0.8989 B(  6-C ,  7-C ) :   1.1681 B(  6-C , 24-H ) :   0.9328
B(  6-C , 25-H ) :   0.8985 B(  7-C , 26-H ) :   0.9391 B(  7-C , 27-H ) :   0.9367
B(  7-C , 28-H ) :   0.9457 B(  8-S ,  9-C ) :   1.0044 B(  9-C , 10-S ) :   1.0046
B(  9-C , 29-H ) :   0.8988 B(  9-C , 30-H ) :   0.8985 B( 10-S , 11-P ) :   0.9469
B( 10-S , 12-S ) :   0.1125 B( 11-P , 12-S ) :   1.6207 B( 11-P , 13-O ) :   1.1191
B( 11-P , 16-O ) :   1.1136 B( 13-O , 14-C ) :   0.9109 B( 14-C , 15-C ) :   1.1624
B( 14-C , 31-H ) :   0.9130 B( 14-C , 32-H ) :   0.9333 B( 15-C , 33-H ) :   0.9438
B( 15-C , 34-H ) :   0.9213 B( 15-C , 35-H ) :   0.9378 B( 16-O , 17-C ) :   0.8989
B( 17-C , 18-C ) :   1.1685 B( 17-C , 36-H ) :   0.9327 B( 17-C , 37-H ) :   0.8988
B( 18-C , 38-H ) :   0.9366 B( 18-C , 39-H ) :   0.9454 B( 18-C , 40-H ) :   0.9391

Dispersion correction           -0.069022382
FINAL SINGLE POINT ENERGY     -2929.514607493089

DIPOLE MOMENT
-------------

Method             : SCF
Type of density    : Electron Density
Multiplicity       :   1
Irrep              :   0
Energy             : -2929.6300248845345777 Eh
Relativity type    :
Basis              : AO
                                X                 Y                 Z
Electronic contribution:      0.204952121       1.393549066      -0.605822941
Nuclear contribution   :     -0.312865259      -2.113243257       0.906096878
                        -----------------------------------------
Total Dipole Moment    :     -0.107913138      -0.719694191       0.300273937
                        -----------------------------------------
Magnitude (a.u.)       :      0.787254350
Magnitude (Debye)      :      2.001041533

Rotational constants in cm-1:             0.010110             0.006391             0.005729
Rotational constants in MHz :           303.079243           191.598395           171.737570

                             ****ORCA TERMINATED NORMALLY****
TOTAL RUN TIME: 0 days 0 hours 0 minutes 21 seconds 731 msec
