                         Program Version 6.0.0  -   RELEASE  -
|  1> ! pbe def2-sv(p) def2/J RI DEFGRID1 loosescf d4 GCP(DFT/SV(P)) printgap
|  2> %output
|  3>     printlevel normal
|  4> end
|  5> * xyz 0 1
|  6> C -1.2662609136 0.7023712821 -0.0026031096
|  7> C 4.7763e-06 -0.1031621232 5.85093e-05
|  8> O 0.0001259686 -1.3197712551 -1.36944e-05
|  9> C 1.2661244572 0.7025862544 0.0025975636
| 10> H -1.401176075 1.1352354384 0.9866462008
| 11> H -1.1974476521 1.5149416424 -0.7193443187
| 12> H -2.1190360027 0.0679261285 -0.2274692578
| 13> H 1.401824459 1.1337062498 -0.9872875516
| 14> H 2.1188130865 0.0686306885 0.2292142476
| 15> H 1.1965917554 1.5164209049 0.7178269387
| 16> *
| 17>
| 18>                          ****END OF INPUT****

CARTESIAN COORDINATES (ANGSTROEM)
---------------------------------
  C     -1.266261    0.702371   -0.002603
  C      0.000005   -0.103162    0.000059
  O      0.000126   -1.319771   -0.000014
  C      1.266124    0.702586    0.002598
  H     -1.401176    1.135235    0.986646
  H     -1.197448    1.514942   -0.719344
  H     -2.119036    0.067926   -0.227469
  H      1.401824    1.133706   -0.987288
  H      2.118813    0.068631    0.229214
  H      1.196592    1.516421    0.717827

 Total Charge           Charge          ....    0
 Multiplicity           Mult            ....    1
 Number of Electrons    NEL             ....   32
 Basis Dimension        Dim             ....   68

ORBITAL ENERGIES
----------------

  NO   OCC          E(Eh)            E(eV)
   0   2.0000     -18.738453      -509.8992
   1   2.0000      -9.974377      -271.4166
   2   2.0000      -9.887823      -269.0613
   3   2.0000      -9.887822      -269.0613
   4   2.0000      -0.933396       -25.3990
   5   2.0000      -0.697290       -18.9742
   6   2.0000      -0.638360       -17.3707
   7   2.0000      -0.470083       -12.7916
   8   2.0000      -0.418389       -11.3849
   9   2.0000      -0.408294       -11.1102
  10   2.0000      -0.398880       -10.8541
  11   2.0000      -0.363145        -9.8817
  12   2.0000      -0.342985        -9.3331
  13   2.0000      -0.334074        -9.0906
  14   2.0000      -0.307640        -8.3713
  15   2.0000      -0.195995        -5.3333
  16   0.0000      -0.048542        -1.3209
  17   0.0000       0.032398         0.8816
  18   0.0000       0.088069         2.3965
  19   0.0000       0.093699         2.5497
  20   0.0000       0.100564         2.7365

MULLIKEN ATOMIC CHARGES
-----------------------
   0 C :   -0.263944
   1 C :   -0.029239
   2 O :   -0.172091
   3 C :   -0.263930
   4 H :    0.128378
   5 H :    0.116052
   6 H :    0.120168
   7 H :    0.128414
   8 H :    0.120197
   9 H :    0.115997
Sum of atomic charges:    0.0000000

LOEWDIN ATOMIC CHARGES
----------------------
   0 C :   -0.363656
   1 C :    0.033561
   2 O :   -0.136096
   3 C :   -0.363658
   4 H :    0.145419
   5 H :    0.134649
   6 H :    0.134849
   7 H :    0.145459
   8 H :    0.134871
   9 H :    0.134601

  Mayer bond orders larger than 0.100000
B(  0-C ,  1-C ) :   1.0464 B(  0-C ,  4-H ) :   0.9229 B(  0-C ,  5-H ) :   0.9360
B(  0-C ,  6-H ) :   0.9375 B(  1-C ,  2-O ) :   2.1960 B(  1-C ,  3-C ) :   1.0463
B(  3-C ,  7-H ) :   0.9229 B(  3-C ,  8-H ) :   0.9374 B(  3-C ,  9-H ) :   0.9360

Dispersion correction           -0.005343453
FINAL SINGLE POINT ENERGY      -192.716423434132

DIPOLE MOMENT
-------------

Method             : SCF
Type of density    : Electron Density
Multiplicity       :   1
Irrep              :   0
Energy             :  -192.7504070637759526 Eh
Relativity type    :
Basis              : AO
                                X                 Y                 Z
Electronic contribution:      0.000412876      -4.019461310       0.000213413
Nuclear contribution   :     -0.000401945       5.081099687      -0.000388364
                        -----------------------------------------
Total Dipole Moment    :      0.000010931       1.061638377      -0.000174951
                        -----------------------------------------
Magnitude (a.u.)       :      1.061638392
Magnitude (Debye)      :      2.698470340

Rotational constants in cm-1:             0.335846             0.293058             0.166089
Rotational constants in MHz :         10068.412123          8785.666205          4979.225467

                             ****ORCA TERMINATED NORMALLY****
TOTAL RUN TIME: 0 days 0 hours 0 minutes 3 seconds 837 msec
