                         Program Version 6.0.0  -   RELEASE  -
|  1> ! pbe def2-sv(p) def2/J RI DEFGRID1 loosescf d4 GCP(DFT/SV(P)) printgap
|  2> %output
|  3>     printlevel normal
|  4> end
|  5> * xyz 0 1
|  6> C 1.7694382501 0.3422648339 -3.2608647161
|  7> C 2.3924817775 0.3990683029 -1.8829816197
|  8> O 1.5919418352 -0.4279484167 -1.0088405553
|  9> P 1.9312824974 -0.5569681919 0.5293082624
| 10> S 2.3916043733 1.0699897134 1.5289679012
| 11> O 3.0954938086 -1.6427165337 0.4713440086
| 12> C 3.8916933898 -1.9754749031 1.6274358284
| 13> C 5.2605814538 -1.3320352185 1.5226765091
| 14> S 0.3049293649 -1.6710261125 1.2424251389
| 15> C -0.7058405365 -0.3538224396 2.0115135239
| 16> S -2.3402695167 -0.2000218406 1.2650913565
| 17> P -1.7567786846 0.6682428481 -0.5882937912
| 18> S -0.3964255747 2.0744020551 -0.4925093336
| 19> O -3.1260090907 1.1376440695 -1.2433706964
| 20> C -3.7048475814 2.4299424735 -0.9974426199
| 21> C -4.2057809828 2.575815502 0.4250134203
| 22> O -1.3105054416 -0.5175571988 -1.5245436398
| 23> C -1.9033586621 -1.8375981947 -1.6043300285
| 24> C -3.3868935035 -1.8025841066 -1.8975026427
| 25> H 2.3381166868 0.9736043145 -3.9356488088
| 26> H 1.7695199003 -0.6799424806 -3.6274839103
| 27> H 0.743549614 0.6998703618 -3.2116297107
| 28> H 2.3905034556 1.4192305752 -1.4834924613
| 29> H 3.4151960063 0.0134921453 -1.8826865075
| 30> H 3.3752062892 -1.6402621244 2.5311207772
| 31> H 3.9575422064 -3.0647454721 1.6240506268
| 32> H 5.865976271 -1.6390087547 2.3692158733
| 33> H 5.7480695302 -1.6363675778 0.6007210013
| 34> H 5.162944354 -0.2482617962 1.5305870662
| 35> H -0.1613995878 0.5914499893 1.9309083509
| 36> H -0.8708004357 -0.6247121547 3.0509825063
| 37> H -2.9539853142 3.1943997881 -1.2212983466
| 38> H -4.5206130212 2.489255911 -1.7191832297
| 39> H -3.3658997949 2.5991370215 1.1172031301
| 40> H -4.7590177576 3.5051523229 0.5150844884
| 41> H -4.853222492 1.7429471029 0.6863109295
| 42> H -1.3413369989 -2.3090967465 -2.4118937461
| 43> H -1.7013252343 -2.3618922098 -0.6656820253
| 44> H -3.58163013 -1.2134268382 -2.7896840928
| 45> H -3.7373538589 -2.8183654491 -2.0527061288
| 46> H -3.927301251 -1.3651483012 -1.0607949651
| 47> *
| 48>
| 49>                          ****END OF INPUT****

CARTESIAN COORDINATES (ANGSTROEM)
---------------------------------
  C      1.769438    0.342265   -3.260865
  C      2.392482    0.399068   -1.882982
  O      1.591942   -0.427948   -1.008841
  P      1.931282   -0.556968    0.529308
  S      2.391604    1.069990    1.528968
  O      3.095494   -1.642717    0.471344
  C      3.891693   -1.975475    1.627436
  C      5.260581   -1.332035    1.522677
  S      0.304929   -1.671026    1.242425
  C     -0.705841   -0.353822    2.011514
  S     -2.340270   -0.200022    1.265091
  P     -1.756779    0.668243   -0.588294
  S     -0.396426    2.074402   -0.492509
  O     -3.126009    1.137644   -1.243371
  C     -3.704848    2.429942   -0.997443
  C     -4.205781    2.575816    0.425013
  O     -1.310505   -0.517557   -1.524544
  C     -1.903359   -1.837598   -1.604330
  C     -3.386894   -1.802584   -1.897503
  H      2.338117    0.973604   -3.935649
  H      1.769520   -0.679942   -3.627484
  H      0.743550    0.699870   -3.211630
  H      2.390503    1.419231   -1.483492
  H      3.415196    0.013492   -1.882687
  H      3.375206   -1.640262    2.531121
  H      3.957542   -3.064745    1.624051
  H      5.865976   -1.639009    2.369216
  H      5.748070   -1.636368    0.600721
  H      5.162944   -0.248262    1.530587
  H     -0.161400    0.591450    1.930908
  H     -0.870800   -0.624712    3.050983
  H     -2.953985    3.194400   -1.221298
  H     -4.520613    2.489256   -1.719183
  H     -3.365900    2.599137    1.117203
  H     -4.759018    3.505152    0.515084
  H     -4.853222    1.742947    0.686311
  H     -1.341337   -2.309097   -2.411894
  H     -1.701325   -2.361892   -0.665682
  H     -3.581630   -1.213427   -2.789684
  H     -3.737354   -2.818365   -2.052706
  H     -3.927301   -1.365148   -1.060795

 Total Charge           Charge          ....    0
 Multiplicity           Mult            ....    1
 Number of Electrons    NEL             ....  202
 Basis Dimension        Dim             ....  334

ORBITAL ENERGIES
----------------

  NO   OCC          E(Eh)            E(eV)
   0   2.0000     -88.046575     -2395.8691
   1   2.0000     -88.042906     -2395.7693
   2   2.0000     -87.980844     -2394.0805
   3   2.0000     -87.980000     -2394.0575
   4   2.0000     -76.425305     -2079.6383
   5   2.0000     -76.419805     -2079.4886
   6   2.0000     -18.793574      -511.3991
   7   2.0000     -18.789295      -511.2827
   8   2.0000     -18.786613      -511.2097
   9   2.0000     -18.779416      -511.0139
  10   2.0000      -9.956151      -270.9206
  11   2.0000      -9.952272      -270.8151
  12   2.0000      -9.952049      -270.8090
  13   2.0000      -9.949227      -270.7322
  14   2.0000      -9.940148      -270.4852
  15   2.0000      -9.885950      -269.0104
  16   2.0000      -9.884201      -268.9628
  17   2.0000      -9.879233      -268.8276
  18   2.0000      -9.873282      -268.6657
  19   2.0000      -7.691420      -209.2942
  20   2.0000      -7.688179      -209.2060
  21   2.0000      -7.625735      -207.5068
  22   2.0000      -7.625000      -207.4868
  23   2.0000      -6.422530      -174.7659
  24   2.0000      -6.417597      -174.6317
  25   2.0000      -5.719283      -155.6296
  26   2.0000      -5.715990      -155.5400
  27   2.0000      -5.715743      -155.5333
  28   2.0000      -5.712592      -155.4475
  29   2.0000      -5.708621      -155.3395
  30   2.0000      -5.705230      -155.2472
  31   2.0000      -5.654721      -153.8728
  32   2.0000      -5.653900      -153.8505
  33   2.0000      -5.646315      -153.6440
  34   2.0000      -5.645836      -153.6310
  35   2.0000      -5.645714      -153.6277
  36   2.0000      -5.645089      -153.6107
  37   2.0000      -4.645290      -126.4048
  38   2.0000      -4.644414      -126.3809
  39   2.0000      -4.642745      -126.3355
  40   2.0000      -4.639980      -126.2603
  41   2.0000      -4.639188      -126.2387
  42   2.0000      -4.638363      -126.2163
  43   2.0000      -0.986178       -26.8353
  44   2.0000      -0.979309       -26.6484
  45   2.0000      -0.944518       -25.7017
  46   2.0000      -0.935767       -25.4635
  47   2.0000      -0.763312       -20.7708
  48   2.0000      -0.719358       -19.5747
  49   2.0000      -0.707638       -19.2558
  50   2.0000      -0.689818       -18.7709
  51   2.0000      -0.680656       -18.5216
  52   2.0000      -0.673936       -18.3387
  53   2.0000      -0.648203       -17.6385
  54   2.0000      -0.630647       -17.1608
  55   2.0000      -0.597907       -16.2699
  56   2.0000      -0.585669       -15.9369
  57   2.0000      -0.575504       -15.6603
  58   2.0000      -0.566122       -15.4050
  59   2.0000      -0.554418       -15.0865
  60   2.0000      -0.500899       -13.6301
  61   2.0000      -0.491358       -13.3705
  62   2.0000      -0.473828       -12.8935
  63   2.0000      -0.470482       -12.8025
  64   2.0000      -0.449689       -12.2367
  65   2.0000      -0.443601       -12.0710
  66   2.0000      -0.439234       -11.9522
  67   2.0000      -0.434096       -11.8124
  68   2.0000      -0.425907       -11.5895
  69   2.0000      -0.417880       -11.3711
  70   2.0000      -0.410913       -11.1815
  71   2.0000      -0.397439       -10.8149
  72   2.0000      -0.390530       -10.6269
  73   2.0000      -0.381003       -10.3676
  74   2.0000      -0.376275       -10.2390
  75   2.0000      -0.368330       -10.0228
  76   2.0000      -0.364354        -9.9146
  77   2.0000      -0.356475        -9.7002
  78   2.0000      -0.351726        -9.5709
  79   2.0000      -0.349659        -9.5147
  80   2.0000      -0.346299        -9.4233
  81   2.0000      -0.343299        -9.3417
  82   2.0000      -0.335835        -9.1385
  83   2.0000      -0.329596        -8.9688
  84   2.0000      -0.323815        -8.8114
  85   2.0000      -0.313870        -8.5408
  86   2.0000      -0.310336        -8.4447
  87   2.0000      -0.295767        -8.0482
  88   2.0000      -0.291764        -7.9393
  89   2.0000      -0.291239        -7.9250
  90   2.0000      -0.280705        -7.6384
  91   2.0000      -0.271525        -7.3886
  92   2.0000      -0.263463        -7.1692
  93   2.0000      -0.259618        -7.0646
  94   2.0000      -0.258115        -7.0237
  95   2.0000      -0.239359        -6.5133
  96   2.0000      -0.222471        -6.0537
  97   2.0000      -0.212561        -5.7841
  98   2.0000      -0.201859        -5.4929
  99   2.0000      -0.192958        -5.2507
 100   2.0000      -0.182944        -4.9782
 101   0.0000      -0.041311        -1.1241
 102   0.0000      -0.029623        -0.8061
 103   0.0000      -0.010445        -0.2842
 104   0.0000       0.012388         0.3371
 105   0.0000       0.022529         0.6131

MULLIKEN ATOMIC CHARGES
-----------------------
   0 C :   -0.279820
   1 C :   -0.003306
   2 O :   -0.355533
   3 P :    0.611373
   4 S :   -0.320058
   5 O :   -0.381760
   6 C :   -0.002577
   7 C :   -0.288238
   8 S :   -0.098959
   9 C :   -0.350664
  10 S :   -0.111928
  11 P :    0.600822
  12 S :   -0.298726
  13 O :   -0.374805
  14 C :   -0.002424
  15 C :   -0.317962
  16 O :   -0.348407
  17 C :   -0.002922
  18 C :   -0.304581
  19 H :    0.103864
  20 H :    0.105333
  21 H :    0.126898
  22 H :    0.114032
  23 H :    0.096124
  24 H :    0.098458
  25 H :    0.103221
  26 H :    0.106907
  27 H :    0.110947
  28 H :    0.123145
  29 H :    0.209512
  30 H :    0.183684
  31 H :    0.113064
  32 H :    0.103947
  33 H :    0.130207
  34 H :    0.114219
  35 H :    0.115118
  36 H :    0.108114
  37 H :    0.114789
  38 H :    0.120164
  39 H :    0.112070
  40 H :    0.116657
Sum of atomic charges:    0.0000000

LOEWDIN ATOMIC CHARGES
----------------------
   0 C :   -0.352585
   1 C :   -0.116365
   2 O :   -0.233720
   3 P :    0.565866
   4 S :   -0.313342
   5 O :   -0.252927
   6 C :   -0.118010
   7 C :   -0.359822
   8 S :    0.081137
   9 C :   -0.478297
  10 S :    0.075672
  11 P :    0.567713
  12 S :   -0.291845
  13 O :   -0.242825
  14 C :   -0.119010
  15 C :   -0.370778
  16 O :   -0.226212
  17 C :   -0.115655
  18 C :   -0.366429
  19 H :    0.127399
  20 H :    0.121817
  21 H :    0.127468
  22 H :    0.110518
  23 H :    0.106845
  24 H :    0.106733
  25 H :    0.116136
  26 H :    0.128383
  27 H :    0.123874
  28 H :    0.125585
  29 H :    0.127230
  30 H :    0.138219
  31 H :    0.112050
  32 H :    0.118228
  33 H :    0.122603
  34 H :    0.131757
  35 H :    0.122524
  36 H :    0.122182
  37 H :    0.102215
  38 H :    0.127677
  39 H :    0.130723
  40 H :    0.117268

  Mayer bond orders larger than 0.100000
B(  0-C ,  1-C ) :   1.1662 B(  0-C , 19-H ) :   0.9411 B(  0-C , 20-H ) :   0.9501
B(  0-C , 21-H ) :   0.9412 B(  1-C ,  2-O ) :   0.8917 B(  1-C , 22-H ) :   0.9139
B(  1-C , 23-H ) :   0.9270 B(  2-O ,  3-P ) :   1.1526 B(  3-P ,  4-S ) :   1.6053
B(  3-P ,  5-O ) :   1.0970 B(  3-P ,  8-S ) :   0.9689 B(  4-S ,  8-S ) :   0.1166
B(  5-O ,  6-C ) :   0.9029 B(  6-C ,  7-C ) :   1.1667 B(  6-C , 24-H ) :   0.9106
B(  6-C , 25-H ) :   0.9349 B(  7-C , 26-H ) :   0.9407 B(  7-C , 27-H ) :   0.9481
B(  7-C , 28-H ) :   0.9375 B(  8-S ,  9-C ) :   0.9906 B(  9-C , 10-S ) :   1.0052
B(  9-C , 29-H ) :   0.8465 B(  9-C , 30-H ) :   0.9110 B( 10-S , 11-P ) :   0.9318
B( 10-S , 12-S ) :   0.1034 B( 11-P , 12-S ) :   1.6299 B( 11-P , 13-O ) :   1.0888
B( 11-P , 16-O ) :   1.1467 B( 13-O , 14-C ) :   0.9069 B( 14-C , 15-C ) :   1.1660
B( 14-C , 31-H ) :   0.9137 B( 14-C , 32-H ) :   0.9338 B( 15-C , 33-H ) :   0.9349
B( 15-C , 34-H ) :   0.9377 B( 15-C , 35-H ) :   0.9451 B( 16-O , 17-C ) :   0.8987
B( 17-C , 18-C ) :   1.1691 B( 17-C , 36-H ) :   0.9344 B( 17-C , 37-H ) :   0.9087
B( 18-C , 38-H ) :   0.9434 B( 18-C , 39-H ) :   0.9362 B( 18-C , 40-H ) :   0.9384

Dispersion correction           -0.067923636
FINAL SINGLE POINT ENERGY     -2929.521192522897

DIPOLE MOMENT
-------------

Method             : SCF
Type of density    : Electron Density
Multiplicity       :   1
Irrep              :   0
Energy             : -2929.6389709024460899 Eh
Relativity type    :
Basis              : AO
                                X                 Y                 Z
Electronic contribution:      0.412769369       1.426607135       9.257347992
Nuclear contribution   :     -1.096025755      -2.383758843      -9.580001605
                        -----------------------------------------
Total Dipole Moment    :     -0.683256386      -0.957151708      -0.322653613
                        -----------------------------------------
Magnitude (a.u.)       :      1.219460551
Magnitude (Debye)      :      3.099622389

Rotational constants in cm-1:             0.013246             0.005174             0.005078
Rotational constants in MHz :           397.117575           155.099997           152.241495

                             ****ORCA TERMINATED NORMALLY****
TOTAL RUN TIME: 0 days 0 hours 0 minutes 21 seconds 786 msec
