                         Program Version 6.0.1  -  RELEASE   -
|  1> ! pbe def2-sv(p) def2/J RI DEFGRID1 loosescf d4 GCP(DFT/SV(P)) printgap
|  2> %output
|  3>     printlevel normal
|  4> end
|  5> * xyz 0 1
|  6> C 5.2155323132 -1.7210548093 -1.6492040738
|  7> C 4.4568641297 -0.4746873836 -1.2216034848
|  8> O 3.034085827 -0.6952345551 -1.2594227123
|  9> C 2.4601310251 -1.237039512 -0.1989245038
| 10> O 3.0481756516 -1.5662466945 0.8043382776
| 11> C 0.9679730367 -1.4311287167 -0.4025453928
| 12> C 0.3293933982 -0.2162000355 -1.0655933719
| 13> H 0.8184983243 -0.0188387982 -2.025222356
| 14> C 0.421913608 1.0462512954 -0.230123277
| 15> O -0.4562786684 1.8869658677 -0.2107195389
| 16> O 1.556089082 1.1340116187 0.4101866255
| 17> C 1.7595312879 2.267695629 1.2798767658
| 18> C 3.2114495985 2.2673268214 1.7124506193
| 19> S -1.4224504474 -0.4897710711 -1.4838272587
| 20> P -2.3707597472 0.0367228057 0.3430193117
| 21> S -1.3566112492 -0.1484381072 2.0098989174
| 22> O -3.1026130644 1.4275676264 0.2121550753
| 23> C -3.8777762366 1.7954410026 -0.9457907363
| 24> O -3.6485239116 -0.9326749047 0.2800527719
| 25> C -3.5211228858 -2.3498721427 0.4334015704
| 26> H 4.8897589426 -2.0387504613 -2.6357978826
| 27> H 6.2779307945 -1.5025052405 -1.6759506799
| 28> H 5.0390021745 -2.5262489084 -0.9398903213
| 29> H 4.6234242043 0.3493819289 -1.9156108717
| 30> H 4.7355649029 -0.1817899714 -0.2056787874
| 31> H 0.5187291124 -1.6298837212 0.5727296462
| 32> H 0.823385806 -2.3014579285 -1.0456806099
| 33> H 1.4866641879 3.1757492037 0.7338623063
| 34> H 1.0808347864 2.1536011057 2.1314179297
| 35> H 3.8603138135 2.4228361416 0.8554671798
| 36> H 3.3698070323 3.0632230375 2.4320976011
| 37> H 3.4544053613 1.3134097565 2.1731353343
| 38> H -4.3029943325 2.7652971086 -0.7017354219
| 39> H -4.6597355849 1.0587853115 -1.1213418265
| 40> H -3.2241537639 1.8715142285 -1.8144690332
| 41> H -3.0785315631 -2.7807982758 -0.4642984674
| 42> H -4.5325424873 -2.720254663 0.5791728769
| 43> H -2.9037199372 -2.5785656703 1.3036084315
| 44> *
| 45>
| 46>                          ****END OF INPUT****

CARTESIAN COORDINATES (ANGSTROEM)
---------------------------------
  C      5.215532   -1.721055   -1.649204
  C      4.456864   -0.474687   -1.221603
  O      3.034086   -0.695235   -1.259423
  C      2.460131   -1.237040   -0.198925
  O      3.048176   -1.566247    0.804338
  C      0.967973   -1.431129   -0.402545
  C      0.329393   -0.216200   -1.065593
  H      0.818498   -0.018839   -2.025222
  C      0.421914    1.046251   -0.230123
  O     -0.456279    1.886966   -0.210720
  O      1.556089    1.134012    0.410187
  C      1.759531    2.267696    1.279877
  C      3.211450    2.267327    1.712451
  S     -1.422450   -0.489771   -1.483827
  P     -2.370760    0.036723    0.343019
  S     -1.356611   -0.148438    2.009899
  O     -3.102613    1.427568    0.212155
  C     -3.877776    1.795441   -0.945791
  O     -3.648524   -0.932675    0.280053
  C     -3.521123   -2.349872    0.433402
  H      4.889759   -2.038750   -2.635798
  H      6.277931   -1.502505   -1.675951
  H      5.039002   -2.526249   -0.939890
  H      4.623424    0.349382   -1.915611
  H      4.735565   -0.181790   -0.205679
  H      0.518729   -1.629884    0.572730
  H      0.823386   -2.301458   -1.045681
  H      1.486664    3.175749    0.733862
  H      1.080835    2.153601    2.131418
  H      3.860314    2.422836    0.855467
  H      3.369807    3.063223    2.432098
  H      3.454405    1.313410    2.173135
  H     -4.302994    2.765297   -0.701735
  H     -4.659736    1.058785   -1.121342
  H     -3.224154    1.871514   -1.814469
  H     -3.078532   -2.780798   -0.464298
  H     -4.532542   -2.720255    0.579173
  H     -2.903720   -2.578566    1.303608

 Total Charge           Charge          ....    0
 Multiplicity           Mult            ....    1
 Number of Electrons    NEL             ....  174
 Basis Dimension        Dim             ....  316

ORBITAL ENERGIES
----------------

  NO   OCC          E(Eh)            E(eV)
   0   2.0000     -88.039960     -2395.6891
   1   2.0000     -87.980199     -2394.0629
   2   2.0000     -76.423652     -2079.5933
   3   2.0000     -18.813807      -511.9497
   4   2.0000     -18.802314      -511.6370
   5   2.0000     -18.787138      -511.2240
   6   2.0000     -18.785783      -511.1871
   7   2.0000     -18.739952      -509.9400
   8   2.0000     -18.735128      -509.8088
   9   2.0000     -10.019759      -272.6515
  10   2.0000     -10.008731      -272.3514
  11   2.0000      -9.950486      -270.7665
  12   2.0000      -9.950228      -270.7595
  13   2.0000      -9.949127      -270.7295
  14   2.0000      -9.943682      -270.5813
  15   2.0000      -9.940809      -270.5032
  16   2.0000      -9.904872      -269.5253
  17   2.0000      -9.888977      -269.0927
  18   2.0000      -9.888201      -269.0716
  19   2.0000      -7.684913      -209.1171
  20   2.0000      -7.625264      -207.4940
  21   2.0000      -6.420217      -174.7030
  22   2.0000      -5.712837      -155.4542
  23   2.0000      -5.709374      -155.3600
  24   2.0000      -5.701884      -155.1562
  25   2.0000      -5.654420      -153.8646
  26   2.0000      -5.645812      -153.6304
  27   2.0000      -5.645196      -153.6136
  28   2.0000      -4.642928      -126.3405
  29   2.0000      -4.642224      -126.3213
  30   2.0000      -4.640572      -126.2764
  31   2.0000      -1.022756       -27.8306
  32   2.0000      -1.008802       -27.4509
  33   2.0000      -0.981233       -26.7007
  34   2.0000      -0.936630       -25.4870
  35   2.0000      -0.922169       -25.0935
  36   2.0000      -0.912998       -24.8439
  37   2.0000      -0.766960       -20.8700
  38   2.0000      -0.712370       -19.3846
  39   2.0000      -0.709601       -19.3092
  40   2.0000      -0.690021       -18.7764
  41   2.0000      -0.658188       -17.9102
  42   2.0000      -0.631808       -17.1924
  43   2.0000      -0.621164       -16.9027
  44   2.0000      -0.614551       -16.7228
  45   2.0000      -0.593352       -16.1459
  46   2.0000      -0.565788       -15.3959
  47   2.0000      -0.515850       -14.0370
  48   2.0000      -0.507732       -13.8161
  49   2.0000      -0.500815       -13.6279
  50   2.0000      -0.481375       -13.0989
  51   2.0000      -0.469710       -12.7815
  52   2.0000      -0.464805       -12.6480
  53   2.0000      -0.445225       -12.1152
  54   2.0000      -0.439489       -11.9591
  55   2.0000      -0.430024       -11.7015
  56   2.0000      -0.426457       -11.6045
  57   2.0000      -0.418507       -11.3882
  58   2.0000      -0.410501       -11.1703
  59   2.0000      -0.405137       -11.0243
  60   2.0000      -0.399142       -10.8612
  61   2.0000      -0.396731       -10.7956
  62   2.0000      -0.392617       -10.6837
  63   2.0000      -0.383241       -10.4285
  64   2.0000      -0.374470       -10.1898
  65   2.0000      -0.365619        -9.9490
  66   2.0000      -0.359464        -9.7815
  67   2.0000      -0.356245        -9.6939
  68   2.0000      -0.346058        -9.4167
  69   2.0000      -0.342956        -9.3323
  70   2.0000      -0.331756        -9.0275
  71   2.0000      -0.327234        -8.9045
  72   2.0000      -0.325763        -8.8645
  73   2.0000      -0.312425        -8.5015
  74   2.0000      -0.302827        -8.2404
  75   2.0000      -0.298583        -8.1248
  76   2.0000      -0.296346        -8.0640
  77   2.0000      -0.291546        -7.9334
  78   2.0000      -0.272441        -7.4135
  79   2.0000      -0.264437        -7.1957
  80   2.0000      -0.257480        -7.0064
  81   2.0000      -0.255976        -6.9655
  82   2.0000      -0.237589        -6.4651
  83   2.0000      -0.224450        -6.1076
  84   2.0000      -0.214006        -5.8234
  85   2.0000      -0.197009        -5.3609
  86   2.0000      -0.195537        -5.3208
  87   0.0000      -0.044494        -1.2107
  88   0.0000      -0.028501        -0.7756
  89   0.0000      -0.014895        -0.4053
  90   0.0000       0.005559         0.1513
  91   0.0000       0.024166         0.6576

MULLIKEN ATOMIC CHARGES
-----------------------
   0 C :   -0.301524
   1 C :   -0.019627
   2 O :   -0.249680
   3 C :    0.123444
   4 O :   -0.196262
   5 C :   -0.047599
   6 C :   -0.304246
   7 H :    0.160154
   8 C :    0.180731
   9 O :   -0.194191
  10 O :   -0.220568
  11 C :   -0.025648
  12 C :   -0.289291
  13 S :   -0.095743
  14 P :    0.612396
  15 S :   -0.312259
  16 O :   -0.349442
  17 C :   -0.102501
  18 O :   -0.389247
  19 C :   -0.100758
  20 H :    0.111851
  21 H :    0.112654
  22 H :    0.128694
  23 H :    0.099844
  24 H :    0.113630
  25 H :    0.119176
  26 H :    0.114218
  27 H :    0.109141
  28 H :    0.121672
  29 H :    0.111719
  30 H :    0.113569
  31 H :    0.137728
  32 H :    0.131184
  33 H :    0.119041
  34 H :    0.124054
  35 H :    0.112269
  36 H :    0.123998
  37 H :    0.117419
Sum of atomic charges:   -0.0000000

LOEWDIN ATOMIC CHARGES
----------------------
   0 C :   -0.356098
   1 C :   -0.111414
   2 O :   -0.068102
   3 C :    0.026931
   4 O :   -0.162013
   5 C :   -0.254018
   6 C :   -0.268696
   7 H :    0.152629
   8 C :    0.002908
   9 O :   -0.167864
  10 O :   -0.031008
  11 C :   -0.102096
  12 C :   -0.353135
  13 S :    0.099929
  14 P :    0.586310
  15 S :   -0.303662
  16 O :   -0.227536
  17 C :   -0.207809
  18 O :   -0.263312
  19 C :   -0.218389
  20 H :    0.123952
  21 H :    0.130649
  22 H :    0.131525
  23 H :    0.115931
  24 H :    0.120525
  25 H :    0.136048
  26 H :    0.142746
  27 H :    0.118468
  28 H :    0.124610
  29 H :    0.122624
  30 H :    0.132221
  31 H :    0.134894
  32 H :    0.126831
  33 H :    0.112864
  34 H :    0.113549
  35 H :    0.106359
  36 H :    0.121924
  37 H :    0.110723

  Mayer bond orders larger than 0.100000
B(  0-C ,  1-C ) :   1.1740 B(  0-C , 20-H ) :   0.9487 B(  0-C , 21-H ) :   0.9442
B(  0-C , 22-H ) :   0.9451 B(  1-C ,  2-O ) :   0.9175 B(  1-C , 23-H ) :   0.9374
B(  1-C , 24-H ) :   0.9110 B(  2-O ,  3-C ) :   1.1929 B(  3-C ,  4-O ) :   2.0602
B(  3-C ,  5-C ) :   1.0175 B(  5-C ,  6-C ) :   1.0289 B(  5-C , 25-H ) :   0.8826
B(  5-C , 26-H ) :   0.8808 B(  6-C ,  7-H ) :   0.8547 B(  6-C ,  8-C ) :   0.8991
B(  6-C , 13-S ) :   1.0114 B(  8-C ,  9-O ) :   2.0170 B(  8-C , 10-O ) :   1.2634
B( 10-O , 11-C ) :   0.8888 B( 11-C , 12-C ) :   1.1559 B( 11-C , 27-H ) :   0.9278
B( 11-C , 28-H ) :   0.9271 B( 12-C , 29-H ) :   0.9490 B( 12-C , 30-H ) :   0.9415
B( 12-C , 31-H ) :   0.9420 B( 13-S , 14-P ) :   0.9491 B( 13-S , 15-S ) :   0.1118
B( 14-P , 15-S ) :   1.6013 B( 14-P , 16-O ) :   1.1449 B( 14-P , 18-O ) :   1.0650
B( 16-O , 17-C ) :   0.9190 B( 17-C , 32-H ) :   0.9597 B( 17-C , 33-H ) :   0.9457
B( 17-C , 34-H ) :   0.9414 B( 18-O , 19-C ) :   0.9351 B( 19-C , 35-H ) :   0.9463
B( 19-C , 36-H ) :   0.9587 B( 19-C , 37-H ) :   0.9347

Dispersion correction           -0.052655638
FINAL SINGLE POINT ENERGY     -1979.016704563377

DIPOLE MOMENT
-------------

Method             : SCF
Type of density    : Electron Density
Multiplicity       :   1
Irrep              :   0
Energy             : -1979.1468834535412498 Eh
Relativity type    :
Basis              : AO
                                X                 Y                 Z
Electronic contribution:    -18.897750053       0.236506838       2.417700282
Nuclear contribution   :     19.351742788      -0.094544583      -3.849665616
                        -----------------------------------------
Total Dipole Moment    :      0.453992735       0.141962256      -1.431965334
                        -----------------------------------------
Magnitude (a.u.)       :      1.508902715
Magnitude (Debye)      :      3.835325903

Rotational constants in cm-1:             0.016964             0.006057             0.005477
Rotational constants in MHz :           508.557176           181.578452           164.192418

                             ****ORCA TERMINATED NORMALLY****
TOTAL RUN TIME: 0 days 0 hours 0 minutes 51 seconds 173 msec
