                         Program Version 6.0.0  -   RELEASE  -
|  1> ! pbe def2-sv(p) def2/J RI DEFGRID1 loosescf d4 GCP(DFT/SV(P)) printgap
|  2> %output
|  3>     printlevel normal
|  4> end
|  5> * xyz 0 1
|  6> C 0.6262497371 1.6913172448 -0.0380944937
|  7> C 1.4108757682 0.3838194392 -0.235079655
|  8> H 1.6552232303 0.2485703811 -1.2941946335
|  9> C 0.5335917505 -0.7951923199 0.211534966
| 10> H 0.3229429214 -0.7151856542 1.2903031473
| 11> C -0.8086744956 -0.7321585089 -0.5318172807
| 12> H -0.6100544559 -0.812276781 -1.6117660813
| 13> C -1.4728098818 0.6360983957 -0.2790306891
| 14> H -2.3647389572 0.7382636488 -0.915389821
| 15> O -0.6243375004 1.6746269121 -0.7097827247
| 16> O -1.794457083 0.7371406986 1.0688431644
| 17> O -1.5868260171 -1.8092829569 -0.081502145
| 18> O 1.2077363076 -1.9970155971 -0.0635717885
| 19> O 2.6457543846 0.4305767981 0.4266179522
| 20> H 1.1752490631 2.5322508084 -0.4600751887
| 21> H 0.4682941516 1.8541988148 1.0356416231
| 22> H -2.3473620769 1.5178728899 1.2266275317
| 23> H -2.4387811098 -1.825894795 -0.5393021006
| 24> H 0.5992773674 -2.7309056544 0.1121735023
| 25> H 2.5081125357 0.3867309208 1.3843342558
| 26> *
| 27>
| 28>                          ****END OF INPUT****

CARTESIAN COORDINATES (ANGSTROEM)
---------------------------------
  C      0.626250    1.691317   -0.038094
  C      1.410876    0.383819   -0.235080
  H      1.655223    0.248570   -1.294195
  C      0.533592   -0.795192    0.211535
  H      0.322943   -0.715186    1.290303
  C     -0.808674   -0.732159   -0.531817
  H     -0.610054   -0.812277   -1.611766
  C     -1.472810    0.636098   -0.279031
  H     -2.364739    0.738264   -0.915390
  O     -0.624338    1.674627   -0.709783
  O     -1.794457    0.737141    1.068843
  O     -1.586826   -1.809283   -0.081502
  O      1.207736   -1.997016   -0.063572
  O      2.645754    0.430577    0.426618
  H      1.175249    2.532251   -0.460075
  H      0.468294    1.854199    1.035642
  H     -2.347362    1.517873    1.226628
  H     -2.438781   -1.825895   -0.539302
  H      0.599277   -2.730906    0.112174
  H      2.508113    0.386731    1.384334

 Total Charge           Charge          ....    0
 Multiplicity           Mult            ....    1
 Number of Electrons    NEL             ....   80
 Basis Dimension        Dim             ....  160

ORBITAL ENERGIES
----------------

  NO   OCC          E(Eh)            E(eV)
   0   2.0000     -18.770423      -510.7692
   1   2.0000     -18.768170      -510.7079
   2   2.0000     -18.762596      -510.5562
   3   2.0000     -18.744462      -510.0627
   4   2.0000     -18.739389      -509.9247
   5   2.0000      -9.989526      -271.8288
   6   2.0000      -9.943940      -270.5884
   7   2.0000      -9.936459      -270.3848
   8   2.0000      -9.936229      -270.3785
   9   2.0000      -9.929797      -270.2035
  10   2.0000      -0.984343       -26.7853
  11   2.0000      -0.942669       -25.6513
  12   2.0000      -0.929825       -25.3018
  13   2.0000      -0.914023       -24.8718
  14   2.0000      -0.908033       -24.7088
  15   2.0000      -0.698353       -19.0031
  16   2.0000      -0.678421       -18.4608
  17   2.0000      -0.582033       -15.8379
  18   2.0000      -0.577786       -15.7224
  19   2.0000      -0.536246       -14.5920
  20   2.0000      -0.499179       -13.5834
  21   2.0000      -0.482515       -13.1299
  22   2.0000      -0.479176       -13.0391
  23   2.0000      -0.439855       -11.9691
  24   2.0000      -0.430222       -11.7069
  25   2.0000      -0.414303       -11.2738
  26   2.0000      -0.398674       -10.8485
  27   2.0000      -0.373768       -10.1707
  28   2.0000      -0.358860        -9.7651
  29   2.0000      -0.348547        -9.4844
  30   2.0000      -0.329632        -8.9697
  31   2.0000      -0.319683        -8.6990
  32   2.0000      -0.297297        -8.0899
  33   2.0000      -0.280105        -7.6220
  34   2.0000      -0.264717        -7.2033
  35   2.0000      -0.254644        -6.9292
  36   2.0000      -0.240629        -6.5478
  37   2.0000      -0.228632        -6.2214
  38   2.0000      -0.215508        -5.8643
  39   2.0000      -0.201109        -5.4725
  40   0.0000       0.007839         0.2133
  41   0.0000       0.025186         0.6854
  42   0.0000       0.029442         0.8012
  43   0.0000       0.058817         1.6005
  44   0.0000       0.074662         2.0317

MULLIKEN ATOMIC CHARGES
-----------------------
   0 C :    0.079427
   1 C :    0.031751
   2 H :    0.071612
   3 C :    0.024981
   4 H :    0.057355
   5 C :    0.060942
   6 H :    0.067605
   7 C :    0.127306
   8 H :    0.052701
   9 O :   -0.314410
  10 O :   -0.384994
  11 O :   -0.416363
  12 O :   -0.409564
  13 O :   -0.408975
  14 H :    0.100975
  15 H :    0.045720
  16 H :    0.308224
  17 H :    0.304376
  18 H :    0.304384
  19 H :    0.296947
Sum of atomic charges:   -0.0000000

LOEWDIN ATOMIC CHARGES
----------------------
   0 C :   -0.130707
   1 C :   -0.073901
   2 H :    0.119555
   3 C :   -0.074970
   4 H :    0.102032
   5 C :   -0.091262
   6 H :    0.107080
   7 C :   -0.014725
   8 H :    0.090533
   9 O :   -0.160745
  10 O :   -0.300508
  11 O :   -0.315427
  12 O :   -0.318800
  13 O :   -0.305275
  14 H :    0.120527
  15 H :    0.095018
  16 H :    0.292164
  17 H :    0.290083
  18 H :    0.285041
  19 H :    0.284287

  Mayer bond orders larger than 0.100000
B(  0-C ,  1-C ) :   1.0420 B(  0-C ,  9-O ) :   0.9893 B(  0-C , 14-H ) :   0.9266
B(  0-C , 15-H ) :   0.8867 B(  1-C ,  2-H ) :   0.8694 B(  1-C ,  3-C ) :   1.0219
B(  1-C , 13-O ) :   1.0498 B(  3-C ,  4-H ) :   0.8771 B(  3-C ,  5-C ) :   0.9937
B(  3-C , 12-O ) :   1.1041 B(  5-C ,  6-H ) :   0.8831 B(  5-C ,  7-C ) :   0.9644
B(  5-C , 11-O ) :   1.0685 B(  7-C ,  8-H ) :   0.9007 B(  7-C ,  9-O ) :   1.0643
B(  7-C , 10-O ) :   1.1252 B( 10-O , 16-H ) :   0.8406 B( 11-O , 17-H ) :   0.8459
B( 12-O , 18-H ) :   0.8374 B( 13-O , 19-H ) :   0.8486

Dispersion correction           -0.019128027
FINAL SINGLE POINT ENERGY      -571.413803675129

DIPOLE MOMENT
-------------

Method             : SCF
Type of density    : Electron Density
Multiplicity       :   1
Irrep              :   0
Energy             :  -571.5212769037638054 Eh
Relativity type    :
Basis              : AO
                                X                 Y                 Z
Electronic contribution:     -0.461908454      -0.816880169      -0.012474547
Nuclear contribution   :     -0.970292677       1.105542422       0.223723472
                        -----------------------------------------
Total Dipole Moment    :     -1.432201132       0.288662253       0.211248925
                        -----------------------------------------
Magnitude (a.u.)       :      1.476195138
Magnitude (Debye)      :      3.752189850

Rotational constants in cm-1:             0.056282             0.044968             0.029014
Rotational constants in MHz :          1687.304237          1348.106609           869.813000

                             ****ORCA TERMINATED NORMALLY****
TOTAL RUN TIME: 0 days 0 hours 0 minutes 12 seconds 368 msec
