                         Program Version 6.0.0  -   RELEASE  -
|  1> ! pbe def2-sv(p) def2/J RI DEFGRID1 loosescf d4 GCP(DFT/SV(P)) printgap
|  2> %output
|  3>     printlevel normal
|  4> end
|  5> * xyz 0 1
|  6> C 4.118829478 2.1789002109 -0.0219017423
|  7> C 4.1255513066 0.8336099122 -0.7167349275
|  8> O 2.80713854 0.2431334176 -0.7831261209
|  9> P 1.9863974785 -0.2389023954 0.4820245395
| 10> S 1.1022256355 1.1076094559 1.6054046236
| 11> O 3.0711699102 -1.087779177 1.2792381478
| 12> C 2.8495152756 -1.5113216816 2.6333079269
| 13> C 1.8181549015 -2.6184691672 2.703197496
| 14> S 0.7678192632 -1.7101717872 -0.4712098543
| 15> C 0.3854285223 -0.8242307635 -2.0068521233
| 16> S -0.3198745842 0.8213799388 -1.7440795188
| 17> P -2.1398301008 0.1465056204 -0.9037553154
| 18> S -2.956257369 -1.4256409175 -1.7249188293
| 19> O -3.0915931918 1.4073314706 -1.0041291014
| 20> C -2.6958885203 2.7872288946 -0.8258154519
| 21> C -2.3004671704 3.0995719295 0.6021796645
| 22> O -1.7271103989 -0.0390666324 0.6267091687
| 23> C -2.3029019873 -1.0443810778 1.4754734008
| 24> C -3.7135053803 -0.6723988875 1.8823275563
| 25> H 3.8410123721 2.0631080629 1.0244622968
| 26> H 5.1101154533 2.6174933757 -0.0794865386
| 27> H 3.4015053944 2.8442496081 -0.4965732116
| 28> H 4.7916244841 0.1316260206 -0.2108601669
| 29> H 4.4112792234 0.9287472071 -1.7657322256
| 30> H 3.829718295 -1.8473350777 2.9734482482
| 31> H 2.5265819998 -0.6438906145 3.2193864831
| 32> H 0.85879961 -2.2485993864 2.3395302481
| 33> H 2.1194449574 -3.4581303376 2.0825609999
| 34> H 1.7050723411 -2.9477821728 3.7308966169
| 35> H -0.3374742352 -1.4471498034 -2.5362106145
| 36> H 1.2932389662 -0.6859087791 -2.5876912945
| 37> H -1.8740161451 3.0021532123 -1.5145574865
| 38> H -3.5853931198 3.3429193601 -1.1277933042
| 39> H -2.0930308083 4.1616967252 0.6874359364
| 40> H -3.1067551465 2.8375521882 1.2821935967
| 41> H -1.407209004 2.5455414774 0.8859811796
| 42> H -2.2885339675 -2.002534677 0.9453743358
| 43> H -1.6300353732 -1.0829057816 2.3341629937
| 44> H -3.7151815204 0.2801798716 2.4054184693
| 45> H -4.3391457906 -0.5903405005 0.993441488
| 46> H -4.1174665758 -1.4425059066 2.5316173015
| 47> *
| 48>
| 49>                          ****END OF INPUT****

CARTESIAN COORDINATES (ANGSTROEM)
---------------------------------
  C      4.118829    2.178900   -0.021902
  C      4.125551    0.833610   -0.716735
  O      2.807139    0.243133   -0.783126
  P      1.986397   -0.238902    0.482025
  S      1.102226    1.107609    1.605405
  O      3.071170   -1.087779    1.279238
  C      2.849515   -1.511322    2.633308
  C      1.818155   -2.618469    2.703197
  S      0.767819   -1.710172   -0.471210
  C      0.385429   -0.824231   -2.006852
  S     -0.319875    0.821380   -1.744080
  P     -2.139830    0.146506   -0.903755
  S     -2.956257   -1.425641   -1.724919
  O     -3.091593    1.407331   -1.004129
  C     -2.695889    2.787229   -0.825815
  C     -2.300467    3.099572    0.602180
  O     -1.727110   -0.039067    0.626709
  C     -2.302902   -1.044381    1.475473
  C     -3.713505   -0.672399    1.882328
  H      3.841012    2.063108    1.024462
  H      5.110115    2.617493   -0.079487
  H      3.401505    2.844250   -0.496573
  H      4.791624    0.131626   -0.210860
  H      4.411279    0.928747   -1.765732
  H      3.829718   -1.847335    2.973448
  H      2.526582   -0.643891    3.219386
  H      0.858800   -2.248599    2.339530
  H      2.119445   -3.458130    2.082561
  H      1.705072   -2.947782    3.730897
  H     -0.337474   -1.447150   -2.536211
  H      1.293239   -0.685909   -2.587691
  H     -1.874016    3.002153   -1.514557
  H     -3.585393    3.342919   -1.127793
  H     -2.093031    4.161697    0.687436
  H     -3.106755    2.837552    1.282194
  H     -1.407209    2.545541    0.885981
  H     -2.288534   -2.002535    0.945374
  H     -1.630035   -1.082906    2.334163
  H     -3.715182    0.280180    2.405418
  H     -4.339146   -0.590341    0.993441
  H     -4.117467   -1.442506    2.531617

 Total Charge           Charge          ....    0
 Multiplicity           Mult            ....    1
 Number of Electrons    NEL             ....  202
 Basis Dimension        Dim             ....  334

ORBITAL ENERGIES
----------------

  NO   OCC          E(Eh)            E(eV)
   0   2.0000     -88.038675     -2395.6541
   1   2.0000     -88.037939     -2395.6341
   2   2.0000     -87.984933     -2394.1918
   3   2.0000     -87.978767     -2394.0240
   4   2.0000     -76.428992     -2079.7386
   5   2.0000     -76.420190     -2079.4991
   6   2.0000     -18.796904      -511.4898
   7   2.0000     -18.795291      -511.4459
   8   2.0000     -18.788941      -511.2731
   9   2.0000     -18.779747      -511.0229
  10   2.0000      -9.960609      -271.0419
  11   2.0000      -9.955725      -270.9091
  12   2.0000      -9.955518      -270.9034
  13   2.0000      -9.954434      -270.8739
  14   2.0000      -9.940774      -270.5022
  15   2.0000      -9.890383      -269.1310
  16   2.0000      -9.885764      -269.0053
  17   2.0000      -9.880654      -268.8663
  18   2.0000      -9.876668      -268.7578
  19   2.0000      -7.683843      -209.0880
  20   2.0000      -7.682875      -209.0617
  21   2.0000      -7.629700      -207.6147
  22   2.0000      -7.624100      -207.4623
  23   2.0000      -6.426164      -174.8648
  24   2.0000      -6.417810      -174.6375
  25   2.0000      -5.711636      -155.4215
  26   2.0000      -5.711048      -155.4055
  27   2.0000      -5.708509      -155.3364
  28   2.0000      -5.707523      -155.3096
  29   2.0000      -5.700689      -155.1236
  30   2.0000      -5.699433      -155.0895
  31   2.0000      -5.658465      -153.9747
  32   2.0000      -5.653114      -153.8290
  33   2.0000      -5.650392      -153.7550
  34   2.0000      -5.649962      -153.7433
  35   2.0000      -5.644965      -153.6073
  36   2.0000      -5.643835      -153.5766
  37   2.0000      -4.649368      -126.5157
  38   2.0000      -4.647845      -126.4743
  39   2.0000      -4.646162      -126.4285
  40   2.0000      -4.640632      -126.2780
  41   2.0000      -4.639310      -126.2420
  42   2.0000      -4.638323      -126.2152
  43   2.0000      -0.992278       -27.0012
  44   2.0000      -0.977438       -26.5974
  45   2.0000      -0.949824       -25.8460
  46   2.0000      -0.938453       -25.5366
  47   2.0000      -0.762652       -20.7528
  48   2.0000      -0.720381       -19.6026
  49   2.0000      -0.706804       -19.2331
  50   2.0000      -0.692873       -18.8540
  51   2.0000      -0.684658       -18.6305
  52   2.0000      -0.670648       -18.2493
  53   2.0000      -0.651026       -17.7153
  54   2.0000      -0.635741       -17.2994
  55   2.0000      -0.596639       -16.2354
  56   2.0000      -0.588574       -16.0159
  57   2.0000      -0.582700       -15.8561
  58   2.0000      -0.570925       -15.5356
  59   2.0000      -0.559324       -15.2200
  60   2.0000      -0.502050       -13.6615
  61   2.0000      -0.491091       -13.3633
  62   2.0000      -0.475309       -12.9338
  63   2.0000      -0.470856       -12.8127
  64   2.0000      -0.462322       -12.5804
  65   2.0000      -0.444230       -12.0881
  66   2.0000      -0.437056       -11.8929
  67   2.0000      -0.429736       -11.6937
  68   2.0000      -0.423048       -11.5117
  69   2.0000      -0.416921       -11.3450
  70   2.0000      -0.413629       -11.2554
  71   2.0000      -0.404339       -11.0026
  72   2.0000      -0.388574       -10.5736
  73   2.0000      -0.382850       -10.4179
  74   2.0000      -0.379299       -10.3212
  75   2.0000      -0.372779       -10.1438
  76   2.0000      -0.367450        -9.9988
  77   2.0000      -0.359425        -9.7804
  78   2.0000      -0.353712        -9.6250
  79   2.0000      -0.347166        -9.4469
  80   2.0000      -0.345486        -9.4012
  81   2.0000      -0.343837        -9.3563
  82   2.0000      -0.340902        -9.2764
  83   2.0000      -0.339656        -9.2425
  84   2.0000      -0.335242        -9.1224
  85   2.0000      -0.317643        -8.6435
  86   2.0000      -0.308201        -8.3866
  87   2.0000      -0.301227        -8.1968
  88   2.0000      -0.298220        -8.1150
  89   2.0000      -0.296257        -8.0616
  90   2.0000      -0.279491        -7.6053
  91   2.0000      -0.272520        -7.4156
  92   2.0000      -0.268774        -7.3137
  93   2.0000      -0.263349        -7.1661
  94   2.0000      -0.259641        -7.0652
  95   2.0000      -0.227310        -6.1854
  96   2.0000      -0.217701        -5.9239
  97   2.0000      -0.204173        -5.5558
  98   2.0000      -0.197324        -5.3695
  99   2.0000      -0.192380        -5.2349
 100   2.0000      -0.191542        -5.2121
 101   0.0000      -0.050324        -1.3694
 102   0.0000      -0.019215        -0.5229
 103   0.0000      -0.017576        -0.4783
 104   0.0000       0.006098         0.1659
 105   0.0000       0.016277         0.4429

MULLIKEN ATOMIC CHARGES
-----------------------
   0 C :   -0.309644
   1 C :   -0.002811
   2 O :   -0.384759
   3 P :    0.633294
   4 S :   -0.306531
   5 O :   -0.377224
   6 C :   -0.005304
   7 C :   -0.337952
   8 S :   -0.102864
   9 C :   -0.328311
  10 S :   -0.112969
  11 P :    0.630805
  12 S :   -0.326440
  13 O :   -0.369250
  14 C :   -0.025132
  15 C :   -0.329449
  16 O :   -0.364077
  17 C :   -0.018556
  18 C :   -0.304500
  19 H :    0.127771
  20 H :    0.109784
  21 H :    0.122357
  22 H :    0.112087
  23 H :    0.106468
  24 H :    0.105041
  25 H :    0.110213
  26 H :    0.142777
  27 H :    0.123725
  28 H :    0.117040
  29 H :    0.192720
  30 H :    0.184744
  31 H :    0.120572
  32 H :    0.112455
  33 H :    0.109591
  34 H :    0.118763
  35 H :    0.157419
  36 H :    0.110357
  37 H :    0.110826
  38 H :    0.114369
  39 H :    0.124828
  40 H :    0.107764
Sum of atomic charges:   -0.0000000

LOEWDIN ATOMIC CHARGES
----------------------
   0 C :   -0.367171
   1 C :   -0.108017
   2 O :   -0.247309
   3 P :    0.574502
   4 S :   -0.300417
   5 O :   -0.244653
   6 C :   -0.123556
   7 C :   -0.369296
   8 S :    0.079843
   9 C :   -0.475169
  10 S :    0.079966
  11 P :    0.575133
  12 S :   -0.317155
  13 O :   -0.242168
  14 C :   -0.114135
  15 C :   -0.370069
  16 O :   -0.238783
  17 C :   -0.124435
  18 C :   -0.364158
  19 H :    0.122030
  20 H :    0.129149
  21 H :    0.129851
  22 H :    0.114402
  23 H :    0.119841
  24 H :    0.118467
  25 H :    0.107995
  26 H :    0.120718
  27 H :    0.127962
  28 H :    0.133238
  29 H :    0.130964
  30 H :    0.133036
  31 H :    0.107877
  32 H :    0.122788
  33 H :    0.130291
  34 H :    0.125547
  35 H :    0.127020
  36 H :    0.106608
  37 H :    0.114194
  38 H :    0.122357
  39 H :    0.123951
  40 H :    0.128760

  Mayer bond orders larger than 0.100000
B(  0-C ,  1-C ) :   1.1678 B(  0-C , 19-H ) :   0.9332 B(  0-C , 20-H ) :   0.9357
B(  0-C , 21-H ) :   0.9457 B(  1-C ,  2-O ) :   0.9048 B(  1-C , 22-H ) :   0.9278
B(  1-C , 23-H ) :   0.9358 B(  2-O ,  3-P ) :   1.0996 B(  3-P ,  4-S ) :   1.6425
B(  3-P ,  5-O ) :   1.0781 B(  3-P ,  8-S ) :   0.9437 B(  4-S ,  8-S ) :   0.1135
B(  5-O ,  6-C ) :   0.9117 B(  6-C ,  7-C ) :   1.1623 B(  6-C , 24-H ) :   0.9312
B(  6-C , 25-H ) :   0.9083 B(  7-C , 26-H ) :   0.9267 B(  7-C , 27-H ) :   0.9436
B(  7-C , 28-H ) :   0.9388 B(  8-S ,  9-C ) :   1.0033 B(  9-C , 10-S ) :   1.0158
B(  9-C , 29-H ) :   0.8765 B(  9-C , 30-H ) :   0.9011 B( 10-S , 11-P ) :   0.9483
B( 11-P , 12-S ) :   1.6185 B( 11-P , 13-O ) :   1.1299 B( 11-P , 16-O ) :   1.0959
B( 13-O , 14-C ) :   0.9067 B( 14-C , 15-C ) :   1.1639 B( 14-C , 31-H ) :   0.9176
B( 14-C , 32-H ) :   0.9349 B( 15-C , 33-H ) :   0.9356 B( 15-C , 34-H ) :   0.9424
B( 15-C , 35-H ) :   0.9251 B( 16-O , 17-C ) :   0.9059 B( 17-C , 18-C ) :   1.1621
B( 17-C , 36-H ) :   0.9115 B( 17-C , 37-H ) :   0.9225 B( 18-C , 38-H ) :   0.9439
B( 18-C , 39-H ) :   0.9354 B( 18-C , 40-H ) :   0.9404

Dispersion correction           -0.068005285
FINAL SINGLE POINT ENERGY     -2929.513565252215

DIPOLE MOMENT
-------------

Method             : SCF
Type of density    : Electron Density
Multiplicity       :   1
Irrep              :   0
Energy             : -2929.6313528556802339 Eh
Relativity type    :
Basis              : AO
                                X                 Y                 Z
Electronic contribution:     -3.815566492      -5.631177684     -15.751586670
Nuclear contribution   :      5.254128892       6.090315142      16.504854398
                        -----------------------------------------
Total Dipole Moment    :      1.438562400       0.459137458       0.753267728
                        -----------------------------------------
Magnitude (a.u.)       :      1.687507409
Magnitude (Debye)      :      4.289302958

Rotational constants in cm-1:             0.011466             0.005735             0.005308
Rotational constants in MHz :           343.748238           171.933513           159.136325

                             ****ORCA TERMINATED NORMALLY****
TOTAL RUN TIME: 0 days 0 hours 0 minutes 21 seconds 870 msec
