                         Program Version 6.0.0  -   RELEASE  -
|  1> ! r2scan-3c def2/J RI DEFGRID2 scfconv6 printgap
|  2> %output
|  3>     printlevel normal
|  4> end
|  5> * xyz 0 1
|  6> C 0.6259674428 1.6951635692 -0.0752545021
|  7> C 1.3918789673 0.3839887465 -0.2657323683
|  8> H 1.593445822 0.2241838422 -1.337080641
|  9> C 0.526787545 -0.7845003071 0.2299726241
| 10> H 0.3252496032 -0.65643978 1.3005380962
| 11> C -0.8087795578 -0.7363687708 -0.531077015
| 12> H -0.5997024814 -0.7758286462 -1.6098780395
| 13> C -1.4718901442 0.622569863 -0.2467702564
| 14> H -2.3872315832 0.7037985416 -0.8487297581
| 15> O -0.6457220536 1.6694640991 -0.7040755024
| 16> O -1.7397755251 0.7193682416 1.1113429211
| 17> O -1.7000207439 -1.7542808199 -0.1572905212
| 18> O 1.2387597324 -1.9801989841 -0.0112540473
| 19> O 2.5976141664 0.4786525616 0.447598568
| 20> H 1.1665499534 2.5229007519 -0.5318741226
| 21> H 0.519798374 1.876551119 1.0006283916
| 22> H -2.3405587502 1.4599609468 1.2841239932
| 23> H -1.3963031841 -2.5948841748 -0.53081008
| 24> H 0.8927956906 -2.6832806209 0.5550477893
| 25> H 3.0352497879 -0.3863462091 0.4158067617
| 26> *
| 27>
| 28>                          ****END OF INPUT****

CARTESIAN COORDINATES (ANGSTROEM)
---------------------------------
  C      0.625967    1.695164   -0.075255
  C      1.391879    0.383989   -0.265732
  H      1.593446    0.224184   -1.337081
  C      0.526788   -0.784500    0.229973
  H      0.325250   -0.656440    1.300538
  C     -0.808780   -0.736369   -0.531077
  H     -0.599702   -0.775829   -1.609878
  C     -1.471890    0.622570   -0.246770
  H     -2.387232    0.703799   -0.848730
  O     -0.645722    1.669464   -0.704076
  O     -1.739776    0.719368    1.111343
  O     -1.700021   -1.754281   -0.157291
  O      1.238760   -1.980199   -0.011254
  O      2.597614    0.478653    0.447599
  H      1.166550    2.522901   -0.531874
  H      0.519798    1.876551    1.000628
  H     -2.340559    1.459961    1.284124
  H     -1.396303   -2.594884   -0.530810
  H      0.892796   -2.683281    0.555048
  H      3.035250   -0.386346    0.415807

 Total Charge           Charge          ....    0
 Multiplicity           Mult            ....    1
 Number of Electrons    NEL             ....   80
 Basis Dimension        Dim             ....  265

ORBITAL ENERGIES
----------------

  NO   OCC          E(Eh)            E(eV)
   0   2.0000     -18.970290      -516.2078
   1   2.0000     -18.966945      -516.1168
   2   2.0000     -18.964575      -516.0523
   3   2.0000     -18.963662      -516.0275
   4   2.0000     -18.952103      -515.7129
   5   2.0000     -10.136806      -275.8365
   6   2.0000     -10.090279      -274.5705
   7   2.0000     -10.086045      -274.4552
   8   2.0000     -10.085897      -274.4512
   9   2.0000     -10.077813      -274.2312
  10   2.0000      -1.046867       -28.4867
  11   2.0000      -1.015126       -27.6230
  12   2.0000      -0.999142       -27.1880
  13   2.0000      -0.985421       -26.8147
  14   2.0000      -0.976991       -26.5853
  15   2.0000      -0.749910       -20.4061
  16   2.0000      -0.722667       -19.6648
  17   2.0000      -0.622994       -16.9525
  18   2.0000      -0.601721       -16.3736
  19   2.0000      -0.555909       -15.1271
  20   2.0000      -0.514475       -13.9996
  21   2.0000      -0.506995       -13.7960
  22   2.0000      -0.502567       -13.6755
  23   2.0000      -0.472173       -12.8485
  24   2.0000      -0.455380       -12.3915
  25   2.0000      -0.439236       -11.9522
  26   2.0000      -0.421414       -11.4672
  27   2.0000      -0.393978       -10.7207
  28   2.0000      -0.384586       -10.4651
  29   2.0000      -0.375638       -10.2216
  30   2.0000      -0.348517        -9.4836
  31   2.0000      -0.340759        -9.2725
  32   2.0000      -0.327886        -8.9222
  33   2.0000      -0.297206        -8.0874
  34   2.0000      -0.288266        -7.8441
  35   2.0000      -0.277515        -7.5516
  36   2.0000      -0.269897        -7.3443
  37   2.0000      -0.251521        -6.8442
  38   2.0000      -0.242814        -6.6073
  39   2.0000      -0.225052        -6.1240
  40   0.0000       0.022858         0.6220
  41   0.0000       0.047514         1.2929
  42   0.0000       0.071330         1.9410
  43   0.0000       0.077708         2.1146
  44   0.0000       0.095146         2.5890

MULLIKEN ATOMIC CHARGES
-----------------------
   0 C :   -0.266625
   1 C :   -0.028446
   2 H :    0.155064
   3 C :   -0.008654
   4 H :    0.179556
   5 C :   -0.020929
   6 H :    0.158566
   7 C :    0.016099
   8 H :    0.132773
   9 O :   -0.201909
  10 O :   -0.387289
  11 O :   -0.411744
  12 O :   -0.441314
  13 O :   -0.417417
  14 H :    0.152252
  15 H :    0.171098
  16 H :    0.306187
  17 H :    0.296047
  18 H :    0.306258
  19 H :    0.310428
Sum of atomic charges:    0.0000000

LOEWDIN ATOMIC CHARGES
----------------------
   0 C :    0.057752
   1 C :    0.105013
   2 H :    0.176334
   3 C :    0.097631
   4 H :    0.195425
   5 C :    0.116059
   6 H :    0.185600
   7 C :    0.290171
   8 H :    0.197709
   9 O :   -0.678348
  10 O :   -0.506950
  11 O :   -0.560094
  12 O :   -0.582787
  13 O :   -0.576769
  14 H :    0.190027
  15 H :    0.183911
  16 H :    0.279569
  17 H :    0.274610
  18 H :    0.273694
  19 H :    0.281445

  Mayer bond orders larger than 0.100000
B(  0-C ,  1-C ) :   0.8861 B(  0-C ,  9-O ) :   0.9397 B(  0-C , 14-H ) :   0.9401
B(  0-C , 15-H ) :   0.9846 B(  1-C ,  2-H ) :   0.9752 B(  1-C ,  3-C ) :   0.9027
B(  1-C , 13-O ) :   0.9223 B(  3-C ,  4-H ) :   0.9791 B(  3-C ,  5-C ) :   0.8071
B(  3-C , 12-O ) :   0.9585 B(  5-C ,  6-H ) :   0.9802 B(  5-C ,  7-C ) :   0.9692
B(  5-C , 11-O ) :   0.9048 B(  7-C ,  8-H ) :   0.9400 B(  7-C ,  9-O ) :   0.9452
B(  7-C , 10-O ) :   1.0405 B( 10-O , 16-H ) :   0.8905 B( 11-O , 17-H ) :   0.8930
B( 12-O , 18-H ) :   0.8902 B( 13-O , 19-H ) :   0.8776

Dispersion correction           -0.006264816
FINAL SINGLE POINT ENERGY      -572.560098577176

DIPOLE MOMENT
-------------

Method             : SCF
Type of density    : Electron Density
Multiplicity       :   1
Irrep              :   0
Energy             :  -572.5699803627885558 Eh
Relativity type    :
Basis              : AO
                                X                 Y                 Z
Electronic contribution:     -1.037650785      -0.269098300       0.209414984
Nuclear contribution   :      0.755563779      -0.303099127      -0.273373409
                        -----------------------------------------
Total Dipole Moment    :     -0.282087006      -0.572197428      -0.063958425
                        -----------------------------------------
Magnitude (a.u.)       :      0.641150260
Magnitude (Debye)      :      1.629674448

Rotational constants in cm-1:             0.056444             0.045007             0.029145
Rotational constants in MHz :          1692.135064          1349.280470           873.746668

                             ****ORCA TERMINATED NORMALLY****
TOTAL RUN TIME: 0 days 0 hours 0 minutes 36 seconds 156 msec
