                         Program Version 6.0.0  -   RELEASE  -
|  1> ! r2scan-3c def2/J RI DEFGRID2 scfconv6 printgap
|  2> %output
|  3>     printlevel normal
|  4> end
|  5> %cpcm
|  6>     smd true
|  7>     smdsolvent "water"
|  8> end
|  9> * xyz 0 1
| 10> C 0.6259674428 1.6951635692 -0.0752545021
| 11> C 1.3918789673 0.3839887465 -0.2657323683
| 12> H 1.593445822 0.2241838422 -1.337080641
| 13> C 0.526787545 -0.7845003071 0.2299726241
| 14> H 0.3252496032 -0.65643978 1.3005380962
| 15> C -0.8087795578 -0.7363687708 -0.531077015
| 16> H -0.5997024814 -0.7758286462 -1.6098780395
| 17> C -1.4718901442 0.622569863 -0.2467702564
| 18> H -2.3872315832 0.7037985416 -0.8487297581
| 19> O -0.6457220536 1.6694640991 -0.7040755024
| 20> O -1.7397755251 0.7193682416 1.1113429211
| 21> O -1.7000207439 -1.7542808199 -0.1572905212
| 22> O 1.2387597324 -1.9801989841 -0.0112540473
| 23> O 2.5976141664 0.4786525616 0.447598568
| 24> H 1.1665499534 2.5229007519 -0.5318741226
| 25> H 0.519798374 1.876551119 1.0006283916
| 26> H -2.3405587502 1.4599609468 1.2841239932
| 27> H -1.3963031841 -2.5948841748 -0.53081008
| 28> H 0.8927956906 -2.6832806209 0.5550477893
| 29> H 3.0352497879 -0.3863462091 0.4158067617
| 30> *
| 31>
| 32>                          ****END OF INPUT****

CARTESIAN COORDINATES (ANGSTROEM)
---------------------------------
  C      0.625967    1.695164   -0.075255
  C      1.391879    0.383989   -0.265732
  H      1.593446    0.224184   -1.337081
  C      0.526788   -0.784500    0.229973
  H      0.325250   -0.656440    1.300538
  C     -0.808780   -0.736369   -0.531077
  H     -0.599702   -0.775829   -1.609878
  C     -1.471890    0.622570   -0.246770
  H     -2.387232    0.703799   -0.848730
  O     -0.645722    1.669464   -0.704076
  O     -1.739776    0.719368    1.111343
  O     -1.700021   -1.754281   -0.157291
  O      1.238760   -1.980199   -0.011254
  O      2.597614    0.478653    0.447599
  H      1.166550    2.522901   -0.531874
  H      0.519798    1.876551    1.000628
  H     -2.340559    1.459961    1.284124
  H     -1.396303   -2.594884   -0.530810
  H      0.892796   -2.683281    0.555048
  H      3.035250   -0.386346    0.415807

 Total Charge           Charge          ....    0
 Multiplicity           Mult            ....    1
 Number of Electrons    NEL             ....   80
 Basis Dimension        Dim             ....  265

ORBITAL ENERGIES
----------------

  NO   OCC          E(Eh)            E(eV)
   0   2.0000     -18.970963      -516.2262
   1   2.0000     -18.966036      -516.0921
   2   2.0000     -18.961427      -515.9667
   3   2.0000     -18.960877      -515.9517
   4   2.0000     -18.959272      -515.9080
   5   2.0000     -10.133903      -275.7575
   6   2.0000     -10.084963      -274.4258
   7   2.0000     -10.084889      -274.4238
   8   2.0000     -10.081551      -274.3329
   9   2.0000     -10.077490      -274.2224
  10   2.0000      -1.048276       -28.5251
  11   2.0000      -1.010520       -27.4976
  12   2.0000      -0.999811       -27.2062
  13   2.0000      -0.983365       -26.7587
  14   2.0000      -0.978731       -26.6326
  15   2.0000      -0.746956       -20.3257
  16   2.0000      -0.721664       -19.6375
  17   2.0000      -0.619305       -16.8521
  18   2.0000      -0.601115       -16.3572
  19   2.0000      -0.552006       -15.0208
  20   2.0000      -0.508947       -13.8492
  21   2.0000      -0.504076       -13.7166
  22   2.0000      -0.500241       -13.6122
  23   2.0000      -0.470282       -12.7970
  24   2.0000      -0.454128       -12.3575
  25   2.0000      -0.438293       -11.9265
  26   2.0000      -0.421304       -11.4643
  27   2.0000      -0.394521       -10.7355
  28   2.0000      -0.383479       -10.4350
  29   2.0000      -0.378518       -10.3000
  30   2.0000      -0.348753        -9.4900
  31   2.0000      -0.344868        -9.3843
  32   2.0000      -0.329566        -8.9680
  33   2.0000      -0.298633        -8.1262
  34   2.0000      -0.287833        -7.8323
  35   2.0000      -0.278985        -7.5916
  36   2.0000      -0.272378        -7.4118
  37   2.0000      -0.253082        -6.8867
  38   2.0000      -0.248634        -6.7657
  39   2.0000      -0.225195        -6.1279
  40   0.0000       0.037168         1.0114
  41   0.0000       0.065564         1.7841
  42   0.0000       0.083418         2.2699
  43   0.0000       0.095650         2.6028
  44   0.0000       0.106439         2.8963

MULLIKEN ATOMIC CHARGES
-----------------------
   0 C :   -0.286040
   1 C :   -0.010337
   2 H :    0.172940
   3 C :   -0.006512
   4 H :    0.186576
   5 C :   -0.043114
   6 H :    0.184831
   7 C :    0.030417
   8 H :    0.162040
   9 O :   -0.258118
  10 O :   -0.449620
  11 O :   -0.478998
  12 O :   -0.487313
  13 O :   -0.487020
  14 H :    0.173640
  15 H :    0.180663
  16 H :    0.357075
  17 H :    0.351030
  18 H :    0.356203
  19 H :    0.351657
Sum of atomic charges:    0.0000000

LOEWDIN ATOMIC CHARGES
----------------------
   0 C :    0.053657
   1 C :    0.103854
   2 H :    0.184932
   3 C :    0.098639
   4 H :    0.196898
   5 C :    0.116550
   6 H :    0.195813
   7 C :    0.289301
   8 H :    0.208379
   9 O :   -0.700950
  10 O :   -0.527498
  11 O :   -0.585266
  12 O :   -0.593170
  13 O :   -0.605940
  14 H :    0.196616
  15 H :    0.186362
  16 H :    0.298509
  17 H :    0.295638
  18 H :    0.292732
  19 H :    0.294945

  Mayer bond orders larger than 0.100000
B(  0-C ,  1-C ) :   0.8795 B(  0-C ,  9-O ) :   0.9317 B(  0-C , 14-H ) :   0.9350
B(  0-C , 15-H ) :   0.9817 B(  1-C ,  2-H ) :   0.9676 B(  1-C ,  3-C ) :   0.9056
B(  1-C , 13-O ) :   0.9045 B(  3-C ,  4-H ) :   0.9667 B(  3-C ,  5-C ) :   0.8321
B(  3-C , 12-O ) :   0.9549 B(  5-C ,  6-H ) :   0.9801 B(  5-C ,  7-C ) :   0.9443
B(  5-C , 11-O ) :   0.9091 B(  7-C ,  8-H ) :   0.9420 B(  7-C ,  9-O ) :   0.9384
B(  7-C , 10-O ) :   1.0158 B( 10-O , 16-H ) :   0.8641 B( 11-O , 17-H ) :   0.8668
B( 12-O , 18-H ) :   0.8637 B( 13-O , 19-H ) :   0.8574

Dispersion correction           -0.006264816
FINAL SINGLE POINT ENERGY      -572.590218765925

DIPOLE MOMENT
-------------

Method             : SCF
Type of density    : Electron Density
Multiplicity       :   1
Irrep              :   0
Energy             :  -572.6001005515378210 Eh
Relativity type    :
Basis              : AO
                                X                 Y                 Z
Electronic contribution:     -1.097646337      -0.516787704       0.077569341
Nuclear contribution   :      0.755563779      -0.303099127      -0.273373409
                        -----------------------------------------
Total Dipole Moment    :     -0.342082558      -0.819886832      -0.195804069
                        -----------------------------------------
Magnitude (a.u.)       :      0.909711013
Magnitude (Debye)      :      2.312301633

Rotational constants in cm-1:             0.056444             0.045007             0.029145
Rotational constants in MHz :          1692.135064          1349.280470           873.746668

                             ****ORCA TERMINATED NORMALLY****
TOTAL RUN TIME: 0 days 0 hours 0 minutes 52 seconds 378 msec
