                         Program Version 6.0.1  -  RELEASE   -
|  1> ! pbe def2-sv(p) def2/J RI DEFGRID1 loosescf d4 GCP(DFT/SV(P)) printgap
|  2> %output
|  3>     printlevel normal
|  4> end
|  5> * xyz 0 1
|  6> C 5.2889988741 -2.3274090827 -0.9174082123
|  7> C 4.6525265862 -1.1802525299 -0.1486095533
|  8> O 3.2263464156 -1.3548620426 -0.0431298563
|  9> C 2.4707874663 -0.9412125459 -1.0373924072
| 10> O 2.8814560536 -0.3989959854 -2.0405509329
| 11> C 1.0043588244 -1.2378910871 -0.779467035
| 12> C 0.1620721221 -0.0848415546 -1.3084334245
| 13> H 0.4744781309 0.139502867 -2.3358413421
| 14> C 0.3195793942 1.192045887 -0.5040070296
| 15> O -0.5795752638 2.0031540416 -0.3913880224
| 16> O 1.5227403461 1.3131791049 -0.0146213346
| 17> C 1.8439153588 2.4481621456 0.818605784
| 18> C 2.2861854428 1.9479514945 2.182293321
| 19> S -1.609192128 -0.4761932759 -1.4284358698
| 20> P -2.269046246 0.0288395805 0.5295723017
| 21> S -0.9816942747 -0.096522351 1.9962880132
| 22> O -3.0668584899 1.3897331119 0.5237453708
| 23> C -4.0108287535 1.7402980436 -0.5061012708
| 24> O -3.4986198033 -0.9904931545 0.6799119439
| 25> C -3.2882980061 -2.4003674219 0.8127018133
| 26> H 4.935168505 -2.329846035 -1.9457780797
| 27> H 6.3670934483 -2.205344017 -0.9163836945
| 28> H 5.0348776208 -3.2756060348 -0.451894886
| 29> H 4.8499924277 -0.2254145289 -0.644038421
| 30> H 4.9999951726 -1.1543023028 0.8842812866
| 31> H 0.8509993294 -1.3953753428 0.2888134006
| 32> H 0.7414279848 -2.1490814351 -1.3205058824
| 33> H 2.6489244043 2.9780323577 0.304929942
| 34> H 0.9596933611 3.0871831353 0.8906115077
| 35> H 3.1416044683 1.2872394772 2.0776901666
| 36> H 2.5560124532 2.7952746 2.8033998624
| 37> H 1.4770642416 1.3979075614 2.6584207202
| 38> H -3.4759536491 1.9415786197 -1.4340074695
| 39> H -4.4995424852 2.6413268002 -0.1449682439
| 40> H -4.7304381409 0.9357129264 -0.6467316225
| 41> H -2.9740328778 -2.8190539911 -0.142899306
| 42> H -4.2479218247 -2.811187134 1.1155622292
| 43> H -2.5328128444 -2.5956592732 1.5753243125
| 44> *
| 45>
| 46>                          ****END OF INPUT****

CARTESIAN COORDINATES (ANGSTROEM)
---------------------------------
  C      5.288999   -2.327409   -0.917408
  C      4.652527   -1.180253   -0.148610
  O      3.226346   -1.354862   -0.043130
  C      2.470787   -0.941213   -1.037392
  O      2.881456   -0.398996   -2.040551
  C      1.004359   -1.237891   -0.779467
  C      0.162072   -0.084842   -1.308433
  H      0.474478    0.139503   -2.335841
  C      0.319579    1.192046   -0.504007
  O     -0.579575    2.003154   -0.391388
  O      1.522740    1.313179   -0.014621
  C      1.843915    2.448162    0.818606
  C      2.286185    1.947951    2.182293
  S     -1.609192   -0.476193   -1.428436
  P     -2.269046    0.028840    0.529572
  S     -0.981694   -0.096522    1.996288
  O     -3.066858    1.389733    0.523745
  C     -4.010829    1.740298   -0.506101
  O     -3.498620   -0.990493    0.679912
  C     -3.288298   -2.400367    0.812702
  H      4.935169   -2.329846   -1.945778
  H      6.367093   -2.205344   -0.916384
  H      5.034878   -3.275606   -0.451895
  H      4.849992   -0.225415   -0.644038
  H      4.999995   -1.154302    0.884281
  H      0.850999   -1.395375    0.288813
  H      0.741428   -2.149081   -1.320506
  H      2.648924    2.978032    0.304930
  H      0.959693    3.087183    0.890612
  H      3.141604    1.287239    2.077690
  H      2.556012    2.795275    2.803400
  H      1.477064    1.397908    2.658421
  H     -3.475954    1.941579   -1.434007
  H     -4.499542    2.641327   -0.144968
  H     -4.730438    0.935713   -0.646732
  H     -2.974033   -2.819054   -0.142899
  H     -4.247922   -2.811187    1.115562
  H     -2.532813   -2.595659    1.575324

 Total Charge           Charge          ....    0
 Multiplicity           Mult            ....    1
 Number of Electrons    NEL             ....  174
 Basis Dimension        Dim             ....  316

ORBITAL ENERGIES
----------------

  NO   OCC          E(Eh)            E(eV)
   0   2.0000     -88.039968     -2395.6893
   1   2.0000     -87.982010     -2394.1122
   2   2.0000     -76.424472     -2079.6156
   3   2.0000     -18.811236      -511.8798
   4   2.0000     -18.801461      -511.6138
   5   2.0000     -18.788426      -511.2591
   6   2.0000     -18.786223      -511.1991
   7   2.0000     -18.738770      -509.9078
   8   2.0000     -18.738333      -509.8960
   9   2.0000     -10.018951      -272.6295
  10   2.0000     -10.009143      -272.3626
  11   2.0000      -9.949163      -270.7305
  12   2.0000      -9.947415      -270.6829
  13   2.0000      -9.946845      -270.6674
  14   2.0000      -9.943340      -270.5720
  15   2.0000      -9.942100      -270.5383
  16   2.0000      -9.903726      -269.4941
  17   2.0000      -9.888391      -269.0768
  18   2.0000      -9.882740      -268.9230
  19   2.0000      -7.684876      -209.1161
  20   2.0000      -7.627128      -207.5447
  21   2.0000      -6.421114      -174.7274
  22   2.0000      -5.712834      -155.4541
  23   2.0000      -5.709354      -155.3594
  24   2.0000      -5.701815      -155.1543
  25   2.0000      -5.656155      -153.9118
  26   2.0000      -5.647645      -153.6802
  27   2.0000      -5.647166      -153.6672
  28   2.0000      -4.643788      -126.3639
  29   2.0000      -4.643112      -126.3455
  30   2.0000      -4.641502      -126.3017
  31   2.0000      -1.019670       -27.7466
  32   2.0000      -1.009554       -27.4714
  33   2.0000      -0.981951       -26.7203
  34   2.0000      -0.937570       -25.5126
  35   2.0000      -0.921018       -25.0622
  36   2.0000      -0.915163       -24.9029
  37   2.0000      -0.763842       -20.7852
  38   2.0000      -0.711517       -19.3614
  39   2.0000      -0.707948       -19.2642
  40   2.0000      -0.690705       -18.7950
  41   2.0000      -0.658355       -17.9148
  42   2.0000      -0.632779       -17.2188
  43   2.0000      -0.621724       -16.9180
  44   2.0000      -0.616437       -16.7741
  45   2.0000      -0.594108       -16.1665
  46   2.0000      -0.562923       -15.3179
  47   2.0000      -0.513749       -13.9798
  48   2.0000      -0.502967       -13.6864
  49   2.0000      -0.501009       -13.6331
  50   2.0000      -0.476123       -12.9560
  51   2.0000      -0.470268       -12.7967
  52   2.0000      -0.464565       -12.6415
  53   2.0000      -0.442528       -12.0418
  54   2.0000      -0.435407       -11.8480
  55   2.0000      -0.433449       -11.7947
  56   2.0000      -0.428110       -11.6495
  57   2.0000      -0.418145       -11.3783
  58   2.0000      -0.411460       -11.1964
  59   2.0000      -0.405085       -11.0229
  60   2.0000      -0.398769       -10.8510
  61   2.0000      -0.395259       -10.7555
  62   2.0000      -0.388366       -10.5680
  63   2.0000      -0.386732       -10.5235
  64   2.0000      -0.378149       -10.2899
  65   2.0000      -0.366796        -9.9810
  66   2.0000      -0.358766        -9.7625
  67   2.0000      -0.353580        -9.6214
  68   2.0000      -0.345334        -9.3970
  69   2.0000      -0.339115        -9.2278
  70   2.0000      -0.334197        -9.0940
  71   2.0000      -0.328312        -8.9338
  72   2.0000      -0.318458        -8.6657
  73   2.0000      -0.313998        -8.5443
  74   2.0000      -0.300617        -8.1802
  75   2.0000      -0.297884        -8.1058
  76   2.0000      -0.293051        -7.9743
  77   2.0000      -0.290005        -7.8914
  78   2.0000      -0.271193        -7.3795
  79   2.0000      -0.262269        -7.1367
  80   2.0000      -0.257606        -7.0098
  81   2.0000      -0.255522        -6.9531
  82   2.0000      -0.236802        -6.4437
  83   2.0000      -0.228499        -6.2178
  84   2.0000      -0.215745        -5.8707
  85   2.0000      -0.199394        -5.4258
  86   2.0000      -0.197955        -5.3866
  87   0.0000      -0.043544        -1.1849
  88   0.0000      -0.027458        -0.7472
  89   0.0000      -0.015047        -0.4095
  90   0.0000       0.007756         0.2110
  91   0.0000       0.022364         0.6086

MULLIKEN ATOMIC CHARGES
-----------------------
   0 C :   -0.303538
   1 C :   -0.016139
   2 O :   -0.224193
   3 C :    0.117647
   4 O :   -0.216638
   5 C :   -0.051110
   6 C :   -0.304074
   7 H :    0.167339
   8 C :    0.173000
   9 O :   -0.189318
  10 O :   -0.218004
  11 C :   -0.017614
  12 C :   -0.299047
  13 S :   -0.090808
  14 P :    0.612339
  15 S :   -0.319204
  16 O :   -0.349342
  17 C :   -0.101579
  18 O :   -0.387851
  19 C :   -0.100405
  20 H :    0.127567
  21 H :    0.112797
  22 H :    0.114641
  23 H :    0.107617
  24 H :    0.104947
  25 H :    0.118286
  26 H :    0.115270
  27 H :    0.107663
  28 H :    0.122623
  29 H :    0.110673
  30 H :    0.110063
  31 H :    0.136546
  32 H :    0.127821
  33 H :    0.130561
  34 H :    0.117387
  35 H :    0.113179
  36 H :    0.124542
  37 H :    0.116355
Sum of atomic charges:    0.0000000

LOEWDIN ATOMIC CHARGES
----------------------
   0 C :   -0.356345
   1 C :   -0.111282
   2 O :   -0.052707
   3 C :    0.028179
   4 O :   -0.177835
   5 C :   -0.258710
   6 C :   -0.265970
   7 H :    0.158053
   8 C :    0.005332
   9 O :   -0.170873
  10 O :   -0.029155
  11 C :   -0.105043
  12 C :   -0.354403
  13 S :    0.103414
  14 P :    0.585163
  15 S :   -0.302727
  16 O :   -0.227431
  17 C :   -0.207248
  18 O :   -0.262655
  19 C :   -0.217969
  20 H :    0.130617
  21 H :    0.130693
  22 H :    0.125210
  23 H :    0.119548
  24 H :    0.117601
  25 H :    0.132827
  26 H :    0.143846
  27 H :    0.119007
  28 H :    0.126157
  29 H :    0.122499
  30 H :    0.129656
  31 H :    0.128509
  32 H :    0.116193
  33 H :    0.126654
  34 H :    0.111798
  35 H :    0.106788
  36 H :    0.122140
  37 H :    0.110470

  Mayer bond orders larger than 0.100000
B(  0-C ,  1-C ) :   1.1743 B(  0-C , 20-H ) :   0.9457 B(  0-C , 21-H ) :   0.9442
B(  0-C , 22-H ) :   0.9487 B(  1-C ,  2-O ) :   0.9169 B(  1-C , 23-H ) :   0.9146
B(  1-C , 24-H ) :   0.9356 B(  2-O ,  3-C ) :   1.2446 B(  3-C ,  4-O ) :   2.0230
B(  3-C ,  5-C ) :   0.9933 B(  5-C ,  6-C ) :   1.0292 B(  5-C , 25-H ) :   0.8865
B(  5-C , 26-H ) :   0.8793 B(  6-C ,  7-H ) :   0.8481 B(  6-C ,  8-C ) :   0.8989
B(  6-C , 13-S ) :   1.0160 B(  8-C ,  9-O ) :   2.0257 B(  8-C , 10-O ) :   1.2663
B( 10-O , 11-C ) :   0.8907 B( 11-C , 12-C ) :   1.1761 B( 11-C , 27-H ) :   0.9356
B( 11-C , 28-H ) :   0.9052 B( 12-C , 29-H ) :   0.9481 B( 12-C , 30-H ) :   0.9423
B( 12-C , 31-H ) :   0.9367 B( 13-S , 14-P ) :   0.9514 B( 13-S , 15-S ) :   0.1115
B( 14-P , 15-S ) :   1.6021 B( 14-P , 16-O ) :   1.1470 B( 14-P , 18-O ) :   1.0673
B( 16-O , 17-C ) :   0.9177 B( 17-C , 32-H ) :   0.9428 B( 17-C , 33-H ) :   0.9594
B( 17-C , 34-H ) :   0.9452 B( 18-O , 19-C ) :   0.9345 B( 19-C , 35-H ) :   0.9462
B( 19-C , 36-H ) :   0.9587 B( 19-C , 37-H ) :   0.9352

Dispersion correction           -0.052659664
FINAL SINGLE POINT ENERGY     -1979.018941079184

DIPOLE MOMENT
-------------

Method             : SCF
Type of density    : Electron Density
Multiplicity       :   1
Irrep              :   0
Energy             : -1979.1490806044403143 Eh
Relativity type    :
Basis              : AO
                                X                 Y                 Z
Electronic contribution:    -17.289514459       3.030585999      -2.137536276
Nuclear contribution   :     17.661319069      -3.504950313       1.945580550
                        -----------------------------------------
Total Dipole Moment    :      0.371804611      -0.474364314      -0.191955726
                        -----------------------------------------
Magnitude (a.u.)       :      0.632540253
Magnitude (Debye)      :      1.607789550

Rotational constants in cm-1:             0.016539             0.006087             0.005583
Rotational constants in MHz :           495.814369           182.488266           167.372915

                             ****ORCA TERMINATED NORMALLY****
TOTAL RUN TIME: 0 days 0 hours 0 minutes 38 seconds 241 msec
