                         Program Version 6.0.0  -   RELEASE  -
|  1> ! pbe def2-sv(p) def2/J RI DEFGRID1 loosescf d4 GCP(DFT/SV(P)) printgap
|  2> %output
|  3>     printlevel normal
|  4> end
|  5> * xyz 0 1
|  6> C 2.5944006525 2.7003375979 -0.7656762592
|  7> C 2.2756143939 1.4193286912 -1.5104841149
|  8> O 1.4995022573 0.5099238485 -0.7011079526
|  9> P 2.0899950284 -0.4454222087 0.4123344779
| 10> S 2.860035814 0.3649933589 2.0280817449
| 11> O 3.1112663069 -1.3274617523 -0.4250386185
| 12> C 4.1182299863 -2.1381228428 0.20765613
| 13> C 3.5147544487 -3.3280341808 0.9247148385
| 14> S 0.3972103904 -1.6660120266 0.7291649082
| 15> C -0.3903476299 -0.5915920216 1.9569816835
| 16> S -0.9110638006 1.0122746908 1.2845957484
| 17> P -2.0673836614 0.3636510694 -0.3765985314
| 18> S -1.2613232365 -0.077074206 -2.1137849335
| 19> O -3.1658835605 1.5117874015 -0.4850444861
| 20> C -2.9786907346 2.6612575736 -1.3248807154
| 21> C -1.831801562 3.5252521008 -0.841293444
| 22> O -2.8582348629 -0.8050140647 0.3399103035
| 23> C -3.5089486621 -1.8554432042 -0.4056476111
| 24> C -4.7337544846 -1.3448896434 -1.1345739819
| 25> H 3.0879271772 3.3918789954 -1.441029678
| 26> H 1.680722011 3.154582058 -0.3893832341
| 27> H 3.2498879225 2.4973245461 0.0787960026
| 28> H 3.1848962103 0.9097165266 -1.8377072156
| 29> H 1.629663899 1.6032016967 -2.3723369602
| 30> H 4.7631316742 -2.445907852 -0.6164381297
| 31> H 4.6776148663 -1.5091662435 0.9078457356
| 32> H 2.8738083415 -3.8901087138 0.2499644714
| 33> H 4.3102714927 -3.9706051621 1.2879395445
| 34> H 2.9194660589 -2.9882579819 1.7714264931
| 35> H 0.3232236464 -0.3617953521 2.7496776604
| 36> H -1.2535657215 -1.1279070755 2.341766792
| 37> H -2.7931292175 2.3159263992 -2.3476149515
| 38> H -3.9332318902 3.1862367496 -1.2749293453
| 39> H -0.9003032623 2.961558135 -0.9106122908
| 40> H -1.7551197351 4.4133654607 -1.4601979113
| 41> H -1.9845678094 3.8142005127 0.1957371989
| 42> H -2.7860872359 -2.2807419743 -1.1094667099
| 43> H -3.7658191096 -2.5952869358 0.353525768
| 44> H -5.2517908604 -2.1793825172 -1.5965791926
| 45> H -5.4010152223 -0.8414101956 -0.4400787042
| 46> H -4.4349922085 -0.6400192326 -1.9093328572
| 47> *
| 48>
| 49>                          ****END OF INPUT****

CARTESIAN COORDINATES (ANGSTROEM)
---------------------------------
  C      2.594401    2.700338   -0.765676
  C      2.275614    1.419329   -1.510484
  O      1.499502    0.509924   -0.701108
  P      2.089995   -0.445422    0.412334
  S      2.860036    0.364993    2.028082
  O      3.111266   -1.327462   -0.425039
  C      4.118230   -2.138123    0.207656
  C      3.514754   -3.328034    0.924715
  S      0.397210   -1.666012    0.729165
  C     -0.390348   -0.591592    1.956982
  S     -0.911064    1.012275    1.284596
  P     -2.067384    0.363651   -0.376599
  S     -1.261323   -0.077074   -2.113785
  O     -3.165884    1.511787   -0.485044
  C     -2.978691    2.661258   -1.324881
  C     -1.831802    3.525252   -0.841293
  O     -2.858235   -0.805014    0.339910
  C     -3.508949   -1.855443   -0.405648
  C     -4.733754   -1.344890   -1.134574
  H      3.087927    3.391879   -1.441030
  H      1.680722    3.154582   -0.389383
  H      3.249888    2.497325    0.078796
  H      3.184896    0.909717   -1.837707
  H      1.629664    1.603202   -2.372337
  H      4.763132   -2.445908   -0.616438
  H      4.677615   -1.509166    0.907846
  H      2.873808   -3.890109    0.249964
  H      4.310271   -3.970605    1.287940
  H      2.919466   -2.988258    1.771426
  H      0.323224   -0.361795    2.749678
  H     -1.253566   -1.127907    2.341767
  H     -2.793129    2.315926   -2.347615
  H     -3.933232    3.186237   -1.274929
  H     -0.900303    2.961558   -0.910612
  H     -1.755120    4.413365   -1.460198
  H     -1.984568    3.814201    0.195737
  H     -2.786087   -2.280742   -1.109467
  H     -3.765819   -2.595287    0.353526
  H     -5.251791   -2.179383   -1.596579
  H     -5.401015   -0.841410   -0.440079
  H     -4.434992   -0.640019   -1.909333

 Total Charge           Charge          ....    0
 Multiplicity           Mult            ....    1
 Number of Electrons    NEL             ....  202
 Basis Dimension        Dim             ....  334

ORBITAL ENERGIES
----------------

  NO   OCC          E(Eh)            E(eV)
   0   2.0000     -88.040577     -2395.7059
   1   2.0000     -88.035863     -2395.5776
   2   2.0000     -87.985004     -2394.1937
   3   2.0000     -87.981719     -2394.1043
   4   2.0000     -76.424701     -2079.6218
   5   2.0000     -76.423443     -2079.5876
   6   2.0000     -18.794783      -511.4321
   7   2.0000     -18.792768      -511.3772
   8   2.0000     -18.788653      -511.2652
   9   2.0000     -18.781775      -511.0781
  10   2.0000      -9.953759      -270.8556
  11   2.0000      -9.951979      -270.8071
  12   2.0000      -9.951579      -270.7962
  13   2.0000      -9.950809      -270.7753
  14   2.0000      -9.947043      -270.6728
  15   2.0000      -9.886171      -269.0164
  16   2.0000      -9.883806      -268.9520
  17   2.0000      -9.883058      -268.9317
  18   2.0000      -9.875836      -268.7352
  19   2.0000      -7.685740      -209.1396
  20   2.0000      -7.680973      -209.0099
  21   2.0000      -7.629981      -207.6223
  22   2.0000      -7.626630      -207.5311
  23   2.0000      -6.422140      -174.7553
  24   2.0000      -6.420809      -174.7191
  25   2.0000      -5.713624      -155.4756
  26   2.0000      -5.710411      -155.3882
  27   2.0000      -5.709165      -155.3543
  28   2.0000      -5.705553      -155.2560
  29   2.0000      -5.702474      -155.1722
  30   2.0000      -5.697544      -155.0380
  31   2.0000      -5.658729      -153.9819
  32   2.0000      -5.655463      -153.8930
  33   2.0000      -5.650818      -153.7666
  34   2.0000      -5.650101      -153.7471
  35   2.0000      -5.647407      -153.6737
  36   2.0000      -5.646743      -153.6557
  37   2.0000      -4.644966      -126.3959
  38   2.0000      -4.643669      -126.3607
  39   2.0000      -4.643508      -126.3563
  40   2.0000      -4.642613      -126.3319
  41   2.0000      -4.642608      -126.3318
  42   2.0000      -4.641134      -126.2917
  43   2.0000      -0.985821       -26.8256
  44   2.0000      -0.984878       -26.7999
  45   2.0000      -0.946276       -25.7495
  46   2.0000      -0.940870       -25.6024
  47   2.0000      -0.762558       -20.7503
  48   2.0000      -0.718233       -19.5441
  49   2.0000      -0.705122       -19.1874
  50   2.0000      -0.687189       -18.6994
  51   2.0000      -0.684289       -18.6204
  52   2.0000      -0.669978       -18.2310
  53   2.0000      -0.650280       -17.6950
  54   2.0000      -0.636582       -17.3223
  55   2.0000      -0.599297       -16.3077
  56   2.0000      -0.590803       -16.0766
  57   2.0000      -0.573924       -15.6173
  58   2.0000      -0.572440       -15.5769
  59   2.0000      -0.556734       -15.1495
  60   2.0000      -0.496747       -13.5172
  61   2.0000      -0.492289       -13.3959
  62   2.0000      -0.473112       -12.8740
  63   2.0000      -0.467077       -12.7098
  64   2.0000      -0.457814       -12.4577
  65   2.0000      -0.442107       -12.0303
  66   2.0000      -0.438287       -11.9264
  67   2.0000      -0.432757       -11.7759
  68   2.0000      -0.422028       -11.4840
  69   2.0000      -0.415269       -11.3000
  70   2.0000      -0.409452       -11.1417
  71   2.0000      -0.399543       -10.8721
  72   2.0000      -0.392744       -10.6871
  73   2.0000      -0.386959       -10.5297
  74   2.0000      -0.376138       -10.2352
  75   2.0000      -0.370601       -10.0846
  76   2.0000      -0.368686       -10.0325
  77   2.0000      -0.358525        -9.7559
  78   2.0000      -0.354053        -9.6343
  79   2.0000      -0.348906        -9.4942
  80   2.0000      -0.347863        -9.4658
  81   2.0000      -0.344090        -9.3632
  82   2.0000      -0.341118        -9.2823
  83   2.0000      -0.336991        -9.1700
  84   2.0000      -0.330305        -8.9881
  85   2.0000      -0.318710        -8.6725
  86   2.0000      -0.304585        -8.2882
  87   2.0000      -0.295020        -8.0279
  88   2.0000      -0.294152        -8.0043
  89   2.0000      -0.286735        -7.8025
  90   2.0000      -0.281691        -7.6652
  91   2.0000      -0.273752        -7.4492
  92   2.0000      -0.270946        -7.3728
  93   2.0000      -0.260147        -7.0790
  94   2.0000      -0.259395        -7.0585
  95   2.0000      -0.235863        -6.4181
  96   2.0000      -0.214377        -5.8335
  97   2.0000      -0.207406        -5.6438
  98   2.0000      -0.200437        -5.4542
  99   2.0000      -0.193642        -5.2693
 100   2.0000      -0.190135        -5.1738
 101   0.0000      -0.047332        -1.2880
 102   0.0000      -0.022838        -0.6214
 103   0.0000      -0.014198        -0.3864
 104   0.0000       0.001813         0.0493
 105   0.0000       0.022830         0.6212

MULLIKEN ATOMIC CHARGES
-----------------------
   0 C :   -0.315257
   1 C :    0.001415
   2 O :   -0.348485
   3 P :    0.636616
   4 S :   -0.342401
   5 O :   -0.375255
   6 C :   -0.005839
   7 C :   -0.315627
   8 S :   -0.084676
   9 C :   -0.345050
  10 S :   -0.091733
  11 P :    0.615714
  12 S :   -0.317183
  13 O :   -0.369778
  14 C :    0.002989
  15 C :   -0.354996
  16 O :   -0.375539
  17 C :   -0.005476
  18 C :   -0.304293
  19 H :    0.104226
  20 H :    0.127227
  21 H :    0.126040
  22 H :    0.100670
  23 H :    0.108504
  24 H :    0.105070
  25 H :    0.112266
  26 H :    0.118636
  27 H :    0.113476
  28 H :    0.126009
  29 H :    0.191535
  30 H :    0.187082
  31 H :    0.107181
  32 H :    0.105460
  33 H :    0.151472
  34 H :    0.115612
  35 H :    0.125834
  36 H :    0.115152
  37 H :    0.102035
  38 H :    0.111588
  39 H :    0.117105
  40 H :    0.122673
Sum of atomic charges:   -0.0000000

LOEWDIN ATOMIC CHARGES
----------------------
   0 C :   -0.366154
   1 C :   -0.109884
   2 O :   -0.231629
   3 P :    0.575907
   4 S :   -0.325476
   5 O :   -0.241862
   6 C :   -0.120456
   7 C :   -0.369076
   8 S :    0.093284
   9 C :   -0.477673
  10 S :    0.086905
  11 P :    0.573017
  12 S :   -0.310913
  13 O :   -0.245706
  14 C :   -0.121672
  15 C :   -0.373808
  16 O :   -0.241660
  17 C :   -0.118239
  18 C :   -0.364053
  19 H :    0.126599
  20 H :    0.126603
  21 H :    0.122317
  22 H :    0.109528
  23 H :    0.117585
  24 H :    0.118450
  25 H :    0.110226
  26 H :    0.125224
  27 H :    0.131408
  28 H :    0.120935
  29 H :    0.129666
  30 H :    0.133730
  31 H :    0.108019
  32 H :    0.118930
  33 H :    0.121804
  34 H :    0.132304
  35 H :    0.126734
  36 H :    0.111969
  37 H :    0.116876
  38 H :    0.130268
  39 H :    0.126809
  40 H :    0.123163

  Mayer bond orders larger than 0.100000
B(  0-C ,  1-C ) :   1.1670 B(  0-C , 19-H ) :   0.9384 B(  0-C , 20-H ) :   0.9440
B(  0-C , 21-H ) :   0.9320 B(  1-C ,  2-O ) :   0.9052 B(  1-C , 22-H ) :   0.9274
B(  1-C , 23-H ) :   0.9274 B(  2-O ,  3-P ) :   1.1421 B(  3-P ,  4-S ) :   1.5993
B(  3-P ,  5-O ) :   1.1026 B(  3-P ,  8-S ) :   0.9463 B(  4-S ,  8-S ) :   0.1138
B(  5-O ,  6-C ) :   0.9059 B(  6-C ,  7-C ) :   1.1657 B(  6-C , 24-H ) :   0.9329
B(  6-C , 25-H ) :   0.9130 B(  7-C , 26-H ) :   0.9455 B(  7-C , 27-H ) :   0.9382
B(  7-C , 28-H ) :   0.9341 B(  8-S ,  9-C ) :   1.0111 B(  9-C , 10-S ) :   1.0040
B(  9-C , 29-H ) :   0.8784 B(  9-C , 30-H ) :   0.9018 B( 10-S , 11-P ) :   0.9537
B( 10-S , 12-S ) :   0.1107 B( 11-P , 12-S ) :   1.6082 B( 11-P , 13-O ) :   1.0963
B( 11-P , 16-O ) :   1.1120 B( 13-O , 14-C ) :   0.9133 B( 14-C , 15-C ) :   1.1615
B( 14-C , 31-H ) :   0.9123 B( 14-C , 32-H ) :   0.9322 B( 15-C , 33-H ) :   0.9225
B( 15-C , 34-H ) :   0.9378 B( 15-C , 35-H ) :   0.9424 B( 16-O , 17-C ) :   0.9019
B( 17-C , 18-C ) :   1.1655 B( 17-C , 36-H ) :   0.9146 B( 17-C , 37-H ) :   0.9343
B( 18-C , 38-H ) :   0.9391 B( 18-C , 39-H ) :   0.9461 B( 18-C , 40-H ) :   0.9360

Dispersion correction           -0.067726694
FINAL SINGLE POINT ENERGY     -2929.517981783149

DIPOLE MOMENT
-------------

Method             : SCF
Type of density    : Electron Density
Multiplicity       :   1
Irrep              :   0
Energy             : -2929.6349963749139533 Eh
Relativity type    :
Basis              : AO
                                X                 Y                 Z
Electronic contribution:      1.222077832      -3.530590270       6.974194426
Nuclear contribution   :     -1.535157178       3.288121948      -7.395252732
                        -----------------------------------------
Total Dipole Moment    :     -0.313079346      -0.242468322      -0.421058306
                        -----------------------------------------
Magnitude (a.u.)       :      0.578013548
Magnitude (Debye)      :      1.469193679

Rotational constants in cm-1:             0.012378             0.005590             0.004820
Rotational constants in MHz :           371.091653           167.598795           144.513231

                             ****ORCA TERMINATED NORMALLY****
TOTAL RUN TIME: 0 days 0 hours 0 minutes 21 seconds 435 msec
