                         Program Version 6.0.0  -   RELEASE  -
|  1> ! pbe def2-sv(p) def2/J RI DEFGRID1 loosescf d4 GCP(DFT/SV(P)) printgap
|  2> %output
|  3>     printlevel normal
|  4> end
|  5> * xyz 0 1
|  6> C 0.9522738255 -1.6827901287 2.9018787193
|  7> C 2.2952092432 -2.0382292143 2.2966146981
|  8> O 2.8671241759 -0.9277441377 1.5856712948
|  9> P 2.2909924838 -0.4403375067 0.1867787966
| 10> S 1.7592903743 -1.8997309436 -1.0186191608
| 11> O 3.4411332966 0.5011537768 -0.3652876812
| 12> C 4.5121199521 0.0013293262 -1.1918837848
| 13> C 5.4593922564 -0.8837486243 -0.409741941
| 14> S 0.9126933701 1.0633433234 0.7316530155
| 15> C 0.4845843335 1.6543045858 -0.9224479893
| 16> S -0.7393305644 0.6305166065 -1.8139969292
| 17> P -2.3372439525 0.5967583034 -0.4368230677
| 18> S -4.1200008238 0.2988186635 -1.196147577
| 19> O -2.0589630808 1.9756506751 0.2901082863
| 20> C -2.8659284994 2.422946507 1.4055960197
| 21> C -3.9795981501 3.3345281686 0.9303983494
| 22> O -1.9652610694 -0.4564783464 0.7106161298
| 23> C -2.4974444251 -1.7903115201 0.7084636296
| 24> C -1.8994887326 -2.6349709648 -0.3977012125
| 25> H 1.0462997168 -0.8091946619 3.541772587
| 26> H 0.2365696647 -1.4570134084 2.112018881
| 27> H 0.5856277906 -2.5218351124 3.4846879017
| 28> H 2.1963832872 -2.8805497369 1.6032479373
| 29> H 3.0339559776 -2.2732034041 3.0639153785
| 30> H 4.0759827787 -0.5481916445 -2.0327067603
| 31> H 5.006965209 0.903799508 -1.5533901017
| 32> H 6.3079626993 -1.1438223137 -1.0347962766
| 33> H 5.8083506272 -0.3655897644 0.4795033367
| 34> H 4.9489801415 -1.7972006229 -0.1079504698
| 35> H 1.3692013613 1.6581008984 -1.5554421181
| 36> H 0.0842531102 2.6565970613 -0.8016779898
| 37> H -3.2641796169 1.5529162551 1.9330767303
| 38> H -2.1619050194 2.9504931959 2.0517330571
| 39> H -3.5666517096 4.1764586889 0.3819088005
| 40> H -4.658246853 2.7911635048 0.2762130337
| 41> H -4.5325630932 3.7012622882 1.7892585537
| 42> H -2.2509756515 -2.1795929594 1.6972994541
| 43> H -3.5843987236 -1.7289456545 0.5901863575
| 44> H -0.8140448795 -2.6548279413 -0.3324141315
| 45> H -2.279262154 -3.6487579248 -0.3272524795
| 46> H -2.1757888859 -2.2203528549 -1.3678015492
| 47> *
| 48>
| 49>                          ****END OF INPUT****

CARTESIAN COORDINATES (ANGSTROEM)
---------------------------------
  C      0.952274   -1.682790    2.901879
  C      2.295209   -2.038229    2.296615
  O      2.867124   -0.927744    1.585671
  P      2.290992   -0.440338    0.186779
  S      1.759290   -1.899731   -1.018619
  O      3.441133    0.501154   -0.365288
  C      4.512120    0.001329   -1.191884
  C      5.459392   -0.883749   -0.409742
  S      0.912693    1.063343    0.731653
  C      0.484584    1.654305   -0.922448
  S     -0.739331    0.630517   -1.813997
  P     -2.337244    0.596758   -0.436823
  S     -4.120001    0.298819   -1.196148
  O     -2.058963    1.975651    0.290108
  C     -2.865928    2.422947    1.405596
  C     -3.979598    3.334528    0.930398
  O     -1.965261   -0.456478    0.710616
  C     -2.497444   -1.790312    0.708464
  C     -1.899489   -2.634971   -0.397701
  H      1.046300   -0.809195    3.541773
  H      0.236570   -1.457013    2.112019
  H      0.585628   -2.521835    3.484688
  H      2.196383   -2.880550    1.603248
  H      3.033956   -2.273203    3.063915
  H      4.075983   -0.548192   -2.032707
  H      5.006965    0.903800   -1.553390
  H      6.307963   -1.143822   -1.034796
  H      5.808351   -0.365590    0.479503
  H      4.948980   -1.797201   -0.107950
  H      1.369201    1.658101   -1.555442
  H      0.084253    2.656597   -0.801678
  H     -3.264180    1.552916    1.933077
  H     -2.161905    2.950493    2.051733
  H     -3.566652    4.176459    0.381909
  H     -4.658247    2.791164    0.276213
  H     -4.532563    3.701262    1.789259
  H     -2.250976   -2.179593    1.697299
  H     -3.584399   -1.728946    0.590186
  H     -0.814045   -2.654828   -0.332414
  H     -2.279262   -3.648758   -0.327252
  H     -2.175789   -2.220353   -1.367802

 Total Charge           Charge          ....    0
 Multiplicity           Mult            ....    1
 Number of Electrons    NEL             ....  202
 Basis Dimension        Dim             ....  334

ORBITAL ENERGIES
----------------

  NO   OCC          E(Eh)            E(eV)
   0   2.0000     -88.044850     -2395.8222
   1   2.0000     -88.036906     -2395.6060
   2   2.0000     -87.991623     -2394.3738
   3   2.0000     -87.982976     -2394.1385
   4   2.0000     -76.430354     -2079.7757
   5   2.0000     -76.423827     -2079.5981
   6   2.0000     -18.799436      -511.5587
   7   2.0000     -18.796738      -511.4852
   8   2.0000     -18.794673      -511.4291
   9   2.0000     -18.785832      -511.1885
  10   2.0000      -9.960119      -271.0286
  11   2.0000      -9.957298      -270.9519
  12   2.0000      -9.956816      -270.9387
  13   2.0000      -9.955443      -270.9014
  14   2.0000      -9.942772      -270.5566
  15   2.0000      -9.889184      -269.0984
  16   2.0000      -9.887393      -269.0497
  17   2.0000      -9.882538      -268.9175
  18   2.0000      -9.868889      -268.5461
  19   2.0000      -7.690093      -209.2581
  20   2.0000      -7.682443      -209.0499
  21   2.0000      -7.636197      -207.7915
  22   2.0000      -7.628096      -207.5710
  23   2.0000      -6.428079      -174.9169
  24   2.0000      -6.421484      -174.7375
  25   2.0000      -5.718031      -155.5955
  26   2.0000      -5.714734      -155.5058
  27   2.0000      -5.710882      -155.4010
  28   2.0000      -5.706785      -155.2895
  29   2.0000      -5.706665      -155.2862
  30   2.0000      -5.699049      -155.0790
  31   2.0000      -5.664937      -154.1508
  32   2.0000      -5.657031      -153.9356
  33   2.0000      -5.656739      -153.9277
  34   2.0000      -5.656669      -153.9258
  35   2.0000      -5.649015      -153.7175
  36   2.0000      -5.647932      -153.6881
  37   2.0000      -4.650635      -126.5502
  38   2.0000      -4.649880      -126.5297
  39   2.0000      -4.648484      -126.4917
  40   2.0000      -4.644186      -126.3747
  41   2.0000      -4.643318      -126.3511
  42   2.0000      -4.641775      -126.3091
  43   2.0000      -0.992390       -27.0043
  44   2.0000      -0.985532       -26.8177
  45   2.0000      -0.952843       -25.9282
  46   2.0000      -0.942075       -25.6352
  47   2.0000      -0.763786       -20.7837
  48   2.0000      -0.722982       -19.6733
  49   2.0000      -0.707851       -19.2616
  50   2.0000      -0.691817       -18.8253
  51   2.0000      -0.680291       -18.5117
  52   2.0000      -0.673315       -18.3218
  53   2.0000      -0.656266       -17.8579
  54   2.0000      -0.638289       -17.3687
  55   2.0000      -0.603629       -16.4256
  56   2.0000      -0.588687       -16.0190
  57   2.0000      -0.577421       -15.7124
  58   2.0000      -0.572398       -15.5757
  59   2.0000      -0.561207       -15.2712
  60   2.0000      -0.500744       -13.6259
  61   2.0000      -0.498108       -13.5542
  62   2.0000      -0.480337       -13.0706
  63   2.0000      -0.465126       -12.6567
  64   2.0000      -0.464155       -12.6303
  65   2.0000      -0.446762       -12.1570
  66   2.0000      -0.444021       -12.0824
  67   2.0000      -0.432640       -11.7727
  68   2.0000      -0.426414       -11.6033
  69   2.0000      -0.417819       -11.3694
  70   2.0000      -0.413136       -11.2420
  71   2.0000      -0.398139       -10.8339
  72   2.0000      -0.392999       -10.6940
  73   2.0000      -0.391455       -10.6520
  74   2.0000      -0.382938       -10.4203
  75   2.0000      -0.378416       -10.2972
  76   2.0000      -0.365058        -9.9337
  77   2.0000      -0.360423        -9.8076
  78   2.0000      -0.354147        -9.6368
  79   2.0000      -0.352317        -9.5870
  80   2.0000      -0.349409        -9.5079
  81   2.0000      -0.345828        -9.4105
  82   2.0000      -0.339758        -9.2453
  83   2.0000      -0.336105        -9.1459
  84   2.0000      -0.325125        -8.8471
  85   2.0000      -0.321240        -8.7414
  86   2.0000      -0.306907        -8.3514
  87   2.0000      -0.300190        -8.1686
  88   2.0000      -0.294773        -8.0212
  89   2.0000      -0.289854        -7.8873
  90   2.0000      -0.287052        -7.8111
  91   2.0000      -0.279830        -7.6146
  92   2.0000      -0.275902        -7.5077
  93   2.0000      -0.268057        -7.2942
  94   2.0000      -0.261372        -7.1123
  95   2.0000      -0.232723        -6.3327
  96   2.0000      -0.218893        -5.9564
  97   2.0000      -0.209861        -5.7106
  98   2.0000      -0.203622        -5.5408
  99   2.0000      -0.202788        -5.5181
 100   2.0000      -0.192316        -5.2332
 101   0.0000      -0.043486        -1.1833
 102   0.0000      -0.022063        -0.6004
 103   0.0000      -0.019819        -0.5393
 104   0.0000      -0.003769        -0.1026
 105   0.0000       0.015049         0.4095

MULLIKEN ATOMIC CHARGES
-----------------------
   0 C :   -0.357464
   1 C :   -0.004674
   2 O :   -0.371176
   3 P :    0.599004
   4 S :   -0.310316
   5 O :   -0.371375
   6 C :   -0.008089
   7 C :   -0.304740
   8 S :   -0.071407
   9 C :   -0.337156
  10 S :   -0.068012
  11 P :    0.626172
  12 S :   -0.322764
  13 O :   -0.386895
  14 C :   -0.004755
  15 C :   -0.290558
  16 O :   -0.380590
  17 C :   -0.007853
  18 C :   -0.324099
  19 H :    0.119077
  20 H :    0.166613
  21 H :    0.114985
  22 H :    0.110749
  23 H :    0.106934
  24 H :    0.112427
  25 H :    0.105773
  26 H :    0.113557
  27 H :    0.118681
  28 H :    0.121796
  29 H :    0.183055
  30 H :    0.191309
  31 H :    0.104860
  32 H :    0.106219
  33 H :    0.112693
  34 H :    0.132188
  35 H :    0.108063
  36 H :    0.098693
  37 H :    0.111326
  38 H :    0.137430
  39 H :    0.103943
  40 H :    0.116376
Sum of atomic charges:    0.0000000

LOEWDIN ATOMIC CHARGES
----------------------
   0 C :   -0.373143
   1 C :   -0.120599
   2 O :   -0.242166
   3 P :    0.567578
   4 S :   -0.300677
   5 O :   -0.243927
   6 C :   -0.119710
   7 C :   -0.363719
   8 S :    0.102956
   9 C :   -0.472136
  10 S :    0.094804
  11 P :    0.566115
  12 S :   -0.318284
  13 O :   -0.247675
  14 C :   -0.110160
  15 C :   -0.361650
  16 O :   -0.247778
  17 C :   -0.126138
  18 C :   -0.373526
  19 H :    0.126388
  20 H :    0.126239
  21 H :    0.131629
  22 H :    0.108964
  23 H :    0.119325
  24 H :    0.110528
  25 H :    0.118833
  26 H :    0.131168
  27 H :    0.127422
  28 H :    0.122891
  29 H :    0.134168
  30 H :    0.137611
  31 H :    0.112109
  32 H :    0.118109
  33 H :    0.125899
  34 H :    0.127069
  35 H :    0.128906
  36 H :    0.112373
  37 H :    0.105907
  38 H :    0.116709
  39 H :    0.127734
  40 H :    0.119855

  Mayer bond orders larger than 0.100000
B(  0-C ,  1-C ) :   1.1630 B(  0-C , 19-H ) :   0.9433 B(  0-C , 20-H ) :   0.9181
B(  0-C , 21-H ) :   0.9380 B(  1-C ,  2-O ) :   0.9063 B(  1-C , 22-H ) :   0.9118
B(  1-C , 23-H ) :   0.9324 B(  2-O ,  3-P ) :   1.1042 B(  3-P ,  4-S ) :   1.6167
B(  3-P ,  5-O ) :   1.1085 B(  3-P ,  8-S ) :   0.9736 B(  4-S ,  8-S ) :   0.1160
B(  5-O ,  6-C ) :   0.9036 B(  6-C ,  7-C ) :   1.1671 B(  6-C , 24-H ) :   0.9146
B(  6-C , 25-H ) :   0.9340 B(  7-C , 26-H ) :   0.9390 B(  7-C , 27-H ) :   0.9460
B(  7-C , 28-H ) :   0.9376 B(  8-S ,  9-C ) :   1.0005 B(  9-C , 10-S ) :   0.9918
B(  9-C , 29-H ) :   0.8971 B(  9-C , 30-H ) :   0.9025 B( 10-S , 11-P ) :   0.9888
B( 11-P , 12-S ) :   1.6413 B( 11-P , 13-O ) :   1.0988 B( 11-P , 16-O ) :   1.0663
B( 13-O , 14-C ) :   0.8891 B( 14-C , 15-C ) :   1.1705 B( 14-C , 31-H ) :   0.9170
B( 14-C , 32-H ) :   0.9364 B( 15-C , 33-H ) :   0.9472 B( 15-C , 34-H ) :   0.9326
B( 15-C , 35-H ) :   0.9398 B( 16-O , 17-C ) :   0.8971 B( 17-C , 18-C ) :   1.1695
B( 17-C , 36-H ) :   0.9269 B( 17-C , 37-H ) :   0.9108 B( 18-C , 38-H ) :   0.9265
B( 18-C , 39-H ) :   0.9376 B( 18-C , 40-H ) :   0.9342

Dispersion correction           -0.065833535
FINAL SINGLE POINT ENERGY     -2929.520098493141

DIPOLE MOMENT
-------------

Method             : SCF
Type of density    : Electron Density
Multiplicity       :   1
Irrep              :   0
Energy             : -2929.6398685248459515 Eh
Relativity type    :
Basis              : AO
                                X                 Y                 Z
Electronic contribution:     -4.000077615       5.881787676     -11.973062219
Nuclear contribution   :      5.216340160      -5.603587995      13.384263642
                        -----------------------------------------
Total Dipole Moment    :      1.216262545       0.278199681       1.411201423
                        -----------------------------------------
Magnitude (a.u.)       :      1.883661089
Magnitude (Debye)      :      4.787885988

Rotational constants in cm-1:             0.013553             0.004773             0.004594
Rotational constants in MHz :           406.305496           143.083203           137.715179

                             ****ORCA TERMINATED NORMALLY****
TOTAL RUN TIME: 0 days 0 hours 0 minutes 21 seconds 392 msec
