                         Program Version 6.0.0  -   RELEASE  -
|  1> ! pbe def2-sv(p) def2/J RI DEFGRID1 loosescf d4 GCP(DFT/SV(P)) printgap
|  2> %output
|  3>     printlevel normal
|  4> end
|  5> * xyz 0 1
|  6> C 1.7132588411 2.2266965989 1.7970678066
|  7> C 3.1011459871 1.6202745728 1.8141611079
|  8> O 3.404135839 0.9539312036 0.5780191974
|  9> P 2.811455582 -0.4758239025 0.2066104442
| 10> S 2.6738753409 -1.7123770961 1.7309431879
| 11> O 3.7334329574 -0.8863770778 -1.0121060976
| 12> C 5.1666729821 -0.7092509349 -1.0475348503
| 13> C 5.8703625854 -1.4927220649 0.0414157824
| 14> S 1.0324009955 -0.192998444 -0.9130355415
| 15> C -0.1403655578 -1.1325450171 0.107359024
| 16> S -1.2401974369 -0.0878265778 1.1059139611
| 17> P -2.8361673095 0.1181811876 -0.2692875207
| 18> S -2.5974736392 -0.5976362581 -2.0845139119
| 19> O -3.2743135303 1.6447570867 -0.2001084038
| 20> C -2.7221426451 2.6489486513 -1.0674262097
| 21> C -1.2732970138 2.9479956888 -0.7398142859
| 22> O -3.9605562327 -0.5808325753 0.5997704596
| 23> C -5.2033929408 -1.0430868985 0.032009196
| 24> C -6.0826254494 0.1016771613 -0.4264927911
| 25> H 1.5896478667 2.8532527411 0.917501596
| 26> H 0.9585910721 1.4408230476 1.7813884447
| 27> H 1.572043191 2.826089518 2.6905225974
| 28> H 3.200163296 0.8998815114 2.6330185094
| 29> H 3.8734000461 2.3864977405 1.8976305314
| 30> H 5.4407287019 -1.0693545114 -2.0405412656
| 31> H 5.3837946129 0.3577575859 -0.9653503288
| 32> H 5.6039752964 -2.5455012314 -0.0177979323
| 33> H 6.9444975464 -1.3868646539 -0.0734549762
| 34> H 5.5786431952 -1.1190351945 1.0221483995
| 35> H 0.4257144681 -1.7563457173 0.803050417
| 36> H -0.7429098348 -1.7344590998 -0.5706602645
| 37> H -2.8202560398 2.3060968263 -2.1027128145
| 38> H -3.3600601947 3.5182318259 -0.901165988
| 39> H -0.6487431793 2.0892201234 -0.9860982573
| 40> H -0.9416792393 3.7999792877 -1.3247117803
| 41> H -1.1676611942 3.1710260847 0.3190144595
| 42> H -4.9734828733 -1.7121091533 -0.8036477193
| 43> H -5.6643236006 -1.6076544824 0.843625785
| 44> H -6.2162251553 0.8175637069 0.3801470593
| 45> H -5.622614941 0.6071902123 -1.2742432595
| 46> H -7.0494566485 -0.2876005034 -0.7301323984
| 47> *
| 48>
| 49>                          ****END OF INPUT****

CARTESIAN COORDINATES (ANGSTROEM)
---------------------------------
  C      1.713259    2.226697    1.797068
  C      3.101146    1.620275    1.814161
  O      3.404136    0.953931    0.578019
  P      2.811456   -0.475824    0.206610
  S      2.673875   -1.712377    1.730943
  O      3.733433   -0.886377   -1.012106
  C      5.166673   -0.709251   -1.047535
  C      5.870363   -1.492722    0.041416
  S      1.032401   -0.192998   -0.913036
  C     -0.140366   -1.132545    0.107359
  S     -1.240197   -0.087827    1.105914
  P     -2.836167    0.118181   -0.269288
  S     -2.597474   -0.597636   -2.084514
  O     -3.274314    1.644757   -0.200108
  C     -2.722143    2.648949   -1.067426
  C     -1.273297    2.947996   -0.739814
  O     -3.960556   -0.580833    0.599770
  C     -5.203393   -1.043087    0.032009
  C     -6.082625    0.101677   -0.426493
  H      1.589648    2.853253    0.917502
  H      0.958591    1.440823    1.781388
  H      1.572043    2.826090    2.690523
  H      3.200163    0.899882    2.633019
  H      3.873400    2.386498    1.897631
  H      5.440729   -1.069355   -2.040541
  H      5.383795    0.357758   -0.965350
  H      5.603975   -2.545501   -0.017798
  H      6.944498   -1.386865   -0.073455
  H      5.578643   -1.119035    1.022148
  H      0.425714   -1.756346    0.803050
  H     -0.742910   -1.734459   -0.570660
  H     -2.820256    2.306097   -2.102713
  H     -3.360060    3.518232   -0.901166
  H     -0.648743    2.089220   -0.986098
  H     -0.941679    3.799979   -1.324712
  H     -1.167661    3.171026    0.319014
  H     -4.973483   -1.712109   -0.803648
  H     -5.664324   -1.607654    0.843626
  H     -6.216225    0.817564    0.380147
  H     -5.622615    0.607190   -1.274243
  H     -7.049457   -0.287601   -0.730132

 Total Charge           Charge          ....    0
 Multiplicity           Mult            ....    1
 Number of Electrons    NEL             ....  202
 Basis Dimension        Dim             ....  334

ORBITAL ENERGIES
----------------

  NO   OCC          E(Eh)            E(eV)
   0   2.0000     -88.042047     -2395.7459
   1   2.0000     -88.040945     -2395.7159
   2   2.0000     -87.993193     -2394.4165
   3   2.0000     -87.991098     -2394.3595
   4   2.0000     -76.427946     -2079.7102
   5   2.0000     -76.427441     -2079.6964
   6   2.0000     -18.796263      -511.4723
   7   2.0000     -18.793741      -511.4037
   8   2.0000     -18.791784      -511.3504
   9   2.0000     -18.789207      -511.2803
  10   2.0000      -9.956138      -270.9203
  11   2.0000      -9.953719      -270.8545
  12   2.0000      -9.953023      -270.8355
  13   2.0000      -9.951941      -270.8061
  14   2.0000      -9.947948      -270.6974
  15   2.0000      -9.884872      -268.9810
  16   2.0000      -9.884400      -268.9682
  17   2.0000      -9.883707      -268.9493
  18   2.0000      -9.882464      -268.9155
  19   2.0000      -7.686813      -209.1688
  20   2.0000      -7.685628      -209.1366
  21   2.0000      -7.638022      -207.8411
  22   2.0000      -7.635936      -207.7844
  23   2.0000      -6.425501      -174.8468
  24   2.0000      -6.425276      -174.8406
  25   2.0000      -5.714676      -155.5042
  26   2.0000      -5.713486      -155.4719
  27   2.0000      -5.711421      -155.4157
  28   2.0000      -5.710109      -155.3800
  29   2.0000      -5.703710      -155.2058
  30   2.0000      -5.702678      -155.1777
  31   2.0000      -5.666758      -154.2003
  32   2.0000      -5.664632      -154.1425
  33   2.0000      -5.658714      -153.9814
  34   2.0000      -5.658343      -153.9713
  35   2.0000      -5.656744      -153.9278
  36   2.0000      -5.656156      -153.9118
  37   2.0000      -4.648315      -126.4871
  38   2.0000      -4.647557      -126.4665
  39   2.0000      -4.646985      -126.4509
  40   2.0000      -4.646924      -126.4492
  41   2.0000      -4.646052      -126.4255
  42   2.0000      -4.646007      -126.4243
  43   2.0000      -0.990328       -26.9482
  44   2.0000      -0.987417       -26.8690
  45   2.0000      -0.946197       -25.7473
  46   2.0000      -0.946186       -25.7470
  47   2.0000      -0.759719       -20.6730
  48   2.0000      -0.723690       -19.6926
  49   2.0000      -0.708473       -19.2785
  50   2.0000      -0.689826       -18.7711
  51   2.0000      -0.687437       -18.7061
  52   2.0000      -0.674590       -18.3565
  53   2.0000      -0.653385       -17.7795
  54   2.0000      -0.639667       -17.4062
  55   2.0000      -0.605225       -16.4690
  56   2.0000      -0.595279       -16.1984
  57   2.0000      -0.579414       -15.7667
  58   2.0000      -0.572695       -15.5838
  59   2.0000      -0.554514       -15.0891
  60   2.0000      -0.498407       -13.5623
  61   2.0000      -0.493421       -13.4267
  62   2.0000      -0.473858       -12.8943
  63   2.0000      -0.473616       -12.8877
  64   2.0000      -0.459368       -12.5000
  65   2.0000      -0.448413       -12.2020
  66   2.0000      -0.440007       -11.9732
  67   2.0000      -0.432815       -11.7775
  68   2.0000      -0.428903       -11.6711
  69   2.0000      -0.413716       -11.2578
  70   2.0000      -0.413042       -11.2395
  71   2.0000      -0.405461       -11.0332
  72   2.0000      -0.393718       -10.7136
  73   2.0000      -0.389551       -10.6002
  74   2.0000      -0.383630       -10.4391
  75   2.0000      -0.374447       -10.1892
  76   2.0000      -0.368163       -10.0182
  77   2.0000      -0.355661        -9.6780
  78   2.0000      -0.352799        -9.6001
  79   2.0000      -0.349379        -9.5071
  80   2.0000      -0.346284        -9.4229
  81   2.0000      -0.342862        -9.3297
  82   2.0000      -0.341103        -9.2819
  83   2.0000      -0.340034        -9.2528
  84   2.0000      -0.337355        -9.1799
  85   2.0000      -0.321680        -8.7534
  86   2.0000      -0.311180        -8.4676
  87   2.0000      -0.300024        -8.1641
  88   2.0000      -0.295156        -8.0316
  89   2.0000      -0.290135        -7.8950
  90   2.0000      -0.285228        -7.7615
  91   2.0000      -0.277333        -7.5466
  92   2.0000      -0.273386        -7.4392
  93   2.0000      -0.266849        -7.2613
  94   2.0000      -0.260549        -7.0899
  95   2.0000      -0.227895        -6.2013
  96   2.0000      -0.221525        -6.0280
  97   2.0000      -0.215081        -5.8526
  98   2.0000      -0.209737        -5.7072
  99   2.0000      -0.207406        -5.6438
 100   2.0000      -0.201078        -5.4716
 101   0.0000      -0.042379        -1.1532
 102   0.0000      -0.034737        -0.9452
 103   0.0000      -0.009446        -0.2570
 104   0.0000       0.006870         0.1869
 105   0.0000       0.013943         0.3794

MULLIKEN ATOMIC CHARGES
-----------------------
   0 C :   -0.330233
   1 C :   -0.002660
   2 O :   -0.380978
   3 P :    0.621783
   4 S :   -0.327842
   5 O :   -0.370596
   6 C :   -0.000675
   7 C :   -0.315300
   8 S :   -0.068040
   9 C :   -0.362295
  10 S :   -0.083565
  11 P :    0.609031
  12 S :   -0.330997
  13 O :   -0.370388
  14 C :    0.001872
  15 C :   -0.343195
  16 O :   -0.365519
  17 C :   -0.002587
  18 C :   -0.307930
  19 H :    0.122846
  20 H :    0.137857
  21 H :    0.111283
  22 H :    0.111560
  23 H :    0.101864
  24 H :    0.109906
  25 H :    0.109488
  26 H :    0.126323
  27 H :    0.110938
  28 H :    0.127458
  29 H :    0.197818
  30 H :    0.195952
  31 H :    0.109799
  32 H :    0.104118
  33 H :    0.147502
  34 H :    0.110677
  35 H :    0.122439
  36 H :    0.111599
  37 H :    0.107698
  38 H :    0.118513
  39 H :    0.122304
  40 H :    0.112171
Sum of atomic charges:   -0.0000000

LOEWDIN ATOMIC CHARGES
----------------------
   0 C :   -0.368155
   1 C :   -0.120751
   2 O :   -0.246073
   3 P :    0.567190
   4 S :   -0.306596
   5 O :   -0.242952
   6 C :   -0.110336
   7 C :   -0.366409
   8 S :    0.103839
   9 C :   -0.487529
  10 S :    0.100696
  11 P :    0.570351
  12 S :   -0.314644
  13 O :   -0.242643
  14 C :   -0.118128
  15 C :   -0.372815
  16 O :   -0.243828
  17 C :   -0.115251
  18 C :   -0.364617
  19 H :    0.126500
  20 H :    0.113321
  21 H :    0.130929
  22 H :    0.108841
  23 H :    0.116798
  24 H :    0.121896
  25 H :    0.113150
  26 H :    0.130929
  27 H :    0.129683
  28 H :    0.121922
  29 H :    0.124989
  30 H :    0.129090
  31 H :    0.109972
  32 H :    0.118190
  33 H :    0.115010
  34 H :    0.130200
  35 H :    0.125293
  36 H :    0.111281
  37 H :    0.120235
  38 H :    0.127239
  39 H :    0.122799
  40 H :    0.130385

  Mayer bond orders larger than 0.100000
B(  0-C ,  1-C ) :   1.1624 B(  0-C , 19-H ) :   0.9425 B(  0-C , 20-H ) :   0.9288
B(  0-C , 21-H ) :   0.9381 B(  1-C ,  2-O ) :   0.9121 B(  1-C , 22-H ) :   0.9107
B(  1-C , 23-H ) :   0.9323 B(  2-O ,  3-P ) :   1.0788 B(  3-P ,  4-S ) :   1.6022
B(  3-P ,  5-O ) :   1.1353 B(  3-P ,  8-S ) :   0.9678 B(  4-S ,  8-S ) :   0.1219
B(  4-S , 29-H ) :   0.1149 B(  5-O ,  6-C ) :   0.9071 B(  6-C ,  7-C ) :   1.1660
B(  6-C , 24-H ) :   0.9347 B(  6-C , 25-H ) :   0.9290 B(  7-C , 26-H ) :   0.9453
B(  7-C , 27-H ) :   0.9364 B(  7-C , 28-H ) :   0.9365 B(  8-S ,  9-C ) :   1.0157
B(  9-C , 10-S ) :   1.0066 B(  9-C , 29-H ) :   0.8480 B(  9-C , 30-H ) :   0.8740
B( 10-S , 11-P ) :   0.9614 B( 10-S , 12-S ) :   0.1149 B( 11-P , 12-S ) :   1.5923
B( 11-P , 13-O ) :   1.1061 B( 11-P , 16-O ) :   1.1357 B( 13-O , 14-C ) :   0.9111
B( 14-C , 15-C ) :   1.1633 B( 14-C , 31-H ) :   0.9156 B( 14-C , 32-H ) :   0.9333
B( 15-C , 33-H ) :   0.9243 B( 15-C , 34-H ) :   0.9371 B( 15-C , 35-H ) :   0.9419
B( 16-O , 17-C ) :   0.9111 B( 17-C , 18-C ) :   1.1626 B( 17-C , 36-H ) :   0.9185
B( 17-C , 37-H ) :   0.9353 B( 18-C , 38-H ) :   0.9460 B( 18-C , 39-H ) :   0.9387
B( 18-C , 40-H ) :   0.9384

Dispersion correction           -0.063317359
FINAL SINGLE POINT ENERGY     -2929.522666518008

DIPOLE MOMENT
-------------

Method             : SCF
Type of density    : Electron Density
Multiplicity       :   1
Irrep              :   0
Energy             : -2929.6442227145344077 Eh
Relativity type    :
Basis              : AO
                                X                 Y                 Z
Electronic contribution:     -1.109030791     -12.162807993      -1.414571712
Nuclear contribution   :      1.303908494      13.409386141       1.465085221
                        -----------------------------------------
Total Dipole Moment    :      0.194877704       1.246578148       0.050513510
                        -----------------------------------------
Magnitude (a.u.)       :      1.262729589
Magnitude (Debye)      :      3.209603543

Rotational constants in cm-1:             0.016210             0.003715             0.003592
Rotational constants in MHz :           485.950417           111.372774           107.674640

                             ****ORCA TERMINATED NORMALLY****
TOTAL RUN TIME: 0 days 0 hours 0 minutes 20 seconds 567 msec
