                         Program Version 6.0.0  -   RELEASE  -
|  1> ! r2scan-3c def2/J RI DEFGRID2 scfconv6 printgap
|  2> %output
|  3>     printlevel normal
|  4> end
|  5> * xyz 0 1
|  6> C 3.0282730936 -2.4076537124 2.103623543
|  7> C 1.6692630294 -2.2285538191 1.4619801334
|  8> O 1.4154832406 -0.843765315 1.1400140737
|  9> P 2.2120861851 -0.0926000143 -0.0019152967
| 10> S 2.8382084583 -1.1914892833 -1.5056818248
| 11> O 3.3503336376 0.6384906084 0.8267191113
| 12> C 4.388233052 1.4000243541 0.1776494517
| 13> C 5.5179738307 1.5865257845 1.1701983473
| 14> S 0.8779861388 1.4741411594 -0.4850608102
| 15> C -0.058339265 0.5525151542 -1.7373220048
| 16> S -1.0116135232 -0.8136755516 -1.0443872084
| 17> P -2.727003729 0.281985103 -0.3685126882
| 18> S -2.9286246226 2.0493603316 -1.1868231975
| 19> O -2.7004349764 0.1754369461 1.2212852191
| 20> C -1.6605453017 0.6550168795 2.0887264232
| 21> C -1.6248046211 2.1675804893 2.1715379633
| 22> O -3.9842513245 -0.600812371 -0.7046883548
| 23> C -4.3921717472 -1.8092196582 -0.0171088422
| 24> C -3.3732769786 -2.9214688925 -0.1437274036
| 25> H 3.8086487189 -2.1586209531 1.3853941351
| 26> H 3.1247589287 -1.7555235042 2.9675239374
| 27> H 3.1493671127 -3.4413149602 2.411975412
| 28> H 0.8595214411 -2.4925298879 2.1430925893
| 29> H 1.5897031495 -2.8175072816 0.5428170117
| 30> H 4.7195439009 0.8524600083 -0.7113548269
| 31> H 3.9656190344 2.3599179078 -0.1315354737
| 32> H 6.2977906541 2.1865735335 0.7129208448
| 33> H 5.1491840544 2.0909294655 2.0584093798
| 34> H 5.9292233846 0.6228698213 1.4567787111
| 35> H 0.6362089301 0.1191292372 -2.4563851812
| 36> H -0.7359106395 1.2662845869 -2.2079680564
| 37> H -1.9109164661 0.2138677585 3.0557313132
| 38> H -0.6983786193 0.2611831041 1.7471157468
| 39> H -1.3443299873 2.5975012722 1.2117699985
| 40> H -2.6023473592 2.5521406683 2.4509212184
| 41> H -0.8928046226 2.4662777922 2.9149882138
| 42> H -4.5758867896 -1.5605032771 1.0295128721
| 43> H -5.3311777509 -2.0673831989 -0.5089956483
| 44> H -2.4488278541 -2.6496263574 0.3631013522
| 45> H -3.7728721456 -3.822939991 0.3103437745
| 46> H -3.1502412208 -3.1156345484 -1.1898037865
| 47> *
| 48>
| 49>                          ****END OF INPUT****

CARTESIAN COORDINATES (ANGSTROEM)
---------------------------------
  C      3.028273   -2.407654    2.103624
  C      1.669263   -2.228554    1.461980
  O      1.415483   -0.843765    1.140014
  P      2.212086   -0.092600   -0.001915
  S      2.838208   -1.191489   -1.505682
  O      3.350334    0.638491    0.826719
  C      4.388233    1.400024    0.177649
  C      5.517974    1.586526    1.170198
  S      0.877986    1.474141   -0.485061
  C     -0.058339    0.552515   -1.737322
  S     -1.011614   -0.813676   -1.044387
  P     -2.727004    0.281985   -0.368513
  S     -2.928625    2.049360   -1.186823
  O     -2.700435    0.175437    1.221285
  C     -1.660545    0.655017    2.088726
  C     -1.624805    2.167580    2.171538
  O     -3.984251   -0.600812   -0.704688
  C     -4.392172   -1.809220   -0.017109
  C     -3.373277   -2.921469   -0.143727
  H      3.808649   -2.158621    1.385394
  H      3.124759   -1.755524    2.967524
  H      3.149367   -3.441315    2.411975
  H      0.859521   -2.492530    2.143093
  H      1.589703   -2.817507    0.542817
  H      4.719544    0.852460   -0.711355
  H      3.965619    2.359918   -0.131535
  H      6.297791    2.186574    0.712921
  H      5.149184    2.090929    2.058409
  H      5.929223    0.622870    1.456779
  H      0.636209    0.119129   -2.456385
  H     -0.735911    1.266285   -2.207968
  H     -1.910916    0.213868    3.055731
  H     -0.698379    0.261183    1.747116
  H     -1.344330    2.597501    1.211770
  H     -2.602347    2.552141    2.450921
  H     -0.892805    2.466278    2.914988
  H     -4.575887   -1.560503    1.029513
  H     -5.331178   -2.067383   -0.508996
  H     -2.448828   -2.649626    0.363101
  H     -3.772872   -3.822940    0.310344
  H     -3.150241   -3.115635   -1.189804

 Total Charge           Charge          ....    0
 Multiplicity           Mult            ....    1
 Number of Electrons    NEL             ....  202
 Basis Dimension        Dim             ....  539

ORBITAL ENERGIES
----------------

  NO   OCC          E(Eh)            E(eV)
   0   2.0000     -88.577346     -2410.3121
   1   2.0000     -88.573346     -2410.2033
   2   2.0000     -88.525249     -2408.8945
   3   2.0000     -88.516155     -2408.6470
   4   2.0000     -76.917895     -2093.0423
   5   2.0000     -76.913754     -2092.9296
   6   2.0000     -18.997958      -516.9607
   7   2.0000     -18.996710      -516.9268
   8   2.0000     -18.991312      -516.7799
   9   2.0000     -18.990594      -516.7603
  10   2.0000     -10.105011      -274.9713
  11   2.0000     -10.103504      -274.9303
  12   2.0000     -10.103184      -274.9216
  13   2.0000     -10.100869      -274.8586
  14   2.0000     -10.095470      -274.7117
  15   2.0000     -10.037908      -273.1454
  16   2.0000     -10.037351      -273.1302
  17   2.0000     -10.033754      -273.0323
  18   2.0000     -10.020114      -272.6612
  19   2.0000      -7.871587      -214.1968
  20   2.0000      -7.867505      -214.0857
  21   2.0000      -7.819951      -212.7917
  22   2.0000      -7.811040      -212.5492
  23   2.0000      -6.596622      -179.5032
  24   2.0000      -6.591735      -179.3702
  25   2.0000      -5.818364      -158.3257
  26   2.0000      -5.815452      -158.2465
  27   2.0000      -5.814489      -158.2203
  28   2.0000      -5.811228      -158.1316
  29   2.0000      -5.808821      -158.0660
  30   2.0000      -5.804675      -157.9532
  31   2.0000      -5.767541      -156.9428
  32   2.0000      -5.760226      -156.7437
  33   2.0000      -5.760027      -156.7383
  34   2.0000      -5.758844      -156.7061
  35   2.0000      -5.751140      -156.4965
  36   2.0000      -5.751053      -156.4941
  37   2.0000      -4.741989      -129.0361
  38   2.0000      -4.741598      -129.0254
  39   2.0000      -4.740384      -128.9924
  40   2.0000      -4.737569      -128.9158
  41   2.0000      -4.736722      -128.8927
  42   2.0000      -4.735192      -128.8511
  43   2.0000      -1.056214       -28.7410
  44   2.0000      -1.050515       -28.5860
  45   2.0000      -1.017485       -27.6872
  46   2.0000      -1.007906       -27.4265
  47   2.0000      -0.801074       -21.7983
  48   2.0000      -0.762435       -20.7469
  49   2.0000      -0.754114       -20.5205
  50   2.0000      -0.738179       -20.0869
  51   2.0000      -0.733018       -19.9464
  52   2.0000      -0.712082       -19.3767
  53   2.0000      -0.686729       -18.6869
  54   2.0000      -0.669126       -18.2078
  55   2.0000      -0.634630       -17.2692
  56   2.0000      -0.623235       -16.9591
  57   2.0000      -0.611935       -16.6516
  58   2.0000      -0.604724       -16.4554
  59   2.0000      -0.593218       -16.1423
  60   2.0000      -0.533979       -14.5303
  61   2.0000      -0.520645       -14.1675
  62   2.0000      -0.502555       -13.6752
  63   2.0000      -0.491066       -13.3626
  64   2.0000      -0.478161       -13.0114
  65   2.0000      -0.467824       -12.7302
  66   2.0000      -0.461019       -12.5450
  67   2.0000      -0.456339       -12.4176
  68   2.0000      -0.442836       -12.0502
  69   2.0000      -0.440950       -11.9989
  70   2.0000      -0.428158       -11.6508
  71   2.0000      -0.420727       -11.4486
  72   2.0000      -0.416342       -11.3292
  73   2.0000      -0.401204       -10.9173
  74   2.0000      -0.400424       -10.8961
  75   2.0000      -0.391302       -10.6479
  76   2.0000      -0.381855       -10.3908
  77   2.0000      -0.376945       -10.2572
  78   2.0000      -0.372028       -10.1234
  79   2.0000      -0.368173       -10.0185
  80   2.0000      -0.367147        -9.9906
  81   2.0000      -0.364056        -9.9065
  82   2.0000      -0.357755        -9.7350
  83   2.0000      -0.353879        -9.6295
  84   2.0000      -0.347377        -9.4526
  85   2.0000      -0.337603        -9.1867
  86   2.0000      -0.325969        -8.8701
  87   2.0000      -0.319822        -8.7028
  88   2.0000      -0.311147        -8.4667
  89   2.0000      -0.308542        -8.3959
  90   2.0000      -0.302284        -8.2256
  91   2.0000      -0.295496        -8.0409
  92   2.0000      -0.290475        -7.9042
  93   2.0000      -0.280964        -7.6454
  94   2.0000      -0.271977        -7.4009
  95   2.0000      -0.249724        -6.7953
  96   2.0000      -0.230971        -6.2850
  97   2.0000      -0.227983        -6.2037
  98   2.0000      -0.218378        -5.9424
  99   2.0000      -0.213461        -5.8086
 100   2.0000      -0.210892        -5.7387
 101   0.0000      -0.047366        -1.2889
 102   0.0000      -0.027239        -0.7412
 103   0.0000      -0.005266        -0.1433
 104   0.0000      -0.000590        -0.0161
 105   0.0000       0.013690         0.3725

MULLIKEN ATOMIC CHARGES
-----------------------
   0 C :   -0.444266
   1 C :   -0.149812
   2 O :   -0.275051
   3 P :    0.686480
   4 S :   -0.481396
   5 O :   -0.285732
   6 C :   -0.157244
   7 C :   -0.438896
   8 S :   -0.146888
   9 C :   -0.240921
  10 S :   -0.145707
  11 P :    0.659307
  12 S :   -0.445709
  13 O :   -0.273486
  14 C :   -0.180754
  15 C :   -0.417886
  16 O :   -0.277001
  17 C :   -0.116183
  18 C :   -0.479043
  19 H :    0.170439
  20 H :    0.155902
  21 H :    0.148065
  22 H :    0.149261
  23 H :    0.176026
  24 H :    0.171058
  25 H :    0.153864
  26 H :    0.148510
  27 H :    0.154302
  28 H :    0.154491
  29 H :    0.221090
  30 H :    0.218139
  31 H :    0.143944
  32 H :    0.178542
  33 H :    0.174487
  34 H :    0.150799
  35 H :    0.142937
  36 H :    0.162856
  37 H :    0.152079
  38 H :    0.156858
  39 H :    0.152547
  40 H :    0.173993
Sum of atomic charges:   -0.0000000

LOEWDIN ATOMIC CHARGES
----------------------
   0 C :   -0.399179
   1 C :    0.018147
   2 O :   -0.688196
   3 P :    0.371694
   4 S :   -0.132400
   5 O :   -0.664361
   6 C :    0.021016
   7 C :   -0.385041
   8 S :    0.158085
   9 C :   -0.427855
  10 S :    0.143858
  11 P :    0.395387
  12 S :   -0.102710
  13 O :   -0.674264
  14 C :    0.019493
  15 C :   -0.409467
  16 O :   -0.647521
  17 C :    0.033378
  18 C :   -0.405105
  19 H :    0.166155
  20 H :    0.160811
  21 H :    0.160118
  22 H :    0.179024
  23 H :    0.182047
  24 H :    0.180816
  25 H :    0.172922
  26 H :    0.160826
  27 H :    0.160258
  28 H :    0.160014
  29 H :    0.191600
  30 H :    0.196312
  31 H :    0.177502
  32 H :    0.191242
  33 H :    0.167630
  34 H :    0.160317
  35 H :    0.158882
  36 H :    0.177327
  37 H :    0.183459
  38 H :    0.161232
  39 H :    0.160817
  40 H :    0.165729

  Mayer bond orders larger than 0.100000
B(  0-C ,  1-C ) :   0.9279 B(  0-C , 19-H ) :   0.9593 B(  0-C , 20-H ) :   0.9710
B(  0-C , 21-H ) :   0.9617 B(  1-C ,  2-O ) :   0.7881 B(  1-C , 22-H ) :   0.9606
B(  1-C , 23-H ) :   0.9633 B(  2-O ,  3-P ) :   1.1532 B(  3-P ,  4-S ) :   1.7446
B(  3-P ,  5-O ) :   1.0954 B(  3-P ,  8-S ) :   1.0701 B(  5-O ,  6-C ) :   0.7783
B(  6-C ,  7-C ) :   0.9567 B(  6-C , 24-H ) :   0.9514 B(  6-C , 25-H ) :   0.9453
B(  7-C , 26-H ) :   0.9639 B(  7-C , 27-H ) :   0.9715 B(  7-C , 28-H ) :   0.9713
B(  8-S ,  9-C ) :   0.9035 B(  9-C , 10-S ) :   0.9132 B(  9-C , 29-H ) :   0.9112
B(  9-C , 30-H ) :   0.8975 B( 10-S , 11-P ) :   0.9849 B( 11-P , 12-S ) :   1.8184
B( 11-P , 13-O ) :   1.0430 B( 11-P , 16-O ) :   1.1725 B( 13-O , 14-C ) :   0.8014
B( 14-C , 15-C ) :   0.9356 B( 14-C , 31-H ) :   0.9662 B( 14-C , 32-H ) :   0.9483
B( 15-C , 33-H ) :   0.9498 B( 15-C , 34-H ) :   0.9685 B( 15-C , 35-H ) :   0.9648
B( 16-O , 17-C ) :   0.7979 B( 17-C , 18-C ) :   0.9163 B( 17-C , 36-H ) :   0.9758
B( 17-C , 37-H ) :   0.9532 B( 18-C , 38-H ) :   0.9639 B( 18-C , 39-H ) :   0.9579
B( 18-C , 40-H ) :   0.9665

Dispersion correction           -0.021382178
FINAL SINGLE POINT ENERGY     -2932.461827993974

DIPOLE MOMENT
-------------

Method             : SCF
Type of density    : Electron Density
Multiplicity       :   1
Irrep              :   0
Energy             : -2932.4870809782833021 Eh
Relativity type    :
Basis              : AO
                                X                 Y                 Z
Electronic contribution:    -10.724393347       7.001421285     -17.135667104
Nuclear contribution   :     11.476561064      -8.002249929      18.837191247
                        -----------------------------------------
Total Dipole Moment    :      0.752167717      -1.000828644       1.701524143
                        -----------------------------------------
Magnitude (a.u.)       :      2.112486369
Magnitude (Debye)      :      5.369513628

Rotational constants in cm-1:             0.012804             0.004762             0.004408
Rotational constants in MHz :           383.866009           142.757753           132.161115

                             ****ORCA TERMINATED NORMALLY****
TOTAL RUN TIME: 0 days 0 hours 1 minutes 20 seconds 11 msec
