                         Program Version 6.0.0  -   RELEASE  -
|  1> ! r2scan-3c def2/J RI DEFGRID2 scfconv6 printgap
|  2> %output
|  3>     printlevel normal
|  4> end
|  5> %cpcm
|  6>     smd true
|  7>     smdsolvent "water"
|  8> end
|  9> * xyz 0 1
| 10> C 3.0282730936 -2.4076537124 2.103623543
| 11> C 1.6692630294 -2.2285538191 1.4619801334
| 12> O 1.4154832406 -0.843765315 1.1400140737
| 13> P 2.2120861851 -0.0926000143 -0.0019152967
| 14> S 2.8382084583 -1.1914892833 -1.5056818248
| 15> O 3.3503336376 0.6384906084 0.8267191113
| 16> C 4.388233052 1.4000243541 0.1776494517
| 17> C 5.5179738307 1.5865257845 1.1701983473
| 18> S 0.8779861388 1.4741411594 -0.4850608102
| 19> C -0.058339265 0.5525151542 -1.7373220048
| 20> S -1.0116135232 -0.8136755516 -1.0443872084
| 21> P -2.727003729 0.281985103 -0.3685126882
| 22> S -2.9286246226 2.0493603316 -1.1868231975
| 23> O -2.7004349764 0.1754369461 1.2212852191
| 24> C -1.6605453017 0.6550168795 2.0887264232
| 25> C -1.6248046211 2.1675804893 2.1715379633
| 26> O -3.9842513245 -0.600812371 -0.7046883548
| 27> C -4.3921717472 -1.8092196582 -0.0171088422
| 28> C -3.3732769786 -2.9214688925 -0.1437274036
| 29> H 3.8086487189 -2.1586209531 1.3853941351
| 30> H 3.1247589287 -1.7555235042 2.9675239374
| 31> H 3.1493671127 -3.4413149602 2.411975412
| 32> H 0.8595214411 -2.4925298879 2.1430925893
| 33> H 1.5897031495 -2.8175072816 0.5428170117
| 34> H 4.7195439009 0.8524600083 -0.7113548269
| 35> H 3.9656190344 2.3599179078 -0.1315354737
| 36> H 6.2977906541 2.1865735335 0.7129208448
| 37> H 5.1491840544 2.0909294655 2.0584093798
| 38> H 5.9292233846 0.6228698213 1.4567787111
| 39> H 0.6362089301 0.1191292372 -2.4563851812
| 40> H -0.7359106395 1.2662845869 -2.2079680564
| 41> H -1.9109164661 0.2138677585 3.0557313132
| 42> H -0.6983786193 0.2611831041 1.7471157468
| 43> H -1.3443299873 2.5975012722 1.2117699985
| 44> H -2.6023473592 2.5521406683 2.4509212184
| 45> H -0.8928046226 2.4662777922 2.9149882138
| 46> H -4.5758867896 -1.5605032771 1.0295128721
| 47> H -5.3311777509 -2.0673831989 -0.5089956483
| 48> H -2.4488278541 -2.6496263574 0.3631013522
| 49> H -3.7728721456 -3.822939991 0.3103437745
| 50> H -3.1502412208 -3.1156345484 -1.1898037865
| 51> *
| 52>
| 53>                          ****END OF INPUT****

CARTESIAN COORDINATES (ANGSTROEM)
---------------------------------
  C      3.028273   -2.407654    2.103624
  C      1.669263   -2.228554    1.461980
  O      1.415483   -0.843765    1.140014
  P      2.212086   -0.092600   -0.001915
  S      2.838208   -1.191489   -1.505682
  O      3.350334    0.638491    0.826719
  C      4.388233    1.400024    0.177649
  C      5.517974    1.586526    1.170198
  S      0.877986    1.474141   -0.485061
  C     -0.058339    0.552515   -1.737322
  S     -1.011614   -0.813676   -1.044387
  P     -2.727004    0.281985   -0.368513
  S     -2.928625    2.049360   -1.186823
  O     -2.700435    0.175437    1.221285
  C     -1.660545    0.655017    2.088726
  C     -1.624805    2.167580    2.171538
  O     -3.984251   -0.600812   -0.704688
  C     -4.392172   -1.809220   -0.017109
  C     -3.373277   -2.921469   -0.143727
  H      3.808649   -2.158621    1.385394
  H      3.124759   -1.755524    2.967524
  H      3.149367   -3.441315    2.411975
  H      0.859521   -2.492530    2.143093
  H      1.589703   -2.817507    0.542817
  H      4.719544    0.852460   -0.711355
  H      3.965619    2.359918   -0.131535
  H      6.297791    2.186574    0.712921
  H      5.149184    2.090929    2.058409
  H      5.929223    0.622870    1.456779
  H      0.636209    0.119129   -2.456385
  H     -0.735911    1.266285   -2.207968
  H     -1.910916    0.213868    3.055731
  H     -0.698379    0.261183    1.747116
  H     -1.344330    2.597501    1.211770
  H     -2.602347    2.552141    2.450921
  H     -0.892805    2.466278    2.914988
  H     -4.575887   -1.560503    1.029513
  H     -5.331178   -2.067383   -0.508996
  H     -2.448828   -2.649626    0.363101
  H     -3.772872   -3.822940    0.310344
  H     -3.150241   -3.115635   -1.189804

 Total Charge           Charge          ....    0
 Multiplicity           Mult            ....    1
 Number of Electrons    NEL             ....  202
 Basis Dimension        Dim             ....  539

ORBITAL ENERGIES
----------------

  NO   OCC          E(Eh)            E(eV)
   0   2.0000     -88.580150     -2410.3884
   1   2.0000     -88.578709     -2410.3492
   2   2.0000     -88.529868     -2409.0202
   3   2.0000     -88.529146     -2409.0005
   4   2.0000     -76.921964     -2093.1530
   5   2.0000     -76.920012     -2093.0999
   6   2.0000     -18.997102      -516.9374
   7   2.0000     -18.995493      -516.8937
   8   2.0000     -18.994993      -516.8800
   9   2.0000     -18.994892      -516.8773
  10   2.0000     -10.102404      -274.9004
  11   2.0000     -10.093002      -274.6445
  12   2.0000     -10.091002      -274.5901
  13   2.0000     -10.090266      -274.5701
  14   2.0000     -10.089191      -274.5409
  15   2.0000     -10.022553      -272.7275
  16   2.0000     -10.019954      -272.6568
  17   2.0000     -10.019070      -272.6328
  18   2.0000     -10.015732      -272.5419
  19   2.0000      -7.874466      -214.2751
  20   2.0000      -7.872818      -214.2303
  21   2.0000      -7.824855      -212.9251
  22   2.0000      -7.824409      -212.9130
  23   2.0000      -6.600024      -179.5958
  24   2.0000      -6.598760      -179.5614
  25   2.0000      -5.821220      -158.4035
  26   2.0000      -5.819813      -158.3652
  27   2.0000      -5.818333      -158.3249
  28   2.0000      -5.816534      -158.2759
  29   2.0000      -5.811711      -158.1447
  30   2.0000      -5.809993      -158.0979
  31   2.0000      -5.772381      -157.0745
  32   2.0000      -5.772076      -157.0662
  33   2.0000      -5.765128      -156.8771
  34   2.0000      -5.764946      -156.8722
  35   2.0000      -5.764526      -156.8607
  36   2.0000      -5.764467      -156.8591
  37   2.0000      -4.745803      -129.1399
  38   2.0000      -4.744956      -129.1168
  39   2.0000      -4.744063      -129.0925
  40   2.0000      -4.743726      -129.0833
  41   2.0000      -4.743627      -129.0806
  42   2.0000      -4.742633      -129.0536
  43   2.0000      -1.054644       -28.6983
  44   2.0000      -1.054372       -28.6909
  45   2.0000      -1.015037       -27.6206
  46   2.0000      -1.011081       -27.5129
  47   2.0000      -0.803900       -21.8752
  48   2.0000      -0.758058       -20.6278
  49   2.0000      -0.746582       -20.3155
  50   2.0000      -0.726645       -19.7730
  51   2.0000      -0.725003       -19.7283
  52   2.0000      -0.711046       -19.3486
  53   2.0000      -0.689387       -18.7592
  54   2.0000      -0.674917       -18.3654
  55   2.0000      -0.629887       -17.1401
  56   2.0000      -0.621335       -16.9074
  57   2.0000      -0.607710       -16.5366
  58   2.0000      -0.594272       -16.1710
  59   2.0000      -0.590758       -16.0753
  60   2.0000      -0.528576       -14.3833
  61   2.0000      -0.517047       -14.0696
  62   2.0000      -0.496256       -13.5038
  63   2.0000      -0.487691       -13.2707
  64   2.0000      -0.476374       -12.9628
  65   2.0000      -0.463037       -12.5999
  66   2.0000      -0.455978       -12.4078
  67   2.0000      -0.446432       -12.1480
  68   2.0000      -0.440331       -11.9820
  69   2.0000      -0.435690       -11.8557
  70   2.0000      -0.424242       -11.5442
  71   2.0000      -0.419069       -11.4035
  72   2.0000      -0.409656       -11.1473
  73   2.0000      -0.397989       -10.8298
  74   2.0000      -0.397025       -10.8036
  75   2.0000      -0.385331       -10.4854
  76   2.0000      -0.381157       -10.3718
  77   2.0000      -0.366489        -9.9727
  78   2.0000      -0.363290        -9.8856
  79   2.0000      -0.362301        -9.8587
  80   2.0000      -0.355432        -9.6718
  81   2.0000      -0.354173        -9.6375
  82   2.0000      -0.350078        -9.5261
  83   2.0000      -0.349593        -9.5129
  84   2.0000      -0.343945        -9.3592
  85   2.0000      -0.332092        -9.0367
  86   2.0000      -0.321378        -8.7451
  87   2.0000      -0.314015        -8.5448
  88   2.0000      -0.307908        -8.3786
  89   2.0000      -0.303523        -8.2593
  90   2.0000      -0.298738        -8.1291
  91   2.0000      -0.291672        -7.9368
  92   2.0000      -0.288814        -7.8590
  93   2.0000      -0.279500        -7.6056
  94   2.0000      -0.275085        -7.4854
  95   2.0000      -0.252772        -6.8783
  96   2.0000      -0.238144        -6.4802
  97   2.0000      -0.235299        -6.4028
  98   2.0000      -0.225617        -6.1393
  99   2.0000      -0.224080        -6.0975
 100   2.0000      -0.221712        -6.0331
 101   0.0000      -0.052664        -1.4330
 102   0.0000      -0.033678        -0.9164
 103   0.0000      -0.010576        -0.2878
 104   0.0000      -0.003920        -0.1067
 105   0.0000       0.012686         0.3452

MULLIKEN ATOMIC CHARGES
-----------------------
   0 C :   -0.485770
   1 C :   -0.141340
   2 O :   -0.296125
   3 P :    0.719968
   4 S :   -0.529098
   5 O :   -0.310553
   6 C :   -0.148594
   7 C :   -0.482271
   8 S :   -0.154237
   9 C :   -0.251828
  10 S :   -0.149293
  11 P :    0.670961
  12 S :   -0.504431
  13 O :   -0.289632
  14 C :   -0.161495
  15 C :   -0.465232
  16 O :   -0.312554
  17 C :   -0.110776
  18 C :   -0.512063
  19 H :    0.168564
  20 H :    0.170490
  21 H :    0.172849
  22 H :    0.178965
  23 H :    0.177776
  24 H :    0.172749
  25 H :    0.171936
  26 H :    0.169984
  27 H :    0.166274
  28 H :    0.166296
  29 H :    0.241160
  30 H :    0.229053
  31 H :    0.175912
  32 H :    0.174849
  33 H :    0.165447
  34 H :    0.164629
  35 H :    0.170443
  36 H :    0.178639
  37 H :    0.175229
  38 H :    0.163888
  39 H :    0.179098
  40 H :    0.180132
Sum of atomic charges:   -0.0000000

LOEWDIN ATOMIC CHARGES
----------------------
   0 C :   -0.402484
   1 C :    0.024001
   2 O :   -0.694569
   3 P :    0.376669
   4 S :   -0.162381
   5 O :   -0.675203
   6 C :    0.025550
   7 C :   -0.388739
   8 S :    0.153090
   9 C :   -0.425124
  10 S :    0.145931
  11 P :    0.395609
  12 S :   -0.148706
  13 O :   -0.676909
  14 C :    0.026503
  15 C :   -0.414685
  16 O :   -0.670116
  17 C :    0.040300
  18 C :   -0.404708
  19 H :    0.162923
  20 H :    0.164468
  21 H :    0.169301
  22 H :    0.191213
  23 H :    0.182633
  24 H :    0.181810
  25 H :    0.180056
  26 H :    0.169175
  27 H :    0.163502
  28 H :    0.162783
  29 H :    0.197102
  30 H :    0.199055
  31 H :    0.191070
  32 H :    0.190807
  33 H :    0.161273
  34 H :    0.162290
  35 H :    0.168680
  36 H :    0.184787
  37 H :    0.193209
  38 H :    0.162351
  39 H :    0.171876
  40 H :    0.165608

  Mayer bond orders larger than 0.100000
B(  0-C ,  1-C ) :   0.9162 B(  0-C , 19-H ) :   0.9592 B(  0-C , 20-H ) :   0.9699
B(  0-C , 21-H ) :   0.9558 B(  1-C ,  2-O ) :   0.7763 B(  1-C , 22-H ) :   0.9499
B(  1-C , 23-H ) :   0.9597 B(  2-O ,  3-P ) :   1.1645 B(  3-P ,  4-S ) :   1.7037
B(  3-P ,  5-O ) :   1.1033 B(  3-P ,  8-S ) :   1.0799 B(  5-O ,  6-C ) :   0.7713
B(  6-C ,  7-C ) :   0.9525 B(  6-C , 24-H ) :   0.9482 B(  6-C , 25-H ) :   0.9369
B(  7-C , 26-H ) :   0.9582 B(  7-C , 27-H ) :   0.9689 B(  7-C , 28-H ) :   0.9689
B(  8-S ,  9-C ) :   0.8993 B(  9-C , 10-S ) :   0.9018 B(  9-C , 29-H ) :   0.9053
B(  9-C , 30-H ) :   0.8961 B( 10-S , 11-P ) :   1.0033 B( 11-P , 12-S ) :   1.7916
B( 11-P , 13-O ) :   1.0536 B( 11-P , 16-O ) :   1.1787 B( 13-O , 14-C ) :   0.7928
B( 14-C , 15-C ) :   0.9169 B( 14-C , 31-H ) :   0.9564 B( 14-C , 32-H ) :   0.9484
B( 15-C , 33-H ) :   0.9535 B( 15-C , 34-H ) :   0.9694 B( 15-C , 35-H ) :   0.9597
B( 16-O , 17-C ) :   0.7859 B( 17-C , 18-C ) :   0.9049 B( 17-C , 36-H ) :   0.9658
B( 17-C , 37-H ) :   0.9450 B( 18-C , 38-H ) :   0.9587 B( 18-C , 39-H ) :   0.9503
B( 18-C , 40-H ) :   0.9666

Dispersion correction           -0.021382178
FINAL SINGLE POINT ENERGY     -2932.470933877346

DIPOLE MOMENT
-------------

Method             : SCF
Type of density    : Electron Density
Multiplicity       :   1
Irrep              :   0
Energy             : -2932.4961868616555876 Eh
Relativity type    :
Basis              : AO
                                X                 Y                 Z
Electronic contribution:    -10.482058908       6.560938654     -16.498464202
Nuclear contribution   :     11.476561064      -8.002249929      18.837191247
                        -----------------------------------------
Total Dipole Moment    :      0.994502155      -1.441311275       2.338727045
                        -----------------------------------------
Magnitude (a.u.)       :      2.921653114
Magnitude (Debye)      :      7.426252043

Rotational constants in cm-1:             0.012804             0.004762             0.004408
Rotational constants in MHz :           383.866009           142.757753           132.161115

                             ****ORCA TERMINATED NORMALLY****
TOTAL RUN TIME: 0 days 0 hours 1 minutes 48 seconds 675 msec
