                         Program Version 6.0.0  -   RELEASE  -
|  1> ! wb97x-v def2-tzvp def2/J RIJCOSX DEFGRID2 scfconv7 GCP(DFT/TZ) printgap
|  2> %output
|  3>     printlevel normal
|  4> end
|  5> * xyz 0 1
|  6> C 0.6646664284418234 1.680620042114719 -0.03434434656771028
|  7> C 1.4106496132493247 0.368610333091098 -0.26066324850548434
|  8> H 1.65073895551902 0.2538780266307783 -1.3242489621316378
|  9> C 0.538045667066405 -0.7957931061646901 0.18113696519440373
| 10> H 0.39235893495256463 -0.7353791112820716 1.2730571772856072
| 11> C -0.8210843590186935 -0.7123404711788913 -0.5159032549465468
| 12> H -0.6692361937800351 -0.8358959497120692 -1.5938316461247783
| 13> C -1.4804907864101788 0.6507422225271622 -0.29569865544334945
| 14> H -2.3674095611636385 0.7550072147537762 -0.9304039998089801
| 15> O -0.6053358845414492 1.692474715181639 -0.7133661981403157
| 16> O -1.8301224855481841 0.7510739804463555 1.0720661465470072
| 17> O -1.6786623400127736 -1.7821624471779243 -0.11322773870232712
| 18> O 1.2032916178393147 -2.017455090382048 -0.15631217987750254
| 19> O 2.6673826646565075 0.39513253075253285 0.4252269425192812
| 20> H 1.2358723268201115 2.51488229988693 -0.4470351302156257
| 21> H 0.5262347070647737 1.845816679014835 1.0437680832329044
| 22> H -2.498157209398787 1.443702113384315 1.1609697369313425
| 23> H -1.8923852735259945 -1.6424671979949435 0.8207971098386683
| 24> H 0.6003338515397146 -2.7390919791287938 0.07136366181204574
| 25> H 2.482314560795569 0.4736245826268774 1.3724089612971258
| 26> *
| 27>
| 28>                          ****END OF INPUT****

CARTESIAN COORDINATES (ANGSTROEM)
---------------------------------
  C      0.664666    1.680620   -0.034344
  C      1.410650    0.368610   -0.260663
  H      1.650739    0.253878   -1.324249
  C      0.538046   -0.795793    0.181137
  H      0.392359   -0.735379    1.273057
  C     -0.821084   -0.712340   -0.515903
  H     -0.669236   -0.835896   -1.593832
  C     -1.480491    0.650742   -0.295699
  H     -2.367410    0.755007   -0.930404
  O     -0.605336    1.692475   -0.713366
  O     -1.830122    0.751074    1.072066
  O     -1.678662   -1.782162   -0.113228
  O      1.203292   -2.017455   -0.156312
  O      2.667383    0.395133    0.425227
  H      1.235872    2.514882   -0.447035
  H      0.526235    1.845817    1.043768
  H     -2.498157    1.443702    1.160970
  H     -1.892385   -1.642467    0.820797
  H      0.600334   -2.739092    0.071364
  H      2.482315    0.473625    1.372409

 Total Charge           Charge          ....    0
 Multiplicity           Mult            ....    1
 Number of Electrons    NEL             ....   80
 Basis Dimension        Dim             ....  370

ORBITAL ENERGIES
----------------

  NO   OCC          E(Eh)            E(eV)
   0   2.0000     -21.706266      -590.6575
   1   2.0000     -21.695273      -590.3584
   2   2.0000     -21.689374      -590.1979
   3   2.0000     -21.678286      -589.8962
   4   2.0000     -21.673601      -589.7687
   5   2.0000     -12.163262      -330.9792
   6   2.0000     -12.111606      -329.5735
   7   2.0000     -12.107248      -329.4550
   8   2.0000     -12.105325      -329.4026
   9   2.0000     -12.102657      -329.3300
  10   2.0000      -1.730763       -47.0965
  11   2.0000      -1.692758       -46.0623
  12   2.0000      -1.688116       -45.9360
  13   2.0000      -1.680743       -45.7353
  14   2.0000      -1.672863       -45.5209
  15   2.0000      -1.333341       -36.2821
  16   2.0000      -1.310071       -35.6489
  17   2.0000      -1.199933       -32.6518
  18   2.0000      -1.197183       -32.5770
  19   2.0000      -1.141599       -31.0645
  20   2.0000      -1.089822       -29.6556
  21   2.0000      -1.068231       -29.0680
  22   2.0000      -1.045635       -28.4532
  23   2.0000      -1.028885       -27.9974
  24   2.0000      -1.018832       -27.7238
  25   2.0000      -1.001110       -27.2416
  26   2.0000      -0.987073       -26.8596
  27   2.0000      -0.979554       -26.6550
  28   2.0000      -0.963829       -26.2271
  29   2.0000      -0.952041       -25.9063
  30   2.0000      -0.936015       -25.4703
  31   2.0000      -0.933658       -25.4061
  32   2.0000      -0.915721       -24.9180
  33   2.0000      -0.901614       -24.5342
  34   2.0000      -0.883462       -24.0402
  35   2.0000      -0.861270       -23.4363
  36   2.0000      -0.836412       -22.7599
  37   2.0000      -0.818133       -22.2625
  38   2.0000      -0.802825       -21.8460
  39   2.0000      -0.782237       -21.2857
  40   0.0000      -0.239834        -6.5262
  41   0.0000      -0.179313        -4.8794
  42   0.0000      -0.174064        -4.7365
  43   0.0000      -0.154837        -4.2133
  44   0.0000      -0.122928        -3.3450

MULLIKEN ATOMIC CHARGES
-----------------------
   0 C :   -0.040570
   1 C :    0.047682
   2 H :    0.092962
   3 C :    0.033689
   4 H :    0.078059
   5 C :    0.039406
   6 H :    0.106339
   7 C :    0.106872
   8 H :    0.105187
   9 O :   -0.286520
  10 O :   -0.442704
  11 O :   -0.452298
  12 O :   -0.417988
  13 O :   -0.419323
  14 H :    0.129788
  15 H :    0.087096
  16 H :    0.318090
  17 H :    0.312010
  18 H :    0.306550
  19 H :    0.295673
Sum of atomic charges:   -0.0000000

LOEWDIN ATOMIC CHARGES
----------------------
   0 C :   -0.279675
   1 C :   -0.322819
   2 H :    0.151666
   3 C :   -0.323717
   4 H :    0.136482
   5 C :   -0.312393
   6 H :    0.156560
   7 C :   -0.412923
   8 H :    0.132571
   9 O :    0.163306
  10 O :   -0.006789
  11 O :   -0.015270
  12 O :   -0.008755
  13 O :   -0.006998
  14 H :    0.132668
  15 H :    0.120589
  16 H :    0.179672
  17 H :    0.173641
  18 H :    0.172056
  19 H :    0.170127

  Mayer bond orders larger than 0.100000
B(  0-C ,  1-C ) :   0.9738 B(  0-C ,  9-O ) :   0.9665 B(  0-C , 14-H ) :   0.9737
B(  0-C , 15-H ) :   0.9634 B(  1-C ,  2-H ) :   0.9426 B(  1-C ,  3-C ) :   0.9883
B(  1-C , 13-O ) :   1.0089 B(  3-C ,  4-H ) :   0.9437 B(  3-C ,  5-C ) :   0.9821
B(  3-C , 12-O ) :   1.0931 B(  5-C ,  6-H ) :   0.9486 B(  5-C ,  7-C ) :   0.9628
B(  5-C , 11-O ) :   1.0023 B(  7-C ,  8-H ) :   0.9552 B(  7-C ,  9-O ) :   1.0653
B(  7-C , 10-O ) :   1.1809 B( 10-O , 16-H ) :   0.8906 B( 11-O , 17-H ) :   0.8824
B( 12-O , 18-H ) :   0.8864 B( 13-O , 19-H ) :   0.8948

FINAL SINGLE POINT ENERGY      -572.704109709261

DIPOLE MOMENT
-------------

Method             : SCF
Type of density    : Electron Density
Multiplicity       :   1
Irrep              :   0
Energy             :  -572.7197137782611662 Eh
Relativity type    :
Basis              : AO
                                X                 Y                 Z
Electronic contribution:     -0.643402641      -0.631649185      -0.597853747
Nuclear contribution   :     -0.465901267       1.219380239       1.454928180
                        -----------------------------------------
Total Dipole Moment    :     -1.109303908       0.587731053       0.857074433
                        -----------------------------------------
Magnitude (a.u.)       :      1.520052478
Magnitude (Debye)      :      3.863666348

Rotational constants in cm-1:             0.056290             0.043968             0.028672
Rotational constants in MHz :          1687.519763          1318.126982           859.563332

                             ****ORCA TERMINATED NORMALLY****
TOTAL RUN TIME: 0 days 0 hours 3 minutes 46 seconds 177 msec
