                         Program Version 6.0.0  -   RELEASE  -
|  1> ! wb97x-v def2-tzvp def2/J RIJCOSX DEFGRID2 scfconv7 GCP(DFT/TZ) printgap
|  2> %output
|  3>     printlevel normal
|  4> end
|  5> %cpcm
|  6>     smd true
|  7>     smdsolvent "water"
|  8> end
|  9> * xyz 0 1
| 10> C 0.6646664284418234 1.680620042114719 -0.03434434656771028
| 11> C 1.4106496132493247 0.368610333091098 -0.26066324850548434
| 12> H 1.65073895551902 0.2538780266307783 -1.3242489621316378
| 13> C 0.538045667066405 -0.7957931061646901 0.18113696519440373
| 14> H 0.39235893495256463 -0.7353791112820716 1.2730571772856072
| 15> C -0.8210843590186935 -0.7123404711788913 -0.5159032549465468
| 16> H -0.6692361937800351 -0.8358959497120692 -1.5938316461247783
| 17> C -1.4804907864101788 0.6507422225271622 -0.29569865544334945
| 18> H -2.3674095611636385 0.7550072147537762 -0.9304039998089801
| 19> O -0.6053358845414492 1.692474715181639 -0.7133661981403157
| 20> O -1.8301224855481841 0.7510739804463555 1.0720661465470072
| 21> O -1.6786623400127736 -1.7821624471779243 -0.11322773870232712
| 22> O 1.2032916178393147 -2.017455090382048 -0.15631217987750254
| 23> O 2.6673826646565075 0.39513253075253285 0.4252269425192812
| 24> H 1.2358723268201115 2.51488229988693 -0.4470351302156257
| 25> H 0.5262347070647737 1.845816679014835 1.0437680832329044
| 26> H -2.498157209398787 1.443702113384315 1.1609697369313425
| 27> H -1.8923852735259945 -1.6424671979949435 0.8207971098386683
| 28> H 0.6003338515397146 -2.7390919791287938 0.07136366181204574
| 29> H 2.482314560795569 0.4736245826268774 1.3724089612971258
| 30> *
| 31>
| 32>                          ****END OF INPUT****

CARTESIAN COORDINATES (ANGSTROEM)
---------------------------------
  C      0.664666    1.680620   -0.034344
  C      1.410650    0.368610   -0.260663
  H      1.650739    0.253878   -1.324249
  C      0.538046   -0.795793    0.181137
  H      0.392359   -0.735379    1.273057
  C     -0.821084   -0.712340   -0.515903
  H     -0.669236   -0.835896   -1.593832
  C     -1.480491    0.650742   -0.295699
  H     -2.367410    0.755007   -0.930404
  O     -0.605336    1.692475   -0.713366
  O     -1.830122    0.751074    1.072066
  O     -1.678662   -1.782162   -0.113228
  O      1.203292   -2.017455   -0.156312
  O      2.667383    0.395133    0.425227
  H      1.235872    2.514882   -0.447035
  H      0.526235    1.845817    1.043768
  H     -2.498157    1.443702    1.160970
  H     -1.892385   -1.642467    0.820797
  H      0.600334   -2.739092    0.071364
  H      2.482315    0.473625    1.372409

 Total Charge           Charge          ....    0
 Multiplicity           Mult            ....    1
 Number of Electrons    NEL             ....   80
 Basis Dimension        Dim             ....  370

ORBITAL ENERGIES
----------------

  NO   OCC          E(Eh)            E(eV)
   0   2.0000     -21.691888      -590.2663
   1   2.0000     -21.688937      -590.1860
   2   2.0000     -21.684133      -590.0553
   3   2.0000     -21.681469      -589.9828
   4   2.0000     -21.678840      -589.9112
   5   2.0000     -12.150515      -330.6323
   6   2.0000     -12.102673      -329.3305
   7   2.0000     -12.101239      -329.2915
   8   2.0000     -12.099331      -329.2395
   9   2.0000     -12.092459      -329.0525
  10   2.0000      -1.719527       -46.7907
  11   2.0000      -1.689213       -45.9658
  12   2.0000      -1.685192       -45.8564
  13   2.0000      -1.677015       -45.6339
  14   2.0000      -1.676753       -45.6268
  15   2.0000      -1.327040       -36.1106
  16   2.0000      -1.301364       -35.4119
  17   2.0000      -1.192748       -32.4563
  18   2.0000      -1.191802       -32.4306
  19   2.0000      -1.135702       -30.9040
  20   2.0000      -1.083691       -29.4887
  21   2.0000      -1.064501       -28.9665
  22   2.0000      -1.040307       -28.3082
  23   2.0000      -1.024746       -27.8847
  24   2.0000      -1.013864       -27.5887
  25   2.0000      -0.995524       -27.0896
  26   2.0000      -0.985460       -26.8157
  27   2.0000      -0.978242       -26.6193
  28   2.0000      -0.961665       -26.1682
  29   2.0000      -0.954345       -25.9690
  30   2.0000      -0.937487       -25.5103
  31   2.0000      -0.925407       -25.1816
  32   2.0000      -0.914645       -24.8888
  33   2.0000      -0.902587       -24.5607
  34   2.0000      -0.874905       -23.8074
  35   2.0000      -0.854050       -23.2399
  36   2.0000      -0.827646       -22.5214
  37   2.0000      -0.813817       -22.1451
  38   2.0000      -0.795349       -21.6426
  39   2.0000      -0.774467       -21.0743
  40   0.0000      -0.233681        -6.3588
  41   0.0000      -0.172159        -4.6847
  42   0.0000      -0.161537        -4.3956
  43   0.0000      -0.148879        -4.0512
  44   0.0000      -0.114541        -3.1168

MULLIKEN ATOMIC CHARGES
-----------------------
   0 C :   -0.087909
   1 C :    0.102699
   2 H :    0.114927
   3 C :    0.028079
   4 H :    0.122160
   5 C :    0.079073
   6 H :    0.126063
   7 C :    0.120329
   8 H :    0.135409
   9 O :   -0.354982
  10 O :   -0.507223
  11 O :   -0.532101
  12 O :   -0.530375
  13 O :   -0.538672
  14 H :    0.148488
  15 H :    0.125256
  16 H :    0.371362
  17 H :    0.358675
  18 H :    0.356937
  19 H :    0.361806
Sum of atomic charges:   -0.0000000

LOEWDIN ATOMIC CHARGES
----------------------
   0 C :   -0.276199
   1 C :   -0.324114
   2 H :    0.154278
   3 C :   -0.314965
   4 H :    0.150977
   5 C :   -0.309803
   6 H :    0.161015
   7 C :   -0.403872
   8 H :    0.142801
   9 O :    0.138113
  10 O :   -0.019871
  11 O :   -0.042362
  12 O :   -0.050624
  13 O :   -0.049459
  14 H :    0.136843
  15 H :    0.130908
  16 H :    0.200251
  17 H :    0.191204
  18 H :    0.189243
  19 H :    0.195637

  Mayer bond orders larger than 0.100000
B(  0-C ,  1-C ) :   0.9690 B(  0-C ,  9-O ) :   0.9426 B(  0-C , 14-H ) :   0.9640
B(  0-C , 15-H ) :   0.9740 B(  1-C ,  2-H ) :   0.9393 B(  1-C ,  3-C ) :   0.9826
B(  1-C , 13-O ) :   0.9700 B(  3-C ,  4-H ) :   0.9605 B(  3-C ,  5-C ) :   0.9802
B(  3-C , 12-O ) :   1.0244 B(  5-C ,  6-H ) :   0.9422 B(  5-C ,  7-C ) :   0.9669
B(  5-C , 11-O ) :   0.9875 B(  7-C ,  8-H ) :   0.9584 B(  7-C ,  9-O ) :   1.0256
B(  7-C , 10-O ) :   1.1643 B( 10-O , 16-H ) :   0.8549 B( 11-O , 17-H ) :   0.8545
B( 12-O , 18-H ) :   0.8586 B( 13-O , 19-H ) :   0.8595

FINAL SINGLE POINT ENERGY      -572.737676956204

DIPOLE MOMENT
-------------

Method             : SCF
Type of density    : Electron Density
Multiplicity       :   1
Irrep              :   0
Energy             :  -572.7532810252043873 Eh
Relativity type    :
Basis              : AO
                                X                 Y                 Z
Electronic contribution:     -1.050177044      -0.430592308      -0.212086959
Nuclear contribution   :     -0.465901267       1.219380239       1.454928180
                        -----------------------------------------
Total Dipole Moment    :     -1.516078311       0.788787931       1.242841221
                        -----------------------------------------
Magnitude (a.u.)       :      2.113133726
Magnitude (Debye)      :      5.371159078

Rotational constants in cm-1:             0.056290             0.043968             0.028672
Rotational constants in MHz :          1687.519763          1318.126982           859.563332

                             ****ORCA TERMINATED NORMALLY****
TOTAL RUN TIME: 0 days 0 hours 4 minutes 9 seconds 456 msec
