                         Program Version 6.0.0  -   RELEASE  -
|  1> ! pbe def2-sv(p) def2/J RI DEFGRID1 loosescf d4 GCP(DFT/SV(P)) printgap
|  2> %output
|  3>     printlevel normal
|  4> end
|  5> * xyz 0 1
|  6> C 5.5896686105 1.2078099082 -1.047286943
|  7> C 4.1168772549 0.9929772091 -1.3325409572
|  8> O 3.6414192119 -0.0475782857 -0.4556722024
|  9> P 2.1007546414 -0.230804282 -0.1196602487
| 10> S 1.1931763443 1.4494917492 0.3351395795
| 11> O 2.12059813 -1.3658492901 0.9784119123
| 12> C 2.1945426039 -1.0849970976 2.3908232476
| 13> C 3.488528017 -0.3940282137 2.7613188495
| 14> S 1.4378992153 -1.3351998672 -1.7890769816
| 15> C -0.3008166761 -1.6014781892 -1.3509887986
| 16> S -1.3463596903 -0.1373405599 -1.6140336137
| 17> P -2.3535088768 -0.115140144 0.2689473864
| 18> S -1.3222327067 -0.8765893575 1.7527436829
| 19> O -3.672942014 -0.9650420624 0.1128344096
| 20> C -4.8962114226 -0.5417177574 -0.5364833305
| 21> C -4.7178444188 -0.2845765495 -2.0179804611
| 22> O -2.9393471688 1.3511046512 0.3806801277
| 23> C -2.1876241432 2.5699344443 0.5262550658
| 24> C -1.8180534188 2.8187859597 1.9740719731
| 25> H 5.7300482535 1.5385364505 -0.0220594473
| 26> H 6.1333146765 0.279394653 -1.1956180544
| 27> H 5.9754485983 1.9635598757 -1.7234380931
| 28> H 3.9529911505 0.6687310874 -2.3635357572
| 29> H 3.5336181349 1.9012416446 -1.1452782613
| 30> H 1.3266530302 -0.4784767191 2.6687568338
| 31> H 2.1063379698 -2.069090197 2.8527763523
| 32> H 3.5220224407 0.5946746072 2.3046174983
| 33> H 3.5416472189 -0.2865039256 3.8401313765
| 34> H 4.3372664542 -0.9748014889 2.4094628735
| 35> H -0.3698011729 -1.8922579882 -0.29902595
| 36> H -0.6471234436 -2.3947005787 -2.0078446107
| 37> H -5.5727951421 -1.3780624334 -0.3532257658
| 38> H -5.2612946448 0.3506850313 -0.0255886265
| 39> H -4.294365091 -1.1572927812 -2.5081701293
| 40> H -5.6871938189 -0.0656772455 -2.4550151814
| 41> H -4.0559450168 0.5634754439 -2.1814639777
| 42> H -1.2923729117 2.5259765643 -0.0984904664
| 43> H -2.8627601368 3.3407713737 0.1500763911
| 44> H -1.1286040876 2.0517681941 2.3206619933
| 45> H -1.3294845089 3.7840379357 2.0556630761
| 46> H -2.7063017576 2.8036126801 2.5999468462
| 47> *
| 48>
| 49>                          ****END OF INPUT****

CARTESIAN COORDINATES (ANGSTROEM)
---------------------------------
  C      5.589669    1.207810   -1.047287
  C      4.116877    0.992977   -1.332541
  O      3.641419   -0.047578   -0.455672
  P      2.100755   -0.230804   -0.119660
  S      1.193176    1.449492    0.335140
  O      2.120598   -1.365849    0.978412
  C      2.194543   -1.084997    2.390823
  C      3.488528   -0.394028    2.761319
  S      1.437899   -1.335200   -1.789077
  C     -0.300817   -1.601478   -1.350989
  S     -1.346360   -0.137341   -1.614034
  P     -2.353509   -0.115140    0.268947
  S     -1.322233   -0.876589    1.752744
  O     -3.672942   -0.965042    0.112834
  C     -4.896211   -0.541718   -0.536483
  C     -4.717844   -0.284577   -2.017980
  O     -2.939347    1.351105    0.380680
  C     -2.187624    2.569934    0.526255
  C     -1.818053    2.818786    1.974072
  H      5.730048    1.538536   -0.022059
  H      6.133315    0.279395   -1.195618
  H      5.975449    1.963560   -1.723438
  H      3.952991    0.668731   -2.363536
  H      3.533618    1.901242   -1.145278
  H      1.326653   -0.478477    2.668757
  H      2.106338   -2.069090    2.852776
  H      3.522022    0.594675    2.304617
  H      3.541647   -0.286504    3.840131
  H      4.337266   -0.974801    2.409463
  H     -0.369801   -1.892258   -0.299026
  H     -0.647123   -2.394701   -2.007845
  H     -5.572795   -1.378062   -0.353226
  H     -5.261295    0.350685   -0.025589
  H     -4.294365   -1.157293   -2.508170
  H     -5.687194   -0.065677   -2.455015
  H     -4.055945    0.563475   -2.181464
  H     -1.292373    2.525977   -0.098490
  H     -2.862760    3.340771    0.150076
  H     -1.128604    2.051768    2.320662
  H     -1.329485    3.784038    2.055663
  H     -2.706302    2.803613    2.599947

 Total Charge           Charge          ....    0
 Multiplicity           Mult            ....    1
 Number of Electrons    NEL             ....  202
 Basis Dimension        Dim             ....  334

ORBITAL ENERGIES
----------------

  NO   OCC          E(Eh)            E(eV)
   0   2.0000     -88.038794     -2395.6574
   1   2.0000     -88.036095     -2395.5839
   2   2.0000     -87.980907     -2394.0822
   3   2.0000     -87.978677     -2394.0215
   4   2.0000     -76.423955     -2079.6015
   5   2.0000     -76.422320     -2079.5571
   6   2.0000     -18.796573      -511.4808
   7   2.0000     -18.789838      -511.2975
   8   2.0000     -18.785842      -511.1887
   9   2.0000     -18.784128      -511.1421
  10   2.0000      -9.953867      -270.8585
  11   2.0000      -9.951408      -270.7916
  12   2.0000      -9.951010      -270.7807
  13   2.0000      -9.950975      -270.7798
  14   2.0000      -9.942789      -270.5570
  15   2.0000      -9.887381      -269.0493
  16   2.0000      -9.887088      -269.0413
  17   2.0000      -9.877931      -268.7922
  18   2.0000      -9.875305      -268.7207
  19   2.0000      -7.684504      -209.1060
  20   2.0000      -7.680953      -209.0093
  21   2.0000      -7.625773      -207.5078
  22   2.0000      -7.623795      -207.4540
  23   2.0000      -6.421137      -174.7280
  24   2.0000      -6.419919      -174.6949
  25   2.0000      -5.712319      -155.4401
  26   2.0000      -5.709030      -155.3506
  27   2.0000      -5.708852      -155.3458
  28   2.0000      -5.705547      -155.2558
  29   2.0000      -5.701423      -155.1436
  30   2.0000      -5.697873      -155.0470
  31   2.0000      -5.654473      -153.8660
  32   2.0000      -5.652784      -153.8201
  33   2.0000      -5.646444      -153.6475
  34   2.0000      -5.646069      -153.6373
  35   2.0000      -5.644704      -153.6002
  36   2.0000      -5.643504      -153.5675
  37   2.0000      -4.644196      -126.3750
  38   2.0000      -4.642769      -126.3362
  39   2.0000      -4.642398      -126.3261
  40   2.0000      -4.641751      -126.3085
  41   2.0000      -4.641342      -126.2973
  42   2.0000      -4.640407      -126.2719
  43   2.0000      -0.987189       -26.8628
  44   2.0000      -0.983377       -26.7590
  45   2.0000      -0.942640       -25.6505
  46   2.0000      -0.941204       -25.6115
  47   2.0000      -0.757739       -20.6191
  48   2.0000      -0.720056       -19.5937
  49   2.0000      -0.708260       -19.2727
  50   2.0000      -0.688635       -18.7387
  51   2.0000      -0.685189       -18.6449
  52   2.0000      -0.670322       -18.2404
  53   2.0000      -0.648259       -17.6400
  54   2.0000      -0.631457       -17.1828
  55   2.0000      -0.594844       -16.1865
  56   2.0000      -0.587104       -15.9759
  57   2.0000      -0.576919       -15.6988
  58   2.0000      -0.563463       -15.3326
  59   2.0000      -0.559337       -15.2203
  60   2.0000      -0.502898       -13.6845
  61   2.0000      -0.494832       -13.4651
  62   2.0000      -0.472221       -12.8498
  63   2.0000      -0.472033       -12.8447
  64   2.0000      -0.449608       -12.2345
  65   2.0000      -0.444804       -12.1037
  66   2.0000      -0.438069       -11.9205
  67   2.0000      -0.430500       -11.7145
  68   2.0000      -0.425090       -11.5673
  69   2.0000      -0.420235       -11.4352
  70   2.0000      -0.405976       -11.0472
  71   2.0000      -0.398179       -10.8350
  72   2.0000      -0.391075       -10.6417
  73   2.0000      -0.389738       -10.6053
  74   2.0000      -0.377664       -10.2768
  75   2.0000      -0.371212       -10.1012
  76   2.0000      -0.355772        -9.6811
  77   2.0000      -0.355399        -9.6709
  78   2.0000      -0.353197        -9.6110
  79   2.0000      -0.348068        -9.4714
  80   2.0000      -0.343379        -9.3438
  81   2.0000      -0.341317        -9.2877
  82   2.0000      -0.338933        -9.2228
  83   2.0000      -0.332415        -9.0455
  84   2.0000      -0.328373        -8.9355
  85   2.0000      -0.317417        -8.6374
  86   2.0000      -0.310906        -8.4602
  87   2.0000      -0.297640        -8.0992
  88   2.0000      -0.293600        -7.9893
  89   2.0000      -0.289248        -7.8708
  90   2.0000      -0.279967        -7.6183
  91   2.0000      -0.273793        -7.4503
  92   2.0000      -0.267424        -7.2770
  93   2.0000      -0.259999        -7.0749
  94   2.0000      -0.256684        -6.9847
  95   2.0000      -0.240295        -6.5388
  96   2.0000      -0.221709        -6.0330
  97   2.0000      -0.201775        -5.4906
  98   2.0000      -0.198741        -5.4080
  99   2.0000      -0.190482        -5.1833
 100   2.0000      -0.181509        -4.9391
 101   0.0000      -0.036469        -0.9924
 102   0.0000      -0.029419        -0.8005
 103   0.0000      -0.010314        -0.2806
 104   0.0000       0.005827         0.1586
 105   0.0000       0.018988         0.5167

MULLIKEN ATOMIC CHARGES
-----------------------
   0 C :   -0.283262
   1 C :   -0.011375
   2 O :   -0.377890
   3 P :    0.629335
   4 S :   -0.338980
   5 O :   -0.364248
   6 C :   -0.010404
   7 C :   -0.309901
   8 S :   -0.095887
   9 C :   -0.347363
  10 S :   -0.103270
  11 P :    0.624136
  12 S :   -0.313316
  13 O :   -0.363963
  14 C :    0.005736
  15 C :   -0.313427
  16 O :   -0.385679
  17 C :   -0.018842
  18 C :   -0.303664
  19 H :    0.120155
  20 H :    0.117674
  21 H :    0.111468
  22 H :    0.102768
  23 H :    0.104989
  24 H :    0.131336
  25 H :    0.104841
  26 H :    0.121200
  27 H :    0.110893
  28 H :    0.114992
  29 H :    0.195599
  30 H :    0.182228
  31 H :    0.108636
  32 H :    0.108261
  33 H :    0.119794
  34 H :    0.111977
  35 H :    0.122908
  36 H :    0.131739
  37 H :    0.100328
  38 H :    0.142289
  39 H :    0.107818
  40 H :    0.110375
Sum of atomic charges:   -0.0000000

LOEWDIN ATOMIC CHARGES
----------------------
   0 C :   -0.350784
   1 C :   -0.120982
   2 O :   -0.246886
   3 P :    0.572308
   4 S :   -0.318519
   5 O :   -0.234274
   6 C :   -0.117783
   7 C :   -0.367519
   8 S :    0.078691
   9 C :   -0.480846
  10 S :    0.068618
  11 P :    0.572052
  12 S :   -0.296480
  13 O :   -0.243082
  14 C :   -0.109453
  15 C :   -0.367725
  16 O :   -0.239207
  17 C :   -0.115603
  18 C :   -0.364715
  19 H :    0.128064
  20 H :    0.127310
  21 H :    0.130628
  22 H :    0.110774
  23 H :    0.106860
  24 H :    0.110629
  25 H :    0.119890
  26 H :    0.119946
  27 H :    0.130171
  28 H :    0.124945
  29 H :    0.123267
  30 H :    0.135978
  31 H :    0.121552
  32 H :    0.113816
  33 H :    0.125940
  34 H :    0.130197
  35 H :    0.117203
  36 H :    0.109245
  37 H :    0.115823
  38 H :    0.125909
  39 H :    0.129867
  40 H :    0.124175

  Mayer bond orders larger than 0.100000
B(  0-C ,  1-C ) :   1.1600 B(  0-C , 19-H ) :   0.9516 B(  0-C , 20-H ) :   0.9503
B(  0-C , 21-H ) :   0.9418 B(  1-C ,  2-O ) :   0.9055 B(  1-C , 22-H ) :   0.9305
B(  1-C , 23-H ) :   0.9057 B(  2-O ,  3-P ) :   1.1003 B(  3-P ,  4-S ) :   1.6151
B(  3-P ,  5-O ) :   1.1401 B(  3-P ,  8-S ) :   0.9704 B(  4-S ,  8-S ) :   0.1152
B(  5-O ,  6-C ) :   0.8963 B(  6-C ,  7-C ) :   1.1629 B(  6-C , 24-H ) :   0.9103
B(  6-C , 25-H ) :   0.9359 B(  7-C , 26-H ) :   0.9330 B(  7-C , 27-H ) :   0.9384
B(  7-C , 28-H ) :   0.9447 B(  8-S ,  9-C ) :   1.0016 B(  9-C , 10-S ) :   0.9943
B(  9-C , 29-H ) :   0.8480 B(  9-C , 30-H ) :   0.9118 B( 10-S , 11-P ) :   0.9510
B( 10-S , 12-S ) :   0.1176 B( 11-P , 12-S ) :   1.6260 B( 11-P , 13-O ) :   1.1257
B( 11-P , 16-O ) :   1.0966 B( 12-S , 29-H ) :   0.1119 B( 13-O , 14-C ) :   0.9063
B( 14-C , 15-C ) :   1.1695 B( 14-C , 31-H ) :   0.9351 B( 14-C , 32-H ) :   0.9275
B( 15-C , 33-H ) :   0.9440 B( 15-C , 34-H ) :   0.9361 B( 15-C , 35-H ) :   0.9399
B( 16-O , 17-C ) :   0.8953 B( 17-C , 18-C ) :   1.1748 B( 17-C , 36-H ) :   0.9101
B( 17-C , 37-H ) :   0.9347 B( 18-C , 38-H ) :   0.9296 B( 18-C , 39-H ) :   0.9386
B( 18-C , 40-H ) :   0.9464

Dispersion correction           -0.065707054
FINAL SINGLE POINT ENERGY     -2929.515526032778

DIPOLE MOMENT
-------------

Method             : SCF
Type of density    : Electron Density
Multiplicity       :   1
Irrep              :   0
Energy             : -2929.6343892175032124 Eh
Relativity type    :
Basis              : AO
                                X                 Y                 Z
Electronic contribution:     -5.008319354     -10.734890805      -5.021561670
Nuclear contribution   :      4.859506351      11.268021543       4.444854773
                        -----------------------------------------
Total Dipole Moment    :     -0.148813003       0.533130738      -0.576706897
                        -----------------------------------------
Magnitude (a.u.)       :      0.799352575
Magnitude (Debye)      :      2.031792776

Rotational constants in cm-1:             0.013213             0.004874             0.004550
Rotational constants in MHz :           396.103743           146.115484           136.416049

                             ****ORCA TERMINATED NORMALLY****
TOTAL RUN TIME: 0 days 0 hours 0 minutes 21 seconds 37 msec
