                         Program Version 6.0.0  -   RELEASE  -
|  1> ! r2scan-3c def2/J RI DEFGRID2 scfconv6 printgap
|  2> %output
|  3>     printlevel normal
|  4> end
|  5> * xyz 0 1
|  6> C 2.4374529445 -1.3383070556 3.1394653556
|  7> C 1.7714813086 -0.0279150012 2.7749495261
|  8> O 1.310990788 -0.0029226537 1.4070217574
|  9> P 2.2298081138 -0.1537392545 0.1261594687
| 10> S 2.9153702368 -1.9333567944 -0.3487657036
| 11> O 3.3540923518 0.9321177686 0.4135956614
| 12> C 4.5871855528 0.9710214673 -0.3265027722
| 13> C 4.3772927999 1.4491223067 -1.7482708605
| 14> S 0.9415145931 0.72111509 -1.3078092472
| 15> C 0.0995179381 -0.8080107777 -1.7924687576
| 16> S -0.8260323218 -1.5654941402 -0.4300089954
| 17> P -2.1640935786 0.0484363196 -0.1236707054
| 18> S -2.7460210758 0.978469842 -1.7522651357
| 19> O -1.420644502 0.9354071844 0.9525517972
| 20> C -1.5083209446 2.3732726595 0.9628522654
| 21> C -2.8354769127 2.828653533 1.5318763584
| 22> O -3.2842581919 -0.6063019403 0.791600964
| 23> C -4.1847389481 -1.6313776735 0.325680041
| 24> C -5.4335257323 -1.0303234745 -0.2903782551
| 25> H 1.7743329204 -2.1722847005 2.9199925116
| 26> H 3.3547560972 -1.4683057723 2.5668105359
| 27> H 2.677247376 -1.3382150134 4.1981893349
| 28> H 2.4528711892 0.8133548948 2.9219154467
| 29> H 0.8557650945 0.127272032 3.3488622842
| 30> H 5.2141571853 1.6583434127 0.2429421534
| 31> H 5.0266871886 -0.0316506757 -0.318830756
| 32> H 5.3408652611 1.5741144102 -2.2315635464
| 33> H 3.7951669138 0.71612907 -2.3050831324
| 34> H 3.8430234116 2.3957547285 -1.7545266958
| 35> H 0.8333042704 -1.5465676619 -2.1142524419
| 36> H -0.5833392511 -0.5421584252 -2.59891583
| 37> H -0.665778195 2.6883653834 1.579994869
| 38> H -1.3743070552 2.7428745909 -0.059486049
| 39> H -2.8532507855 3.9123767252 1.5882529442
| 40> H -3.6434100938 2.4922316932 0.883094229
| 41> H -2.9837320316 2.4085273038 2.5229416173
| 42> H -3.6607170589 -2.2724730858 -0.3894258183
| 43> H -4.4224546793 -2.2074266889 1.22209051
| 44> H -6.1097905049 -1.8293288628 -0.5766254619
| 45> H -5.9280549271 -0.3803973997 0.4261392409
| 46> H -5.1785527726 -0.4483781948 -1.1731736038
| 47> *
| 48>
| 49>                          ****END OF INPUT****

CARTESIAN COORDINATES (ANGSTROEM)
---------------------------------
  C      2.437453   -1.338307    3.139465
  C      1.771481   -0.027915    2.774950
  O      1.310991   -0.002923    1.407022
  P      2.229808   -0.153739    0.126159
  S      2.915370   -1.933357   -0.348766
  O      3.354092    0.932118    0.413596
  C      4.587186    0.971021   -0.326503
  C      4.377293    1.449122   -1.748271
  S      0.941515    0.721115   -1.307809
  C      0.099518   -0.808011   -1.792469
  S     -0.826032   -1.565494   -0.430009
  P     -2.164094    0.048436   -0.123671
  S     -2.746021    0.978470   -1.752265
  O     -1.420645    0.935407    0.952552
  C     -1.508321    2.373273    0.962852
  C     -2.835477    2.828654    1.531876
  O     -3.284258   -0.606302    0.791601
  C     -4.184739   -1.631378    0.325680
  C     -5.433526   -1.030323   -0.290378
  H      1.774333   -2.172285    2.919993
  H      3.354756   -1.468306    2.566811
  H      2.677247   -1.338215    4.198189
  H      2.452871    0.813355    2.921915
  H      0.855765    0.127272    3.348862
  H      5.214157    1.658343    0.242942
  H      5.026687   -0.031651   -0.318831
  H      5.340865    1.574114   -2.231564
  H      3.795167    0.716129   -2.305083
  H      3.843023    2.395755   -1.754527
  H      0.833304   -1.546568   -2.114252
  H     -0.583339   -0.542158   -2.598916
  H     -0.665778    2.688365    1.579995
  H     -1.374307    2.742875   -0.059486
  H     -2.853251    3.912377    1.588253
  H     -3.643410    2.492232    0.883094
  H     -2.983732    2.408527    2.522942
  H     -3.660717   -2.272473   -0.389426
  H     -4.422455   -2.207427    1.222091
  H     -6.109791   -1.829329   -0.576625
  H     -5.928055   -0.380397    0.426139
  H     -5.178553   -0.448378   -1.173174

 Total Charge           Charge          ....    0
 Multiplicity           Mult            ....    1
 Number of Electrons    NEL             ....  202
 Basis Dimension        Dim             ....  539

ORBITAL ENERGIES
----------------

  NO   OCC          E(Eh)            E(eV)
   0   2.0000     -88.571867     -2410.1630
   1   2.0000     -88.570719     -2410.1318
   2   2.0000     -88.518305     -2408.7055
   3   2.0000     -88.518230     -2408.7035
   4   2.0000     -76.913518     -2092.9232
   5   2.0000     -76.911221     -2092.8607
   6   2.0000     -18.996426      -516.9190
   7   2.0000     -18.990655      -516.7620
   8   2.0000     -18.984453      -516.5932
   9   2.0000     -18.984300      -516.5891
  10   2.0000     -10.101921      -274.8872
  11   2.0000     -10.099837      -274.8305
  12   2.0000     -10.099630      -274.8249
  13   2.0000     -10.099446      -274.8199
  14   2.0000     -10.092743      -274.6375
  15   2.0000     -10.029224      -272.9091
  16   2.0000     -10.025842      -272.8170
  17   2.0000     -10.025063      -272.7958
  18   2.0000     -10.024484      -272.7801
  19   2.0000      -7.866301      -214.0529
  20   2.0000      -7.864992      -214.0173
  21   2.0000      -7.813252      -212.6094
  22   2.0000      -7.813066      -212.6043
  23   2.0000      -6.591780      -179.3714
  24   2.0000      -6.589627      -179.3129
  25   2.0000      -5.813243      -158.1864
  26   2.0000      -5.811879      -158.1493
  27   2.0000      -5.810223      -158.1042
  28   2.0000      -5.808854      -158.0670
  29   2.0000      -5.803270      -157.9150
  30   2.0000      -5.802098      -157.8831
  31   2.0000      -5.760832      -156.7602
  32   2.0000      -5.760685      -156.7562
  33   2.0000      -5.753468      -156.5598
  34   2.0000      -5.753364      -156.5570
  35   2.0000      -5.753363      -156.5570
  36   2.0000      -5.753085      -156.5494
  37   2.0000      -4.737741      -128.9205
  38   2.0000      -4.736470      -128.8859
  39   2.0000      -4.735351      -128.8554
  40   2.0000      -4.735003      -128.8460
  41   2.0000      -4.734611      -128.8353
  42   2.0000      -4.733444      -128.8036
  43   2.0000      -1.050666       -28.5901
  44   2.0000      -1.047158       -28.4946
  45   2.0000      -1.008928       -27.4543
  46   2.0000      -1.007076       -27.4039
  47   2.0000      -0.800169       -21.7737
  48   2.0000      -0.756357       -20.5815
  49   2.0000      -0.746575       -20.3153
  50   2.0000      -0.732185       -19.9238
  51   2.0000      -0.727427       -19.7943
  52   2.0000      -0.708415       -19.2769
  53   2.0000      -0.685267       -18.6471
  54   2.0000      -0.667075       -18.1520
  55   2.0000      -0.629060       -17.1176
  56   2.0000      -0.623616       -16.9694
  57   2.0000      -0.610256       -16.6059
  58   2.0000      -0.600237       -16.3333
  59   2.0000      -0.589612       -16.0442
  60   2.0000      -0.524627       -14.2758
  61   2.0000      -0.518503       -14.1092
  62   2.0000      -0.492418       -13.3994
  63   2.0000      -0.489071       -13.3083
  64   2.0000      -0.474392       -12.9089
  65   2.0000      -0.459441       -12.5020
  66   2.0000      -0.455245       -12.3879
  67   2.0000      -0.450170       -12.2497
  68   2.0000      -0.441572       -12.0158
  69   2.0000      -0.429486       -11.6869
  70   2.0000      -0.427812       -11.6413
  71   2.0000      -0.420438       -11.4407
  72   2.0000      -0.409614       -11.1462
  73   2.0000      -0.402375       -10.9492
  74   2.0000      -0.390763       -10.6332
  75   2.0000      -0.388845       -10.5810
  76   2.0000      -0.382937       -10.4202
  77   2.0000      -0.372354       -10.1323
  78   2.0000      -0.365285        -9.9399
  79   2.0000      -0.363076        -9.8798
  80   2.0000      -0.359739        -9.7890
  81   2.0000      -0.356709        -9.7065
  82   2.0000      -0.355219        -9.6660
  83   2.0000      -0.348503        -9.4832
  84   2.0000      -0.347602        -9.4587
  85   2.0000      -0.338283        -9.2051
  86   2.0000      -0.320206        -8.7132
  87   2.0000      -0.310690        -8.4543
  88   2.0000      -0.309793        -8.4299
  89   2.0000      -0.304057        -8.2738
  90   2.0000      -0.296466        -8.0672
  91   2.0000      -0.290786        -7.9127
  92   2.0000      -0.284332        -7.7371
  93   2.0000      -0.276764        -7.5311
  94   2.0000      -0.272661        -7.4195
  95   2.0000      -0.244410        -6.6507
  96   2.0000      -0.227318        -6.1856
  97   2.0000      -0.224553        -6.1104
  98   2.0000      -0.216216        -5.8835
  99   2.0000      -0.210196        -5.7197
 100   2.0000      -0.208148        -5.6640
 101   0.0000      -0.045873        -1.2483
 102   0.0000      -0.023226        -0.6320
 103   0.0000      -0.000368        -0.0100
 104   0.0000       0.002253         0.0613
 105   0.0000       0.016938         0.4609

MULLIKEN ATOMIC CHARGES
-----------------------
   0 C :   -0.432442
   1 C :   -0.165697
   2 O :   -0.243751
   3 P :    0.689682
   4 S :   -0.467580
   5 O :   -0.318022
   6 C :   -0.153653
   7 C :   -0.448513
   8 S :   -0.127702
   9 C :   -0.230908
  10 S :   -0.143765
  11 P :    0.698488
  12 S :   -0.488851
  13 O :   -0.261858
  14 C :   -0.147756
  15 C :   -0.444699
  16 O :   -0.304513
  17 C :   -0.139049
  18 C :   -0.450881
  19 H :    0.165003
  20 H :    0.166296
  21 H :    0.143918
  22 H :    0.155384
  23 H :    0.154914
  24 H :    0.146509
  25 H :    0.173920
  26 H :    0.147607
  27 H :    0.177156
  28 H :    0.154873
  29 H :    0.210537
  30 H :    0.209191
  31 H :    0.152409
  32 H :    0.175494
  33 H :    0.145879
  34 H :    0.167564
  35 H :    0.152656
  36 H :    0.154372
  37 H :    0.150257
  38 H :    0.144762
  39 H :    0.151722
  40 H :    0.181044
Sum of atomic charges:    0.0000000

LOEWDIN ATOMIC CHARGES
----------------------
   0 C :   -0.403124
   1 C :    0.031244
   2 O :   -0.669117
   3 P :    0.387193
   4 S :   -0.131433
   5 O :   -0.667198
   6 C :    0.019109
   7 C :   -0.405556
   8 S :    0.176514
   9 C :   -0.421289
  10 S :    0.168168
  11 P :    0.381449
  12 S :   -0.135196
  13 O :   -0.661332
  14 C :    0.014381
  15 C :   -0.398960
  16 O :   -0.656591
  17 C :    0.022224
  18 C :   -0.402541
  19 H :    0.165811
  20 H :    0.164216
  21 H :    0.156794
  22 H :    0.173243
  23 H :    0.182705
  24 H :    0.178308
  25 H :    0.180861
  26 H :    0.159660
  27 H :    0.166415
  28 H :    0.160100
  29 H :    0.189890
  30 H :    0.190107
  31 H :    0.179076
  32 H :    0.182242
  33 H :    0.158920
  34 H :    0.165127
  35 H :    0.158718
  36 H :    0.175488
  37 H :    0.179197
  38 H :    0.157624
  39 H :    0.158429
  40 H :    0.169122

  Mayer bond orders larger than 0.100000
B(  0-C ,  1-C ) :   0.9355 B(  0-C , 19-H ) :   0.9687 B(  0-C , 20-H ) :   0.9550
B(  0-C , 21-H ) :   0.9635 B(  1-C ,  2-O ) :   0.7800 B(  1-C , 22-H ) :   0.9689
B(  1-C , 23-H ) :   0.9627 B(  2-O ,  3-P ) :   1.1390 B(  3-P ,  4-S ) :   1.7599
B(  3-P ,  5-O ) :   1.0543 B(  3-P ,  8-S ) :   1.0736 B(  5-O ,  6-C ) :   0.8115
B(  6-C ,  7-C ) :   0.9278 B(  6-C , 24-H ) :   0.9590 B(  6-C , 25-H ) :   0.9639
B(  7-C , 26-H ) :   0.9592 B(  7-C , 27-H ) :   0.9613 B(  7-C , 28-H ) :   0.9691
B(  8-S ,  9-C ) :   0.8994 B(  9-C , 10-S ) :   0.9075 B(  9-C , 29-H ) :   0.9083
B(  9-C , 30-H ) :   0.9073 B( 10-S , 11-P ) :   1.0833 B( 11-P , 12-S ) :   1.7305
B( 11-P , 13-O ) :   1.1585 B( 11-P , 16-O ) :   1.0817 B( 13-O , 14-C ) :   0.7769
B( 14-C , 15-C ) :   0.9283 B( 14-C , 31-H ) :   0.9634 B( 14-C , 32-H ) :   0.9608
B( 15-C , 33-H ) :   0.9651 B( 15-C , 34-H ) :   0.9607 B( 15-C , 35-H ) :   0.9735
B( 16-O , 17-C ) :   0.7860 B( 17-C , 18-C ) :   0.9543 B( 17-C , 36-H ) :   0.9627
B( 17-C , 37-H ) :   0.9631 B( 18-C , 38-H ) :   0.9651 B( 18-C , 39-H ) :   0.9743
B( 18-C , 40-H ) :   0.9557

Dispersion correction           -0.021625795
FINAL SINGLE POINT ENERGY     -2932.458939276847

DIPOLE MOMENT
-------------

Method             : SCF
Type of density    : Electron Density
Multiplicity       :   1
Irrep              :   0
Energy             : -2932.4837377760336494 Eh
Relativity type    :
Basis              : AO
                                X                 Y                 Z
Electronic contribution:      2.392459925      -6.415365423      -9.319927019
Nuclear contribution   :     -2.164562446       7.006104960      10.387150943
                        -----------------------------------------
Total Dipole Moment    :      0.227897479       0.590739537       1.067223924
                        -----------------------------------------
Magnitude (a.u.)       :      1.240917953
Magnitude (Debye)      :      3.154162771

Rotational constants in cm-1:             0.013192             0.004837             0.004782
Rotational constants in MHz :           395.491689           145.011823           143.357090

                             ****ORCA TERMINATED NORMALLY****
TOTAL RUN TIME: 0 days 0 hours 1 minutes 20 seconds 279 msec
