                         Program Version 6.0.0  -   RELEASE  -
|  1> ! r2scan-3c def2/J RI DEFGRID2 scfconv6 printgap
|  2> %output
|  3>     printlevel normal
|  4> end
|  5> %cpcm
|  6>     smd true
|  7>     smdsolvent "water"
|  8> end
|  9> * xyz 0 1
| 10> C 2.4374529445 -1.3383070556 3.1394653556
| 11> C 1.7714813086 -0.0279150012 2.7749495261
| 12> O 1.310990788 -0.0029226537 1.4070217574
| 13> P 2.2298081138 -0.1537392545 0.1261594687
| 14> S 2.9153702368 -1.9333567944 -0.3487657036
| 15> O 3.3540923518 0.9321177686 0.4135956614
| 16> C 4.5871855528 0.9710214673 -0.3265027722
| 17> C 4.3772927999 1.4491223067 -1.7482708605
| 18> S 0.9415145931 0.72111509 -1.3078092472
| 19> C 0.0995179381 -0.8080107777 -1.7924687576
| 20> S -0.8260323218 -1.5654941402 -0.4300089954
| 21> P -2.1640935786 0.0484363196 -0.1236707054
| 22> S -2.7460210758 0.978469842 -1.7522651357
| 23> O -1.420644502 0.9354071844 0.9525517972
| 24> C -1.5083209446 2.3732726595 0.9628522654
| 25> C -2.8354769127 2.828653533 1.5318763584
| 26> O -3.2842581919 -0.6063019403 0.791600964
| 27> C -4.1847389481 -1.6313776735 0.325680041
| 28> C -5.4335257323 -1.0303234745 -0.2903782551
| 29> H 1.7743329204 -2.1722847005 2.9199925116
| 30> H 3.3547560972 -1.4683057723 2.5668105359
| 31> H 2.677247376 -1.3382150134 4.1981893349
| 32> H 2.4528711892 0.8133548948 2.9219154467
| 33> H 0.8557650945 0.127272032 3.3488622842
| 34> H 5.2141571853 1.6583434127 0.2429421534
| 35> H 5.0266871886 -0.0316506757 -0.318830756
| 36> H 5.3408652611 1.5741144102 -2.2315635464
| 37> H 3.7951669138 0.71612907 -2.3050831324
| 38> H 3.8430234116 2.3957547285 -1.7545266958
| 39> H 0.8333042704 -1.5465676619 -2.1142524419
| 40> H -0.5833392511 -0.5421584252 -2.59891583
| 41> H -0.665778195 2.6883653834 1.579994869
| 42> H -1.3743070552 2.7428745909 -0.059486049
| 43> H -2.8532507855 3.9123767252 1.5882529442
| 44> H -3.6434100938 2.4922316932 0.883094229
| 45> H -2.9837320316 2.4085273038 2.5229416173
| 46> H -3.6607170589 -2.2724730858 -0.3894258183
| 47> H -4.4224546793 -2.2074266889 1.22209051
| 48> H -6.1097905049 -1.8293288628 -0.5766254619
| 49> H -5.9280549271 -0.3803973997 0.4261392409
| 50> H -5.1785527726 -0.4483781948 -1.1731736038
| 51> *
| 52>
| 53>                          ****END OF INPUT****

CARTESIAN COORDINATES (ANGSTROEM)
---------------------------------
  C      2.437453   -1.338307    3.139465
  C      1.771481   -0.027915    2.774950
  O      1.310991   -0.002923    1.407022
  P      2.229808   -0.153739    0.126159
  S      2.915370   -1.933357   -0.348766
  O      3.354092    0.932118    0.413596
  C      4.587186    0.971021   -0.326503
  C      4.377293    1.449122   -1.748271
  S      0.941515    0.721115   -1.307809
  C      0.099518   -0.808011   -1.792469
  S     -0.826032   -1.565494   -0.430009
  P     -2.164094    0.048436   -0.123671
  S     -2.746021    0.978470   -1.752265
  O     -1.420645    0.935407    0.952552
  C     -1.508321    2.373273    0.962852
  C     -2.835477    2.828654    1.531876
  O     -3.284258   -0.606302    0.791601
  C     -4.184739   -1.631378    0.325680
  C     -5.433526   -1.030323   -0.290378
  H      1.774333   -2.172285    2.919993
  H      3.354756   -1.468306    2.566811
  H      2.677247   -1.338215    4.198189
  H      2.452871    0.813355    2.921915
  H      0.855765    0.127272    3.348862
  H      5.214157    1.658343    0.242942
  H      5.026687   -0.031651   -0.318831
  H      5.340865    1.574114   -2.231564
  H      3.795167    0.716129   -2.305083
  H      3.843023    2.395755   -1.754527
  H      0.833304   -1.546568   -2.114252
  H     -0.583339   -0.542158   -2.598916
  H     -0.665778    2.688365    1.579995
  H     -1.374307    2.742875   -0.059486
  H     -2.853251    3.912377    1.588253
  H     -3.643410    2.492232    0.883094
  H     -2.983732    2.408527    2.522942
  H     -3.660717   -2.272473   -0.389426
  H     -4.422455   -2.207427    1.222091
  H     -6.109791   -1.829329   -0.576625
  H     -5.928055   -0.380397    0.426139
  H     -5.178553   -0.448378   -1.173174

 Total Charge           Charge          ....    0
 Multiplicity           Mult            ....    1
 Number of Electrons    NEL             ....  202
 Basis Dimension        Dim             ....  539

ORBITAL ENERGIES
----------------

  NO   OCC          E(Eh)            E(eV)
   0   2.0000     -88.577501     -2410.3163
   1   2.0000     -88.576575     -2410.2911
   2   2.0000     -88.527246     -2408.9488
   3   2.0000     -88.525699     -2408.9067
   4   2.0000     -76.918865     -2093.0687
   5   2.0000     -76.918643     -2093.0627
   6   2.0000     -18.996888      -516.9316
   7   2.0000     -18.995648      -516.8978
   8   2.0000     -18.991294      -516.7794
   9   2.0000     -18.987854      -516.6858
  10   2.0000     -10.103670      -274.9348
  11   2.0000     -10.091582      -274.6059
  12   2.0000     -10.089859      -274.5590
  13   2.0000     -10.089352      -274.5452
  14   2.0000     -10.088371      -274.5185
  15   2.0000     -10.018380      -272.6140
  16   2.0000     -10.017826      -272.5989
  17   2.0000     -10.017247      -272.5831
  18   2.0000     -10.016561      -272.5645
  19   2.0000      -7.871829      -214.2034
  20   2.0000      -7.871056      -214.1823
  21   2.0000      -7.822438      -212.8594
  22   2.0000      -7.820837      -212.8158
  23   2.0000      -6.597328      -179.5224
  24   2.0000      -6.596922      -179.5114
  25   2.0000      -5.818684      -158.3344
  26   2.0000      -5.817984      -158.3154
  27   2.0000      -5.815673      -158.2525
  28   2.0000      -5.814973      -158.2335
  29   2.0000      -5.808993      -158.0707
  30   2.0000      -5.808044      -158.0449
  31   2.0000      -5.769981      -157.0092
  32   2.0000      -5.768393      -156.9660
  33   2.0000      -5.762656      -156.8098
  34   2.0000      -5.762537      -156.8066
  35   2.0000      -5.761088      -156.7672
  36   2.0000      -5.760907      -156.7622
  37   2.0000      -4.742803      -129.0582
  38   2.0000      -4.742667      -129.0545
  39   2.0000      -4.742319      -129.0451
  40   2.0000      -4.741626      -129.0262
  41   2.0000      -4.741190      -129.0143
  42   2.0000      -4.740592      -128.9981
  43   2.0000      -1.053159       -28.6579
  44   2.0000      -1.051559       -28.6144
  45   2.0000      -1.012635       -27.5552
  46   2.0000      -1.009636       -27.4736
  47   2.0000      -0.804290       -21.8858
  48   2.0000      -0.754908       -20.5421
  49   2.0000      -0.742124       -20.1942
  50   2.0000      -0.723779       -19.6950
  51   2.0000      -0.721928       -19.6446
  52   2.0000      -0.709222       -19.2989
  53   2.0000      -0.689762       -18.7694
  54   2.0000      -0.674022       -18.3411
  55   2.0000      -0.629397       -17.1268
  56   2.0000      -0.621785       -16.9196
  57   2.0000      -0.604184       -16.4407
  58   2.0000      -0.596667       -16.2361
  59   2.0000      -0.589758       -16.0481
  60   2.0000      -0.522459       -14.2168
  61   2.0000      -0.514909       -14.0114
  62   2.0000      -0.492563       -13.4033
  63   2.0000      -0.485045       -13.1988
  64   2.0000      -0.474158       -12.9025
  65   2.0000      -0.458465       -12.4755
  66   2.0000      -0.453830       -12.3494
  67   2.0000      -0.445529       -12.1235
  68   2.0000      -0.438401       -11.9295
  69   2.0000      -0.426693       -11.6109
  70   2.0000      -0.425003       -11.5649
  71   2.0000      -0.419754       -11.4221
  72   2.0000      -0.410460       -11.1692
  73   2.0000      -0.401156       -10.9160
  74   2.0000      -0.389326       -10.5941
  75   2.0000      -0.388515       -10.5720
  76   2.0000      -0.381849       -10.3906
  77   2.0000      -0.368936       -10.0393
  78   2.0000      -0.360671        -9.8143
  79   2.0000      -0.357768        -9.7354
  80   2.0000      -0.354044        -9.6340
  81   2.0000      -0.352610        -9.5950
  82   2.0000      -0.348695        -9.4885
  83   2.0000      -0.345742        -9.4081
  84   2.0000      -0.343036        -9.3345
  85   2.0000      -0.338079        -9.1996
  86   2.0000      -0.320524        -8.7219
  87   2.0000      -0.306419        -8.3381
  88   2.0000      -0.304908        -8.2970
  89   2.0000      -0.302507        -8.2316
  90   2.0000      -0.297086        -8.0841
  91   2.0000      -0.288980        -7.8635
  92   2.0000      -0.286346        -7.7919
  93   2.0000      -0.279056        -7.5935
  94   2.0000      -0.276900        -7.5348
  95   2.0000      -0.250285        -6.8106
  96   2.0000      -0.235085        -6.3970
  97   2.0000      -0.232402        -6.3240
  98   2.0000      -0.224232        -6.1017
  99   2.0000      -0.219071        -5.9612
 100   2.0000      -0.215788        -5.8719
 101   0.0000      -0.052162        -1.4194
 102   0.0000      -0.030839        -0.8392
 103   0.0000      -0.006210        -0.1690
 104   0.0000      -0.003266        -0.0889
 105   0.0000       0.014200         0.3864

MULLIKEN ATOMIC CHARGES
-----------------------
   0 C :   -0.478567
   1 C :   -0.153525
   2 O :   -0.279418
   3 P :    0.727756
   4 S :   -0.518584
   5 O :   -0.338259
   6 C :   -0.150865
   7 C :   -0.484640
   8 S :   -0.138096
   9 C :   -0.241304
  10 S :   -0.163188
  11 P :    0.724750
  12 S :   -0.524987
  13 O :   -0.294113
  14 C :   -0.138245
  15 C :   -0.487129
  16 O :   -0.335002
  17 C :   -0.128893
  18 C :   -0.490717
  19 H :    0.169208
  20 H :    0.168295
  21 H :    0.170146
  22 H :    0.174139
  23 H :    0.175782
  24 H :    0.174673
  25 H :    0.177366
  26 H :    0.172198
  27 H :    0.170388
  28 H :    0.169660
  29 H :    0.230593
  30 H :    0.230924
  31 H :    0.178791
  32 H :    0.176033
  33 H :    0.171707
  34 H :    0.165381
  35 H :    0.168571
  36 H :    0.164040
  37 H :    0.176819
  38 H :    0.169834
  39 H :    0.167810
  40 H :    0.170668
Sum of atomic charges:    0.0000000

LOEWDIN ATOMIC CHARGES
----------------------
   0 C :   -0.407096
   1 C :    0.037472
   2 O :   -0.687034
   3 P :    0.393129
   4 S :   -0.163073
   5 O :   -0.671800
   6 C :    0.025452
   7 C :   -0.409072
   8 S :    0.171443
   9 C :   -0.415231
  10 S :    0.157216
  11 P :    0.384489
  12 S :   -0.157651
  13 O :   -0.679630
  14 C :    0.018465
  15 C :   -0.402047
  16 O :   -0.670892
  17 C :    0.028333
  18 C :   -0.406498
  19 H :    0.163339
  20 H :    0.162301
  21 H :    0.167018
  22 H :    0.181981
  23 H :    0.191085
  24 H :    0.190359
  25 H :    0.181829
  26 H :    0.168528
  27 H :    0.161462
  28 H :    0.163726
  29 H :    0.196142
  30 H :    0.196622
  31 H :    0.189745
  32 H :    0.182615
  33 H :    0.168636
  34 H :    0.162018
  35 H :    0.163335
  36 H :    0.179908
  37 H :    0.190694
  38 H :    0.167260
  39 H :    0.162509
  40 H :    0.162914

  Mayer bond orders larger than 0.100000
B(  0-C ,  1-C ) :   0.9155 B(  0-C , 19-H ) :   0.9710 B(  0-C , 20-H ) :   0.9571
B(  0-C , 21-H ) :   0.9570 B(  1-C ,  2-O ) :   0.7735 B(  1-C , 22-H ) :   0.9603
B(  1-C , 23-H ) :   0.9555 B(  2-O ,  3-P ) :   1.1512 B(  3-P ,  4-S ) :   1.7114
B(  3-P ,  5-O ) :   1.0693 B(  3-P ,  8-S ) :   1.0815 B(  5-O ,  6-C ) :   0.7992
B(  6-C ,  7-C ) :   0.9149 B(  6-C , 24-H ) :   0.9493 B(  6-C , 25-H ) :   0.9635
B(  7-C , 26-H ) :   0.9541 B(  7-C , 27-H ) :   0.9629 B(  7-C , 28-H ) :   0.9665
B(  8-S ,  9-C ) :   0.8923 B(  9-C , 10-S ) :   0.8973 B(  9-C , 29-H ) :   0.9032
B(  9-C , 30-H ) :   0.9029 B( 10-S , 11-P ) :   1.0941 B( 11-P , 12-S ) :   1.7057
B( 11-P , 13-O ) :   1.1589 B( 11-P , 16-O ) :   1.0862 B( 13-O , 14-C ) :   0.7640
B( 14-C , 15-C ) :   0.9216 B( 14-C , 31-H ) :   0.9522 B( 14-C , 32-H ) :   0.9560
B( 15-C , 33-H ) :   0.9588 B( 15-C , 34-H ) :   0.9611 B( 15-C , 35-H ) :   0.9714
B( 16-O , 17-C ) :   0.7751 B( 17-C , 18-C ) :   0.9428 B( 17-C , 36-H ) :   0.9554
B( 17-C , 37-H ) :   0.9531 B( 18-C , 38-H ) :   0.9595 B( 18-C , 39-H ) :   0.9721
B( 18-C , 40-H ) :   0.9601

Dispersion correction           -0.021625795
FINAL SINGLE POINT ENERGY     -2932.466842538705

DIPOLE MOMENT
-------------

Method             : SCF
Type of density    : Electron Density
Multiplicity       :   1
Irrep              :   0
Energy             : -2932.4916410378918954 Eh
Relativity type    :
Basis              : AO
                                X                 Y                 Z
Electronic contribution:      2.533344108      -6.175236033      -9.058274787
Nuclear contribution   :     -2.164562446       7.006104960      10.387150943
                        -----------------------------------------
Total Dipole Moment    :      0.368781663       0.830868927       1.328876156
                        -----------------------------------------
Magnitude (a.u.)       :      1.610048113
Magnitude (Debye)      :      4.092417073

Rotational constants in cm-1:             0.013192             0.004837             0.004782
Rotational constants in MHz :           395.491689           145.011823           143.357090

                             ****ORCA TERMINATED NORMALLY****
TOTAL RUN TIME: 0 days 0 hours 1 minutes 49 seconds 450 msec
