                         Program Version 6.0.0  -   RELEASE  -
|  1> ! r2scan-3c def2/J RI DEFGRID2 scfconv6 printgap
|  2> %output
|  3>     printlevel normal
|  4> end
|  5> * xyz 0 1
|  6> C -2.5473443504 -0.7117755732 -0.0016328322
|  7> C -1.2146412657 -0.0124915667 -0.0004706436
|  8> C -1.205585385 1.3792099701 0.0005530367
|  9> C -0.0254347677 2.0935388381 0.0009690475
| 10> C 1.1826654714 1.4162066305 -0.0004936458
| 11> C 1.2159847776 0.0338957023 -0.0010256014
| 12> C 0.0098340735 -0.6810249085 0.0002305864
| 13> O 0.1250818746 -2.0426555358 0.0020711154
| 14> C 2.5065507837 -0.72651707 -0.0010258661
| 15> H -3.1221879691 -0.4014737869 -0.8728553995
| 16> H -2.4699104502 -1.7955327684 -0.0203111652
| 17> H -3.1099009813 -0.4299606817 0.8872614048
| 18> H -2.1512383857 1.9014898223 0.0009670028
| 19> H -0.0429056755 3.1727312198 0.0019618834
| 20> H 2.1120452428 1.966313923 -0.0012196646
| 21> H -0.7475555618 -2.4606155854 0.0062181133
| 22> H 2.5752269386 -1.3446921194 0.8930531443
| 23> H 2.5457520435 -1.3951098978 -0.8596417824
| 24> H 3.354290915 -0.0484936651 -0.0338001667
| 25> *
| 26>
| 27>                          ****END OF INPUT****

CARTESIAN COORDINATES (ANGSTROEM)
---------------------------------
  C     -2.547344   -0.711776   -0.001633
  C     -1.214641   -0.012492   -0.000471
  C     -1.205585    1.379210    0.000553
  C     -0.025435    2.093539    0.000969
  C      1.182665    1.416207   -0.000494
  C      1.215985    0.033896   -0.001026
  C      0.009834   -0.681025    0.000231
  O      0.125082   -2.042656    0.002071
  C      2.506551   -0.726517   -0.001026
  H     -3.122188   -0.401474   -0.872855
  H     -2.469910   -1.795533   -0.020311
  H     -3.109901   -0.429961    0.887261
  H     -2.151238    1.901490    0.000967
  H     -0.042906    3.172731    0.001962
  H      2.112045    1.966314   -0.001220
  H     -0.747556   -2.460616    0.006218
  H      2.575227   -1.344692    0.893053
  H      2.545752   -1.395110   -0.859642
  H      3.354291   -0.048494   -0.033800

 Total Charge           Charge          ....    0
 Multiplicity           Mult            ....    1
 Number of Electrons    NEL             ....   66
 Basis Dimension        Dim             ....  226

ORBITAL ENERGIES
----------------

  NO   OCC          E(Eh)            E(eV)
   0   2.0000     -18.982589      -516.5425
   1   2.0000     -10.088200      -274.5139
   2   2.0000     -10.041196      -273.2348
   3   2.0000     -10.040432      -273.2140
   4   2.0000     -10.033805      -273.0337
   5   2.0000     -10.025531      -272.8086
   6   2.0000     -10.023709      -272.7590
   7   2.0000     -10.020674      -272.6764
   8   2.0000     -10.018831      -272.6263
   9   2.0000      -1.025474       -27.9046
  10   2.0000      -0.821684       -22.3592
  11   2.0000      -0.754801       -20.5392
  12   2.0000      -0.718925       -19.5629
  13   2.0000      -0.665557       -18.1107
  14   2.0000      -0.644708       -17.5434
  15   2.0000      -0.575910       -15.6713
  16   2.0000      -0.547781       -14.9059
  17   2.0000      -0.507590       -13.8122
  18   2.0000      -0.456396       -12.4192
  19   2.0000      -0.433110       -11.7855
  20   2.0000      -0.409526       -11.1438
  21   2.0000      -0.393005       -10.6942
  22   2.0000      -0.386455       -10.5160
  23   2.0000      -0.380696       -10.3593
  24   2.0000      -0.372185       -10.1277
  25   2.0000      -0.354334        -9.6419
  26   2.0000      -0.347651        -9.4601
  27   2.0000      -0.345687        -9.4066
  28   2.0000      -0.313257        -8.5242
  29   2.0000      -0.304187        -8.2773
  30   2.0000      -0.298951        -8.1349
  31   2.0000      -0.217519        -5.9190
  32   2.0000      -0.197025        -5.3613
  33   0.0000      -0.023931        -0.6512
  34   0.0000      -0.008878        -0.2416
  35   0.0000       0.042656         1.1607
  36   0.0000       0.086692         2.3590
  37   0.0000       0.103644         2.8203

MULLIKEN ATOMIC CHARGES
-----------------------
   0 C :   -0.517630
   1 C :    0.005709
   2 C :   -0.179063
   3 C :   -0.187097
   4 C :   -0.217048
   5 C :    0.076797
   6 C :    0.290954
   7 O :   -0.394714
   8 C :   -0.527880
   9 H :    0.169787
  10 H :    0.108085
  11 H :    0.170896
  12 H :    0.144265
  13 H :    0.142497
  14 H :    0.147187
  15 H :    0.291027
  16 H :    0.165822
  17 H :    0.165019
  18 H :    0.145385
Sum of atomic charges:    0.0000000

LOEWDIN ATOMIC CHARGES
----------------------
   0 C :   -0.380471
   1 C :   -0.102102
   2 C :   -0.163175
   3 C :   -0.181121
   4 C :   -0.164146
   5 C :   -0.071220
   6 C :    0.192701
   7 O :   -0.515396
   8 C :   -0.373452
   9 H :    0.169410
  10 H :    0.144962
  11 H :    0.169364
  12 H :    0.167976
  13 H :    0.165880
  14 H :    0.167825
  15 H :    0.278207
  16 H :    0.169132
  17 H :    0.169614
  18 H :    0.156012

  Mayer bond orders larger than 0.100000
B(  0-C ,  1-C ) :   0.8188 B(  0-C ,  9-H ) :   0.9777 B(  0-C , 10-H ) :   0.9827
B(  0-C , 11-H ) :   0.9768 B(  1-C ,  2-C ) :   1.3111 B(  1-C ,  6-C ) :   1.3943
B(  2-C ,  3-C ) :   1.4670 B(  2-C , 12-H ) :   0.9408 B(  3-C ,  4-C ) :   1.4103
B(  3-C , 13-H ) :   0.9428 B(  4-C ,  5-C ) :   1.4048 B(  4-C , 14-H ) :   0.9277
B(  5-C ,  6-C ) :   1.4779 B(  5-C ,  8-C ) :   0.8004 B(  6-C ,  7-O ) :   0.9898
B(  7-O , 15-H ) :   0.8721 B(  8-C , 16-H ) :   0.9728 B(  8-C , 17-H ) :   0.9741
B(  8-C , 18-H ) :   0.9936

Dispersion correction           -0.006243178
FINAL SINGLE POINT ENERGY      -386.003388423688

DIPOLE MOMENT
-------------

Method             : SCF
Type of density    : Electron Density
Multiplicity       :   1
Irrep              :   0
Energy             :  -386.0046862072093745 Eh
Relativity type    :
Basis              : AO
                                X                 Y                 Z
Electronic contribution:      0.420417488       0.598884290       0.002226996
Nuclear contribution   :     -0.989212600      -0.813965469       0.001563071
                        -----------------------------------------
Total Dipole Moment    :     -0.568795112      -0.215081180       0.003790066
                        -----------------------------------------
Magnitude (a.u.)       :      0.608113606
Magnitude (Debye)      :      1.545701947

Rotational constants in cm-1:             0.077135             0.058818             0.033788
Rotational constants in MHz :          2312.450214          1763.312517          1012.924535

                             ****ORCA TERMINATED NORMALLY****
TOTAL RUN TIME: 0 days 0 hours 0 minutes 32 seconds 78 msec
