                         Program Version 6.0.0  -   RELEASE  -
|  1> ! r2scan-3c def2/J RI DEFGRID2 scfconv6 printgap
|  2> %output
|  3>     printlevel normal
|  4> end
|  5> %cpcm
|  6>     smd true
|  7>     smdsolvent "water"
|  8> end
|  9> * xyz 0 1
| 10> C -2.5473443504 -0.7117755732 -0.0016328322
| 11> C -1.2146412657 -0.0124915667 -0.0004706436
| 12> C -1.205585385 1.3792099701 0.0005530367
| 13> C -0.0254347677 2.0935388381 0.0009690475
| 14> C 1.1826654714 1.4162066305 -0.0004936458
| 15> C 1.2159847776 0.0338957023 -0.0010256014
| 16> C 0.0098340735 -0.6810249085 0.0002305864
| 17> O 0.1250818746 -2.0426555358 0.0020711154
| 18> C 2.5065507837 -0.72651707 -0.0010258661
| 19> H -3.1221879691 -0.4014737869 -0.8728553995
| 20> H -2.4699104502 -1.7955327684 -0.0203111652
| 21> H -3.1099009813 -0.4299606817 0.8872614048
| 22> H -2.1512383857 1.9014898223 0.0009670028
| 23> H -0.0429056755 3.1727312198 0.0019618834
| 24> H 2.1120452428 1.966313923 -0.0012196646
| 25> H -0.7475555618 -2.4606155854 0.0062181133
| 26> H 2.5752269386 -1.3446921194 0.8930531443
| 27> H 2.5457520435 -1.3951098978 -0.8596417824
| 28> H 3.354290915 -0.0484936651 -0.0338001667
| 29> *
| 30>
| 31>                          ****END OF INPUT****

CARTESIAN COORDINATES (ANGSTROEM)
---------------------------------
  C     -2.547344   -0.711776   -0.001633
  C     -1.214641   -0.012492   -0.000471
  C     -1.205585    1.379210    0.000553
  C     -0.025435    2.093539    0.000969
  C      1.182665    1.416207   -0.000494
  C      1.215985    0.033896   -0.001026
  C      0.009834   -0.681025    0.000231
  O      0.125082   -2.042656    0.002071
  C      2.506551   -0.726517   -0.001026
  H     -3.122188   -0.401474   -0.872855
  H     -2.469910   -1.795533   -0.020311
  H     -3.109901   -0.429961    0.887261
  H     -2.151238    1.901490    0.000967
  H     -0.042906    3.172731    0.001962
  H      2.112045    1.966314   -0.001220
  H     -0.747556   -2.460616    0.006218
  H      2.575227   -1.344692    0.893053
  H      2.545752   -1.395110   -0.859642
  H      3.354291   -0.048494   -0.033800

 Total Charge           Charge          ....    0
 Multiplicity           Mult            ....    1
 Number of Electrons    NEL             ....   66
 Basis Dimension        Dim             ....  226

ORBITAL ENERGIES
----------------

  NO   OCC          E(Eh)            E(eV)
   0   2.0000     -18.981033      -516.5002
   1   2.0000     -10.089598      -274.5519
   2   2.0000     -10.039837      -273.1979
   3   2.0000     -10.036832      -273.1161
   4   2.0000     -10.025140      -272.7979
   5   2.0000     -10.025106      -272.7970
   6   2.0000     -10.024124      -272.7703
   7   2.0000     -10.022185      -272.7175
   8   2.0000     -10.017964      -272.6026
   9   2.0000      -1.023915       -27.8621
  10   2.0000      -0.823755       -22.4155
  11   2.0000      -0.752309       -20.4714
  12   2.0000      -0.718549       -19.5527
  13   2.0000      -0.659768       -17.9532
  14   2.0000      -0.643930       -17.5222
  15   2.0000      -0.573107       -15.5950
  16   2.0000      -0.547064       -14.8864
  17   2.0000      -0.503710       -13.7066
  18   2.0000      -0.455960       -12.4073
  19   2.0000      -0.431320       -11.7368
  20   2.0000      -0.406663       -11.0659
  21   2.0000      -0.388805       -10.5799
  22   2.0000      -0.379861       -10.3365
  23   2.0000      -0.370615       -10.0849
  24   2.0000      -0.369064       -10.0427
  25   2.0000      -0.355210        -9.6658
  26   2.0000      -0.346803        -9.4370
  27   2.0000      -0.340077        -9.2540
  28   2.0000      -0.310935        -8.4610
  29   2.0000      -0.308720        -8.4007
  30   2.0000      -0.297798        -8.1035
  31   2.0000      -0.220682        -6.0051
  32   2.0000      -0.201081        -5.4717
  33   0.0000      -0.026443        -0.7195
  34   0.0000      -0.012922        -0.3516
  35   0.0000       0.063481         1.7274
  36   0.0000       0.093554         2.5457
  37   0.0000       0.107790         2.9331

MULLIKEN ATOMIC CHARGES
-----------------------
   0 C :   -0.534401
   1 C :   -0.001733
   2 C :   -0.205402
   3 C :   -0.237653
   4 C :   -0.250900
   5 C :    0.053134
   6 C :    0.266657
   7 O :   -0.442417
   8 C :   -0.563819
   9 H :    0.181826
  10 H :    0.148737
  11 H :    0.182763
  12 H :    0.175675
  13 H :    0.171912
  14 H :    0.177712
  15 H :    0.351658
  16 H :    0.179298
  17 H :    0.177118
  18 H :    0.169834
Sum of atomic charges:    0.0000000

LOEWDIN ATOMIC CHARGES
----------------------
   0 C :   -0.382358
   1 C :   -0.099231
   2 C :   -0.174217
   3 C :   -0.199667
   4 C :   -0.181045
   5 C :   -0.083727
   6 C :    0.181744
   7 O :   -0.529671
   8 C :   -0.381084
   9 H :    0.174741
  10 H :    0.160889
  11 H :    0.174806
  12 H :    0.179281
  13 H :    0.175145
  14 H :    0.178289
  15 H :    0.297926
  16 H :    0.171786
  17 H :    0.171818
  18 H :    0.164576

  Mayer bond orders larger than 0.100000
B(  0-C ,  1-C ) :   0.8461 B(  0-C ,  9-H ) :   0.9698 B(  0-C , 10-H ) :   0.9776
B(  0-C , 11-H ) :   0.9689 B(  1-C ,  2-C ) :   1.2914 B(  1-C ,  6-C ) :   1.3620
B(  2-C ,  3-C ) :   1.4147 B(  2-C , 12-H ) :   0.9557 B(  3-C ,  4-C ) :   1.3686
B(  3-C , 13-H ) :   0.9629 B(  4-C ,  5-C ) :   1.3775 B(  4-C , 14-H ) :   0.9461
B(  5-C ,  6-C ) :   1.4257 B(  5-C ,  8-C ) :   0.8054 B(  6-C ,  7-O ) :   0.9920
B(  7-O , 15-H ) :   0.8483 B(  8-C , 16-H ) :   0.9710 B(  8-C , 17-H ) :   0.9725
B(  8-C , 18-H ) :   0.9833

Dispersion correction           -0.006243178
FINAL SINGLE POINT ENERGY      -386.011175921303

DIPOLE MOMENT
-------------

Method             : SCF
Type of density    : Electron Density
Multiplicity       :   1
Irrep              :   0
Energy             :  -386.0124737048237762 Eh
Relativity type    :
Basis              : AO
                                X                 Y                 Z
Electronic contribution:      0.155901572       0.483659718       0.003863750
Nuclear contribution   :     -0.989212600      -0.813965469       0.001563071
                        -----------------------------------------
Total Dipole Moment    :     -0.833311028      -0.330305752       0.005426820
                        -----------------------------------------
Magnitude (a.u.)       :      0.896403151
Magnitude (Debye)      :      2.278475737

Rotational constants in cm-1:             0.077135             0.058818             0.033788
Rotational constants in MHz :          2312.450214          1763.312517          1012.924535

                             ****ORCA TERMINATED NORMALLY****
TOTAL RUN TIME: 0 days 0 hours 0 minutes 44 seconds 234 msec
