                         Program Version 6.0.0  -   RELEASE  -
|  1> ! pbe def2-sv(p) def2/J RI DEFGRID1 loosescf d4 GCP(DFT/SV(P)) printgap
|  2> %output
|  3>     printlevel normal
|  4> end
|  5> * xyz 0 1
|  6> C 3.8475226783 0.1776500314 2.5681757029
|  7> C 3.8009918388 0.9954514938 1.2934763609
|  8> O 3.7104940449 0.1356970991 0.1286846814
|  9> P 2.3445130893 -0.2044941749 -0.5970902581
| 10> S 2.6220167297 -1.2164774483 -2.2444028887
| 11> O 1.5508871057 1.175645694 -0.7676871847
| 12> C 1.5970769199 1.9272390279 -1.9919166247
| 13> C 2.9167445941 2.6553247172 -2.13976863
| 14> S 1.1399791914 -1.1085691153 0.8711572936
| 15> C -0.1707712525 -1.6747200425 -0.2744133437
| 16> S -1.7311971346 -1.9263069424 0.5881694563
| 17> P -2.5000580234 0.0677296102 0.4740854691
| 18> S -1.7582028565 1.1745679187 -0.9727579267
| 19> O -2.4551259509 0.6329167089 1.9504234223
| 20> C -1.2902144043 0.6952238533 2.7917455484
| 21> C -0.3666303412 1.8330891633 2.4019821543
| 22> O -4.0695830936 -0.100822508 0.431485783
| 23> C -4.7952768732 -0.1834552392 -0.8066758636
| 24> C -4.5444740284 -1.4931525301 -1.5276062513
| 25> H 2.9152595747 -0.3652493284 2.7101181083
| 26> H 4.6637498978 -0.5377247447 2.5207672626
| 27> H 4.0041553806 0.8444029837 3.4103049298
| 28> H 4.7301810437 1.5483785989 1.1452714165
| 29> H 2.9538259066 1.6856291883 1.2929173897
| 30> H 1.4380116164 1.2400422161 -2.8291568766
| 31> H 0.7483644547 2.6095948252 -1.9193708506
| 32> H 3.0826849962 3.3179209985 -1.2944797359
| 33> H 3.7294855353 1.930760167 -2.1917380558
| 34> H 2.9039907887 3.2371622583 -3.0558389356
| 35> H 0.1251607445 -2.6286667304 -0.7040542446
| 36> H -0.3077224399 -0.9147769055 -1.0485016513
| 37> H -1.7023757258 0.8464083479 3.7910632762
| 38> H -0.7640974696 -0.2648137967 2.7543819354
| 39> H 0.4483681435 1.8896235118 3.1165751404
| 40> H 0.0437578684 1.6674812341 1.4072489901
| 41> H -0.9112016696 2.7736485727 2.3976874833
| 42> H -5.8388269946 -0.0847356717 -0.5049047943
| 43> H -4.5107629398 0.6649860179 -1.4381140676
| 44> H -5.2114364755 -1.5673109314 -2.3805872343
| 45> H -3.5152572132 -1.534544864 -1.8818290079
| 46> H -4.7190346307 -2.3311219533 -0.8576713433
| 47> *
| 48>
| 49>                          ****END OF INPUT****

CARTESIAN COORDINATES (ANGSTROEM)
---------------------------------
  C      3.847523    0.177650    2.568176
  C      3.800992    0.995451    1.293476
  O      3.710494    0.135697    0.128685
  P      2.344513   -0.204494   -0.597090
  S      2.622017   -1.216477   -2.244403
  O      1.550887    1.175646   -0.767687
  C      1.597077    1.927239   -1.991917
  C      2.916745    2.655325   -2.139769
  S      1.139979   -1.108569    0.871157
  C     -0.170771   -1.674720   -0.274413
  S     -1.731197   -1.926307    0.588169
  P     -2.500058    0.067730    0.474085
  S     -1.758203    1.174568   -0.972758
  O     -2.455126    0.632917    1.950423
  C     -1.290214    0.695224    2.791746
  C     -0.366630    1.833089    2.401982
  O     -4.069583   -0.100823    0.431486
  C     -4.795277   -0.183455   -0.806676
  C     -4.544474   -1.493153   -1.527606
  H      2.915260   -0.365249    2.710118
  H      4.663750   -0.537725    2.520767
  H      4.004155    0.844403    3.410305
  H      4.730181    1.548379    1.145271
  H      2.953826    1.685629    1.292917
  H      1.438012    1.240042   -2.829157
  H      0.748364    2.609595   -1.919371
  H      3.082685    3.317921   -1.294480
  H      3.729486    1.930760   -2.191738
  H      2.903991    3.237162   -3.055839
  H      0.125161   -2.628667   -0.704054
  H     -0.307722   -0.914777   -1.048502
  H     -1.702376    0.846408    3.791063
  H     -0.764097   -0.264814    2.754382
  H      0.448368    1.889624    3.116575
  H      0.043758    1.667481    1.407249
  H     -0.911202    2.773649    2.397687
  H     -5.838827   -0.084736   -0.504905
  H     -4.510763    0.664986   -1.438114
  H     -5.211436   -1.567311   -2.380587
  H     -3.515257   -1.534545   -1.881829
  H     -4.719035   -2.331122   -0.857671

 Total Charge           Charge          ....    0
 Multiplicity           Mult            ....    1
 Number of Electrons    NEL             ....  202
 Basis Dimension        Dim             ....  334

ORBITAL ENERGIES
----------------

  NO   OCC          E(Eh)            E(eV)
   0   2.0000     -88.052723     -2396.0364
   1   2.0000     -88.044107     -2395.8020
   2   2.0000     -87.993538     -2394.4259
   3   2.0000     -87.984678     -2394.1848
   4   2.0000     -76.431362     -2079.8031
   5   2.0000     -76.426291     -2079.6651
   6   2.0000     -18.798077      -511.5217
   7   2.0000     -18.793588      -511.3995
   8   2.0000     -18.791686      -511.3478
   9   2.0000     -18.790868      -511.3255
  10   2.0000      -9.963158      -271.1113
  11   2.0000      -9.956387      -270.9271
  12   2.0000      -9.954166      -270.8666
  13   2.0000      -9.953571      -270.8504
  14   2.0000      -9.945585      -270.6331
  15   2.0000      -9.894846      -269.2524
  16   2.0000      -9.885120      -268.9878
  17   2.0000      -9.884028      -268.9581
  18   2.0000      -9.880384      -268.8589
  19   2.0000      -7.697380      -209.4564
  20   2.0000      -7.689082      -209.2306
  21   2.0000      -7.638206      -207.8462
  22   2.0000      -7.630037      -207.6239
  23   2.0000      -6.428600      -174.9311
  24   2.0000      -6.424145      -174.8099
  25   2.0000      -5.725215      -155.7910
  26   2.0000      -5.721811      -155.6984
  27   2.0000      -5.716932      -155.5656
  28   2.0000      -5.714567      -155.5013
  29   2.0000      -5.713782      -155.4799
  30   2.0000      -5.705892      -155.2652
  31   2.0000      -5.666952      -154.2056
  32   2.0000      -5.659191      -153.9944
  33   2.0000      -5.658802      -153.9838
  34   2.0000      -5.658582      -153.9778
  35   2.0000      -5.650541      -153.7590
  36   2.0000      -5.650025      -153.7450
  37   2.0000      -4.650817      -126.5552
  38   2.0000      -4.650740      -126.5531
  39   2.0000      -4.649018      -126.5062
  40   2.0000      -4.647092      -126.4538
  41   2.0000      -4.645612      -126.4135
  42   2.0000      -4.644541      -126.3844
  43   2.0000      -0.992203       -26.9992
  44   2.0000      -0.987523       -26.8719
  45   2.0000      -0.947235       -25.7756
  46   2.0000      -0.946122       -25.7453
  47   2.0000      -0.766398       -20.8548
  48   2.0000      -0.725382       -19.7387
  49   2.0000      -0.714393       -19.4396
  50   2.0000      -0.694800       -18.9065
  51   2.0000      -0.683931       -18.6107
  52   2.0000      -0.678026       -18.4500
  53   2.0000      -0.654578       -17.8120
  54   2.0000      -0.639545       -17.4029
  55   2.0000      -0.602906       -16.4059
  56   2.0000      -0.591157       -16.0862
  57   2.0000      -0.581871       -15.8335
  58   2.0000      -0.571429       -15.5494
  59   2.0000      -0.561132       -15.2692
  60   2.0000      -0.504084       -13.7168
  61   2.0000      -0.496978       -13.5235
  62   2.0000      -0.479937       -13.0598
  63   2.0000      -0.470795       -12.8110
  64   2.0000      -0.455936       -12.4067
  65   2.0000      -0.453740       -12.3469
  66   2.0000      -0.443182       -12.0596
  67   2.0000      -0.434196       -11.8151
  68   2.0000      -0.426064       -11.5938
  69   2.0000      -0.419509       -11.4154
  70   2.0000      -0.414435       -11.2773
  71   2.0000      -0.408795       -11.1239
  72   2.0000      -0.398454       -10.8425
  73   2.0000      -0.389802       -10.6071
  74   2.0000      -0.383814       -10.4441
  75   2.0000      -0.373550       -10.1648
  76   2.0000      -0.369519       -10.0551
  77   2.0000      -0.363054        -9.8792
  78   2.0000      -0.359051        -9.7703
  79   2.0000      -0.354165        -9.6373
  80   2.0000      -0.349374        -9.5069
  81   2.0000      -0.345631        -9.4051
  82   2.0000      -0.343865        -9.3570
  83   2.0000      -0.338529        -9.2119
  84   2.0000      -0.335468        -9.1285
  85   2.0000      -0.319335        -8.6896
  86   2.0000      -0.313905        -8.5418
  87   2.0000      -0.307476        -8.3669
  88   2.0000      -0.299449        -8.1484
  89   2.0000      -0.290825        -7.9137
  90   2.0000      -0.279027        -7.5927
  91   2.0000      -0.276379        -7.5207
  92   2.0000      -0.272795        -7.4231
  93   2.0000      -0.268570        -7.3082
  94   2.0000      -0.263213        -7.1624
  95   2.0000      -0.237387        -6.4596
  96   2.0000      -0.225683        -6.1411
  97   2.0000      -0.211535        -5.7562
  98   2.0000      -0.208282        -5.6676
  99   2.0000      -0.204731        -5.5710
 100   2.0000      -0.198935        -5.4133
 101   0.0000      -0.048375        -1.3163
 102   0.0000      -0.036644        -0.9971
 103   0.0000      -0.016971        -0.4618
 104   0.0000       0.004684         0.1275
 105   0.0000       0.012851         0.3497

MULLIKEN ATOMIC CHARGES
-----------------------
   0 C :   -0.300339
   1 C :   -0.039331
   2 O :   -0.365655
   3 P :    0.616002
   4 S :   -0.314630
   5 O :   -0.374671
   6 C :   -0.011815
   7 C :   -0.309270
   8 S :   -0.129430
   9 C :   -0.331949
  10 S :   -0.101601
  11 P :    0.604335
  12 S :   -0.323864
  13 O :   -0.349888
  14 C :   -0.012491
  15 C :   -0.333530
  16 O :   -0.355010
  17 C :   -0.004065
  18 C :   -0.314081
  19 H :    0.135124
  20 H :    0.126559
  21 H :    0.113364
  22 H :    0.113825
  23 H :    0.119611
  24 H :    0.113403
  25 H :    0.112221
  26 H :    0.110245
  27 H :    0.126011
  28 H :    0.114257
  29 H :    0.192051
  30 H :    0.205263
  31 H :    0.106252
  32 H :    0.111056
  33 H :    0.102367
  34 H :    0.155681
  35 H :    0.115127
  36 H :    0.108150
  37 H :    0.113952
  38 H :    0.114126
  39 H :    0.124206
  40 H :    0.118430
Sum of atomic charges:    0.0000000

LOEWDIN ATOMIC CHARGES
----------------------
   0 C :   -0.361079
   1 C :   -0.117936
   2 O :   -0.240921
   3 P :    0.569556
   4 S :   -0.310765
   5 O :   -0.245624
   6 C :   -0.125535
   7 C :   -0.364526
   8 S :    0.075333
   9 C :   -0.477757
  10 S :    0.087281
  11 P :    0.573088
  12 S :   -0.295603
  13 O :   -0.229763
  14 C :   -0.117985
  15 C :   -0.374455
  16 O :   -0.231387
  17 C :   -0.119071
  18 C :   -0.368399
  19 H :    0.118153
  20 H :    0.132418
  21 H :    0.131824
  22 H :    0.122882
  23 H :    0.112268
  24 H :    0.109636
  25 H :    0.115625
  26 H :    0.121442
  27 H :    0.124442
  28 H :    0.131928
  29 H :    0.137787
  30 H :    0.121480
  31 H :    0.119648
  32 H :    0.096116
  33 H :    0.124579
  34 H :    0.120272
  35 H :    0.126841
  36 H :    0.120376
  37 H :    0.110656
  38 H :    0.131473
  39 H :    0.120572
  40 H :    0.125131

  Mayer bond orders larger than 0.100000
B(  0-C ,  1-C ) :   1.1698 B(  0-C , 19-H ) :   0.9325 B(  0-C , 20-H ) :   0.9450
B(  0-C , 21-H ) :   0.9381 B(  1-C ,  2-O ) :   0.8978 B(  1-C , 22-H ) :   0.9331
B(  1-C , 23-H ) :   0.9120 B(  2-O ,  3-P ) :   1.1232 B(  3-P ,  4-S ) :   1.6356
B(  3-P ,  5-O ) :   1.0705 B(  3-P ,  8-S ) :   0.9689 B(  4-S ,  8-S ) :   0.1035
B(  5-O ,  6-C ) :   0.9021 B(  6-C ,  7-C ) :   1.1613 B(  6-C , 24-H ) :   0.9120
B(  6-C , 25-H ) :   0.9261 B(  7-C , 26-H ) :   0.9473 B(  7-C , 27-H ) :   0.9368
B(  7-C , 28-H ) :   0.9407 B(  8-S ,  9-C ) :   0.9653 B(  9-C , 10-S ) :   1.0198
B(  9-C , 29-H ) :   0.9013 B(  9-C , 30-H ) :   0.8488 B( 10-S , 11-P ) :   0.9200
B( 10-S , 12-S ) :   0.1223 B( 11-P , 12-S ) :   1.6100 B( 11-P , 13-O ) :   1.1392
B( 11-P , 16-O ) :   1.1368 B( 13-O , 14-C ) :   0.9164 B( 14-C , 15-C ) :   1.1606
B( 14-C , 31-H ) :   0.9341 B( 14-C , 32-H ) :   0.9064 B( 15-C , 33-H ) :   0.9370
B( 15-C , 34-H ) :   0.9185 B( 15-C , 35-H ) :   0.9425 B( 16-O , 17-C ) :   0.9088
B( 17-C , 18-C ) :   1.1638 B( 17-C , 36-H ) :   0.9335 B( 17-C , 37-H ) :   0.9143
B( 18-C , 38-H ) :   0.9384 B( 18-C , 39-H ) :   0.9381 B( 18-C , 40-H ) :   0.9450

Dispersion correction           -0.066035484
FINAL SINGLE POINT ENERGY     -2929.519563680539

DIPOLE MOMENT
-------------

Method             : SCF
Type of density    : Electron Density
Multiplicity       :   1
Irrep              :   0
Energy             : -2929.6396900046088376 Eh
Relativity type    :
Basis              : AO
                                X                 Y                 Z
Electronic contribution:     -4.332595305     -12.619332820      -3.420752383
Nuclear contribution   :      4.152410031      13.398389967       4.352169124
                        -----------------------------------------
Total Dipole Moment    :     -0.180185274       0.779057146       0.931416741
                        -----------------------------------------
Magnitude (a.u.)       :      1.227572367
Magnitude (Debye)      :      3.120240987

Rotational constants in cm-1:             0.012048             0.005083             0.004731
Rotational constants in MHz :           361.191154           152.389331           141.829471

                             ****ORCA TERMINATED NORMALLY****
TOTAL RUN TIME: 0 days 0 hours 0 minutes 21 seconds 619 msec
