                         Program Version 6.0.0  -   RELEASE  -
|  1> ! r2scan-3c def2/J RI DEFGRID2 scfconv6 printgap
|  2> %output
|  3>     printlevel normal
|  4> end
|  5> * xyz 0 1
|  6> C 3.8654756939 -1.5340981238 -2.5374383285
|  7> C 4.1673387116 -1.9130839852 -1.1019629616
|  8> O 2.9970377218 -1.8536335457 -0.2682807927
|  9> P 2.2772350116 -0.4855955606 0.0944958707
| 10> S 3.4709122721 1.0391735102 0.4258935301
| 11> O 1.349230806 -0.917526376 1.3027445355
| 12> C 1.7719659701 -0.7860764023 2.6758925943
| 13> C 2.9086482747 -1.7298704741 3.0068145223
| 14> S 0.8155582841 -0.2404337765 -1.4162693717
| 15> C 0.4066035026 1.4735367099 -1.0018193942
| 16> S -0.5550929009 1.6284549494 0.5288976977
| 17> P -2.3479572214 0.8346370039 -0.2758982342
| 18> S -2.8072601157 1.3499521482 -2.0999299026
| 19> O -3.3220788173 1.3281124578 0.8870905585
| 20> C -4.6987709775 1.6707480017 0.6296272895
| 21> C -5.5460595709 0.4297375452 0.4308879196
| 22> O -2.2445459706 -0.7449574788 -0.145186215
| 23> C -2.0423076429 -1.4116307454 1.1227322904
| 24> C -1.4261419703 -2.7665629119 0.8432076308
| 25> H 3.5964948693 -0.4800561816 -2.5963780413
| 26> H 4.7455374357 -1.7069020978 -3.1486115232
| 27> H 3.0374593399 -2.1261138635 -2.9193473032
| 28> H 4.9260123409 -1.2454148511 -0.6811211236
| 29> H 4.4958006159 -2.9499085914 -1.0191226541
| 30> H 2.0660400476 0.2540145925 2.8491612248
| 31> H 0.8743869497 -1.0163506103 3.2512961342
| 32> H 3.7992761988 -1.4460683749 2.4473673608
| 33> H 3.1270289469 -1.6723094008 4.0685410513
| 34> H 2.6394882933 -2.7497512935 2.7454529135
| 35> H -0.1750347942 1.8706539942 -1.8339266472
| 36> H 1.3265306678 2.0399997344 -0.8535523326
| 37> H -5.002517392 2.2365009858 1.5112191843
| 38> H -4.7405960663 2.31051475 -0.2569963346
| 39> H -6.5758335944 0.7214834764 0.2503324435
| 40> H -5.1802731061 -0.1284952286 -0.4310739237
| 41> H -5.5027904814 -0.206370531 1.3111506437
| 42> H -1.3897008723 -0.7920587242 1.7460108453
| 43> H -3.0163456726 -1.5064579999 1.6078406591
| 44> H -2.0561461231 -3.3231056613 0.1553681592
| 45> H -0.4421758245 -2.6466280747 0.3964628493
| 46> H -1.332685221 -3.3157771843 1.7745524403
| 47> *
| 48>
| 49>                          ****END OF INPUT****

CARTESIAN COORDINATES (ANGSTROEM)
---------------------------------
  C      3.865476   -1.534098   -2.537438
  C      4.167339   -1.913084   -1.101963
  O      2.997038   -1.853634   -0.268281
  P      2.277235   -0.485596    0.094496
  S      3.470912    1.039174    0.425894
  O      1.349231   -0.917526    1.302745
  C      1.771966   -0.786076    2.675893
  C      2.908648   -1.729870    3.006815
  S      0.815558   -0.240434   -1.416269
  C      0.406604    1.473537   -1.001819
  S     -0.555093    1.628455    0.528898
  P     -2.347957    0.834637   -0.275898
  S     -2.807260    1.349952   -2.099930
  O     -3.322079    1.328112    0.887091
  C     -4.698771    1.670748    0.629627
  C     -5.546060    0.429738    0.430888
  O     -2.244546   -0.744957   -0.145186
  C     -2.042308   -1.411631    1.122732
  C     -1.426142   -2.766563    0.843208
  H      3.596495   -0.480056   -2.596378
  H      4.745537   -1.706902   -3.148612
  H      3.037459   -2.126114   -2.919347
  H      4.926012   -1.245415   -0.681121
  H      4.495801   -2.949909   -1.019123
  H      2.066040    0.254015    2.849161
  H      0.874387   -1.016351    3.251296
  H      3.799276   -1.446068    2.447367
  H      3.127029   -1.672309    4.068541
  H      2.639488   -2.749751    2.745453
  H     -0.175035    1.870654   -1.833927
  H      1.326531    2.040000   -0.853552
  H     -5.002517    2.236501    1.511219
  H     -4.740596    2.310515   -0.256996
  H     -6.575834    0.721483    0.250332
  H     -5.180273   -0.128495   -0.431074
  H     -5.502790   -0.206371    1.311151
  H     -1.389701   -0.792059    1.746011
  H     -3.016346   -1.506458    1.607841
  H     -2.056146   -3.323106    0.155368
  H     -0.442176   -2.646628    0.396463
  H     -1.332685   -3.315777    1.774552

 Total Charge           Charge          ....    0
 Multiplicity           Mult            ....    1
 Number of Electrons    NEL             ....  202
 Basis Dimension        Dim             ....  539

ORBITAL ENERGIES
----------------

  NO   OCC          E(Eh)            E(eV)
   0   2.0000     -88.574596     -2410.2373
   1   2.0000     -88.571863     -2410.1629
   2   2.0000     -88.525136     -2408.8914
   3   2.0000     -88.520439     -2408.7636
   4   2.0000     -76.916793     -2093.0124
   5   2.0000     -76.911938     -2092.8802
   6   2.0000     -18.997658      -516.9526
   7   2.0000     -18.993792      -516.8473
   8   2.0000     -18.991652      -516.7891
   9   2.0000     -18.987757      -516.6831
  10   2.0000     -10.102294      -274.8974
  11   2.0000     -10.101932      -274.8875
  12   2.0000     -10.101609      -274.8788
  13   2.0000     -10.099638      -274.8251
  14   2.0000     -10.098573      -274.7961
  15   2.0000     -10.032931      -273.0099
  16   2.0000     -10.031935      -272.9828
  17   2.0000     -10.030511      -272.9441
  18   2.0000     -10.027965      -272.8748
  19   2.0000      -7.868885      -214.1232
  20   2.0000      -7.866141      -214.0486
  21   2.0000      -7.819854      -212.7890
  22   2.0000      -7.815324      -212.6658
  23   2.0000      -6.595486      -179.4723
  24   2.0000      -6.590516      -179.3371
  25   2.0000      -5.815765      -158.2550
  26   2.0000      -5.812958      -158.1786
  27   2.0000      -5.812824      -158.1750
  28   2.0000      -5.810123      -158.1015
  29   2.0000      -5.805917      -157.9870
  30   2.0000      -5.803189      -157.9128
  31   2.0000      -5.767404      -156.9390
  32   2.0000      -5.763051      -156.8206
  33   2.0000      -5.760160      -156.7419
  34   2.0000      -5.759935      -156.7358
  35   2.0000      -5.755729      -156.6213
  36   2.0000      -5.755091      -156.6040
  37   2.0000      -4.740910      -129.0067
  38   2.0000      -4.740342      -128.9913
  39   2.0000      -4.739316      -128.9633
  40   2.0000      -4.736383      -128.8835
  41   2.0000      -4.735183      -128.8509
  42   2.0000      -4.734166      -128.8232
  43   2.0000      -1.054763       -28.7016
  44   2.0000      -1.046487       -28.4764
  45   2.0000      -1.016162       -27.6512
  46   2.0000      -1.008110       -27.4321
  47   2.0000      -0.801139       -21.8001
  48   2.0000      -0.760549       -20.6956
  49   2.0000      -0.749642       -20.3988
  50   2.0000      -0.735094       -20.0029
  51   2.0000      -0.734964       -19.9994
  52   2.0000      -0.711600       -19.3636
  53   2.0000      -0.686930       -18.6923
  54   2.0000      -0.669709       -18.2237
  55   2.0000      -0.636693       -17.3253
  56   2.0000      -0.622786       -16.9469
  57   2.0000      -0.609652       -16.5895
  58   2.0000      -0.602394       -16.3920
  59   2.0000      -0.589306       -16.0358
  60   2.0000      -0.529249       -14.4016
  61   2.0000      -0.519870       -14.1464
  62   2.0000      -0.499690       -13.5973
  63   2.0000      -0.496569       -13.5123
  64   2.0000      -0.477855       -13.0031
  65   2.0000      -0.466741       -12.7007
  66   2.0000      -0.461850       -12.5676
  67   2.0000      -0.453536       -12.3413
  68   2.0000      -0.446890       -12.1605
  69   2.0000      -0.432984       -11.7821
  70   2.0000      -0.422338       -11.4924
  71   2.0000      -0.416299       -11.3281
  72   2.0000      -0.409804       -11.1513
  73   2.0000      -0.404791       -11.0149
  74   2.0000      -0.396815       -10.7979
  75   2.0000      -0.389428       -10.5969
  76   2.0000      -0.382332       -10.4038
  77   2.0000      -0.376768       -10.2524
  78   2.0000      -0.373153       -10.1540
  79   2.0000      -0.367270        -9.9939
  80   2.0000      -0.364075        -9.9070
  81   2.0000      -0.363059        -9.8793
  82   2.0000      -0.357146        -9.7184
  83   2.0000      -0.353699        -9.6246
  84   2.0000      -0.350386        -9.5345
  85   2.0000      -0.333635        -9.0787
  86   2.0000      -0.327793        -8.9197
  87   2.0000      -0.323675        -8.8077
  88   2.0000      -0.313325        -8.5260
  89   2.0000      -0.303513        -8.2590
  90   2.0000      -0.299832        -8.1588
  91   2.0000      -0.292693        -7.9646
  92   2.0000      -0.283680        -7.7193
  93   2.0000      -0.281816        -7.6686
  94   2.0000      -0.274776        -7.4770
  95   2.0000      -0.245400        -6.6777
  96   2.0000      -0.231024        -6.2865
  97   2.0000      -0.228652        -6.2219
  98   2.0000      -0.220709        -6.0058
  99   2.0000      -0.217566        -5.9203
 100   2.0000      -0.212302        -5.7770
 101   0.0000      -0.045533        -1.2390
 102   0.0000      -0.024594        -0.6692
 103   0.0000      -0.002142        -0.0583
 104   0.0000       0.005630         0.1532
 105   0.0000       0.015462         0.4207

MULLIKEN ATOMIC CHARGES
-----------------------
   0 C :   -0.454464
   1 C :   -0.148339
   2 O :   -0.309026
   3 P :    0.664484
   4 S :   -0.484219
   5 O :   -0.262953
   6 C :   -0.147349
   7 C :   -0.447160
   8 S :   -0.102049
   9 C :   -0.239524
  10 S :   -0.158080
  11 P :    0.642276
  12 S :   -0.442878
  13 O :   -0.317124
  14 C :   -0.151066
  15 C :   -0.448636
  16 O :   -0.250508
  17 C :   -0.089973
  18 C :   -0.459181
  19 H :    0.179054
  20 H :    0.148713
  21 H :    0.157574
  22 H :    0.170360
  23 H :    0.148988
  24 H :    0.175633
  25 H :    0.148307
  26 H :    0.169086
  27 H :    0.148784
  28 H :    0.156588
  29 H :    0.217319
  30 H :    0.211845
  31 H :    0.150083
  32 H :    0.176266
  33 H :    0.149723
  34 H :    0.178566
  35 H :    0.148045
  36 H :    0.155622
  37 H :    0.145279
  38 H :    0.153011
  39 H :    0.176503
  40 H :    0.140422
Sum of atomic charges:    0.0000000

LOEWDIN ATOMIC CHARGES
----------------------
   0 C :   -0.405995
   1 C :    0.020735
   2 O :   -0.661210
   3 P :    0.377285
   4 S :   -0.133135
   5 O :   -0.686141
   6 C :    0.017778
   7 C :   -0.398758
   8 S :    0.182381
   9 C :   -0.421401
  10 S :    0.165526
  11 P :    0.376576
  12 S :   -0.102607
  13 O :   -0.679243
  14 C :    0.021895
  15 C :   -0.399556
  16 O :   -0.666120
  17 C :    0.020480
  18 C :   -0.389540
  19 H :    0.166560
  20 H :    0.159973
  21 H :    0.161080
  22 H :    0.179457
  23 H :    0.179878
  24 H :    0.182199
  25 H :    0.178205
  26 H :    0.165547
  27 H :    0.159938
  28 H :    0.160790
  29 H :    0.192999
  30 H :    0.192400
  31 H :    0.179135
  32 H :    0.181212
  33 H :    0.161188
  34 H :    0.167874
  35 H :    0.155121
  36 H :    0.178134
  37 H :    0.169369
  38 H :    0.161178
  39 H :    0.170417
  40 H :    0.158394

  Mayer bond orders larger than 0.100000
B(  0-C ,  1-C ) :   0.9241 B(  0-C , 19-H ) :   0.9612 B(  0-C , 20-H ) :   0.9581
B(  0-C , 21-H ) :   0.9684 B(  1-C ,  2-O ) :   0.8115 B(  1-C , 22-H ) :   0.9655
B(  1-C , 23-H ) :   0.9580 B(  2-O ,  3-P ) :   1.0668 B(  3-P ,  4-S ) :   1.7564
B(  3-P ,  5-O ) :   1.1173 B(  3-P ,  8-S ) :   1.1054 B(  5-O ,  6-C ) :   0.7766
B(  6-C ,  7-C ) :   0.9155 B(  6-C , 24-H ) :   0.9589 B(  6-C , 25-H ) :   0.9636
B(  7-C , 26-H ) :   0.9593 B(  7-C , 27-H ) :   0.9624 B(  7-C , 28-H ) :   0.9742
B(  8-S ,  9-C ) :   0.9134 B(  9-C , 10-S ) :   0.9139 B(  9-C , 29-H ) :   0.9034
B(  9-C , 30-H ) :   0.9041 B( 10-S , 11-P ) :   1.0522 B( 11-P , 12-S ) :   1.8491
B( 11-P , 13-O ) :   1.0666 B( 11-P , 16-O ) :   1.0969 B( 13-O , 14-C ) :   0.7987
B( 14-C , 15-C ) :   0.9248 B( 14-C , 31-H ) :   0.9616 B( 14-C , 32-H ) :   0.9661
B( 15-C , 33-H ) :   0.9616 B( 15-C , 34-H ) :   0.9604 B( 15-C , 35-H ) :   0.9723
B( 16-O , 17-C ) :   0.7452 B( 17-C , 18-C ) :   0.9435 B( 17-C , 36-H ) :   0.9541
B( 17-C , 37-H ) :   0.9469 B( 18-C , 38-H ) :   0.9697 B( 18-C , 39-H ) :   0.9652
B( 18-C , 40-H ) :   0.9680

Dispersion correction           -0.021737324
FINAL SINGLE POINT ENERGY     -2932.465842396917

DIPOLE MOMENT
-------------

Method             : SCF
Type of density    : Electron Density
Multiplicity       :   1
Irrep              :   0
Energy             : -2932.4906215185078509 Eh
Relativity type    :
Basis              : AO
                                X                 Y                 Z
Electronic contribution:      0.626046272      15.955816440      -8.782820983
Nuclear contribution   :     -0.713448458     -17.226812481       9.995719623
                        -----------------------------------------
Total Dipole Moment    :     -0.087402186      -1.270996041       1.212898640
                        -----------------------------------------
Magnitude (a.u.)       :      1.759031889
Magnitude (Debye)      :      4.471103738

Rotational constants in cm-1:             0.013878             0.004679             0.004360
Rotational constants in MHz :           416.054036           140.277853           130.704882

                             ****ORCA TERMINATED NORMALLY****
TOTAL RUN TIME: 0 days 0 hours 1 minutes 20 seconds 648 msec
