                         Program Version 6.0.0  -   RELEASE  -
|  1> ! r2scan-3c def2/J RI DEFGRID2 scfconv6 printgap
|  2> %output
|  3>     printlevel normal
|  4> end
|  5> %cpcm
|  6>     smd true
|  7>     smdsolvent "water"
|  8> end
|  9> * xyz 0 1
| 10> C 3.8654756939 -1.5340981238 -2.5374383285
| 11> C 4.1673387116 -1.9130839852 -1.1019629616
| 12> O 2.9970377218 -1.8536335457 -0.2682807927
| 13> P 2.2772350116 -0.4855955606 0.0944958707
| 14> S 3.4709122721 1.0391735102 0.4258935301
| 15> O 1.349230806 -0.917526376 1.3027445355
| 16> C 1.7719659701 -0.7860764023 2.6758925943
| 17> C 2.9086482747 -1.7298704741 3.0068145223
| 18> S 0.8155582841 -0.2404337765 -1.4162693717
| 19> C 0.4066035026 1.4735367099 -1.0018193942
| 20> S -0.5550929009 1.6284549494 0.5288976977
| 21> P -2.3479572214 0.8346370039 -0.2758982342
| 22> S -2.8072601157 1.3499521482 -2.0999299026
| 23> O -3.3220788173 1.3281124578 0.8870905585
| 24> C -4.6987709775 1.6707480017 0.6296272895
| 25> C -5.5460595709 0.4297375452 0.4308879196
| 26> O -2.2445459706 -0.7449574788 -0.145186215
| 27> C -2.0423076429 -1.4116307454 1.1227322904
| 28> C -1.4261419703 -2.7665629119 0.8432076308
| 29> H 3.5964948693 -0.4800561816 -2.5963780413
| 30> H 4.7455374357 -1.7069020978 -3.1486115232
| 31> H 3.0374593399 -2.1261138635 -2.9193473032
| 32> H 4.9260123409 -1.2454148511 -0.6811211236
| 33> H 4.4958006159 -2.9499085914 -1.0191226541
| 34> H 2.0660400476 0.2540145925 2.8491612248
| 35> H 0.8743869497 -1.0163506103 3.2512961342
| 36> H 3.7992761988 -1.4460683749 2.4473673608
| 37> H 3.1270289469 -1.6723094008 4.0685410513
| 38> H 2.6394882933 -2.7497512935 2.7454529135
| 39> H -0.1750347942 1.8706539942 -1.8339266472
| 40> H 1.3265306678 2.0399997344 -0.8535523326
| 41> H -5.002517392 2.2365009858 1.5112191843
| 42> H -4.7405960663 2.31051475 -0.2569963346
| 43> H -6.5758335944 0.7214834764 0.2503324435
| 44> H -5.1802731061 -0.1284952286 -0.4310739237
| 45> H -5.5027904814 -0.206370531 1.3111506437
| 46> H -1.3897008723 -0.7920587242 1.7460108453
| 47> H -3.0163456726 -1.5064579999 1.6078406591
| 48> H -2.0561461231 -3.3231056613 0.1553681592
| 49> H -0.4421758245 -2.6466280747 0.3964628493
| 50> H -1.332685221 -3.3157771843 1.7745524403
| 51> *
| 52>
| 53>                          ****END OF INPUT****

CARTESIAN COORDINATES (ANGSTROEM)
---------------------------------
  C      3.865476   -1.534098   -2.537438
  C      4.167339   -1.913084   -1.101963
  O      2.997038   -1.853634   -0.268281
  P      2.277235   -0.485596    0.094496
  S      3.470912    1.039174    0.425894
  O      1.349231   -0.917526    1.302745
  C      1.771966   -0.786076    2.675893
  C      2.908648   -1.729870    3.006815
  S      0.815558   -0.240434   -1.416269
  C      0.406604    1.473537   -1.001819
  S     -0.555093    1.628455    0.528898
  P     -2.347957    0.834637   -0.275898
  S     -2.807260    1.349952   -2.099930
  O     -3.322079    1.328112    0.887091
  C     -4.698771    1.670748    0.629627
  C     -5.546060    0.429738    0.430888
  O     -2.244546   -0.744957   -0.145186
  C     -2.042308   -1.411631    1.122732
  C     -1.426142   -2.766563    0.843208
  H      3.596495   -0.480056   -2.596378
  H      4.745537   -1.706902   -3.148612
  H      3.037459   -2.126114   -2.919347
  H      4.926012   -1.245415   -0.681121
  H      4.495801   -2.949909   -1.019123
  H      2.066040    0.254015    2.849161
  H      0.874387   -1.016351    3.251296
  H      3.799276   -1.446068    2.447367
  H      3.127029   -1.672309    4.068541
  H      2.639488   -2.749751    2.745453
  H     -0.175035    1.870654   -1.833927
  H      1.326531    2.040000   -0.853552
  H     -5.002517    2.236501    1.511219
  H     -4.740596    2.310515   -0.256996
  H     -6.575834    0.721483    0.250332
  H     -5.180273   -0.128495   -0.431074
  H     -5.502790   -0.206371    1.311151
  H     -1.389701   -0.792059    1.746011
  H     -3.016346   -1.506458    1.607841
  H     -2.056146   -3.323106    0.155368
  H     -0.442176   -2.646628    0.396463
  H     -1.332685   -3.315777    1.774552

 Total Charge           Charge          ....    0
 Multiplicity           Mult            ....    1
 Number of Electrons    NEL             ....  202
 Basis Dimension        Dim             ....  539

ORBITAL ENERGIES
----------------

  NO   OCC          E(Eh)            E(eV)
   0   2.0000     -88.579013     -2410.3575
   1   2.0000     -88.578421     -2410.3414
   2   2.0000     -88.531859     -2409.0744
   3   2.0000     -88.529986     -2409.0234
   4   2.0000     -76.919777     -2093.0935
   5   2.0000     -76.919630     -2093.0895
   6   2.0000     -18.997335      -516.9438
   7   2.0000     -18.994405      -516.8640
   8   2.0000     -18.992869      -516.8222
   9   2.0000     -18.992631      -516.8158
  10   2.0000     -10.104031      -274.9447
  11   2.0000     -10.090529      -274.5773
  12   2.0000     -10.090135      -274.5665
  13   2.0000     -10.090120      -274.5661
  14   2.0000     -10.089351      -274.5452
  15   2.0000     -10.019024      -272.6315
  16   2.0000     -10.019024      -272.6315
  17   2.0000     -10.018846      -272.6266
  18   2.0000     -10.018491      -272.6170
  19   2.0000      -7.873390      -214.2458
  20   2.0000      -7.872738      -214.2281
  21   2.0000      -7.827073      -212.9855
  22   2.0000      -7.824986      -212.9287
  23   2.0000      -6.598360      -179.5505
  24   2.0000      -6.598330      -179.5497
  25   2.0000      -5.820237      -158.3767
  26   2.0000      -5.819516      -158.3571
  27   2.0000      -5.817333      -158.2977
  28   2.0000      -5.816693      -158.2803
  29   2.0000      -5.810452      -158.1104
  30   2.0000      -5.809855      -158.0942
  31   2.0000      -5.774700      -157.1376
  32   2.0000      -5.772486      -157.0773
  33   2.0000      -5.767363      -156.9379
  34   2.0000      -5.766989      -156.9277
  35   2.0000      -5.765285      -156.8814
  36   2.0000      -5.765072      -156.8756
  37   2.0000      -4.744157      -129.0951
  38   2.0000      -4.743677      -129.0820
  39   2.0000      -4.743186      -129.0686
  40   2.0000      -4.743005      -129.0637
  41   2.0000      -4.742273      -129.0438
  42   2.0000      -4.742139      -129.0402
  43   2.0000      -1.053663       -28.6716
  44   2.0000      -1.049837       -28.5675
  45   2.0000      -1.014236       -27.5988
  46   2.0000      -1.011158       -27.5150
  47   2.0000      -0.805062       -21.9068
  48   2.0000      -0.757629       -20.6161
  49   2.0000      -0.743447       -20.2302
  50   2.0000      -0.726962       -19.7816
  51   2.0000      -0.723973       -19.7003
  52   2.0000      -0.710233       -19.3264
  53   2.0000      -0.690480       -18.7889
  54   2.0000      -0.676256       -18.4019
  55   2.0000      -0.633354       -17.2345
  56   2.0000      -0.618386       -16.8271
  57   2.0000      -0.600052       -16.3283
  58   2.0000      -0.597814       -16.2674
  59   2.0000      -0.588669       -16.0185
  60   2.0000      -0.526576       -14.3289
  61   2.0000      -0.514375       -13.9968
  62   2.0000      -0.496709       -13.5161
  63   2.0000      -0.490921       -13.3586
  64   2.0000      -0.477135       -12.9835
  65   2.0000      -0.461275       -12.5519
  66   2.0000      -0.455467       -12.3939
  67   2.0000      -0.448020       -12.1913
  68   2.0000      -0.442290       -12.0353
  69   2.0000      -0.429264       -11.6809
  70   2.0000      -0.420086       -11.4311
  71   2.0000      -0.409598       -11.1457
  72   2.0000      -0.406143       -11.0517
  73   2.0000      -0.402233       -10.9453
  74   2.0000      -0.395750       -10.7689
  75   2.0000      -0.388687       -10.5767
  76   2.0000      -0.381012       -10.3679
  77   2.0000      -0.371826       -10.1179
  78   2.0000      -0.364991        -9.9319
  79   2.0000      -0.358951        -9.7676
  80   2.0000      -0.354825        -9.6553
  81   2.0000      -0.353017        -9.6061
  82   2.0000      -0.350177        -9.5288
  83   2.0000      -0.348239        -9.4761
  84   2.0000      -0.346140        -9.4189
  85   2.0000      -0.328447        -8.9375
  86   2.0000      -0.323704        -8.8084
  87   2.0000      -0.320497        -8.7212
  88   2.0000      -0.305678        -8.3179
  89   2.0000      -0.299948        -8.1620
  90   2.0000      -0.298525        -8.1233
  91   2.0000      -0.288463        -7.8495
  92   2.0000      -0.282520        -7.6878
  93   2.0000      -0.281464        -7.6590
  94   2.0000      -0.276125        -7.5137
  95   2.0000      -0.250324        -6.8117
  96   2.0000      -0.239090        -6.5060
  97   2.0000      -0.236887        -6.4460
  98   2.0000      -0.229201        -6.2369
  99   2.0000      -0.225496        -6.1361
 100   2.0000      -0.221179        -6.0186
 101   0.0000      -0.052191        -1.4202
 102   0.0000      -0.031913        -0.8684
 103   0.0000      -0.006336        -0.1724
 104   0.0000       0.000945         0.0257
 105   0.0000       0.014558         0.3962

MULLIKEN ATOMIC CHARGES
-----------------------
   0 C :   -0.490937
   1 C :   -0.148730
   2 O :   -0.332978
   3 P :    0.709519
   4 S :   -0.529237
   5 O :   -0.285042
   6 C :   -0.144940
   7 C :   -0.489081
   8 S :   -0.123691
   9 C :   -0.248815
  10 S :   -0.171608
  11 P :    0.651576
  12 S :   -0.492329
  13 O :   -0.335128
  14 C :   -0.145031
  15 C :   -0.477203
  16 O :   -0.277098
  17 C :   -0.091300
  18 C :   -0.502526
  19 H :    0.173324
  20 H :    0.173405
  21 H :    0.170297
  22 H :    0.177821
  23 H :    0.176290
  24 H :    0.177032
  25 H :    0.181154
  26 H :    0.168709
  27 H :    0.173026
  28 H :    0.170851
  29 H :    0.233955
  30 H :    0.230602
  31 H :    0.175997
  32 H :    0.177605
  33 H :    0.172341
  34 H :    0.169502
  35 H :    0.169093
  36 H :    0.170614
  37 H :    0.174898
  38 H :    0.166093
  39 H :    0.170312
  40 H :    0.171657
Sum of atomic charges:    0.0000000

LOEWDIN ATOMIC CHARGES
----------------------
   0 C :   -0.409605
   1 C :    0.026591
   2 O :   -0.670168
   3 P :    0.384047
   4 S :   -0.160085
   5 O :   -0.692787
   6 C :    0.023070
   7 C :   -0.402173
   8 S :    0.170227
   9 C :   -0.417844
  10 S :    0.157887
  11 P :    0.378207
  12 S :   -0.139510
  13 O :   -0.686642
  14 C :    0.027234
  15 C :   -0.401250
  16 O :   -0.685029
  17 C :    0.026861
  18 C :   -0.394022
  19 H :    0.161784
  20 H :    0.168864
  21 H :    0.163785
  22 H :    0.181863
  23 H :    0.191473
  24 H :    0.182318
  25 H :    0.191159
  26 H :    0.162836
  27 H :    0.168929
  28 H :    0.164306
  29 H :    0.197221
  30 H :    0.197772
  31 H :    0.190261
  32 H :    0.181521
  33 H :    0.169213
  34 H :    0.162986
  35 H :    0.162945
  36 H :    0.183578
  37 H :    0.182128
  38 H :    0.164020
  39 H :    0.165553
  40 H :    0.170473

  Mayer bond orders larger than 0.100000
B(  0-C ,  1-C ) :   0.9094 B(  0-C , 19-H ) :   0.9631 B(  0-C , 20-H ) :   0.9529
B(  0-C , 21-H ) :   0.9658 B(  1-C ,  2-O ) :   0.7998 B(  1-C , 22-H ) :   0.9646
B(  1-C , 23-H ) :   0.9482 B(  2-O ,  3-P ) :   1.0768 B(  3-P ,  4-S ) :   1.7167
B(  3-P ,  5-O ) :   1.1311 B(  3-P ,  8-S ) :   1.1051 B(  5-O ,  6-C ) :   0.7635
B(  6-C ,  7-C ) :   0.9024 B(  6-C , 24-H ) :   0.9563 B(  6-C , 25-H ) :   0.9531
B(  7-C , 26-H ) :   0.9591 B(  7-C , 27-H ) :   0.9564 B(  7-C , 28-H ) :   0.9733
B(  8-S ,  9-C ) :   0.9028 B(  9-C , 10-S ) :   0.9033 B(  9-C , 29-H ) :   0.8999
B(  9-C , 30-H ) :   0.9006 B( 10-S , 11-P ) :   1.0646 B( 11-P , 12-S ) :   1.8277
B( 11-P , 13-O ) :   1.0787 B( 11-P , 16-O ) :   1.1024 B( 13-O , 14-C ) :   0.7849
B( 14-C , 15-C ) :   0.9201 B( 14-C , 31-H ) :   0.9513 B( 14-C , 32-H ) :   0.9632
B( 15-C , 33-H ) :   0.9570 B( 15-C , 34-H ) :   0.9617 B( 15-C , 35-H ) :   0.9666
B( 16-O , 17-C ) :   0.7323 B( 17-C , 18-C ) :   0.9310 B( 17-C , 36-H ) :   0.9470
B( 17-C , 37-H ) :   0.9363 B( 18-C , 38-H ) :   0.9682 B( 18-C , 39-H ) :   0.9671
B( 18-C , 40-H ) :   0.9611

Dispersion correction           -0.021737324
FINAL SINGLE POINT ENERGY     -2932.475052692019

DIPOLE MOMENT
-------------

Method             : SCF
Type of density    : Electron Density
Multiplicity       :   1
Irrep              :   0
Energy             : -2932.4998318136099442 Eh
Relativity type    :
Basis              : AO
                                X                 Y                 Z
Electronic contribution:      0.575400123      15.587551149      -8.183500864
Nuclear contribution   :     -0.713448458     -17.226812481       9.995719623
                        -----------------------------------------
Total Dipole Moment    :     -0.138048334      -1.639261331       1.812218759
                        -----------------------------------------
Magnitude (a.u.)       :      2.447523623
Magnitude (Debye)      :      6.221110649

Rotational constants in cm-1:             0.013878             0.004679             0.004360
Rotational constants in MHz :           416.054036           140.277853           130.704882

                             ****ORCA TERMINATED NORMALLY****
TOTAL RUN TIME: 0 days 0 hours 1 minutes 56 seconds 540 msec
