                         Program Version 6.0.0  -   RELEASE  -
|  1> ! pbe def2-sv(p) def2/J RI DEFGRID1 loosescf d4 GCP(DFT/SV(P)) printgap
|  2> %output
|  3>     printlevel normal
|  4> end
|  5> * xyz 0 1
|  6> C 4.7061851665 1.0208781727 -1.6652180547
|  7> C 4.743742658 -0.2421960087 -0.8293076309
|  8> O 3.4455274558 -0.8499604602 -0.7063243017
|  9> P 2.2685200763 -0.1825598731 0.1248288413
| 10> S 2.8230526962 0.7076210465 1.7837272586
| 11> O 1.2535513844 -1.3876698965 0.276418554
| 12> C 1.2367032624 -2.2494249718 1.4310817373
| 13> C 2.4900382776 -3.0932652664 1.5233912618
| 14> S 1.22760965 0.9789786862 -1.2935418228
| 15> C 0.2586906959 1.9468013758 -0.0974464376
| 16> S -0.7849097432 0.9529264758 1.0014632973
| 17> P -2.1264261063 0.108755934 -0.4481569076
| 18> S -1.476921242 -1.2895968447 -1.6491359982
| 19> O -2.7060461527 1.3465329902 -1.2255126457
| 20> C -3.4439941974 2.4254491488 -0.591350024
| 21> C -4.9346567156 2.1690987757 -0.6672495804
| 22> O -3.3201448403 -0.3440083758 0.4978705467
| 23> C -3.2113903309 -1.5250609201 1.3168586746
| 24> C -4.6053430611 -1.9053340245 1.7730613844
| 25> H 4.2304884251 0.8256256063 -2.6233333378
| 26> H 4.1419212244 1.7945738503 -1.1458923384
| 27> H 5.719380677 1.3732993787 -1.8296518652
| 28> H 5.1195389194 -0.0258771898 0.176084052
| 29> H 5.352180854 -1.0178345233 -1.2962140464
| 30> H 1.1187748699 -1.6257566655 2.3238969548
| 31> H 0.3448333595 -2.8609705208 1.2830814168
| 32> H 2.3928124144 -3.7934511674 2.3470741256
| 33> H 2.6411885296 -3.6397803475 0.5959865803
| 34> H 3.3537282532 -2.4531580401 1.7010551131
| 35> H -0.3527115954 2.6289167184 -0.6830928173
| 36> H 0.9361218967 2.4891387773 0.5622012047
| 37> H -3.11208282 2.5233943139 0.4455718666
| 38> H -3.1663987045 3.3146143418 -1.1605882301
| 39> H -5.1933613604 1.2799824012 -0.0991391133
| 40> H -5.4625162188 3.0243773822 -0.2569100466
| 41> H -5.2348167921 2.0238128997 -1.701319508
| 42> H -2.752323166 -2.319866333 0.7191761519
| 43> H -2.561731454 -1.2920286782 2.1653924198
| 44> H -5.2336200134 -2.1178997593 0.9127323066
| 45> H -4.5455767386 -2.7892412179 2.3993591708
| 46> H -5.0455523331 -1.0914206688 2.3416414277
| 47> *
| 48>
| 49>                          ****END OF INPUT****

CARTESIAN COORDINATES (ANGSTROEM)
---------------------------------
  C      4.706185    1.020878   -1.665218
  C      4.743743   -0.242196   -0.829308
  O      3.445527   -0.849960   -0.706324
  P      2.268520   -0.182560    0.124829
  S      2.823053    0.707621    1.783727
  O      1.253551   -1.387670    0.276419
  C      1.236703   -2.249425    1.431082
  C      2.490038   -3.093265    1.523391
  S      1.227610    0.978979   -1.293542
  C      0.258691    1.946801   -0.097446
  S     -0.784910    0.952926    1.001463
  P     -2.126426    0.108756   -0.448157
  S     -1.476921   -1.289597   -1.649136
  O     -2.706046    1.346533   -1.225513
  C     -3.443994    2.425449   -0.591350
  C     -4.934657    2.169099   -0.667250
  O     -3.320145   -0.344008    0.497871
  C     -3.211390   -1.525061    1.316859
  C     -4.605343   -1.905334    1.773061
  H      4.230488    0.825626   -2.623333
  H      4.141921    1.794574   -1.145892
  H      5.719381    1.373299   -1.829652
  H      5.119539   -0.025877    0.176084
  H      5.352181   -1.017835   -1.296214
  H      1.118775   -1.625757    2.323897
  H      0.344833   -2.860971    1.283081
  H      2.392812   -3.793451    2.347074
  H      2.641189   -3.639780    0.595987
  H      3.353728   -2.453158    1.701055
  H     -0.352712    2.628917   -0.683093
  H      0.936122    2.489139    0.562201
  H     -3.112083    2.523394    0.445572
  H     -3.166399    3.314614   -1.160588
  H     -5.193361    1.279982   -0.099139
  H     -5.462516    3.024377   -0.256910
  H     -5.234817    2.023813   -1.701320
  H     -2.752323   -2.319866    0.719176
  H     -2.561731   -1.292029    2.165392
  H     -5.233620   -2.117900    0.912732
  H     -4.545577   -2.789241    2.399359
  H     -5.045552   -1.091421    2.341641

 Total Charge           Charge          ....    0
 Multiplicity           Mult            ....    1
 Number of Electrons    NEL             ....  202
 Basis Dimension        Dim             ....  334

ORBITAL ENERGIES
----------------

  NO   OCC          E(Eh)            E(eV)
   0   2.0000     -88.039156     -2395.6672
   1   2.0000     -88.036957     -2395.6074
   2   2.0000     -87.985813     -2394.2157
   3   2.0000     -87.976100     -2393.9514
   4   2.0000     -76.422835     -2079.5711
   5   2.0000     -76.422474     -2079.5612
   6   2.0000     -18.796163      -511.4696
   7   2.0000     -18.793975      -511.4101
   8   2.0000     -18.790444      -511.3140
   9   2.0000     -18.781157      -511.0613
  10   2.0000      -9.959866      -271.0217
  11   2.0000      -9.957783      -270.9651
  12   2.0000      -9.956607      -270.9331
  13   2.0000      -9.950363      -270.7632
  14   2.0000      -9.944863      -270.6135
  15   2.0000      -9.891826      -269.1703
  16   2.0000      -9.888541      -269.0809
  17   2.0000      -9.882015      -268.9033
  18   2.0000      -9.878928      -268.8193
  19   2.0000      -7.683674      -209.0834
  20   2.0000      -7.682284      -209.0456
  21   2.0000      -7.630803      -207.6447
  22   2.0000      -7.621386      -207.3885
  23   2.0000      -6.420228      -174.7033
  24   2.0000      -6.420106      -174.7000
  25   2.0000      -5.711419      -155.4156
  26   2.0000      -5.710189      -155.3822
  27   2.0000      -5.708263      -155.3297
  28   2.0000      -5.706972      -155.2946
  29   2.0000      -5.700790      -155.1264
  30   2.0000      -5.698940      -155.0760
  31   2.0000      -5.659483      -154.0024
  32   2.0000      -5.651554      -153.7866
  33   2.0000      -5.651093      -153.7741
  34   2.0000      -5.650508      -153.7581
  35   2.0000      -5.642026      -153.5273
  36   2.0000      -5.641305      -153.5077
  37   2.0000      -4.643323      -126.3512
  38   2.0000      -4.642604      -126.3317
  39   2.0000      -4.641957      -126.3141
  40   2.0000      -4.641930      -126.3133
  41   2.0000      -4.640938      -126.2863
  42   2.0000      -4.639852      -126.2568
  43   2.0000      -0.990717       -26.9588
  44   2.0000      -0.982071       -26.7235
  45   2.0000      -0.948998       -25.8236
  46   2.0000      -0.940704       -25.5979
  47   2.0000      -0.761134       -20.7115
  48   2.0000      -0.720872       -19.6159
  49   2.0000      -0.707657       -19.2563
  50   2.0000      -0.696043       -18.9403
  51   2.0000      -0.683357       -18.5951
  52   2.0000      -0.669850       -18.2275
  53   2.0000      -0.646973       -17.6050
  54   2.0000      -0.636540       -17.3211
  55   2.0000      -0.597659       -16.2631
  56   2.0000      -0.587910       -15.9979
  57   2.0000      -0.573323       -15.6009
  58   2.0000      -0.568205       -15.4616
  59   2.0000      -0.562915       -15.3177
  60   2.0000      -0.511518       -13.9191
  61   2.0000      -0.488611       -13.2958
  62   2.0000      -0.485836       -13.2203
  63   2.0000      -0.468987       -12.7618
  64   2.0000      -0.454487       -12.3672
  65   2.0000      -0.447130       -12.1670
  66   2.0000      -0.438975       -11.9451
  67   2.0000      -0.436066       -11.8660
  68   2.0000      -0.431112       -11.7311
  69   2.0000      -0.412490       -11.2244
  70   2.0000      -0.406044       -11.0490
  71   2.0000      -0.394014       -10.7217
  72   2.0000      -0.389016       -10.5857
  73   2.0000      -0.384413       -10.4604
  74   2.0000      -0.382523       -10.4090
  75   2.0000      -0.373813       -10.1720
  76   2.0000      -0.365736        -9.9522
  77   2.0000      -0.360587        -9.8121
  78   2.0000      -0.355200        -9.6655
  79   2.0000      -0.353086        -9.6080
  80   2.0000      -0.349281        -9.5044
  81   2.0000      -0.345892        -9.4122
  82   2.0000      -0.344665        -9.3788
  83   2.0000      -0.338028        -9.1982
  84   2.0000      -0.330507        -8.9935
  85   2.0000      -0.320097        -8.7103
  86   2.0000      -0.310692        -8.4543
  87   2.0000      -0.301778        -8.2118
  88   2.0000      -0.297013        -8.0821
  89   2.0000      -0.292642        -7.9632
  90   2.0000      -0.278338        -7.5740
  91   2.0000      -0.274933        -7.4813
  92   2.0000      -0.269619        -7.3367
  93   2.0000      -0.261447        -7.1143
  94   2.0000      -0.257384        -7.0038
  95   2.0000      -0.233865        -6.3638
  96   2.0000      -0.215867        -5.8740
  97   2.0000      -0.207647        -5.6504
  98   2.0000      -0.203084        -5.5262
  99   2.0000      -0.192154        -5.2288
 100   2.0000      -0.183172        -4.9844
 101   0.0000      -0.044222        -1.2033
 102   0.0000      -0.019334        -0.5261
 103   0.0000      -0.007937        -0.2160
 104   0.0000       0.004374         0.1190
 105   0.0000       0.020984         0.5710

MULLIKEN ATOMIC CHARGES
-----------------------
   0 C :   -0.315454
   1 C :   -0.004228
   2 O :   -0.368133
   3 P :    0.614964
   4 S :   -0.347322
   5 O :   -0.344176
   6 C :   -0.002366
   7 C :   -0.307360
   8 S :   -0.060224
   9 C :   -0.350480
  10 S :   -0.109873
  11 P :    0.596658
  12 S :   -0.285505
  13 O :   -0.361779
  14 C :   -0.022616
  15 C :   -0.287007
  16 O :   -0.386793
  17 C :   -0.022466
  18 C :   -0.280695
  19 H :    0.120837
  20 H :    0.124328
  21 H :    0.112262
  22 H :    0.110174
  23 H :    0.106163
  24 H :    0.107794
  25 H :    0.102504
  26 H :    0.108402
  27 H :    0.119662
  28 H :    0.120215
  29 H :    0.181532
  30 H :    0.191374
  31 H :    0.104385
  32 H :    0.109117
  33 H :    0.125860
  34 H :    0.109527
  35 H :    0.121321
  36 H :    0.110779
  37 H :    0.105932
  38 H :    0.123372
  39 H :    0.112849
  40 H :    0.116464
Sum of atomic charges:   -0.0000000

LOEWDIN ATOMIC CHARGES
----------------------
   0 C :   -0.369528
   1 C :   -0.119105
   2 O :   -0.241056
   3 P :    0.574401
   4 S :   -0.334234
   5 O :   -0.228580
   6 C :   -0.117677
   7 C :   -0.365176
   8 S :    0.102568
   9 C :   -0.477026
  10 S :    0.063721
  11 P :    0.559677
  12 S :   -0.296863
  13 O :   -0.236993
  14 C :   -0.116990
  15 C :   -0.358492
  16 O :   -0.252453
  17 C :   -0.121589
  18 C :   -0.350392
  19 H :    0.125722
  20 H :    0.120145
  21 H :    0.130667
  22 H :    0.109816
  23 H :    0.119168
  24 H :    0.107970
  25 H :    0.116150
  26 H :    0.128578
  27 H :    0.127696
  28 H :    0.120999
  29 H :    0.130112
  30 H :    0.131824
  31 H :    0.105826
  32 H :    0.118889
  33 H :    0.127139
  34 H :    0.129852
  35 H :    0.129598
  36 H :    0.109142
  37 H :    0.109118
  38 H :    0.130007
  39 H :    0.131450
  40 H :    0.125921

  Mayer bond orders larger than 0.100000
B(  0-C ,  1-C ) :   1.1661 B(  0-C , 19-H ) :   0.9446 B(  0-C , 20-H ) :   0.9353
B(  0-C , 21-H ) :   0.9379 B(  1-C ,  2-O ) :   0.9087 B(  1-C , 22-H ) :   0.9157
B(  1-C , 23-H ) :   0.9338 B(  2-O ,  3-P ) :   1.1134 B(  3-P ,  4-S ) :   1.5738
B(  3-P ,  5-O ) :   1.1411 B(  3-P ,  8-S ) :   0.9667 B(  4-S ,  8-S ) :   0.1101
B(  5-O ,  6-C ) :   0.9097 B(  6-C ,  7-C ) :   1.1646 B(  6-C , 24-H ) :   0.9176
B(  6-C , 25-H ) :   0.9299 B(  7-C , 26-H ) :   0.9395 B(  7-C , 27-H ) :   0.9455
B(  7-C , 28-H ) :   0.9364 B(  8-S ,  9-C ) :   1.0069 B(  9-C , 10-S ) :   1.0005
B(  9-C , 29-H ) :   0.9038 B(  9-C , 30-H ) :   0.8884 B( 10-S , 11-P ) :   0.9330
B( 10-S , 12-S ) :   0.1137 B( 11-P , 12-S ) :   1.7120 B( 11-P , 13-O ) :   1.1244
B( 11-P , 16-O ) :   1.0610 B( 13-O , 14-C ) :   0.8890 B( 14-C , 15-C ) :   1.1703
B( 14-C , 31-H ) :   0.9080 B( 14-C , 32-H ) :   0.9333 B( 15-C , 33-H ) :   0.9405
B( 15-C , 34-H ) :   0.9391 B( 15-C , 35-H ) :   0.9468 B( 16-O , 17-C ) :   0.9102
B( 17-C , 18-C ) :   1.1595 B( 17-C , 36-H ) :   0.9064 B( 17-C , 37-H ) :   0.9283
B( 18-C , 38-H ) :   0.9506 B( 18-C , 39-H ) :   0.9416 B( 18-C , 40-H ) :   0.9505

Dispersion correction           -0.065512932
FINAL SINGLE POINT ENERGY     -2929.517382435578

DIPOLE MOMENT
-------------

Method             : SCF
Type of density    : Electron Density
Multiplicity       :   1
Irrep              :   0
Energy             : -2929.6356375565896997 Eh
Relativity type    :
Basis              : AO
                                X                 Y                 Z
Electronic contribution:      6.479146554       3.835596011      -6.404744338
Nuclear contribution   :     -7.056172958      -3.509146256       7.009674264
                        -----------------------------------------
Total Dipole Moment    :     -0.577026404       0.326449755       0.604929926
                        -----------------------------------------
Magnitude (a.u.)       :      0.897479320
Magnitude (Debye)      :      2.281211139

Rotational constants in cm-1:             0.013208             0.004934             0.004367
Rotational constants in MHz :           395.972224           147.915026           130.916308

                             ****ORCA TERMINATED NORMALLY****
TOTAL RUN TIME: 0 days 0 hours 0 minutes 20 seconds 892 msec
