                         Program Version 6.0.0  -   RELEASE  -
|  1> ! pbe def2-sv(p) def2/J RI DEFGRID1 loosescf d4 GCP(DFT/SV(P)) printgap
|  2> %output
|  3>     printlevel normal
|  4> end
|  5> * xyz 0 1
|  6> C 3.1100868356 2.2685937929 -1.9067956858
|  7> C 3.8621487796 1.9618469021 -0.6271569861
|  8> O 3.6682848069 0.6011651339 -0.2102124524
|  9> P 2.2961790063 0.0932951479 0.4165792638
| 10> S 1.5148065304 1.37580459 1.6796813259
| 11> O 2.7322571033 -1.3018545083 1.0185197535
| 12> C 2.8469232992 -1.5658182662 2.435819846
| 13> C 1.7631861248 -2.5307635731 2.8742665239
| 14> S 1.2086589441 -0.5528317799 -1.2882606805
| 15> C 0.1420349174 -1.7857010608 -0.4899541726
| 16> S -1.0065592311 -1.0801419321 0.7164832118
| 17> P -2.2353402445 -0.0572877559 -0.6964095494
| 18> S -2.4191269869 -0.9244112558 -2.438008066
| 19> O -1.6388141865 1.3977809919 -0.8150666603
| 20> C -1.6645066738 2.3567894138 0.2740107212
| 21> C -0.8855101238 3.5746606449 -0.1725230329
| 22> O -3.5866970517 0.2071449601 0.0986784684
| 23> C -4.6729458389 -0.7386517376 0.1169304268
| 24> C -4.3127028372 -2.0192102124 0.8412557305
| 25> H 3.3280030025 3.2840773693 -2.2216998617
| 26> H 3.4008351725 1.5750896292 -2.6916834302
| 27> H 2.0364228305 2.170240026 -1.7432349694
| 28> H 3.5364317385 2.6228436964 0.1835914567
| 29> H 4.9407492913 2.048011303 -0.7643449634
| 30> H 3.8427132919 -1.9902705381 2.5714870227
| 31> H 2.7708369061 -0.6210119512 2.9829908361
| 32> H 0.7795089124 -2.0917289716 2.712535327
| 33> H 1.8342966007 -3.4597757925 2.315262804
| 34> H 1.8854622713 -2.7420791496 3.9315594904
| 35> H 0.7529441136 -2.5168199278 0.0325529337
| 36> H -0.4272638532 -2.2449307863 -1.2994340412
| 37> H -2.7070479869 2.5985121796 0.4867416721
| 38> H -1.2097479215 1.8988670584 1.1574861247
| 39> H -1.2879531974 3.954531906 -1.1070927759
| 40> H -0.9553731222 4.3386103311 0.594709409
| 41> H 0.1605668599 3.3166910842 -0.315008327
| 42> H -5.4738865785 -0.1996129414 0.6249293231
| 43> H -4.9616321852 -0.9491557299 -0.9173064733
| 44> H -3.5688273398 -2.5736934384 0.2714374338
| 45> H -3.9087570382 -1.7970104627 1.8258791091
| 46> H -5.2024950381 -2.6316539225 0.9458237665
| 47> *
| 48>
| 49>                          ****END OF INPUT****

CARTESIAN COORDINATES (ANGSTROEM)
---------------------------------
  C      3.110087    2.268594   -1.906796
  C      3.862149    1.961847   -0.627157
  O      3.668285    0.601165   -0.210212
  P      2.296179    0.093295    0.416579
  S      1.514807    1.375805    1.679681
  O      2.732257   -1.301855    1.018520
  C      2.846923   -1.565818    2.435820
  C      1.763186   -2.530764    2.874267
  S      1.208659   -0.552832   -1.288261
  C      0.142035   -1.785701   -0.489954
  S     -1.006559   -1.080142    0.716483
  P     -2.235340   -0.057288   -0.696410
  S     -2.419127   -0.924411   -2.438008
  O     -1.638814    1.397781   -0.815067
  C     -1.664507    2.356789    0.274011
  C     -0.885510    3.574661   -0.172523
  O     -3.586697    0.207145    0.098678
  C     -4.672946   -0.738652    0.116930
  C     -4.312703   -2.019210    0.841256
  H      3.328003    3.284077   -2.221700
  H      3.400835    1.575090   -2.691683
  H      2.036423    2.170240   -1.743235
  H      3.536432    2.622844    0.183591
  H      4.940749    2.048011   -0.764345
  H      3.842713   -1.990271    2.571487
  H      2.770837   -0.621012    2.982991
  H      0.779509   -2.091729    2.712535
  H      1.834297   -3.459776    2.315263
  H      1.885462   -2.742079    3.931559
  H      0.752944   -2.516820    0.032553
  H     -0.427264   -2.244931   -1.299434
  H     -2.707048    2.598512    0.486742
  H     -1.209748    1.898867    1.157486
  H     -1.287953    3.954532   -1.107093
  H     -0.955373    4.338610    0.594709
  H      0.160567    3.316691   -0.315008
  H     -5.473887   -0.199613    0.624929
  H     -4.961632   -0.949156   -0.917306
  H     -3.568827   -2.573693    0.271437
  H     -3.908757   -1.797010    1.825879
  H     -5.202495   -2.631654    0.945824

 Total Charge           Charge          ....    0
 Multiplicity           Mult            ....    1
 Number of Electrons    NEL             ....  202
 Basis Dimension        Dim             ....  334

ORBITAL ENERGIES
----------------

  NO   OCC          E(Eh)            E(eV)
   0   2.0000     -88.040761     -2395.7109
   1   2.0000     -88.040209     -2395.6959
   2   2.0000     -87.989666     -2394.3205
   3   2.0000     -87.985779     -2394.2148
   4   2.0000     -76.428343     -2079.7209
   5   2.0000     -76.424405     -2079.6138
   6   2.0000     -18.796713      -511.4846
   7   2.0000     -18.794586      -511.4267
   8   2.0000     -18.790442      -511.3139
   9   2.0000     -18.784999      -511.1658
  10   2.0000      -9.956323      -270.9253
  11   2.0000      -9.954807      -270.8841
  12   2.0000      -9.954267      -270.8694
  13   2.0000      -9.951686      -270.7991
  14   2.0000      -9.943247      -270.5695
  15   2.0000      -9.891101      -269.1505
  16   2.0000      -9.885621      -269.0014
  17   2.0000      -9.884842      -268.9802
  18   2.0000      -9.877265      -268.7740
  19   2.0000      -7.685348      -209.1290
  20   2.0000      -7.685257      -209.1265
  21   2.0000      -7.634488      -207.7450
  22   2.0000      -7.631046      -207.6513
  23   2.0000      -6.426002      -174.8604
  24   2.0000      -6.421953      -174.7502
  25   2.0000      -5.713315      -155.4672
  26   2.0000      -5.713082      -155.4609
  27   2.0000      -5.709986      -155.3766
  28   2.0000      -5.709848      -155.3729
  29   2.0000      -5.702385      -155.1698
  30   2.0000      -5.701989      -155.1590
  31   2.0000      -5.663160      -154.1024
  32   2.0000      -5.659981      -154.0159
  33   2.0000      -5.655186      -153.8854
  34   2.0000      -5.654798      -153.8749
  35   2.0000      -5.651553      -153.7866
  36   2.0000      -5.651269      -153.7788
  37   2.0000      -4.648638      -126.4959
  38   2.0000      -4.647873      -126.4750
  39   2.0000      -4.646279      -126.4317
  40   2.0000      -4.644893      -126.3940
  41   2.0000      -4.643496      -126.3559
  42   2.0000      -4.642305      -126.3235
  43   2.0000      -0.988688       -26.9036
  44   2.0000      -0.985860       -26.8266
  45   2.0000      -0.948451       -25.8087
  46   2.0000      -0.940708       -25.5980
  47   2.0000      -0.762898       -20.7595
  48   2.0000      -0.722171       -19.6513
  49   2.0000      -0.709353       -19.3025
  50   2.0000      -0.688369       -18.7315
  51   2.0000      -0.687198       -18.6996
  52   2.0000      -0.672923       -18.3112
  53   2.0000      -0.652902       -17.7664
  54   2.0000      -0.638153       -17.3650
  55   2.0000      -0.601515       -16.3681
  56   2.0000      -0.591125       -16.0853
  57   2.0000      -0.575286       -15.6543
  58   2.0000      -0.564524       -15.3615
  59   2.0000      -0.559167       -15.2157
  60   2.0000      -0.504011       -13.7148
  61   2.0000      -0.500119       -13.6089
  62   2.0000      -0.474384       -12.9087
  63   2.0000      -0.472637       -12.8611
  64   2.0000      -0.462173       -12.5764
  65   2.0000      -0.443653       -12.0724
  66   2.0000      -0.440615       -11.9897
  67   2.0000      -0.434417       -11.8211
  68   2.0000      -0.427889       -11.6435
  69   2.0000      -0.419025       -11.4023
  70   2.0000      -0.410312       -11.1652
  71   2.0000      -0.395391       -10.7591
  72   2.0000      -0.391869       -10.6633
  73   2.0000      -0.387118       -10.5340
  74   2.0000      -0.377896       -10.2831
  75   2.0000      -0.375121       -10.2076
  76   2.0000      -0.364101        -9.9077
  77   2.0000      -0.361610        -9.8399
  78   2.0000      -0.357689        -9.7332
  79   2.0000      -0.352878        -9.6023
  80   2.0000      -0.348357        -9.4793
  81   2.0000      -0.345642        -9.4054
  82   2.0000      -0.339185        -9.2297
  83   2.0000      -0.336613        -9.1597
  84   2.0000      -0.332390        -9.0448
  85   2.0000      -0.318916        -8.6781
  86   2.0000      -0.307410        -8.3650
  87   2.0000      -0.298915        -8.1339
  88   2.0000      -0.297747        -8.1021
  89   2.0000      -0.294410        -8.0113
  90   2.0000      -0.287549        -7.8246
  91   2.0000      -0.276144        -7.5143
  92   2.0000      -0.266581        -7.2540
  93   2.0000      -0.263567        -7.1720
  94   2.0000      -0.256805        -6.9880
  95   2.0000      -0.240961        -6.5569
  96   2.0000      -0.218853        -5.9553
  97   2.0000      -0.208927        -5.6852
  98   2.0000      -0.206800        -5.6273
  99   2.0000      -0.201191        -5.4747
 100   2.0000      -0.194169        -5.2836
 101   0.0000      -0.047078        -1.2811
 102   0.0000      -0.025931        -0.7056
 103   0.0000      -0.014536        -0.3955
 104   0.0000      -0.000026        -0.0007
 105   0.0000       0.014644         0.3985

MULLIKEN ATOMIC CHARGES
-----------------------
   0 C :   -0.344358
   1 C :   -0.005016
   2 O :   -0.364015
   3 P :    0.607620
   4 S :   -0.329094
   5 O :   -0.372596
   6 C :   -0.005986
   7 C :   -0.314879
   8 S :   -0.070507
   9 C :   -0.373216
  10 S :   -0.104508
  11 P :    0.627970
  12 S :   -0.317850
  13 O :   -0.357061
  14 C :   -0.021965
  15 C :   -0.290737
  16 O :   -0.387529
  17 C :    0.000067
  18 C :   -0.315601
  19 H :    0.115902
  20 H :    0.123590
  21 H :    0.155227
  22 H :    0.109579
  23 H :    0.106541
  24 H :    0.109255
  25 H :    0.113878
  26 H :    0.132403
  27 H :    0.120942
  28 H :    0.115607
  29 H :    0.192880
  30 H :    0.194684
  31 H :    0.102567
  32 H :    0.120580
  33 H :    0.114559
  34 H :    0.104793
  35 H :    0.131061
  36 H :    0.105061
  37 H :    0.113497
  38 H :    0.125789
  39 H :    0.117535
  40 H :    0.113330
Sum of atomic charges:    0.0000000

LOEWDIN ATOMIC CHARGES
----------------------
   0 C :   -0.370571
   1 C :   -0.121723
   2 O :   -0.243536
   3 P :    0.569547
   4 S :   -0.307548
   5 O :   -0.241609
   6 C :   -0.116308
   7 C :   -0.361016
   8 S :    0.095173
   9 C :   -0.484617
  10 S :    0.077049
  11 P :    0.575782
  12 S :   -0.310182
  13 O :   -0.235419
  14 C :   -0.117897
  15 C :   -0.353246
  16 O :   -0.247255
  17 C :   -0.115459
  18 C :   -0.370780
  19 H :    0.132601
  20 H :    0.128152
  21 H :    0.123302
  22 H :    0.107241
  23 H :    0.119529
  24 H :    0.119546
  25 H :    0.108875
  26 H :    0.121011
  27 H :    0.124711
  28 H :    0.133426
  29 H :    0.131673
  30 H :    0.129404
  31 H :    0.109954
  32 H :    0.105048
  33 H :    0.126217
  34 H :    0.129542
  35 H :    0.121954
  36 H :    0.118797
  37 H :    0.113237
  38 H :    0.120664
  39 H :    0.123517
  40 H :    0.131214

  Mayer bond orders larger than 0.100000
B(  0-C ,  1-C ) :   1.1622 B(  0-C , 19-H ) :   0.9392 B(  0-C , 20-H ) :   0.9429
B(  0-C , 21-H ) :   0.9236 B(  1-C ,  2-O ) :   0.9136 B(  1-C , 22-H ) :   0.9119
B(  1-C , 23-H ) :   0.9323 B(  2-O ,  3-P ) :   1.1163 B(  3-P ,  4-S ) :   1.6016
B(  3-P ,  5-O ) :   1.1172 B(  3-P ,  8-S ) :   0.9706 B(  4-S ,  8-S ) :   0.1071
B(  5-O ,  6-C ) :   0.8962 B(  6-C ,  7-C ) :   1.1694 B(  6-C , 24-H ) :   0.9319
B(  6-C , 25-H ) :   0.9027 B(  7-C , 26-H ) :   0.9351 B(  7-C , 27-H ) :   0.9431
B(  7-C , 28-H ) :   0.9379 B(  8-S ,  9-C ) :   0.9999 B(  9-C , 10-S ) :   1.0142
B(  9-C , 29-H ) :   0.8911 B(  9-C , 30-H ) :   0.8723 B( 10-S , 11-P ) :   0.9382
B( 10-S , 12-S ) :   0.1071 B( 11-P , 12-S ) :   1.6287 B( 11-P , 13-O ) :   1.1497
B( 11-P , 16-O ) :   1.0853 B( 13-O , 14-C ) :   0.8866 B( 14-C , 15-C ) :   1.1700
B( 14-C , 31-H ) :   0.9278 B( 14-C , 32-H ) :   0.9053 B( 15-C , 33-H ) :   0.9493
B( 15-C , 34-H ) :   0.9391 B( 15-C , 35-H ) :   0.9331 B( 16-O , 17-C ) :   0.9075
B( 17-C , 18-C ) :   1.1663 B( 17-C , 36-H ) :   0.9344 B( 17-C , 37-H ) :   0.9188
B( 18-C , 38-H ) :   0.9352 B( 18-C , 39-H ) :   0.9437 B( 18-C , 40-H ) :   0.9368

Dispersion correction           -0.066282354
FINAL SINGLE POINT ENERGY     -2929.522495971945

DIPOLE MOMENT
-------------

Method             : SCF
Type of density    : Electron Density
Multiplicity       :   1
Irrep              :   0
Energy             : -2929.6409565721296531 Eh
Relativity type    :
Basis              : AO
                                X                 Y                 Z
Electronic contribution:      0.611733000      -3.868386804      -8.180167031
Nuclear contribution   :     -0.423996669       3.758475782       9.274936018
                        -----------------------------------------
Total Dipole Moment    :      0.187736331      -0.109911022       1.094768988
                        -----------------------------------------
Magnitude (a.u.)       :      1.116174045
Magnitude (Debye)      :      2.837088956

Rotational constants in cm-1:             0.011320             0.005565             0.004866
Rotational constants in MHz :           339.374071           166.820494           145.871029

                             ****ORCA TERMINATED NORMALLY****
TOTAL RUN TIME: 0 days 0 hours 0 minutes 21 seconds 355 msec
