                         Program Version 6.0.1  -  RELEASE   -
|  1> ! pbe def2-sv(p) def2/J RI DEFGRID1 loosescf d4 GCP(DFT/SV(P)) printgap
|  2> %output
|  3>     printlevel normal
|  4> end
|  5> * xyz 0 1
|  6> C 2.1831394705 -3.7726148785 0.5275850315
|  7> C 2.7962120355 -2.3867324666 0.4767223242
|  8> O 2.2744058074 -1.699962 -0.6769031973
|  9> C 2.0822489336 -0.4039277657 -0.626143409
| 10> O 2.3077763131 0.3039139033 0.3355298644
| 11> C 1.5617038392 0.1452668415 -1.9419051837
| 12> C 0.2859038113 0.9653276781 -1.7278385973
| 13> H 0.1159843441 1.6133062193 -2.5908154805
| 14> C 0.3742812904 1.8205371578 -0.4766316884
| 15> O -0.3231951519 1.6107873528 0.5014945638
| 16> O 1.2036815744 2.8085073168 -0.6235798649
| 17> C 1.4744321846 3.6916569807 0.4886134112
| 18> C 2.930317072 3.5495802684 0.8954112586
| 19> S -1.202389037 -0.0802423718 -1.6226109409
| 20> P -1.637968266 -0.4257279742 0.4381479729
| 21> S -0.3289736831 -1.0857767513 1.7386328779
| 22> O -2.6542628461 0.6701260494 0.9706063389
| 23> C -3.9013656498 0.9520299859 0.3090463263
| 24> O -2.7233321902 -1.5905788283 0.1387714128
| 25> C -2.3351028575 -2.9182877709 -0.2102113444
| 26> H 1.1168585181 -3.6943073636 0.7220501156
| 27> H 2.3404207874 -4.2838841553 -0.4170357899
| 28> H 2.6453721148 -4.337773565 1.3295193886
| 29> H 3.8824768728 -2.4322734698 0.3593846106
| 30> H 2.5482604192 -1.8061859562 1.370515925
| 31> H 1.3717414496 -0.6727586214 -2.6351370626
| 32> H 2.3338031742 0.80403383 -2.3448497379
| 33> H 1.2569372538 4.6963940351 0.1210264995
| 34> H 0.803244351 3.4343759755 1.311766986
| 35> H 3.130836891 4.1979461638 1.7416675673
| 36> H 3.1310133856 2.518621175 1.1781301609
| 37> H 3.5788841559 3.8220303816 0.06844795
| 38> H -3.7418088272 1.08440553 -0.761436635
| 39> H -4.2587143826 1.8730764071 0.7628377931
| 40> H -4.6005319631 0.1356331425 0.4810421178
| 41> H -1.9741715767 -2.9446148469 -1.2383360613
| 42> H -3.2306043532 -3.5249840785 -0.1023012202
| 43> H -1.555083799 -3.2676160638 0.4691896432
| 44> *
| 45>
| 46>                          ****END OF INPUT****

CARTESIAN COORDINATES (ANGSTROEM)
---------------------------------
  C      2.183139   -3.772615    0.527585
  C      2.796212   -2.386732    0.476722
  O      2.274406   -1.699962   -0.676903
  C      2.082249   -0.403928   -0.626143
  O      2.307776    0.303914    0.335530
  C      1.561704    0.145267   -1.941905
  C      0.285904    0.965328   -1.727839
  H      0.115984    1.613306   -2.590815
  C      0.374281    1.820537   -0.476632
  O     -0.323195    1.610787    0.501495
  O      1.203682    2.808507   -0.623580
  C      1.474432    3.691657    0.488613
  C      2.930317    3.549580    0.895411
  S     -1.202389   -0.080242   -1.622611
  P     -1.637968   -0.425728    0.438148
  S     -0.328974   -1.085777    1.738633
  O     -2.654263    0.670126    0.970606
  C     -3.901366    0.952030    0.309046
  O     -2.723332   -1.590579    0.138771
  C     -2.335103   -2.918288   -0.210211
  H      1.116859   -3.694307    0.722050
  H      2.340421   -4.283884   -0.417036
  H      2.645372   -4.337774    1.329519
  H      3.882477   -2.432273    0.359385
  H      2.548260   -1.806186    1.370516
  H      1.371741   -0.672759   -2.635137
  H      2.333803    0.804034   -2.344850
  H      1.256937    4.696394    0.121026
  H      0.803244    3.434376    1.311767
  H      3.130837    4.197946    1.741668
  H      3.131013    2.518621    1.178130
  H      3.578884    3.822030    0.068448
  H     -3.741809    1.084406   -0.761437
  H     -4.258714    1.873076    0.762838
  H     -4.600532    0.135633    0.481042
  H     -1.974172   -2.944615   -1.238336
  H     -3.230604   -3.524984   -0.102301
  H     -1.555084   -3.267616    0.469190

 Total Charge           Charge          ....    0
 Multiplicity           Mult            ....    1
 Number of Electrons    NEL             ....  174
 Basis Dimension        Dim             ....  316

ORBITAL ENERGIES
----------------

  NO   OCC          E(Eh)            E(eV)
   0   2.0000     -88.034325     -2395.5358
   1   2.0000     -87.961883     -2393.5645
   2   2.0000     -76.416132     -2079.3887
   3   2.0000     -18.814819      -511.9773
   4   2.0000     -18.803644      -511.6732
   5   2.0000     -18.773407      -510.8504
   6   2.0000     -18.772497      -510.8256
   7   2.0000     -18.752079      -510.2700
   8   2.0000     -18.739042      -509.9153
   9   2.0000     -10.025861      -272.8175
  10   2.0000     -10.012434      -272.4522
  11   2.0000      -9.954621      -270.8790
  12   2.0000      -9.949611      -270.7427
  13   2.0000      -9.940167      -270.4857
  14   2.0000      -9.936186      -270.3774
  15   2.0000      -9.929906      -270.2065
  16   2.0000      -9.917179      -269.8601
  17   2.0000      -9.881604      -268.8921
  18   2.0000      -9.879217      -268.8272
  19   2.0000      -7.679152      -208.9604
  20   2.0000      -7.607142      -207.0009
  21   2.0000      -6.411004      -174.4523
  22   2.0000      -5.707256      -155.3023
  23   2.0000      -5.703200      -155.1920
  24   2.0000      -5.696370      -155.0061
  25   2.0000      -5.636493      -153.3768
  26   2.0000      -5.627843      -153.1414
  27   2.0000      -5.626674      -153.1096
  28   2.0000      -4.634215      -126.1034
  29   2.0000      -4.633112      -126.0734
  30   2.0000      -4.631144      -126.0198
  31   2.0000      -1.025379       -27.9020
  32   2.0000      -1.010222       -27.4895
  33   2.0000      -0.968547       -26.3555
  34   2.0000      -0.931412       -25.3450
  35   2.0000      -0.921076       -25.0638
  36   2.0000      -0.916802       -24.9474
  37   2.0000      -0.766436       -20.8558
  38   2.0000      -0.710623       -19.3370
  39   2.0000      -0.706057       -19.2128
  40   2.0000      -0.683774       -18.6064
  41   2.0000      -0.654932       -17.8216
  42   2.0000      -0.622992       -16.9525
  43   2.0000      -0.619164       -16.8483
  44   2.0000      -0.604330       -16.4446
  45   2.0000      -0.587267       -15.9804
  46   2.0000      -0.560740       -15.2585
  47   2.0000      -0.510554       -13.8929
  48   2.0000      -0.504737       -13.7346
  49   2.0000      -0.500378       -13.6160
  50   2.0000      -0.487452       -13.2642
  51   2.0000      -0.463967       -12.6252
  52   2.0000      -0.459105       -12.4929
  53   2.0000      -0.447180       -12.1684
  54   2.0000      -0.438135       -11.9223
  55   2.0000      -0.425415       -11.5761
  56   2.0000      -0.420663       -11.4468
  57   2.0000      -0.413930       -11.2636
  58   2.0000      -0.412154       -11.2153
  59   2.0000      -0.406733       -11.0678
  60   2.0000      -0.400282       -10.8922
  61   2.0000      -0.392661       -10.6849
  62   2.0000      -0.383957       -10.4480
  63   2.0000      -0.381437       -10.3794
  64   2.0000      -0.374582       -10.1929
  65   2.0000      -0.360210        -9.8018
  66   2.0000      -0.355022        -9.6606
  67   2.0000      -0.350833        -9.5466
  68   2.0000      -0.344216        -9.3666
  69   2.0000      -0.338977        -9.2240
  70   2.0000      -0.331594        -9.0231
  71   2.0000      -0.329941        -8.9782
  72   2.0000      -0.313924        -8.5423
  73   2.0000      -0.308280        -8.3887
  74   2.0000      -0.299431        -8.1479
  75   2.0000      -0.292411        -7.9569
  76   2.0000      -0.283034        -7.7017
  77   2.0000      -0.280981        -7.6459
  78   2.0000      -0.272400        -7.4124
  79   2.0000      -0.257783        -7.0146
  80   2.0000      -0.254279        -6.9193
  81   2.0000      -0.244142        -6.6434
  82   2.0000      -0.238316        -6.4849
  83   2.0000      -0.226094        -6.1523
  84   2.0000      -0.223978        -6.0947
  85   2.0000      -0.182749        -4.9729
  86   2.0000      -0.172441        -4.6923
  87   0.0000      -0.039706        -1.0804
  88   0.0000      -0.029686        -0.8078
  89   0.0000      -0.023837        -0.6486
  90   0.0000       0.003811         0.1037
  91   0.0000       0.031679         0.8620

MULLIKEN ATOMIC CHARGES
-----------------------
   0 C :   -0.298708
   1 C :   -0.028006
   2 O :   -0.218691
   3 C :    0.106593
   4 O :   -0.196979
   5 C :   -0.033104
   6 C :   -0.293282
   7 H :    0.145026
   8 C :    0.223262
   9 O :   -0.189437
  10 O :   -0.223579
  11 C :   -0.023089
  12 C :   -0.302949
  13 S :   -0.114933
  14 P :    0.638134
  15 S :   -0.326948
  16 O :   -0.366183
  17 C :   -0.096117
  18 O :   -0.409154
  19 C :   -0.111406
  20 H :    0.134830
  21 H :    0.106596
  22 H :    0.107723
  23 H :    0.098947
  24 H :    0.133162
  25 H :    0.115165
  26 H :    0.123683
  27 H :    0.104864
  28 H :    0.129447
  29 H :    0.110428
  30 H :    0.147559
  31 H :    0.106218
  32 H :    0.106991
  33 H :    0.123244
  34 H :    0.120908
  35 H :    0.107056
  36 H :    0.115442
  37 H :    0.127286
Sum of atomic charges:    0.0000000

LOEWDIN ATOMIC CHARGES
----------------------
   0 C :   -0.354598
   1 C :   -0.110338
   2 O :   -0.043696
   3 C :    0.029630
   4 O :   -0.154854
   5 C :   -0.245725
   6 C :   -0.260175
   7 H :    0.146656
   8 C :    0.025028
   9 O :   -0.143019
  10 O :   -0.037901
  11 C :   -0.103428
  12 C :   -0.356550
  13 S :    0.086234
  14 P :    0.585515
  15 S :   -0.315102
  16 O :   -0.241495
  17 C :   -0.209258
  18 O :   -0.274746
  19 C :   -0.223336
  20 H :    0.125874
  21 H :    0.122390
  22 H :    0.129711
  23 H :    0.113697
  24 H :    0.123241
  25 H :    0.135263
  26 H :    0.148006
  27 H :    0.117403
  28 H :    0.128406
  29 H :    0.129576
  30 H :    0.138048
  31 H :    0.121972
  32 H :    0.104125
  33 H :    0.121491
  34 H :    0.114936
  35 H :    0.103672
  36 H :    0.117887
  37 H :    0.105459

  Mayer bond orders larger than 0.100000
B(  0-C ,  1-C ) :   1.1683 B(  0-C , 20-H ) :   0.9367 B(  0-C , 21-H ) :   0.9475
B(  0-C , 22-H ) :   0.9421 B(  1-C ,  2-O ) :   0.8961 B(  1-C , 23-H ) :   0.9347
B(  1-C , 24-H ) :   0.9070 B(  2-O ,  3-C ) :   1.2676 B(  2-O ,  4-O ) :   0.1035
B(  3-C ,  4-O ) :   1.9529 B(  3-C ,  5-C ) :   1.0000 B(  4-O ,  8-C ) :   0.1032
B(  5-C ,  6-C ) :   1.0269 B(  5-C , 25-H ) :   0.9046 B(  5-C , 26-H ) :   0.8782
B(  6-C ,  7-H ) :   0.8787 B(  6-C ,  8-C ) :   0.9019 B(  6-C , 13-S ) :   1.0284
B(  8-C ,  9-O ) :   1.9146 B(  8-C , 10-O ) :   1.2698 B(  9-O , 14-P ) :   0.1613
B( 10-O , 11-C ) :   0.8902 B( 11-C , 12-C ) :   1.1782 B( 11-C , 27-H ) :   0.9370
B( 11-C , 28-H ) :   0.9079 B( 12-C , 29-H ) :   0.9424 B( 12-C , 30-H ) :   0.9324
B( 12-C , 31-H ) :   0.9502 B( 13-S , 14-P ) :   0.9345 B( 13-S , 15-S ) :   0.1101
B( 14-P , 15-S ) :   1.6126 B( 14-P , 16-O ) :   1.1041 B( 14-P , 18-O ) :   1.0003
B( 16-O , 17-C ) :   0.9301 B( 17-C , 32-H ) :   0.9382 B( 17-C , 33-H ) :   0.9587
B( 17-C , 34-H ) :   0.9489 B( 18-O , 19-C ) :   0.9469 B( 19-C , 35-H ) :   0.9476
B( 19-C , 36-H ) :   0.9571 B( 19-C , 37-H ) :   0.9251

Dispersion correction           -0.054012378
FINAL SINGLE POINT ENERGY     -1979.007470752749

DIPOLE MOMENT
-------------

Method             : SCF
Type of density    : Electron Density
Multiplicity       :   1
Irrep              :   0
Energy             : -1979.1369622706224618 Eh
Relativity type    :
Basis              : AO
                                X                 Y                 Z
Electronic contribution:     -9.482000924       2.596901104      -0.814797751
Nuclear contribution   :      9.854083902      -2.167120536      -0.548835144
                        -----------------------------------------
Total Dipole Moment    :      0.372082977       0.429780568      -1.363632896
                        -----------------------------------------
Magnitude (a.u.)       :      1.477380030
Magnitude (Debye)      :      3.755201605

Rotational constants in cm-1:             0.011471             0.009498             0.006681
Rotational constants in MHz :           343.881617           284.753269           200.280585

                             ****ORCA TERMINATED NORMALLY****
TOTAL RUN TIME: 0 days 0 hours 0 minutes 36 seconds 355 msec
