                         Program Version 6.0.0  -   RELEASE  -
|  1> ! r2scan-3c def2/J RI DEFGRID2 scfconv6 printgap
|  2> %output
|  3>     printlevel normal
|  4> end
|  5> * xyz 0 1
|  6> C 4.9678935462 1.1194939946 0.0134247918
|  7> C 3.7246012541 1.2780068093 -0.8356630662
|  8> O 2.9494275498 0.061186121 -0.8729076992
|  9> P 2.1620675739 -0.4624150738 0.3942164693
| 10> S 1.5447454374 0.8862855701 1.6831245635
| 11> O 3.1845318467 -1.5066028402 1.0195334248
| 12> C 3.0107163942 -2.0548256937 2.3360040817
| 13> C 1.8332115209 -3.0066139345 2.3927769825
| 14> S 0.7322451832 -1.6969421249 -0.5802836311
| 15> C 0.3281028936 -0.6473142563 -2.0068808592
| 16> S -0.1339221381 1.0480182851 -1.5574940259
| 17> P -2.0488743351 0.6232667915 -0.74922776
| 18> S -2.970199053 -0.9534726444 -1.4616162464
| 19> O -2.67239695 2.0369624811 -1.0773695994
| 20> C -4.0955590238 2.2498853068 -1.1895360249
| 21> C -4.7849979036 2.1954623565 0.1576171271
| 22> O -1.9037895509 0.6701252101 0.833006556
| 23> C -1.8333288938 -0.4852431319 1.6877768707
| 24> C -3.1734829529 -0.7363514096 2.3496094539
| 25> H 5.5718110463 2.0183875494 -0.0605923388
| 26> H 4.686490088 0.966220743 1.054582039
| 27> H 5.546071126 0.2634589248 -0.3240986103
| 28> H 3.9664295702 1.46670516 -1.8822997595
| 29> H 3.0889998876 2.0829104136 -0.4524923349
| 30> H 3.9537290338 -2.5638530996 2.5385277715
| 31> H 2.8728456525 -1.2274339179 3.040271311
| 32> H 0.910058119 -2.4628819387 2.1899202734
| 33> H 1.9430843247 -3.78990735 1.647456145
| 34> H 1.7722816513 -3.4513832407 3.3806902172
| 35> H -0.5106390966 -1.1370882109 -2.5038337918
| 36> H 1.1919188174 -0.5762863027 -2.6618265291
| 37> H -4.1744508589 3.2380356443 -1.6451480649
| 38> H -4.5053241681 1.49379834 -1.8671197931
| 39> H -5.8256910295 2.4812782227 0.0403454372
| 40> H -4.737424214 1.1849149599 0.5587961469
| 41> H -4.2986487483 2.8736819545 0.8540426934
| 42> H -1.5269807116 -1.3572566158 1.1014132238
| 43> H -1.0605904893 -0.2441040489 2.4215763748
| 44> H -3.9113120309 -1.0173972937 1.6008495149
| 45> H -3.0688806747 -1.5485322452 3.0615891184
| 46> H -3.5082207247 0.1571310675 2.8690131047
| 47> *
| 48>
| 49>                          ****END OF INPUT****

CARTESIAN COORDINATES (ANGSTROEM)
---------------------------------
  C      4.967894    1.119494    0.013425
  C      3.724601    1.278007   -0.835663
  O      2.949428    0.061186   -0.872908
  P      2.162068   -0.462415    0.394216
  S      1.544745    0.886286    1.683125
  O      3.184532   -1.506603    1.019533
  C      3.010716   -2.054826    2.336004
  C      1.833212   -3.006614    2.392777
  S      0.732245   -1.696942   -0.580284
  C      0.328103   -0.647314   -2.006881
  S     -0.133922    1.048018   -1.557494
  P     -2.048874    0.623267   -0.749228
  S     -2.970199   -0.953473   -1.461616
  O     -2.672397    2.036962   -1.077370
  C     -4.095559    2.249885   -1.189536
  C     -4.784998    2.195462    0.157617
  O     -1.903790    0.670125    0.833007
  C     -1.833329   -0.485243    1.687777
  C     -3.173483   -0.736351    2.349609
  H      5.571811    2.018388   -0.060592
  H      4.686490    0.966221    1.054582
  H      5.546071    0.263459   -0.324099
  H      3.966430    1.466705   -1.882300
  H      3.089000    2.082910   -0.452492
  H      3.953729   -2.563853    2.538528
  H      2.872846   -1.227434    3.040271
  H      0.910058   -2.462882    2.189920
  H      1.943084   -3.789907    1.647456
  H      1.772282   -3.451383    3.380690
  H     -0.510639   -1.137088   -2.503834
  H      1.191919   -0.576286   -2.661827
  H     -4.174451    3.238036   -1.645148
  H     -4.505324    1.493798   -1.867120
  H     -5.825691    2.481278    0.040345
  H     -4.737424    1.184915    0.558796
  H     -4.298649    2.873682    0.854043
  H     -1.526981   -1.357257    1.101413
  H     -1.060590   -0.244104    2.421576
  H     -3.911312   -1.017397    1.600850
  H     -3.068881   -1.548532    3.061589
  H     -3.508221    0.157131    2.869013

 Total Charge           Charge          ....    0
 Multiplicity           Mult            ....    1
 Number of Electrons    NEL             ....  202
 Basis Dimension        Dim             ....  539

ORBITAL ENERGIES
----------------

  NO   OCC          E(Eh)            E(eV)
   0   2.0000     -88.572841     -2410.1895
   1   2.0000     -88.569701     -2410.1041
   2   2.0000     -88.520868     -2408.7753
   3   2.0000     -88.517562     -2408.6853
   4   2.0000     -76.915188     -2092.9687
   5   2.0000     -76.911434     -2092.8665
   6   2.0000     -18.995778      -516.9014
   7   2.0000     -18.992243      -516.8052
   8   2.0000     -18.988170      -516.6944
   9   2.0000     -18.982657      -516.5444
  10   2.0000     -10.105180      -274.9759
  11   2.0000     -10.100419      -274.8464
  12   2.0000     -10.100402      -274.8459
  13   2.0000     -10.097821      -274.7757
  14   2.0000     -10.085795      -274.4484
  15   2.0000     -10.034577      -273.0547
  16   2.0000     -10.030077      -272.9323
  17   2.0000     -10.028304      -272.8840
  18   2.0000     -10.021922      -272.7103
  19   2.0000      -7.867290      -214.0798
  20   2.0000      -7.863990      -213.9901
  21   2.0000      -7.815747      -212.6773
  22   2.0000      -7.812288      -212.5832
  23   2.0000      -6.593612      -179.4213
  24   2.0000      -6.589784      -179.3171
  25   2.0000      -5.814441      -158.2190
  26   2.0000      -5.810983      -158.1249
  27   2.0000      -5.810982      -158.1249
  28   2.0000      -5.807985      -158.0433
  29   2.0000      -5.804267      -157.9421
  30   2.0000      -5.800846      -157.8490
  31   2.0000      -5.763296      -156.8273
  32   2.0000      -5.759969      -156.7367
  33   2.0000      -5.756268      -156.6360
  34   2.0000      -5.755589      -156.6175
  35   2.0000      -5.752754      -156.5404
  36   2.0000      -5.752103      -156.5227
  37   2.0000      -4.739198      -128.9601
  38   2.0000      -4.738640      -128.9449
  39   2.0000      -4.737145      -128.9043
  40   2.0000      -4.735089      -128.8483
  41   2.0000      -4.734502      -128.8324
  42   2.0000      -4.733929      -128.8168
  43   2.0000      -1.053224       -28.6597
  44   2.0000      -1.044469       -28.4215
  45   2.0000      -1.015270       -27.6269
  46   2.0000      -1.004663       -27.3383
  47   2.0000      -0.798340       -21.7239
  48   2.0000      -0.758107       -20.6291
  49   2.0000      -0.747589       -20.3429
  50   2.0000      -0.734384       -19.9836
  51   2.0000      -0.726450       -19.7677
  52   2.0000      -0.706751       -19.2317
  53   2.0000      -0.687183       -18.6992
  54   2.0000      -0.668348       -18.1867
  55   2.0000      -0.633900       -17.2493
  56   2.0000      -0.625942       -17.0327
  57   2.0000      -0.608771       -16.5655
  58   2.0000      -0.597061       -16.2469
  59   2.0000      -0.590203       -16.0602
  60   2.0000      -0.524507       -14.2726
  61   2.0000      -0.514963       -14.0129
  62   2.0000      -0.495767       -13.4905
  63   2.0000      -0.491838       -13.3836
  64   2.0000      -0.477360       -12.9896
  65   2.0000      -0.462110       -12.5746
  66   2.0000      -0.460053       -12.5187
  67   2.0000      -0.445622       -12.1260
  68   2.0000      -0.442232       -12.0337
  69   2.0000      -0.434136       -11.8134
  70   2.0000      -0.417745       -11.3674
  71   2.0000      -0.413596       -11.2545
  72   2.0000      -0.408524       -11.1165
  73   2.0000      -0.407161       -11.0794
  74   2.0000      -0.394902       -10.7458
  75   2.0000      -0.390686       -10.6311
  76   2.0000      -0.387011       -10.5311
  77   2.0000      -0.375742       -10.2245
  78   2.0000      -0.371808       -10.1174
  79   2.0000      -0.368137       -10.0175
  80   2.0000      -0.363691        -9.8965
  81   2.0000      -0.361222        -9.8294
  82   2.0000      -0.353835        -9.6283
  83   2.0000      -0.348444        -9.4817
  84   2.0000      -0.345701        -9.4070
  85   2.0000      -0.335618        -9.1326
  86   2.0000      -0.320809        -8.7297
  87   2.0000      -0.312028        -8.4907
  88   2.0000      -0.304020        -8.2728
  89   2.0000      -0.301864        -8.2141
  90   2.0000      -0.296800        -8.0763
  91   2.0000      -0.289720        -7.8837
  92   2.0000      -0.288242        -7.8435
  93   2.0000      -0.278651        -7.5825
  94   2.0000      -0.272579        -7.4172
  95   2.0000      -0.250593        -6.8190
  96   2.0000      -0.228108        -6.2071
  97   2.0000      -0.224278        -6.1029
  98   2.0000      -0.218496        -5.9456
  99   2.0000      -0.209346        -5.6966
 100   2.0000      -0.204167        -5.5557
 101   0.0000      -0.049270        -1.3407
 102   0.0000      -0.025067        -0.6821
 103   0.0000      -0.017373        -0.4727
 104   0.0000       0.008232         0.2240
 105   0.0000       0.019386         0.5275

MULLIKEN ATOMIC CHARGES
-----------------------
   0 C :   -0.445988
   1 C :   -0.152183
   2 O :   -0.339737
   3 P :    0.729976
   4 S :   -0.456587
   5 O :   -0.287739
   6 C :   -0.142767
   7 C :   -0.465869
   8 S :   -0.165124
   9 C :   -0.184430
  10 S :   -0.132601
  11 P :    0.676876
  12 S :   -0.485007
  13 O :   -0.305183
  14 C :   -0.159545
  15 C :   -0.433156
  16 O :   -0.249714
  17 C :   -0.113781
  18 C :   -0.507709
  19 H :    0.148089
  20 H :    0.171095
  21 H :    0.156286
  22 H :    0.148946
  23 H :    0.178528
  24 H :    0.149316
  25 H :    0.175985
  26 H :    0.162940
  27 H :    0.165611
  28 H :    0.152111
  29 H :    0.209322
  30 H :    0.190244
  31 H :    0.150442
  32 H :    0.172167
  33 H :    0.146770
  34 H :    0.162306
  35 H :    0.159723
  36 H :    0.171417
  37 H :    0.175004
  38 H :    0.172711
  39 H :    0.143877
  40 H :    0.157377
Sum of atomic charges:    0.0000000

LOEWDIN ATOMIC CHARGES
----------------------
   0 C :   -0.398698
   1 C :    0.021758
   2 O :   -0.679924
   3 P :    0.386344
   4 S :   -0.112432
   5 O :   -0.663745
   6 C :    0.017711
   7 C :   -0.404026
   8 S :    0.144460
   9 C :   -0.414076
  10 S :    0.177724
  11 P :    0.391490
  12 S :   -0.129878
  13 O :   -0.666461
  14 C :    0.026146
  15 C :   -0.398175
  16 O :   -0.656419
  17 C :   -0.000905
  18 C :   -0.402998
  19 H :    0.160267
  20 H :    0.166289
  21 H :    0.161049
  22 H :    0.179416
  23 H :    0.182688
  24 H :    0.180178
  25 H :    0.180214
  26 H :    0.162395
  27 H :    0.162325
  28 H :    0.160892
  29 H :    0.192887
  30 H :    0.184022
  31 H :    0.180428
  32 H :    0.179781
  33 H :    0.159374
  34 H :    0.163507
  35 H :    0.162911
  36 H :    0.180402
  37 H :    0.185150
  38 H :    0.161507
  39 H :    0.158602
  40 H :    0.157822

  Mayer bond orders larger than 0.100000
B(  0-C ,  1-C ) :   0.9301 B(  0-C , 19-H ) :   0.9619 B(  0-C , 20-H ) :   0.9592
B(  0-C , 21-H ) :   0.9708 B(  1-C ,  2-O ) :   0.7984 B(  1-C , 22-H ) :   0.9590
B(  1-C , 23-H ) :   0.9609 B(  2-O ,  3-P ) :   1.1652 B(  3-P ,  4-S ) :   1.7458
B(  3-P ,  5-O ) :   1.0723 B(  3-P ,  8-S ) :   1.0483 B(  5-O ,  6-C ) :   0.8149
B(  6-C ,  7-C ) :   0.9113 B(  6-C , 24-H ) :   0.9552 B(  6-C , 25-H ) :   0.9658
B(  7-C , 26-H ) :   0.9642 B(  7-C , 27-H ) :   0.9682 B(  7-C , 28-H ) :   0.9591
B(  8-S ,  9-C ) :   0.8828 B(  9-C , 10-S ) :   0.9100 B(  9-C , 29-H ) :   0.9074
B(  9-C , 30-H ) :   0.9190 B( 10-S , 11-P ) :   1.0669 B( 11-P , 12-S ) :   1.7409
B( 11-P , 13-O ) :   1.1851 B( 11-P , 16-O ) :   1.0861 B( 13-O , 14-C ) :   0.8000
B( 14-C , 15-C ) :   0.9316 B( 14-C , 31-H ) :   0.9619 B( 14-C , 32-H ) :   0.9662
B( 15-C , 33-H ) :   0.9624 B( 15-C , 34-H ) :   0.9594 B( 15-C , 35-H ) :   0.9697
B( 16-O , 17-C ) :   0.7401 B( 17-C , 18-C ) :   0.9159 B( 17-C , 36-H ) :   0.9608
B( 17-C , 37-H ) :   0.9538 B( 18-C , 38-H ) :   0.9717 B( 18-C , 39-H ) :   0.9623
B( 18-C , 40-H ) :   0.9780

Dispersion correction           -0.022005758
FINAL SINGLE POINT ENERGY     -2932.459995865279

DIPOLE MOMENT
-------------

Method             : SCF
Type of density    : Electron Density
Multiplicity       :   1
Irrep              :   0
Energy             : -2932.4844347705893597 Eh
Relativity type    :
Basis              : AO
                                X                 Y                 Z
Electronic contribution:      2.110852155       1.177571630     -13.991997546
Nuclear contribution   :     -1.578131713      -1.182830317      14.407837212
                        -----------------------------------------
Total Dipole Moment    :      0.532720442      -0.005258687       0.415839666
                        -----------------------------------------
Magnitude (a.u.)       :      0.675826420
Magnitude (Debye)      :      1.717814244

Rotational constants in cm-1:             0.013016             0.005094             0.004622
Rotational constants in MHz :           390.196848           152.714285           138.550823

                             ****ORCA TERMINATED NORMALLY****
TOTAL RUN TIME: 0 days 0 hours 1 minutes 22 seconds 183 msec
