                         Program Version 6.0.0  -   RELEASE  -
|  1> ! r2scan-3c def2/J RI DEFGRID2 scfconv6 printgap
|  2> %output
|  3>     printlevel normal
|  4> end
|  5> %cpcm
|  6>     smd true
|  7>     smdsolvent "water"
|  8> end
|  9> * xyz 0 1
| 10> C 4.9678935462 1.1194939946 0.0134247918
| 11> C 3.7246012541 1.2780068093 -0.8356630662
| 12> O 2.9494275498 0.061186121 -0.8729076992
| 13> P 2.1620675739 -0.4624150738 0.3942164693
| 14> S 1.5447454374 0.8862855701 1.6831245635
| 15> O 3.1845318467 -1.5066028402 1.0195334248
| 16> C 3.0107163942 -2.0548256937 2.3360040817
| 17> C 1.8332115209 -3.0066139345 2.3927769825
| 18> S 0.7322451832 -1.6969421249 -0.5802836311
| 19> C 0.3281028936 -0.6473142563 -2.0068808592
| 20> S -0.1339221381 1.0480182851 -1.5574940259
| 21> P -2.0488743351 0.6232667915 -0.74922776
| 22> S -2.970199053 -0.9534726444 -1.4616162464
| 23> O -2.67239695 2.0369624811 -1.0773695994
| 24> C -4.0955590238 2.2498853068 -1.1895360249
| 25> C -4.7849979036 2.1954623565 0.1576171271
| 26> O -1.9037895509 0.6701252101 0.833006556
| 27> C -1.8333288938 -0.4852431319 1.6877768707
| 28> C -3.1734829529 -0.7363514096 2.3496094539
| 29> H 5.5718110463 2.0183875494 -0.0605923388
| 30> H 4.686490088 0.966220743 1.054582039
| 31> H 5.546071126 0.2634589248 -0.3240986103
| 32> H 3.9664295702 1.46670516 -1.8822997595
| 33> H 3.0889998876 2.0829104136 -0.4524923349
| 34> H 3.9537290338 -2.5638530996 2.5385277715
| 35> H 2.8728456525 -1.2274339179 3.040271311
| 36> H 0.910058119 -2.4628819387 2.1899202734
| 37> H 1.9430843247 -3.78990735 1.647456145
| 38> H 1.7722816513 -3.4513832407 3.3806902172
| 39> H -0.5106390966 -1.1370882109 -2.5038337918
| 40> H 1.1919188174 -0.5762863027 -2.6618265291
| 41> H -4.1744508589 3.2380356443 -1.6451480649
| 42> H -4.5053241681 1.49379834 -1.8671197931
| 43> H -5.8256910295 2.4812782227 0.0403454372
| 44> H -4.737424214 1.1849149599 0.5587961469
| 45> H -4.2986487483 2.8736819545 0.8540426934
| 46> H -1.5269807116 -1.3572566158 1.1014132238
| 47> H -1.0605904893 -0.2441040489 2.4215763748
| 48> H -3.9113120309 -1.0173972937 1.6008495149
| 49> H -3.0688806747 -1.5485322452 3.0615891184
| 50> H -3.5082207247 0.1571310675 2.8690131047
| 51> *
| 52>
| 53>                          ****END OF INPUT****

CARTESIAN COORDINATES (ANGSTROEM)
---------------------------------
  C      4.967894    1.119494    0.013425
  C      3.724601    1.278007   -0.835663
  O      2.949428    0.061186   -0.872908
  P      2.162068   -0.462415    0.394216
  S      1.544745    0.886286    1.683125
  O      3.184532   -1.506603    1.019533
  C      3.010716   -2.054826    2.336004
  C      1.833212   -3.006614    2.392777
  S      0.732245   -1.696942   -0.580284
  C      0.328103   -0.647314   -2.006881
  S     -0.133922    1.048018   -1.557494
  P     -2.048874    0.623267   -0.749228
  S     -2.970199   -0.953473   -1.461616
  O     -2.672397    2.036962   -1.077370
  C     -4.095559    2.249885   -1.189536
  C     -4.784998    2.195462    0.157617
  O     -1.903790    0.670125    0.833007
  C     -1.833329   -0.485243    1.687777
  C     -3.173483   -0.736351    2.349609
  H      5.571811    2.018388   -0.060592
  H      4.686490    0.966221    1.054582
  H      5.546071    0.263459   -0.324099
  H      3.966430    1.466705   -1.882300
  H      3.089000    2.082910   -0.452492
  H      3.953729   -2.563853    2.538528
  H      2.872846   -1.227434    3.040271
  H      0.910058   -2.462882    2.189920
  H      1.943084   -3.789907    1.647456
  H      1.772282   -3.451383    3.380690
  H     -0.510639   -1.137088   -2.503834
  H      1.191919   -0.576286   -2.661827
  H     -4.174451    3.238036   -1.645148
  H     -4.505324    1.493798   -1.867120
  H     -5.825691    2.481278    0.040345
  H     -4.737424    1.184915    0.558796
  H     -4.298649    2.873682    0.854043
  H     -1.526981   -1.357257    1.101413
  H     -1.060590   -0.244104    2.421576
  H     -3.911312   -1.017397    1.600850
  H     -3.068881   -1.548532    3.061589
  H     -3.508221    0.157131    2.869013

 Total Charge           Charge          ....    0
 Multiplicity           Mult            ....    1
 Number of Electrons    NEL             ....  202
 Basis Dimension        Dim             ....  539

ORBITAL ENERGIES
----------------

  NO   OCC          E(Eh)            E(eV)
   0   2.0000     -88.576770     -2410.2964
   1   2.0000     -88.576465     -2410.2881
   2   2.0000     -88.530043     -2409.0249
   3   2.0000     -88.523385     -2408.8438
   4   2.0000     -76.919400     -2093.0833
   5   2.0000     -76.918979     -2093.0718
   6   2.0000     -18.996338      -516.9166
   7   2.0000     -18.994563      -516.8683
   8   2.0000     -18.993930      -516.8511
   9   2.0000     -18.990615      -516.7609
  10   2.0000     -10.104655      -274.9616
  11   2.0000     -10.090973      -274.5893
  12   2.0000     -10.090326      -274.5717
  13   2.0000     -10.089551      -274.5506
  14   2.0000     -10.084715      -274.4191
  15   2.0000     -10.021180      -272.6902
  16   2.0000     -10.018862      -272.6271
  17   2.0000     -10.018734      -272.6236
  18   2.0000     -10.015548      -272.5369
  19   2.0000      -7.871079      -214.1830
  20   2.0000      -7.870917      -214.1785
  21   2.0000      -7.825150      -212.9332
  22   2.0000      -7.818389      -212.7492
  23   2.0000      -6.597847      -179.5365
  24   2.0000      -6.597448      -179.5257
  25   2.0000      -5.818041      -158.3169
  26   2.0000      -5.818012      -158.3162
  27   2.0000      -5.815021      -158.2348
  28   2.0000      -5.814580      -158.2228
  29   2.0000      -5.808062      -158.0454
  30   2.0000      -5.807956      -158.0425
  31   2.0000      -5.772667      -157.0823
  32   2.0000      -5.766022      -156.9014
  33   2.0000      -5.765585      -156.8895
  34   2.0000      -5.765065      -156.8754
  35   2.0000      -5.758795      -156.7048
  36   2.0000      -5.758264      -156.6903
  37   2.0000      -4.743154      -129.0678
  38   2.0000      -4.742979      -129.0630
  39   2.0000      -4.742567      -129.0518
  40   2.0000      -4.742465      -129.0490
  41   2.0000      -4.741996      -129.0363
  42   2.0000      -4.741076      -129.0112
  43   2.0000      -1.054011       -28.6811
  44   2.0000      -1.051235       -28.6056
  45   2.0000      -1.015339       -27.6288
  46   2.0000      -1.011266       -27.5180
  47   2.0000      -0.801141       -21.8002
  48   2.0000      -0.756073       -20.5738
  49   2.0000      -0.742732       -20.2108
  50   2.0000      -0.724440       -19.7130
  51   2.0000      -0.722174       -19.6514
  52   2.0000      -0.706800       -19.2330
  53   2.0000      -0.690857       -18.7992
  54   2.0000      -0.675036       -18.3687
  55   2.0000      -0.633007       -17.2250
  56   2.0000      -0.623279       -16.9603
  57   2.0000      -0.600623       -16.3438
  58   2.0000      -0.595524       -16.2050
  59   2.0000      -0.589017       -16.0280
  60   2.0000      -0.522786       -14.2257
  61   2.0000      -0.512221       -13.9383
  62   2.0000      -0.493013       -13.4156
  63   2.0000      -0.491334       -13.3699
  64   2.0000      -0.476278       -12.9602
  65   2.0000      -0.459746       -12.5103
  66   2.0000      -0.454501       -12.3676
  67   2.0000      -0.447026       -12.1642
  68   2.0000      -0.439626       -11.9628
  69   2.0000      -0.429809       -11.6957
  70   2.0000      -0.416554       -11.3350
  71   2.0000      -0.410660       -11.1746
  72   2.0000      -0.407480       -11.0881
  73   2.0000      -0.404899       -11.0179
  74   2.0000      -0.393280       -10.7017
  75   2.0000      -0.389391       -10.5959
  76   2.0000      -0.385872       -10.5001
  77   2.0000      -0.370284       -10.0759
  78   2.0000      -0.366787        -9.9808
  79   2.0000      -0.363119        -9.8810
  80   2.0000      -0.354523        -9.6471
  81   2.0000      -0.353556        -9.6207
  82   2.0000      -0.348645        -9.4871
  83   2.0000      -0.343913        -9.3583
  84   2.0000      -0.342980        -9.3330
  85   2.0000      -0.333355        -9.0711
  86   2.0000      -0.319718        -8.7000
  87   2.0000      -0.305584        -8.3154
  88   2.0000      -0.302518        -8.2319
  89   2.0000      -0.300763        -8.1842
  90   2.0000      -0.298207        -8.1146
  91   2.0000      -0.290669        -7.9095
  92   2.0000      -0.287586        -7.8256
  93   2.0000      -0.279163        -7.5964
  94   2.0000      -0.277533        -7.5520
  95   2.0000      -0.255402        -6.9498
  96   2.0000      -0.234606        -6.3839
  97   2.0000      -0.233086        -6.3426
  98   2.0000      -0.228083        -6.2065
  99   2.0000      -0.215265        -5.8577
 100   2.0000      -0.211742        -5.7618
 101   0.0000      -0.054999        -1.4966
 102   0.0000      -0.031673        -0.8619
 103   0.0000      -0.020308        -0.5526
 104   0.0000       0.004653         0.1266
 105   0.0000       0.013117         0.3569

MULLIKEN ATOMIC CHARGES
-----------------------
   0 C :   -0.486898
   1 C :   -0.145780
   2 O :   -0.360010
   3 P :    0.767972
   4 S :   -0.508253
   5 O :   -0.318017
   6 C :   -0.142375
   7 C :   -0.497587
   8 S :   -0.180021
   9 C :   -0.190352
  10 S :   -0.153714
  11 P :    0.690736
  12 S :   -0.518134
  13 O :   -0.336864
  14 C :   -0.152101
  15 C :   -0.476417
  16 O :   -0.275767
  17 C :   -0.102768
  18 C :   -0.530523
  19 H :    0.173019
  20 H :    0.168885
  21 H :    0.169949
  22 H :    0.177502
  23 H :    0.178524
  24 H :    0.175629
  25 H :    0.178797
  26 H :    0.165754
  27 H :    0.175979
  28 H :    0.177165
  29 H :    0.223567
  30 H :    0.225677
  31 H :    0.176152
  32 H :    0.176840
  33 H :    0.172254
  34 H :    0.168423
  35 H :    0.170883
  36 H :    0.172973
  37 H :    0.181399
  38 H :    0.170766
  39 H :    0.168214
  40 H :    0.168519
Sum of atomic charges:    0.0000000

LOEWDIN ATOMIC CHARGES
----------------------
   0 C :   -0.402532
   1 C :    0.026903
   2 O :   -0.687586
   3 P :    0.391230
   4 S :   -0.143057
   5 O :   -0.677807
   6 C :    0.023231
   7 C :   -0.405483
   8 S :    0.139581
   9 C :   -0.406247
  10 S :    0.165383
  11 P :    0.391192
  12 S :   -0.150725
  13 O :   -0.684277
  14 C :    0.030777
  15 C :   -0.401518
  16 O :   -0.673505
  17 C :    0.003605
  18 C :   -0.404347
  19 H :    0.169419
  20 H :    0.162902
  21 H :    0.164365
  22 H :    0.191108
  23 H :    0.182747
  24 H :    0.191191
  25 H :    0.181496
  26 H :    0.161480
  27 H :    0.164562
  28 H :    0.170493
  29 H :    0.197635
  30 H :    0.196916
  31 H :    0.191042
  32 H :    0.181932
  33 H :    0.169246
  34 H :    0.163448
  35 H :    0.164906
  36 H :    0.181691
  37 H :    0.188527
  38 H :    0.160768
  39 H :    0.167103
  40 H :    0.162204

  Mayer bond orders larger than 0.100000
B(  0-C ,  1-C ) :   0.9174 B(  0-C , 19-H ) :   0.9560 B(  0-C , 20-H ) :   0.9597
B(  0-C , 21-H ) :   0.9698 B(  1-C ,  2-O ) :   0.7871 B(  1-C , 22-H ) :   0.9495
B(  1-C , 23-H ) :   0.9580 B(  2-O ,  3-P ) :   1.1746 B(  3-P ,  4-S ) :   1.6977
B(  3-P ,  5-O ) :   1.0808 B(  3-P ,  8-S ) :   1.0635 B(  5-O ,  6-C ) :   0.8037
B(  6-C ,  7-C ) :   0.9009 B(  6-C , 24-H ) :   0.9459 B(  6-C , 25-H ) :   0.9636
B(  7-C , 26-H ) :   0.9610 B(  7-C , 27-H ) :   0.9661 B(  7-C , 28-H ) :   0.9528
B(  8-S ,  9-C ) :   0.8756 B(  9-C , 10-S ) :   0.9066 B(  9-C , 29-H ) :   0.9047
B(  9-C , 30-H ) :   0.9073 B( 10-S , 11-P ) :   1.0809 B( 11-P , 12-S ) :   1.7228
B( 11-P , 13-O ) :   1.1860 B( 11-P , 16-O ) :   1.0842 B( 13-O , 14-C ) :   0.7896
B( 14-C , 15-C ) :   0.9185 B( 14-C , 31-H ) :   0.9524 B( 14-C , 32-H ) :   0.9609
B( 15-C , 33-H ) :   0.9559 B( 15-C , 34-H ) :   0.9580 B( 15-C , 35-H ) :   0.9695
B( 16-O , 17-C ) :   0.7310 B( 17-C , 18-C ) :   0.9213 B( 17-C , 36-H ) :   0.9570
B( 17-C , 37-H ) :   0.9482 B( 18-C , 38-H ) :   0.9695 B( 18-C , 39-H ) :   0.9580
B( 18-C , 40-H ) :   0.9733

Dispersion correction           -0.022005758
FINAL SINGLE POINT ENERGY     -2932.468083615557

DIPOLE MOMENT
-------------

Method             : SCF
Type of density    : Electron Density
Multiplicity       :   1
Irrep              :   0
Energy             : -2932.4925225208667143 Eh
Relativity type    :
Basis              : AO
                                X                 Y                 Z
Electronic contribution:      2.241640701       1.019417010     -13.939222742
Nuclear contribution   :     -1.578131713      -1.182830317      14.407837212
                        -----------------------------------------
Total Dipole Moment    :      0.663508988      -0.163413307       0.468614470
                        -----------------------------------------
Magnitude (a.u.)       :      0.828581685
Magnitude (Debye)      :      2.106087269

Rotational constants in cm-1:             0.013016             0.005094             0.004622
Rotational constants in MHz :           390.196848           152.714285           138.550823

                             ****ORCA TERMINATED NORMALLY****
TOTAL RUN TIME: 0 days 0 hours 1 minutes 55 seconds 721 msec
