                         Program Version 6.0.1  -  RELEASE   -
|  1> ! pbe def2-sv(p) def2/J RI DEFGRID1 loosescf d4 GCP(DFT/SV(P)) printgap
|  2> %output
|  3>     printlevel normal
|  4> end
|  5> * xyz 0 1
|  6> C 4.1315474013 -2.0467503694 1.1706228182
|  7> C 2.6810596896 -2.0295127437 0.7329369967
|  8> O 2.5527297172 -1.089867717 -0.3543339169
|  9> C 1.4158306545 -1.0348012828 -1.0026385708
| 10> O 0.4428900709 -1.7205061887 -0.7393107895
| 11> C 1.4306144133 -0.0129620929 -2.1171591306
| 12> C 0.3012563215 1.001445972 -1.9107529453
| 13> H 0.2637272022 1.6857941033 -2.7623751513
| 14> C 0.4835551455 1.8106862744 -0.6384981304
| 15> O -0.4142366895 1.9775060289 0.1634478771
| 16> O 1.6940665647 2.2845126089 -0.5308046973
| 17> C 2.0614452703 2.9937219204 0.673449113
| 18> C 2.6004806013 2.0200024196 1.7079947623
| 19> S -1.3546937403 0.2283596364 -1.8682228745
| 20> P -1.6783671121 -0.2563900415 0.1649002765
| 21> S -0.5149743827 -0.4097070747 1.7529608388
| 22> O -2.8938761597 0.7615973023 0.3601841246
| 23> C -3.5942330985 0.8719279351 1.6017773294
| 24> O -2.5442312651 -1.6035295398 0.0012715628
| 25> C -2.0530702254 -2.9307981243 0.1700694065
| 26> H 4.2508568076 -2.7676272605 1.972242985
| 27> H 4.7694298619 -2.3258781942 0.3373960957
| 28> H 4.4259098844 -1.0655831183 1.5297121595
| 29> H 2.0127249814 -1.7124206903 1.5399485628
| 30> H 2.3492476967 -3.00989055 0.3774219081
| 31> H 1.2588356293 -0.5316862906 -3.060856467
| 32> H 2.3928572605 0.4974219049 -2.1290189616
| 33> H 2.8272483164 3.6973614064 0.3475296354
| 34> H 1.1842615034 3.5237381593 1.0529001386
| 35> H 1.8220834807 1.3201504518 2.010082611
| 36> H 3.4342562087 1.4606500831 1.2927917679
| 37> H 2.9331361659 2.569630626 2.5819105574
| 38> H -4.2519989115 0.0128073827 1.7352720496
| 39> H -4.1689529866 1.7918784159 1.5322845969
| 40> H -2.8851000641 0.9274294225 2.4305454399
| 41> H -2.9256343843 -3.5426127031 0.3863236204
| 42> H -1.3437622419 -2.9630525839 0.999057269
| 43> H -1.5589197359 -3.2611982314 -0.7415710694
| 44> *
| 45>
| 46>                          ****END OF INPUT****

CARTESIAN COORDINATES (ANGSTROEM)
---------------------------------
  C      4.131547   -2.046750    1.170623
  C      2.681060   -2.029513    0.732937
  O      2.552730   -1.089868   -0.354334
  C      1.415831   -1.034801   -1.002639
  O      0.442890   -1.720506   -0.739311
  C      1.430614   -0.012962   -2.117159
  C      0.301256    1.001446   -1.910753
  H      0.263727    1.685794   -2.762375
  C      0.483555    1.810686   -0.638498
  O     -0.414237    1.977506    0.163448
  O      1.694067    2.284513   -0.530805
  C      2.061445    2.993722    0.673449
  C      2.600481    2.020002    1.707995
  S     -1.354694    0.228360   -1.868223
  P     -1.678367   -0.256390    0.164900
  S     -0.514974   -0.409707    1.752961
  O     -2.893876    0.761597    0.360184
  C     -3.594233    0.871928    1.601777
  O     -2.544231   -1.603530    0.001272
  C     -2.053070   -2.930798    0.170069
  H      4.250857   -2.767627    1.972243
  H      4.769430   -2.325878    0.337396
  H      4.425910   -1.065583    1.529712
  H      2.012725   -1.712421    1.539949
  H      2.349248   -3.009891    0.377422
  H      1.258836   -0.531686   -3.060856
  H      2.392857    0.497422   -2.129019
  H      2.827248    3.697361    0.347530
  H      1.184262    3.523738    1.052900
  H      1.822083    1.320150    2.010083
  H      3.434256    1.460650    1.292792
  H      2.933136    2.569631    2.581911
  H     -4.251999    0.012807    1.735272
  H     -4.168953    1.791878    1.532285
  H     -2.885100    0.927429    2.430545
  H     -2.925634   -3.542613    0.386324
  H     -1.343762   -2.963053    0.999057
  H     -1.558920   -3.261198   -0.741571

 Total Charge           Charge          ....    0
 Multiplicity           Mult            ....    1
 Number of Electrons    NEL             ....  174
 Basis Dimension        Dim             ....  316

ORBITAL ENERGIES
----------------

  NO   OCC          E(Eh)            E(eV)
   0   2.0000     -88.025691     -2395.3008
   1   2.0000     -87.966228     -2393.6828
   2   2.0000     -76.412120     -2079.2795
   3   2.0000     -18.817388      -512.0472
   4   2.0000     -18.810021      -511.8467
   5   2.0000     -18.765214      -510.6274
   6   2.0000     -18.761453      -510.5251
   7   2.0000     -18.752380      -510.2782
   8   2.0000     -18.741887      -509.9927
   9   2.0000     -10.022652      -272.7302
  10   2.0000     -10.015644      -272.5395
  11   2.0000      -9.954940      -270.8877
  12   2.0000      -9.953981      -270.8616
  13   2.0000      -9.945788      -270.6386
  14   2.0000      -9.922466      -270.0040
  15   2.0000      -9.918805      -269.9044
  16   2.0000      -9.916109      -269.8310
  17   2.0000      -9.890559      -269.1358
  18   2.0000      -9.885779      -269.0057
  19   2.0000      -7.671109      -208.7415
  20   2.0000      -7.611066      -207.1076
  21   2.0000      -6.407142      -174.3472
  22   2.0000      -5.699599      -155.0940
  23   2.0000      -5.696052      -154.9974
  24   2.0000      -5.686881      -154.7479
  25   2.0000      -5.640254      -153.4791
  26   2.0000      -5.631838      -153.2501
  27   2.0000      -5.630721      -153.2197
  28   2.0000      -4.629708      -125.9808
  29   2.0000      -4.629378      -125.9718
  30   2.0000      -4.627743      -125.9273
  31   2.0000      -1.027377       -27.9564
  32   2.0000      -1.016879       -27.6707
  33   2.0000      -0.957956       -26.0673
  34   2.0000      -0.931383       -25.3442
  35   2.0000      -0.919841       -25.0301
  36   2.0000      -0.913137       -24.8477
  37   2.0000      -0.765724       -20.8364
  38   2.0000      -0.714914       -19.4538
  39   2.0000      -0.709040       -19.2940
  40   2.0000      -0.683506       -18.5991
  41   2.0000      -0.649308       -17.6686
  42   2.0000      -0.620328       -16.8800
  43   2.0000      -0.611708       -16.6454
  44   2.0000      -0.607129       -16.5208
  45   2.0000      -0.591093       -16.0845
  46   2.0000      -0.564118       -15.3504
  47   2.0000      -0.513772       -13.9805
  48   2.0000      -0.506597       -13.7852
  49   2.0000      -0.494935       -13.4679
  50   2.0000      -0.484987       -13.1972
  51   2.0000      -0.458119       -12.4660
  52   2.0000      -0.453430       -12.3385
  53   2.0000      -0.451063       -12.2741
  54   2.0000      -0.441417       -12.0116
  55   2.0000      -0.425268       -11.5721
  56   2.0000      -0.419323       -11.4103
  57   2.0000      -0.411095       -11.1865
  58   2.0000      -0.404381       -11.0038
  59   2.0000      -0.401362       -10.9216
  60   2.0000      -0.397082       -10.8052
  61   2.0000      -0.388855       -10.5813
  62   2.0000      -0.385108       -10.4793
  63   2.0000      -0.377970       -10.2851
  64   2.0000      -0.369783       -10.0623
  65   2.0000      -0.364301        -9.9131
  66   2.0000      -0.361700        -9.8424
  67   2.0000      -0.359371        -9.7790
  68   2.0000      -0.347901        -9.4669
  69   2.0000      -0.345206        -9.3935
  70   2.0000      -0.338541        -9.2122
  71   2.0000      -0.331560        -9.0222
  72   2.0000      -0.317843        -8.6490
  73   2.0000      -0.307058        -8.3555
  74   2.0000      -0.302470        -8.2306
  75   2.0000      -0.293887        -7.9971
  76   2.0000      -0.283092        -7.7033
  77   2.0000      -0.271632        -7.3915
  78   2.0000      -0.268251        -7.2995
  79   2.0000      -0.263792        -7.1781
  80   2.0000      -0.250806        -6.8248
  81   2.0000      -0.243636        -6.6297
  82   2.0000      -0.237730        -6.4690
  83   2.0000      -0.230007        -6.2588
  84   2.0000      -0.192378        -5.2349
  85   2.0000      -0.183206        -4.9853
  86   2.0000      -0.174908        -4.7595
  87   0.0000      -0.044729        -1.2171
  88   0.0000      -0.043025        -1.1708
  89   0.0000      -0.031860        -0.8670
  90   0.0000       0.008251         0.2245
  91   0.0000       0.031391         0.8542

MULLIKEN ATOMIC CHARGES
-----------------------
   0 C :   -0.282026
   1 C :   -0.042630
   2 O :   -0.220636
   3 C :    0.094442
   4 O :   -0.206926
   5 C :   -0.016725
   6 C :   -0.334535
   7 H :    0.155210
   8 C :    0.209014
   9 O :   -0.171273
  10 O :   -0.224285
  11 C :   -0.009511
  12 C :   -0.334357
  13 S :   -0.053778
  14 P :    0.654462
  15 S :   -0.356293
  16 O :   -0.374213
  17 C :   -0.090378
  18 O :   -0.397954
  19 C :   -0.086854
  20 H :    0.113337
  21 H :    0.111892
  22 H :    0.121566
  23 H :    0.132986
  24 H :    0.104018
  25 H :    0.123383
  26 H :    0.114407
  27 H :    0.104562
  28 H :    0.117713
  29 H :    0.149996
  30 H :    0.120316
  31 H :    0.111349
  32 H :    0.105429
  33 H :    0.116195
  34 H :    0.113032
  35 H :    0.107645
  36 H :    0.108390
  37 H :    0.113031
Sum of atomic charges:   -0.0000000

LOEWDIN ATOMIC CHARGES
----------------------
   0 C :   -0.351100
   1 C :   -0.111625
   2 O :   -0.045416
   3 C :    0.027450
   4 O :   -0.170829
   5 C :   -0.249405
   6 C :   -0.262543
   7 H :    0.152858
   8 C :    0.011409
   9 O :   -0.143928
  10 O :   -0.041942
  11 C :   -0.104230
  12 C :   -0.364081
  13 S :    0.128636
  14 P :    0.603381
  15 S :   -0.319119
  16 O :   -0.253507
  17 C :   -0.213672
  18 O :   -0.264236
  19 C :   -0.215419
  20 H :    0.132279
  21 H :    0.125010
  22 H :    0.125606
  23 H :    0.118592
  24 H :    0.116786
  25 H :    0.146929
  26 H :    0.137837
  27 H :    0.118742
  28 H :    0.124433
  29 H :    0.128858
  30 H :    0.122510
  31 H :    0.130743
  32 H :    0.108381
  33 H :    0.117845
  34 H :    0.107054
  35 H :    0.111975
  36 H :    0.103477
  37 H :    0.110260

  Mayer bond orders larger than 0.100000
B(  0-C ,  1-C ) :   1.1520 B(  0-C , 20-H ) :   0.9432 B(  0-C , 21-H ) :   0.9492
B(  0-C , 22-H ) :   0.9472 B(  1-C ,  2-O ) :   0.8877 B(  1-C , 23-H ) :   0.9169
B(  1-C , 24-H ) :   0.9277 B(  2-O ,  3-C ) :   1.2618 B(  3-C ,  4-O ) :   1.9414
B(  3-C ,  5-C ) :   1.0131 B(  5-C ,  6-C ) :   1.0129 B(  5-C , 25-H ) :   0.8871
B(  5-C , 26-H ) :   0.8851 B(  6-C ,  7-H ) :   0.8720 B(  6-C ,  8-C ) :   0.8901
B(  6-C , 13-S ) :   1.0593 B(  8-C ,  9-O ) :   1.9949 B(  8-C , 10-O ) :   1.2612
B( 10-O , 11-C ) :   0.8969 B( 11-C , 12-C ) :   1.1793 B( 11-C , 27-H ) :   0.9366
B( 11-C , 28-H ) :   0.9125 B( 12-C , 29-H ) :   0.9241 B( 12-C , 30-H ) :   0.9400
B( 12-C , 31-H ) :   0.9392 B( 13-S , 14-P ) :   0.9272 B( 13-S , 15-S ) :   0.1212
B( 14-P , 15-S ) :   1.4994 B( 14-P , 16-O ) :   1.1027 B( 14-P , 18-O ) :   1.0788
B( 16-O , 17-C ) :   0.9408 B( 17-C , 32-H ) :   0.9513 B( 17-C , 33-H ) :   0.9601
B( 17-C , 34-H ) :   0.9321 B( 18-O , 19-C ) :   0.9396 B( 19-C , 35-H ) :   0.9564
B( 19-C , 36-H ) :   0.9321 B( 19-C , 37-H ) :   0.9498

Dispersion correction           -0.056205435
FINAL SINGLE POINT ENERGY     -1978.997770645387

DIPOLE MOMENT
-------------

Method             : SCF
Type of density    : Electron Density
Multiplicity       :   1
Irrep              :   0
Energy             : -1979.1261029636802959 Eh
Relativity type    :
Basis              : AO
                                X                 Y                 Z
Electronic contribution:    -15.779965610       3.404903715     -10.745541664
Nuclear contribution   :     17.288627845      -3.221383085      10.564509950
                        -----------------------------------------
Total Dipole Moment    :      1.508662235       0.183520630      -0.181031714
                        -----------------------------------------
Magnitude (a.u.)       :      1.530527374
Magnitude (Debye)      :      3.890291418

Rotational constants in cm-1:             0.012954             0.008892             0.007638
Rotational constants in MHz :           388.348173           266.581358           228.968318

                             ****ORCA TERMINATED NORMALLY****
TOTAL RUN TIME: 0 days 0 hours 1 minutes 35 seconds 442 msec
