                         Program Version 6.0.0  -   RELEASE  -
|  1> ! pbe def2-sv(p) def2/J RI DEFGRID1 loosescf d4 GCP(DFT/SV(P)) printgap
|  2> %output
|  3>     printlevel normal
|  4> end
|  5> * xyz 0 1
|  6> C 5.2253363674 1.3527928419 -0.2268451205
|  7> C 4.713514062 -0.0630668554 -0.0548540819
|  8> O 3.5795801329 -0.08761911 0.8466444387
|  9> P 2.079667642 -0.2318111848 0.3570079813
| 10> S 0.8928151858 -0.3012348793 1.9053575329
| 11> O 2.0114560336 -1.4859380877 -0.6362075491
| 12> C 1.7488821751 -2.8194988827 -0.1668022516
| 13> C 2.9066800931 -3.3676258875 0.6412638103
| 14> S 1.8687183562 1.2963746018 -1.0775636124
| 15> C 0.147915654 1.0337277102 -1.5676196788
| 16> S -1.0371557599 1.7241315918 -0.3663254906
| 17> P -2.3656236764 0.0615409254 -0.2499149313
| 18> S -1.5865743026 -1.7003401897 -0.5846269073
| 19> O -3.4953892346 0.314068997 -1.3183617065
| 20> C -4.2842090501 1.5291063833 -1.3969671066
| 21> C -3.8610757154 2.3493635426 -2.5994433215
| 22> O -3.1607554312 0.3317727751 1.0964087967
| 23> C -2.6237312615 0.3043254377 2.4310471265
| 24> C -2.5647733899 -1.1090334302 2.972974744
| 25> H 5.4576478781 1.7828267409 0.7434035697
| 26> H 6.1236362747 1.3332087886 -0.8357347121
| 27> H 4.4760514482 1.9721738279 -0.7152129414
| 28> H 5.4605237811 -0.6959884053 0.4277863048
| 29> H 4.4195441451 -0.4995964158 -1.0126232573
| 30> H 0.8285694512 -2.8062837562 0.4252771966
| 31> H 1.5758254539 -3.3908089503 -1.0798956593
| 32> H 2.6838858766 -4.3881081813 0.9362824064
| 33> H 3.8205390327 -3.3535572562 0.0526868602
| 34> H 3.0489987657 -2.7638911895 1.5375481383
| 35> H -0.0467050842 -0.0371804292 -1.6707175745
| 36> H 0.0295408586 1.5544456008 -2.5141372419
| 37> H -5.314542792 1.1836712956 -1.4935701654
| 38> H -4.1713345448 2.0923467989 -0.4686863236
| 39> H -3.8904188478 1.7355829205 -3.4954112921
| 40> H -4.5440693283 3.1848854762 -2.7151589286
| 41> H -2.8528881602 2.7329310712 -2.464193234
| 42> H -1.6301964427 0.7598712565 2.4368332284
| 43> H -3.3167950443 0.9220960486 3.0051942045
| 44> H -2.2446001956 -1.0791438553 4.0091703901
| 45> H -3.5410349184 -1.5812909233 2.903994317
| 46> H -1.8456473943 -1.6967189313 2.4060813105
| 47> *
| 48>
| 49>                          ****END OF INPUT****

CARTESIAN COORDINATES (ANGSTROEM)
---------------------------------
  C      5.225336    1.352793   -0.226845
  C      4.713514   -0.063067   -0.054854
  O      3.579580   -0.087619    0.846644
  P      2.079668   -0.231811    0.357008
  S      0.892815   -0.301235    1.905358
  O      2.011456   -1.485938   -0.636208
  C      1.748882   -2.819499   -0.166802
  C      2.906680   -3.367626    0.641264
  S      1.868718    1.296375   -1.077564
  C      0.147916    1.033728   -1.567620
  S     -1.037156    1.724132   -0.366325
  P     -2.365624    0.061541   -0.249915
  S     -1.586574   -1.700340   -0.584627
  O     -3.495389    0.314069   -1.318362
  C     -4.284209    1.529106   -1.396967
  C     -3.861076    2.349364   -2.599443
  O     -3.160755    0.331773    1.096409
  C     -2.623731    0.304325    2.431047
  C     -2.564773   -1.109033    2.972975
  H      5.457648    1.782827    0.743404
  H      6.123636    1.333209   -0.835735
  H      4.476051    1.972174   -0.715213
  H      5.460524   -0.695988    0.427786
  H      4.419544   -0.499596   -1.012623
  H      0.828569   -2.806284    0.425277
  H      1.575825   -3.390809   -1.079896
  H      2.683886   -4.388108    0.936282
  H      3.820539   -3.353557    0.052687
  H      3.048999   -2.763891    1.537548
  H     -0.046705   -0.037180   -1.670718
  H      0.029541    1.554446   -2.514137
  H     -5.314543    1.183671   -1.493570
  H     -4.171335    2.092347   -0.468686
  H     -3.890419    1.735583   -3.495411
  H     -4.544069    3.184885   -2.715159
  H     -2.852888    2.732931   -2.464193
  H     -1.630196    0.759871    2.436833
  H     -3.316795    0.922096    3.005194
  H     -2.244600   -1.079144    4.009170
  H     -3.541035   -1.581291    2.903994
  H     -1.845647   -1.696719    2.406081

 Total Charge           Charge          ....    0
 Multiplicity           Mult            ....    1
 Number of Electrons    NEL             ....  202
 Basis Dimension        Dim             ....  334

ORBITAL ENERGIES
----------------

  NO   OCC          E(Eh)            E(eV)
   0   2.0000     -88.044053     -2395.8005
   1   2.0000     -88.039333     -2395.6721
   2   2.0000     -87.980881     -2394.0815
   3   2.0000     -87.978829     -2394.0256
   4   2.0000     -76.423182     -2079.5805
   5   2.0000     -76.422428     -2079.5600
   6   2.0000     -18.793331      -511.3925
   7   2.0000     -18.791602      -511.3455
   8   2.0000     -18.786305      -511.2014
   9   2.0000     -18.784294      -511.1466
  10   2.0000      -9.958669      -270.9892
  11   2.0000      -9.955262      -270.8965
  12   2.0000      -9.953950      -270.8607
  13   2.0000      -9.947610      -270.6882
  14   2.0000      -9.942041      -270.5367
  15   2.0000      -9.890184      -269.1256
  16   2.0000      -9.885713      -269.0039
  17   2.0000      -9.881136      -268.8794
  18   2.0000      -9.872705      -268.6500
  19   2.0000      -7.689500      -209.2419
  20   2.0000      -7.684154      -209.0965
  21   2.0000      -7.626050      -207.5154
  22   2.0000      -7.624028      -207.4604
  23   2.0000      -6.420574      -174.7127
  24   2.0000      -6.420260      -174.7042
  25   2.0000      -5.717374      -155.5776
  26   2.0000      -5.713949      -155.4845
  27   2.0000      -5.711948      -155.4300
  28   2.0000      -5.708766      -155.3434
  29   2.0000      -5.706444      -155.2802
  30   2.0000      -5.701154      -155.1363
  31   2.0000      -5.655033      -153.8813
  32   2.0000      -5.653022      -153.8265
  33   2.0000      -5.646814      -153.6576
  34   2.0000      -5.645891      -153.6325
  35   2.0000      -5.644674      -153.5994
  36   2.0000      -5.643985      -153.5807
  37   2.0000      -4.643345      -126.3518
  38   2.0000      -4.643250      -126.3493
  39   2.0000      -4.642423      -126.3268
  40   2.0000      -4.641812      -126.3101
  41   2.0000      -4.640821      -126.2832
  42   2.0000      -4.640567      -126.2762
  43   2.0000      -0.984785       -26.7973
  44   2.0000      -0.982979       -26.7482
  45   2.0000      -0.941923       -25.6310
  46   2.0000      -0.940084       -25.5810
  47   2.0000      -0.761447       -20.7200
  48   2.0000      -0.720524       -19.6064
  49   2.0000      -0.710516       -19.3341
  50   2.0000      -0.690448       -18.7880
  51   2.0000      -0.684708       -18.6318
  52   2.0000      -0.672189       -18.2912
  53   2.0000      -0.649659       -17.6781
  54   2.0000      -0.634041       -17.2531
  55   2.0000      -0.589688       -16.0462
  56   2.0000      -0.580936       -15.8081
  57   2.0000      -0.577854       -15.7242
  58   2.0000      -0.572571       -15.5805
  59   2.0000      -0.561817       -15.2878
  60   2.0000      -0.503943       -13.7130
  61   2.0000      -0.497101       -13.5268
  62   2.0000      -0.475235       -12.9318
  63   2.0000      -0.472809       -12.8658
  64   2.0000      -0.451860       -12.2957
  65   2.0000      -0.444950       -12.1077
  66   2.0000      -0.440415       -11.9843
  67   2.0000      -0.435861       -11.8604
  68   2.0000      -0.425672       -11.5831
  69   2.0000      -0.414887       -11.2896
  70   2.0000      -0.406772       -11.0688
  71   2.0000      -0.399137       -10.8611
  72   2.0000      -0.394027       -10.7220
  73   2.0000      -0.382907       -10.4194
  74   2.0000      -0.378322       -10.2947
  75   2.0000      -0.367895       -10.0109
  76   2.0000      -0.358014        -9.7421
  77   2.0000      -0.357629        -9.7316
  78   2.0000      -0.354853        -9.6560
  79   2.0000      -0.353300        -9.6138
  80   2.0000      -0.346303        -9.4234
  81   2.0000      -0.342877        -9.3302
  82   2.0000      -0.339571        -9.2402
  83   2.0000      -0.335732        -9.1357
  84   2.0000      -0.326975        -8.8974
  85   2.0000      -0.315228        -8.5778
  86   2.0000      -0.311324        -8.4716
  87   2.0000      -0.304168        -8.2768
  88   2.0000      -0.293429        -7.9846
  89   2.0000      -0.289388        -7.8747
  90   2.0000      -0.274738        -7.4760
  91   2.0000      -0.272369        -7.4115
  92   2.0000      -0.270765        -7.3679
  93   2.0000      -0.263490        -7.1699
  94   2.0000      -0.259592        -7.0639
  95   2.0000      -0.241080        -6.5601
  96   2.0000      -0.221197        -6.0191
  97   2.0000      -0.203703        -5.5430
  98   2.0000      -0.199985        -5.4419
  99   2.0000      -0.191491        -5.2107
 100   2.0000      -0.183810        -5.0017
 101   0.0000      -0.038759        -1.0547
 102   0.0000      -0.029876        -0.8130
 103   0.0000      -0.012244        -0.3332
 104   0.0000       0.008778         0.2389
 105   0.0000       0.019041         0.5181

MULLIKEN ATOMIC CHARGES
-----------------------
   0 C :   -0.291732
   1 C :   -0.034320
   2 O :   -0.366802
   3 P :    0.623531
   4 S :   -0.313333
   5 O :   -0.385765
   6 C :   -0.018933
   7 C :   -0.313851
   8 S :   -0.108566
   9 C :   -0.339628
  10 S :   -0.100858
  11 P :    0.610003
  12 S :   -0.307018
  13 O :   -0.358036
  14 C :   -0.007697
  15 C :   -0.290321
  16 O :   -0.379494
  17 C :   -0.020296
  18 C :   -0.304075
  19 H :    0.123921
  20 H :    0.111872
  21 H :    0.131678
  22 H :    0.111990
  23 H :    0.111644
  24 H :    0.134465
  25 H :    0.103666
  26 H :    0.113517
  27 H :    0.107913
  28 H :    0.129274
  29 H :    0.196684
  30 H :    0.181058
  31 H :    0.110457
  32 H :    0.103036
  33 H :    0.118828
  34 H :    0.108567
  35 H :    0.116504
  36 H :    0.131513
  37 H :    0.100551
  38 H :    0.107911
  39 H :    0.110933
  40 H :    0.141210
Sum of atomic charges:   -0.0000000

LOEWDIN ATOMIC CHARGES
----------------------
   0 C :   -0.359551
   1 C :   -0.121063
   2 O :   -0.241082
   3 P :    0.568654
   4 S :   -0.303662
   5 O :   -0.251638
   6 C :   -0.124878
   7 C :   -0.366919
   8 S :    0.084704
   9 C :   -0.477559
  10 S :    0.066513
  11 P :    0.567669
  12 S :   -0.290726
  13 O :   -0.240948
  14 C :   -0.113168
  15 C :   -0.360967
  16 O :   -0.240757
  17 C :   -0.116458
  18 C :   -0.364764
  19 H :    0.131060
  20 H :    0.131237
  21 H :    0.119871
  22 H :    0.120957
  23 H :    0.109945
  24 H :    0.110010
  25 H :    0.118171
  26 H :    0.131662
  27 H :    0.120031
  28 H :    0.125018
  29 H :    0.123700
  30 H :    0.134741
  31 H :    0.121688
  32 H :    0.108034
  33 H :    0.128310
  34 H :    0.129161
  35 H :    0.118384
  36 H :    0.109147
  37 H :    0.116060
  38 H :    0.129769
  39 H :    0.124451
  40 H :    0.125196

  Mayer bond orders larger than 0.100000
B(  0-C ,  1-C ) :   1.1669 B(  0-C , 19-H ) :   0.9454 B(  0-C , 20-H ) :   0.9389
B(  0-C , 21-H ) :   0.9369 B(  1-C ,  2-O ) :   0.8968 B(  1-C , 22-H ) :   0.9321
B(  1-C , 23-H ) :   0.9144 B(  2-O ,  3-P ) :   1.1151 B(  3-P ,  4-S ) :   1.6604
B(  3-P ,  5-O ) :   1.0727 B(  3-P ,  8-S ) :   0.9616 B(  4-S ,  8-S ) :   0.1092
B(  5-O ,  6-C ) :   0.9022 B(  6-C ,  7-C ) :   1.1579 B(  6-C , 24-H ) :   0.9064
B(  6-C , 25-H ) :   0.9358 B(  7-C , 26-H ) :   0.9401 B(  7-C , 27-H ) :   0.9454
B(  7-C , 28-H ) :   0.9348 B(  8-S ,  9-C ) :   1.0049 B(  9-C , 10-S ) :   0.9934
B(  9-C , 29-H ) :   0.8476 B(  9-C , 30-H ) :   0.9116 B( 10-S , 11-P ) :   0.9464
B( 10-S , 12-S ) :   0.1147 B( 11-P , 12-S ) :   1.6325 B( 11-P , 13-O ) :   1.1308
B( 11-P , 16-O ) :   1.1090 B( 12-S , 29-H ) :   0.1098 B( 13-O , 14-C ) :   0.8938
B( 14-C , 15-C ) :   1.1637 B( 14-C , 31-H ) :   0.9351 B( 14-C , 32-H ) :   0.9182
B( 15-C , 33-H ) :   0.9466 B( 15-C , 34-H ) :   0.9402 B( 15-C , 35-H ) :   0.9374
B( 16-O , 17-C ) :   0.8989 B( 17-C , 18-C ) :   1.1736 B( 17-C , 36-H ) :   0.9110
B( 17-C , 37-H ) :   0.9348 B( 18-C , 38-H ) :   0.9387 B( 18-C , 39-H ) :   0.9465
B( 18-C , 40-H ) :   0.9305

Dispersion correction           -0.066029364
FINAL SINGLE POINT ENERGY     -2929.515706498212

DIPOLE MOMENT
-------------

Method             : SCF
Type of density    : Electron Density
Multiplicity       :   1
Irrep              :   0
Energy             : -2929.6348050021215386 Eh
Relativity type    :
Basis              : AO
                                X                 Y                 Z
Electronic contribution:     -4.089555878       3.249660521      -0.830789948
Nuclear contribution   :      4.482402734      -2.741759173       0.300722192
                        -----------------------------------------
Total Dipole Moment    :      0.392846856       0.507901348      -0.530067755
                        -----------------------------------------
Magnitude (a.u.)       :      0.832624920
Magnitude (Debye)      :      2.116364356

Rotational constants in cm-1:             0.012504             0.005136             0.004492
Rotational constants in MHz :           374.854877           153.982032           134.660262

                             ****ORCA TERMINATED NORMALLY****
TOTAL RUN TIME: 0 days 0 hours 0 minutes 20 seconds 945 msec
