                         Program Version 6.0.0  -   RELEASE  -
|  1> ! pbe def2-sv(p) def2/J RI DEFGRID1 loosescf d4 GCP(DFT/SV(P)) printgap
|  2> %output
|  3>     printlevel normal
|  4> end
|  5> * xyz 0 1
|  6> C 1.4743935523 -2.9718432735 1.4730842893
|  7> C 2.1933380714 -1.7500653121 2.0077145954
|  8> O 1.6923547433 -0.5445501988 1.3737961806
|  9> P 2.4243467828 0.1140723932 0.1382893523
| 10> S 3.3391020591 -1.0965362096 -1.109331292
| 11> O 3.38300401 1.1528651118 0.8633459572
| 12> C 4.3956815615 1.8929634888 0.1523701229
| 13> C 5.4740795439 2.2826298841 1.143412804
| 14> S 0.8959616808 1.3175452295 -0.6800927786
| 15> C 0.1525658215 0.0118122789 -1.6988549858
| 16> S -0.9068840546 -1.088773488 -0.7425953875
| 17> P -2.4616899741 0.3358643065 -0.3891226336
| 18> S -2.7784622898 1.5288351354 -1.9106706504
| 19> O -2.1353323346 1.1419669944 0.9224355007
| 20> C -2.3559849413 0.691232802 2.2828062991
| 21> C -1.5579531363 -0.549760981 2.6193488677
| 22> O -3.6900129921 -0.5667671486 0.0497220606
| 23> C -4.3918179382 -1.3827004655 -0.9128752042
| 24> C -5.7227468028 -1.7756909545 -0.3048883552
| 25> H 0.4009880966 -2.8635560328 1.5960435809
| 26> H 1.6896952229 -3.1006826678 0.4145098346
| 27> H 1.8151212995 -3.8491824715 2.013167239
| 28> H 3.2700555512 -1.8240503926 1.8355009532
| 29> H 1.9999506234 -1.6011194289 3.0708602369
| 30> H 4.7959620738 1.259879782 -0.6470241539
| 31> H 3.9222686606 2.7728924179 -0.2906651129
| 32> H 6.2292529922 2.8715543377 0.6333428472
| 33> H 5.0417052402 2.8696083866 1.9484872592
| 34> H 5.9360676331 1.3937071087 1.5635815927
| 35> H 0.942675203 -0.5956643519 -2.1419189779
| 36> H -0.4449323441 0.5112869042 -2.4623678781
| 37> H -2.0391768736 1.5482978585 2.8792695226
| 38> H -3.4258044421 0.5192302382 2.4132422881
| 39> H -0.50321571 -0.3848207905 2.4125948299
| 40> H -1.6853574729 -0.7783544887 3.6729337029
| 41> H -1.9074478034 -1.3933063363 2.0267904064
| 42> H -4.5244677884 -0.8010800529 -1.8308861577
| 43> H -3.7745957416 -2.258362945 -1.1295848022
| 44> H -6.3120504645 -0.8886430668 -0.0900628833
| 45> H -6.2626776905 -2.4010521179 -1.0081235145
| 46> H -5.5637497425 -2.3266998929 0.6173035582
| 47> *
| 48>
| 49>                          ****END OF INPUT****

CARTESIAN COORDINATES (ANGSTROEM)
---------------------------------
  C      1.474394   -2.971843    1.473084
  C      2.193338   -1.750065    2.007715
  O      1.692355   -0.544550    1.373796
  P      2.424347    0.114072    0.138289
  S      3.339102   -1.096536   -1.109331
  O      3.383004    1.152865    0.863346
  C      4.395682    1.892963    0.152370
  C      5.474080    2.282630    1.143413
  S      0.895962    1.317545   -0.680093
  C      0.152566    0.011812   -1.698855
  S     -0.906884   -1.088773   -0.742595
  P     -2.461690    0.335864   -0.389123
  S     -2.778462    1.528835   -1.910671
  O     -2.135332    1.141967    0.922436
  C     -2.355985    0.691233    2.282806
  C     -1.557953   -0.549761    2.619349
  O     -3.690013   -0.566767    0.049722
  C     -4.391818   -1.382700   -0.912875
  C     -5.722747   -1.775691   -0.304888
  H      0.400988   -2.863556    1.596044
  H      1.689695   -3.100683    0.414510
  H      1.815121   -3.849182    2.013167
  H      3.270056   -1.824050    1.835501
  H      1.999951   -1.601119    3.070860
  H      4.795962    1.259880   -0.647024
  H      3.922269    2.772892   -0.290665
  H      6.229253    2.871554    0.633343
  H      5.041705    2.869608    1.948487
  H      5.936068    1.393707    1.563582
  H      0.942675   -0.595664   -2.141919
  H     -0.444932    0.511287   -2.462368
  H     -2.039177    1.548298    2.879270
  H     -3.425804    0.519230    2.413242
  H     -0.503216   -0.384821    2.412595
  H     -1.685357   -0.778354    3.672934
  H     -1.907448   -1.393306    2.026790
  H     -4.524468   -0.801080   -1.830886
  H     -3.774596   -2.258363   -1.129585
  H     -6.312050   -0.888643   -0.090063
  H     -6.262678   -2.401052   -1.008124
  H     -5.563750   -2.326700    0.617304

 Total Charge           Charge          ....    0
 Multiplicity           Mult            ....    1
 Number of Electrons    NEL             ....  202
 Basis Dimension        Dim             ....  334

ORBITAL ENERGIES
----------------

  NO   OCC          E(Eh)            E(eV)
   0   2.0000     -88.039760     -2395.6837
   1   2.0000     -88.038599     -2395.6521
   2   2.0000     -87.989053     -2394.3039
   3   2.0000     -87.982056     -2394.1135
   4   2.0000     -76.427146     -2079.6884
   5   2.0000     -76.426106     -2079.6601
   6   2.0000     -18.800077      -511.5761
   7   2.0000     -18.794280      -511.4183
   8   2.0000     -18.794216      -511.4166
   9   2.0000     -18.790625      -511.3189
  10   2.0000      -9.957066      -270.9455
  11   2.0000      -9.956592      -270.9327
  12   2.0000      -9.956456      -270.9290
  13   2.0000      -9.953062      -270.8366
  14   2.0000      -9.948109      -270.7018
  15   2.0000      -9.892370      -269.1851
  16   2.0000      -9.888877      -269.0900
  17   2.0000      -9.885713      -269.0039
  18   2.0000      -9.881986      -268.9025
  19   2.0000      -7.685151      -209.1236
  20   2.0000      -7.683561      -209.0803
  21   2.0000      -7.634035      -207.7326
  22   2.0000      -7.627381      -207.5516
  23   2.0000      -6.425103      -174.8359
  24   2.0000      -6.423540      -174.7934
  25   2.0000      -5.712940      -155.4570
  26   2.0000      -5.711244      -155.4108
  27   2.0000      -5.709842      -155.3727
  28   2.0000      -5.708204      -155.3281
  29   2.0000      -5.701989      -155.1590
  30   2.0000      -5.700635      -155.1222
  31   2.0000      -5.662756      -154.0914
  32   2.0000      -5.656352      -153.9172
  33   2.0000      -5.654781      -153.8744
  34   2.0000      -5.654257      -153.8602
  35   2.0000      -5.648075      -153.6919
  36   2.0000      -5.647361      -153.6725
  37   2.0000      -4.647626      -126.4683
  38   2.0000      -4.646817      -126.4463
  39   2.0000      -4.646706      -126.4433
  40   2.0000      -4.645562      -126.4122
  41   2.0000      -4.645089      -126.3993
  42   2.0000      -4.643651      -126.3602
  43   2.0000      -0.991285       -26.9742
  44   2.0000      -0.989048       -26.9134
  45   2.0000      -0.947528       -25.7836
  46   2.0000      -0.946684       -25.7606
  47   2.0000      -0.762950       -20.7609
  48   2.0000      -0.723935       -19.6993
  49   2.0000      -0.712556       -19.3896
  50   2.0000      -0.695178       -18.9168
  51   2.0000      -0.689118       -18.7519
  52   2.0000      -0.674707       -18.3597
  53   2.0000      -0.648527       -17.6473
  54   2.0000      -0.635169       -17.2838
  55   2.0000      -0.597224       -16.2513
  56   2.0000      -0.591472       -16.0948
  57   2.0000      -0.575813       -15.6687
  58   2.0000      -0.570749       -15.5309
  59   2.0000      -0.558688       -15.2027
  60   2.0000      -0.510498       -13.8914
  61   2.0000      -0.506265       -13.7762
  62   2.0000      -0.479228       -13.0404
  63   2.0000      -0.474918       -12.9232
  64   2.0000      -0.460246       -12.5239
  65   2.0000      -0.447253       -12.1704
  66   2.0000      -0.443600       -12.0710
  67   2.0000      -0.436457       -11.8766
  68   2.0000      -0.434471       -11.8225
  69   2.0000      -0.418147       -11.3784
  70   2.0000      -0.405517       -11.0347
  71   2.0000      -0.401161       -10.9161
  72   2.0000      -0.388953       -10.5840
  73   2.0000      -0.382733       -10.4147
  74   2.0000      -0.379770       -10.3341
  75   2.0000      -0.374306       -10.1854
  76   2.0000      -0.370483       -10.0814
  77   2.0000      -0.358042        -9.7428
  78   2.0000      -0.355246        -9.6667
  79   2.0000      -0.354470        -9.6456
  80   2.0000      -0.349959        -9.5229
  81   2.0000      -0.348247        -9.4763
  82   2.0000      -0.343466        -9.3462
  83   2.0000      -0.339680        -9.2432
  84   2.0000      -0.335198        -9.1212
  85   2.0000      -0.323112        -8.7923
  86   2.0000      -0.308759        -8.4018
  87   2.0000      -0.305648        -8.3171
  88   2.0000      -0.301022        -8.1912
  89   2.0000      -0.295518        -8.0415
  90   2.0000      -0.290036        -7.8923
  91   2.0000      -0.281167        -7.6509
  92   2.0000      -0.274234        -7.4623
  93   2.0000      -0.264375        -7.1940
  94   2.0000      -0.255246        -6.9456
  95   2.0000      -0.233440        -6.3522
  96   2.0000      -0.219513        -5.9733
  97   2.0000      -0.211713        -5.7610
  98   2.0000      -0.202507        -5.5105
  99   2.0000      -0.200957        -5.4683
 100   2.0000      -0.194879        -5.3029
 101   0.0000      -0.044808        -1.2193
 102   0.0000      -0.023998        -0.6530
 103   0.0000      -0.001688        -0.0459
 104   0.0000       0.000959         0.0261
 105   0.0000       0.014138         0.3847

MULLIKEN ATOMIC CHARGES
-----------------------
   0 C :   -0.296880
   1 C :   -0.001193
   2 O :   -0.361507
   3 P :    0.609233
   4 S :   -0.339522
   5 O :   -0.376493
   6 C :   -0.012030
   7 C :   -0.281374
   8 S :   -0.060798
   9 C :   -0.385967
  10 S :   -0.100943
  11 P :    0.614440
  12 S :   -0.318083
  13 O :   -0.354190
  14 C :    0.017423
  15 C :   -0.367259
  16 O :   -0.390411
  17 C :   -0.010585
  18 C :   -0.281051
  19 H :    0.124309
  20 H :    0.123692
  21 H :    0.106910
  22 H :    0.107792
  23 H :    0.106784
  24 H :    0.108204
  25 H :    0.105425
  26 H :    0.113209
  27 H :    0.117453
  28 H :    0.116703
  29 H :    0.190830
  30 H :    0.199342
  31 H :    0.110578
  32 H :    0.107828
  33 H :    0.160400
  34 H :    0.108962
  35 H :    0.122944
  36 H :    0.109595
  37 H :    0.105518
  38 H :    0.122048
  39 H :    0.114815
  40 H :    0.113851
Sum of atomic charges:   -0.0000000

LOEWDIN ATOMIC CHARGES
----------------------
   0 C :   -0.363014
   1 C :   -0.111541
   2 O :   -0.237483
   3 P :    0.570223
   4 S :   -0.324049
   5 O :   -0.249594
   6 C :   -0.119771
   7 C :   -0.350590
   8 S :    0.092050
   9 C :   -0.491220
  10 S :    0.070543
  11 P :    0.570583
  12 S :   -0.312211
  13 O :   -0.232669
  14 C :   -0.103787
  15 C :   -0.377925
  16 O :   -0.250091
  17 C :   -0.119173
  18 C :   -0.350274
  19 H :    0.123953
  20 H :    0.123969
  21 H :    0.128415
  22 H :    0.110957
  23 H :    0.117791
  24 H :    0.108075
  25 H :    0.112817
  26 H :    0.131449
  27 H :    0.127139
  28 H :    0.127205
  29 H :    0.126849
  30 H :    0.128512
  31 H :    0.123545
  32 H :    0.113657
  33 H :    0.131787
  34 H :    0.129114
  35 H :    0.115782
  36 H :    0.111502
  37 H :    0.109995
  38 H :    0.129613
  39 H :    0.132503
  40 H :    0.125365

  Mayer bond orders larger than 0.100000
B(  0-C ,  1-C ) :   1.1749 B(  0-C , 19-H ) :   0.9425 B(  0-C , 20-H ) :   0.9344
B(  0-C , 21-H ) :   0.9383 B(  1-C ,  2-O ) :   0.8730 B(  1-C , 22-H ) :   0.9142
B(  1-C , 23-H ) :   0.9325 B(  2-O ,  3-P ) :   1.1305 B(  3-P ,  4-S ) :   1.5869
B(  3-P ,  5-O ) :   1.1173 B(  3-P ,  8-S ) :   0.9810 B(  4-S ,  8-S ) :   0.1089
B(  5-O ,  6-C ) :   0.9031 B(  6-C ,  7-C ) :   1.1615 B(  6-C , 24-H ) :   0.9071
B(  6-C , 25-H ) :   0.9308 B(  7-C , 26-H ) :   0.9418 B(  7-C , 27-H ) :   0.9507
B(  7-C , 28-H ) :   0.9512 B(  8-S ,  9-C ) :   1.0033 B(  9-C , 10-S ) :   1.0105
B(  9-C , 29-H ) :   0.8669 B(  9-C , 30-H ) :   0.8658 B( 10-S , 11-P ) :   0.9405
B( 10-S , 12-S ) :   0.1132 B( 11-P , 12-S ) :   1.6451 B( 11-P , 13-O ) :   1.1468
B( 11-P , 16-O ) :   1.0748 B( 13-O , 14-C ) :   0.8970 B( 14-C , 15-C ) :   1.1691
B( 14-C , 31-H ) :   0.9335 B( 14-C , 32-H ) :   0.9294 B( 15-C , 33-H ) :   0.9185
B( 15-C , 34-H ) :   0.9340 B( 15-C , 35-H ) :   0.9361 B( 16-O , 17-C ) :   0.8980
B( 17-C , 18-C ) :   1.1601 B( 17-C , 36-H ) :   0.9097 B( 17-C , 37-H ) :   0.9287
B( 18-C , 38-H ) :   0.9506 B( 18-C , 39-H ) :   0.9415 B( 18-C , 40-H ) :   0.9514

Dispersion correction           -0.063595188
FINAL SINGLE POINT ENERGY     -2929.521360177936

DIPOLE MOMENT
-------------

Method             : SCF
Type of density    : Electron Density
Multiplicity       :   1
Irrep              :   0
Energy             : -2929.6423263731644511 Eh
Relativity type    :
Basis              : AO
                                X                 Y                 Z
Electronic contribution:      0.274482454      10.258258468     -15.284905382
Nuclear contribution   :     -0.368672572     -11.023844365      16.815441531
                        -----------------------------------------
Total Dipole Moment    :     -0.094190118      -0.765585897       1.530536148
                        -----------------------------------------
Magnitude (a.u.)       :      1.713923699
Magnitude (Debye)      :      4.356447829

Rotational constants in cm-1:             0.013680             0.004408             0.004151
Rotational constants in MHz :           410.102296           132.144993           124.456759

                             ****ORCA TERMINATED NORMALLY****
TOTAL RUN TIME: 0 days 0 hours 0 minutes 20 seconds 859 msec
