                         Program Version 6.0.0  -   RELEASE  -
|  1> ! r2scan-3c def2/J RI DEFGRID2 scfconv6 printgap
|  2> %output
|  3>     printlevel normal
|  4> end
|  5> * xyz 0 1
|  6> C 0.0223628498 -2.4439637186 0.0946766775
|  7> C 1.2091942614 -1.738879682 -0.0004245889
|  8> C 1.1788160749 -0.349231405 -0.0597712605
|  9> C -0.0224634071 0.3409992727 -0.0240903974
| 10> C -1.2029646953 -0.3857566235 0.0697848604
| 11> C -1.1894843609 -1.7725779514 0.1314538814
| 12> C -2.4946138266 0.3779924772 0.1227218589
| 13> F -2.5882614597 1.3052010279 -0.8505566805
| 14> F -3.5825797407 -0.396122686 0.0080252872
| 15> F -2.641268939 1.0555675427 1.2824753712
| 16> C 2.4799878911 0.3934458047 -0.1568912409
| 17> F 3.2191664873 -0.0014572257 -1.2132952195
| 18> F 2.3390788972 1.7213168332 -0.2755740111
| 19> F 3.2641644982 0.1959778684 0.9238276302
| 20> H 0.0396773683 -3.5199644025 0.1408502976
| 21> H 2.1563730949 -2.2541592993 -0.0299061732
| 22> H -0.0447313467 1.4186936347 -0.0720251581
| 23> H -2.1170749193 -2.3178068369 0.2043443794
| 24> *
| 25>
| 26>                          ****END OF INPUT****

CARTESIAN COORDINATES (ANGSTROEM)
---------------------------------
  C      0.022363   -2.443964    0.094677
  C      1.209194   -1.738880   -0.000425
  C      1.178816   -0.349231   -0.059771
  C     -0.022463    0.340999   -0.024090
  C     -1.202965   -0.385757    0.069785
  C     -1.189484   -1.772578    0.131454
  C     -2.494614    0.377992    0.122722
  F     -2.588261    1.305201   -0.850557
  F     -3.582580   -0.396123    0.008025
  F     -2.641269    1.055568    1.282475
  C      2.479988    0.393446   -0.156891
  F      3.219166   -0.001457   -1.213295
  F      2.339079    1.721317   -0.275574
  F      3.264164    0.195978    0.923828
  H      0.039677   -3.519964    0.140850
  H      2.156373   -2.254159   -0.029906
  H     -0.044731    1.418694   -0.072025
  H     -2.117075   -2.317807    0.204344

 Total Charge           Charge          ....    0
 Multiplicity           Mult            ....    1
 Number of Electrons    NEL             ....  106
 Basis Dimension        Dim             ....  316

ORBITAL ENERGIES
----------------

  NO   OCC          E(Eh)            E(eV)
   0   2.0000     -24.528550      -667.4558
   1   2.0000     -24.528327      -667.4497
   2   2.0000     -24.523593      -667.3209
   3   2.0000     -24.522968      -667.3039
   4   2.0000     -24.522121      -667.2808
   5   2.0000     -24.521182      -667.2553
   6   2.0000     -10.295188      -280.1463
   7   2.0000     -10.295071      -280.1431
   8   2.0000     -10.091694      -274.6089
   9   2.0000     -10.091325      -274.5989
  10   2.0000     -10.084079      -274.4018
  11   2.0000     -10.080735      -274.3107
  12   2.0000     -10.080567      -274.3062
  13   2.0000     -10.075816      -274.1769
  14   2.0000      -1.283807       -34.9342
  15   2.0000      -1.283777       -34.9334
  16   2.0000      -1.195629       -32.5347
  17   2.0000      -1.195387       -32.5281
  18   2.0000      -1.189571       -32.3699
  19   2.0000      -1.189231       -32.3606
  20   2.0000      -0.878883       -23.9156
  21   2.0000      -0.793455       -21.5910
  22   2.0000      -0.772347       -21.0166
  23   2.0000      -0.691147       -18.8071
  24   2.0000      -0.684644       -18.6301
  25   2.0000      -0.622937       -16.9510
  26   2.0000      -0.618423       -16.8282
  27   2.0000      -0.577593       -15.7171
  28   2.0000      -0.566168       -15.4062
  29   2.0000      -0.561996       -15.2927
  30   2.0000      -0.561426       -15.2772
  31   2.0000      -0.555974       -15.1288
  32   2.0000      -0.508718       -13.8429
  33   2.0000      -0.499892       -13.6028
  34   2.0000      -0.467366       -12.7177
  35   2.0000      -0.445610       -12.1257
  36   2.0000      -0.436646       -11.8817
  37   2.0000      -0.436134       -11.8678
  38   2.0000      -0.434885       -11.8338
  39   2.0000      -0.430979       -11.7275
  40   2.0000      -0.406371       -11.0579
  41   2.0000      -0.399058       -10.8589
  42   2.0000      -0.396539       -10.7904
  43   2.0000      -0.395983       -10.7752
  44   2.0000      -0.390457       -10.6249
  45   2.0000      -0.388679       -10.5765
  46   2.0000      -0.375092       -10.2068
  47   2.0000      -0.373721       -10.1695
  48   2.0000      -0.373686       -10.1685
  49   2.0000      -0.353374        -9.6158
  50   2.0000      -0.347985        -9.4692
  51   2.0000      -0.281326        -7.6553
  52   2.0000      -0.279294        -7.6000
  53   0.0000      -0.086520        -2.3543
  54   0.0000      -0.077377        -2.1055
  55   0.0000       0.050609         1.3771
  56   0.0000       0.056664         1.5419
  57   0.0000       0.076854         2.0913

MULLIKEN ATOMIC CHARGES
-----------------------
   0 C :   -0.143334
   1 C :   -0.125591
   2 C :    0.105797
   3 C :   -0.229210
   4 C :    0.142963
   5 C :   -0.157666
   6 C :    0.513134
   7 F :   -0.214043
   8 F :   -0.215411
   9 F :   -0.210333
  10 C :    0.509362
  11 F :   -0.212826
  12 F :   -0.215214
  13 F :   -0.211514
  14 H :    0.152527
  15 H :    0.161895
  16 H :    0.178497
  17 H :    0.170968
Sum of atomic charges:   -0.0000000

LOEWDIN ATOMIC CHARGES
----------------------
   0 C :   -0.138173
   1 C :   -0.104511
   2 C :   -0.059393
   3 C :   -0.082199
   4 C :   -0.060132
   5 C :   -0.107324
   6 C :    0.531215
   7 F :   -0.209376
   8 F :   -0.207692
   9 F :   -0.211207
  10 C :    0.531588
  11 F :   -0.210334
  12 F :   -0.206613
  13 F :   -0.210817
  14 H :    0.175344
  15 H :    0.185214
  16 H :    0.197971
  17 H :    0.186439

  Mayer bond orders larger than 0.100000
B(  0-C ,  1-C ) :   1.4040 B(  0-C ,  5-C ) :   1.3562 B(  0-C , 14-H ) :   0.9576
B(  1-C ,  2-C ) :   1.4086 B(  1-C , 15-H ) :   0.9191 B(  2-C ,  3-C ) :   1.4152
B(  2-C , 10-C ) :   0.9695 B(  3-C ,  4-C ) :   1.3868 B(  3-C , 16-H ) :   0.9374
B(  4-C ,  5-C ) :   1.3977 B(  4-C ,  6-C ) :   0.9664 B(  5-C , 17-H ) :   0.9524
B(  6-C ,  7-F ) :   1.0328 B(  6-C ,  8-F ) :   1.0586 B(  6-C ,  9-F ) :   1.0262
B( 10-C , 11-F ) :   1.0292 B( 10-C , 12-F ) :   1.0586 B( 10-C , 13-F ) :   1.0269

Dispersion correction           -0.006488504
FINAL SINGLE POINT ENERGY      -906.280612622274

DIPOLE MOMENT
-------------

Method             : SCF
Type of density    : Electron Density
Multiplicity       :   1
Irrep              :   0
Energy             :  -906.2894046282228828 Eh
Relativity type    :
Basis              : AO
                                X                 Y                 Z
Electronic contribution:     -0.046754216       8.756583028      -0.320024756
Nuclear contribution   :      0.022584032      -9.856091118       0.344131734
                        -----------------------------------------
Total Dipole Moment    :     -0.024170184      -1.099508090       0.024106978
                        -----------------------------------------
Magnitude (a.u.)       :      1.100037901
Magnitude (Debye)      :      2.796074137

Rotational constants in cm-1:             0.044301             0.012726             0.011019
Rotational constants in MHz :          1328.099108           381.527184           330.327979

                             ****ORCA TERMINATED NORMALLY****
TOTAL RUN TIME: 0 days 0 hours 0 minutes 39 seconds 677 msec
