                         Program Version 6.0.0  -   RELEASE  -
|  1> ! r2scan-3c def2/J RI DEFGRID2 scfconv6 printgap
|  2> %output
|  3>     printlevel normal
|  4> end
|  5> %cpcm
|  6>     smd true
|  7>     smdsolvent "water"
|  8> end
|  9> * xyz 0 1
| 10> C 0.0223628498 -2.4439637186 0.0946766775
| 11> C 1.2091942614 -1.738879682 -0.0004245889
| 12> C 1.1788160749 -0.349231405 -0.0597712605
| 13> C -0.0224634071 0.3409992727 -0.0240903974
| 14> C -1.2029646953 -0.3857566235 0.0697848604
| 15> C -1.1894843609 -1.7725779514 0.1314538814
| 16> C -2.4946138266 0.3779924772 0.1227218589
| 17> F -2.5882614597 1.3052010279 -0.8505566805
| 18> F -3.5825797407 -0.396122686 0.0080252872
| 19> F -2.641268939 1.0555675427 1.2824753712
| 20> C 2.4799878911 0.3934458047 -0.1568912409
| 21> F 3.2191664873 -0.0014572257 -1.2132952195
| 22> F 2.3390788972 1.7213168332 -0.2755740111
| 23> F 3.2641644982 0.1959778684 0.9238276302
| 24> H 0.0396773683 -3.5199644025 0.1408502976
| 25> H 2.1563730949 -2.2541592993 -0.0299061732
| 26> H -0.0447313467 1.4186936347 -0.0720251581
| 27> H -2.1170749193 -2.3178068369 0.2043443794
| 28> *
| 29>
| 30>                          ****END OF INPUT****

CARTESIAN COORDINATES (ANGSTROEM)
---------------------------------
  C      0.022363   -2.443964    0.094677
  C      1.209194   -1.738880   -0.000425
  C      1.178816   -0.349231   -0.059771
  C     -0.022463    0.340999   -0.024090
  C     -1.202965   -0.385757    0.069785
  C     -1.189484   -1.772578    0.131454
  C     -2.494614    0.377992    0.122722
  F     -2.588261    1.305201   -0.850557
  F     -3.582580   -0.396123    0.008025
  F     -2.641269    1.055568    1.282475
  C      2.479988    0.393446   -0.156891
  F      3.219166   -0.001457   -1.213295
  F      2.339079    1.721317   -0.275574
  F      3.264164    0.195978    0.923828
  H      0.039677   -3.519964    0.140850
  H      2.156373   -2.254159   -0.029906
  H     -0.044731    1.418694   -0.072025
  H     -2.117075   -2.317807    0.204344

 Total Charge           Charge          ....    0
 Multiplicity           Mult            ....    1
 Number of Electrons    NEL             ....  106
 Basis Dimension        Dim             ....  316

ORBITAL ENERGIES
----------------

  NO   OCC          E(Eh)            E(eV)
   0   2.0000     -24.525849      -667.3823
   1   2.0000     -24.525491      -667.3725
   2   2.0000     -24.521999      -667.2775
   3   2.0000     -24.521396      -667.2611
   4   2.0000     -24.520795      -667.2448
   5   2.0000     -24.520135      -667.2268
   6   2.0000     -10.290543      -280.0199
   7   2.0000     -10.290334      -280.0142
   8   2.0000     -10.076462      -274.1945
   9   2.0000     -10.076092      -274.1844
  10   2.0000     -10.067794      -273.9586
  11   2.0000     -10.061725      -273.7934
  12   2.0000     -10.061542      -273.7885
  13   2.0000     -10.054489      -273.5965
  14   2.0000      -1.281925       -34.8830
  15   2.0000      -1.281780       -34.8790
  16   2.0000      -1.193432       -32.4749
  17   2.0000      -1.193314       -32.4717
  18   2.0000      -1.188495       -32.3406
  19   2.0000      -1.188344       -32.3365
  20   2.0000      -0.862851       -23.4794
  21   2.0000      -0.780370       -21.2349
  22   2.0000      -0.755242       -20.5512
  23   2.0000      -0.684356       -18.6223
  24   2.0000      -0.674745       -18.3607
  25   2.0000      -0.610493       -16.6123
  26   2.0000      -0.609363       -16.5816
  27   2.0000      -0.568084       -15.4583
  28   2.0000      -0.563222       -15.3261
  29   2.0000      -0.560692       -15.2572
  30   2.0000      -0.560230       -15.2446
  31   2.0000      -0.550519       -14.9804
  32   2.0000      -0.498274       -13.5587
  33   2.0000      -0.480643       -13.0790
  34   2.0000      -0.452611       -12.3162
  35   2.0000      -0.435462       -11.8495
  36   2.0000      -0.434976       -11.8363
  37   2.0000      -0.434244       -11.8164
  38   2.0000      -0.431311       -11.7366
  39   2.0000      -0.422265       -11.4904
  40   2.0000      -0.401194       -10.9171
  41   2.0000      -0.394978       -10.7479
  42   2.0000      -0.393825       -10.7165
  43   2.0000      -0.389555       -10.6003
  44   2.0000      -0.383143       -10.4259
  45   2.0000      -0.378342       -10.2952
  46   2.0000      -0.372933       -10.1480
  47   2.0000      -0.372771       -10.1436
  48   2.0000      -0.364191        -9.9101
  49   2.0000      -0.336428        -9.1547
  50   2.0000      -0.335453        -9.1282
  51   2.0000      -0.266247        -7.2450
  52   2.0000      -0.263044        -7.1578
  53   0.0000      -0.071189        -1.9372
  54   0.0000      -0.061205        -1.6655
  55   0.0000       0.064285         1.7493
  56   0.0000       0.077273         2.1027
  57   0.0000       0.085297         2.3211

MULLIKEN ATOMIC CHARGES
-----------------------
   0 C :   -0.193773
   1 C :   -0.133678
   2 C :    0.089503
   3 C :   -0.224366
   4 C :    0.120922
   5 C :   -0.160692
   6 C :    0.513400
   7 F :   -0.221417
   8 F :   -0.218687
   9 F :   -0.219791
  10 C :    0.509958
  11 F :   -0.220521
  12 F :   -0.219376
  13 F :   -0.219971
  14 H :    0.190226
  15 H :    0.198986
  16 H :    0.207546
  17 H :    0.201730
Sum of atomic charges:   -0.0000000

LOEWDIN ATOMIC CHARGES
----------------------
   0 C :   -0.134996
   1 C :   -0.102590
   2 C :   -0.067720
   3 C :   -0.083103
   4 C :   -0.068445
   5 C :   -0.101605
   6 C :    0.531313
   7 F :   -0.216153
   8 F :   -0.210822
   9 F :   -0.219308
  10 C :    0.531580
  11 F :   -0.216900
  12 F :   -0.210891
  13 F :   -0.217963
  14 H :    0.188619
  15 H :    0.196644
  16 H :    0.205874
  17 H :    0.196467

  Mayer bond orders larger than 0.100000
B(  0-C ,  1-C ) :   1.3928 B(  0-C ,  5-C ) :   1.3552 B(  0-C , 14-H ) :   0.9608
B(  1-C ,  2-C ) :   1.3873 B(  1-C , 15-H ) :   0.9152 B(  2-C ,  3-C ) :   1.4014
B(  2-C , 10-C ) :   0.9735 B(  3-C ,  4-C ) :   1.3950 B(  3-C , 16-H ) :   0.9226
B(  4-C ,  5-C ) :   1.3633 B(  4-C ,  6-C ) :   0.9701 B(  5-C , 17-H ) :   0.9501
B(  6-C ,  7-F ) :   1.0302 B(  6-C ,  8-F ) :   1.0594 B(  6-C ,  9-F ) :   1.0229
B( 10-C , 11-F ) :   1.0271 B( 10-C , 12-F ) :   1.0575 B( 10-C , 13-F ) :   1.0244

Dispersion correction           -0.006488504
FINAL SINGLE POINT ENERGY      -906.279655249449

DIPOLE MOMENT
-------------

Method             : SCF
Type of density    : Electron Density
Multiplicity       :   1
Irrep              :   0
Energy             :  -906.2884472553978412 Eh
Relativity type    :
Basis              : AO
                                X                 Y                 Z
Electronic contribution:     -0.057951250       8.422165014      -0.309663310
Nuclear contribution   :      0.022584032      -9.856091118       0.344131734
                        -----------------------------------------
Total Dipole Moment    :     -0.035367217      -1.433926103       0.034468424
                        -----------------------------------------
Magnitude (a.u.)       :      1.434776283
Magnitude (Debye)      :      3.646911486

Rotational constants in cm-1:             0.044301             0.012726             0.011019
Rotational constants in MHz :          1328.099108           381.527184           330.327979

                             ****ORCA TERMINATED NORMALLY****
TOTAL RUN TIME: 0 days 0 hours 0 minutes 48 seconds 506 msec
