                         Program Version 6.0.0  -   RELEASE  -
|  1> ! pbe def2-sv(p) def2/J RI DEFGRID1 loosescf d4 GCP(DFT/SV(P)) printgap
|  2> %output
|  3>     printlevel normal
|  4> end
|  5> * xyz 0 1
|  6> C 5.3664963547 -0.0316638622 -0.7265142487
|  7> C 4.3947580238 -0.743092454 0.1951906492
|  8> O 3.3304318079 0.1394396703 0.6013670231
|  9> P 1.9282350204 0.1865934183 -0.1500735754
| 10> S 1.9947130623 0.4466928822 -2.0966858803
| 11> O 1.1811605736 1.2838766385 0.7075958574
| 12> C 1.2084489418 2.6805574687 0.3587188491
| 13> C 2.5935457926 3.2700693955 0.5113936173
| 14> S 1.0565353104 -1.6109658624 0.5086598702
| 15> C -0.1029365392 -1.9639106724 -0.8556428131
| 16> S -1.8214924723 -2.0521249151 -0.3089527984
| 17> P -2.109723098 0.0185974754 0.077725546
| 18> S -1.4771529193 1.2480740931 -1.3057973176
| 19> O -1.4445341186 0.2923182534 1.4802406349
| 20> C -1.8360704204 -0.4218947523 2.6839394824
| 21> C -0.6788767001 -0.3656860455 3.6587040621
| 22> O -3.6564177467 0.1176678374 0.4312324881
| 23> C -4.6813434004 0.2970388207 -0.5635023112
| 24> C -4.8025376461 -0.8948458886 -1.4902629854
| 25> H 6.1830291735 -0.702956846 -0.9716791446
| 26> H 4.8643130909 0.2650098424 -1.6449079383
| 27> H 5.763284105 0.8549165265 -0.2398384583
| 28> H 4.8761663914 -1.04062935 1.1285325709
| 29> H 3.96799409 -1.624572395 -0.29203583
| 30> H 0.845666214 2.7898203519 -0.669283382
| 31> H 0.4887448607 3.1327774277 1.0429611158
| 32> H 3.2664331741 2.8175916865 -0.2161809008
| 33> H 2.5495176645 4.3402730693 0.3351197513
| 34> H 2.9738831995 3.0784086035 1.5113063706
| 35> H 0.1374224239 -2.945926866 -1.2545478367
| 36> H 0.0107455982 -1.189316536 -1.61971646
| 37> H -2.7249136376 0.0721247933 3.0802154979
| 38> H -2.0836830744 -1.4530526751 2.4148727887
| 39> H -0.4180290946 0.6676866997 3.8687949417
| 40> H -0.9678232111 -0.8605766996 4.5802260058
| 41> H 0.1910136917 -0.8657786233 3.2400032358
| 42> H -5.5874814892 0.4433440578 0.0261492349
| 43> H -4.4547707359 1.2049169066 -1.1308273315
| 44> H -4.9018373567 -1.8129463924 -0.9166849685
| 45> H -5.6751005608 -0.7673629429 -2.1228720751
| 46> H -3.9186974441 -0.9684566812 -2.121960182
| 47> *
| 48>
| 49>                          ****END OF INPUT****

CARTESIAN COORDINATES (ANGSTROEM)
---------------------------------
  C      5.366496   -0.031664   -0.726514
  C      4.394758   -0.743092    0.195191
  O      3.330432    0.139440    0.601367
  P      1.928235    0.186593   -0.150074
  S      1.994713    0.446693   -2.096686
  O      1.181161    1.283877    0.707596
  C      1.208449    2.680557    0.358719
  C      2.593546    3.270069    0.511394
  S      1.056535   -1.610966    0.508660
  C     -0.102937   -1.963911   -0.855643
  S     -1.821492   -2.052125   -0.308953
  P     -2.109723    0.018597    0.077726
  S     -1.477153    1.248074   -1.305797
  O     -1.444534    0.292318    1.480241
  C     -1.836070   -0.421895    2.683939
  C     -0.678877   -0.365686    3.658704
  O     -3.656418    0.117668    0.431232
  C     -4.681343    0.297039   -0.563502
  C     -4.802538   -0.894846   -1.490263
  H      6.183029   -0.702957   -0.971679
  H      4.864313    0.265010   -1.644908
  H      5.763284    0.854917   -0.239838
  H      4.876166   -1.040629    1.128533
  H      3.967994   -1.624572   -0.292036
  H      0.845666    2.789820   -0.669283
  H      0.488745    3.132777    1.042961
  H      3.266433    2.817592   -0.216181
  H      2.549518    4.340273    0.335120
  H      2.973883    3.078409    1.511306
  H      0.137422   -2.945927   -1.254548
  H      0.010746   -1.189317   -1.619716
  H     -2.724914    0.072125    3.080215
  H     -2.083683   -1.453053    2.414873
  H     -0.418029    0.667687    3.868795
  H     -0.967823   -0.860577    4.580226
  H      0.191014   -0.865779    3.240003
  H     -5.587481    0.443344    0.026149
  H     -4.454771    1.204917   -1.130827
  H     -4.901837   -1.812946   -0.916685
  H     -5.675101   -0.767363   -2.122872
  H     -3.918697   -0.968457   -2.121960

 Total Charge           Charge          ....    0
 Multiplicity           Mult            ....    1
 Number of Electrons    NEL             ....  202
 Basis Dimension        Dim             ....  334

ORBITAL ENERGIES
----------------

  NO   OCC          E(Eh)            E(eV)
   0   2.0000     -88.043748     -2395.7922
   1   2.0000     -88.041553     -2395.7324
   2   2.0000     -87.982449     -2394.1242
   3   2.0000     -87.981522     -2394.0989
   4   2.0000     -76.423566     -2079.5910
   5   2.0000     -76.421362     -2079.5310
   6   2.0000     -18.794141      -511.4146
   7   2.0000     -18.788713      -511.2669
   8   2.0000     -18.787434      -511.2321
   9   2.0000     -18.780295      -511.0378
  10   2.0000      -9.954296      -270.8702
  11   2.0000      -9.953960      -270.8610
  12   2.0000      -9.951147      -270.7845
  13   2.0000      -9.950992      -270.7803
  14   2.0000      -9.938680      -270.4452
  15   2.0000      -9.885025      -268.9852
  16   2.0000      -9.881602      -268.8921
  17   2.0000      -9.878557      -268.8092
  18   2.0000      -9.875548      -268.7273
  19   2.0000      -7.688807      -209.2231
  20   2.0000      -7.686668      -209.1649
  21   2.0000      -7.627372      -207.5513
  22   2.0000      -7.626419      -207.5254
  23   2.0000      -6.421133      -174.7279
  24   2.0000      -6.418888      -174.6668
  25   2.0000      -5.716611      -155.5569
  26   2.0000      -5.714491      -155.4992
  27   2.0000      -5.713155      -155.4628
  28   2.0000      -5.711093      -155.4067
  29   2.0000      -5.706003      -155.2682
  30   2.0000      -5.703709      -155.2058
  31   2.0000      -5.656363      -153.9175
  32   2.0000      -5.655282      -153.8881
  33   2.0000      -5.647833      -153.6854
  34   2.0000      -5.647599      -153.6790
  35   2.0000      -5.647184      -153.6677
  36   2.0000      -5.646497      -153.6490
  37   2.0000      -4.644011      -126.3700
  38   2.0000      -4.642869      -126.3389
  39   2.0000      -4.641331      -126.2970
  40   2.0000      -4.641212      -126.2938
  41   2.0000      -4.640582      -126.2766
  42   2.0000      -4.639656      -126.2515
  43   2.0000      -0.986782       -26.8517
  44   2.0000      -0.981051       -26.6957
  45   2.0000      -0.942630       -25.6503
  46   2.0000      -0.938251       -25.5311
  47   2.0000      -0.761880       -20.7318
  48   2.0000      -0.718788       -19.5592
  49   2.0000      -0.706644       -19.2288
  50   2.0000      -0.688395       -18.7322
  51   2.0000      -0.681090       -18.5334
  52   2.0000      -0.672558       -18.3012
  53   2.0000      -0.648664       -17.6511
  54   2.0000      -0.632750       -17.2180
  55   2.0000      -0.596982       -16.2447
  56   2.0000      -0.588353       -16.0099
  57   2.0000      -0.567962       -15.4550
  58   2.0000      -0.565497       -15.3879
  59   2.0000      -0.558591       -15.2000
  60   2.0000      -0.504259       -13.7216
  61   2.0000      -0.494551       -13.4574
  62   2.0000      -0.473459       -12.8835
  63   2.0000      -0.466763       -12.7013
  64   2.0000      -0.450415       -12.2564
  65   2.0000      -0.442898       -12.0519
  66   2.0000      -0.437103       -11.8942
  67   2.0000      -0.434287       -11.8175
  68   2.0000      -0.429337       -11.6829
  69   2.0000      -0.414668       -11.2837
  70   2.0000      -0.407779       -11.0962
  71   2.0000      -0.395193       -10.7537
  72   2.0000      -0.388062       -10.5597
  73   2.0000      -0.383095       -10.4246
  74   2.0000      -0.379011       -10.3134
  75   2.0000      -0.368474       -10.0267
  76   2.0000      -0.362063        -9.8522
  77   2.0000      -0.357376        -9.7247
  78   2.0000      -0.352075        -9.5804
  79   2.0000      -0.348350        -9.4791
  80   2.0000      -0.342389        -9.3169
  81   2.0000      -0.340013        -9.2522
  82   2.0000      -0.336638        -9.1604
  83   2.0000      -0.332996        -9.0613
  84   2.0000      -0.329333        -8.9616
  85   2.0000      -0.313453        -8.5295
  86   2.0000      -0.308640        -8.3985
  87   2.0000      -0.300667        -8.1816
  88   2.0000      -0.294283        -8.0079
  89   2.0000      -0.292251        -7.9525
  90   2.0000      -0.276892        -7.5346
  91   2.0000      -0.268581        -7.3085
  92   2.0000      -0.263698        -7.1756
  93   2.0000      -0.260840        -7.0978
  94   2.0000      -0.257944        -7.0190
  95   2.0000      -0.236582        -6.4377
  96   2.0000      -0.221354        -6.0233
  97   2.0000      -0.213702        -5.8151
  98   2.0000      -0.203094        -5.5265
  99   2.0000      -0.193248        -5.2585
 100   2.0000      -0.185000        -5.0341
 101   0.0000      -0.037694        -1.0257
 102   0.0000      -0.028762        -0.7827
 103   0.0000      -0.009122        -0.2482
 104   0.0000       0.013775         0.3748
 105   0.0000       0.023536         0.6405

MULLIKEN ATOMIC CHARGES
-----------------------
   0 C :   -0.293070
   1 C :   -0.007393
   2 O :   -0.374538
   3 P :    0.608105
   4 S :   -0.318293
   5 O :   -0.349899
   6 C :   -0.004305
   7 C :   -0.304488
   8 S :   -0.098098
   9 C :   -0.356425
  10 S :   -0.102865
  11 P :    0.595159
  12 S :   -0.297500
  13 O :   -0.347541
  14 C :   -0.011266
  15 C :   -0.278304
  16 O :   -0.384957
  17 C :    0.002033
  18 C :   -0.323029
  19 H :    0.106084
  20 H :    0.128687
  21 H :    0.113933
  22 H :    0.104820
  23 H :    0.097494
  24 H :    0.124130
  25 H :    0.101670
  26 H :    0.123242
  27 H :    0.108844
  28 H :    0.112043
  29 H :    0.182469
  30 H :    0.209945
  31 H :    0.105375
  32 H :    0.099348
  33 H :    0.116871
  34 H :    0.104680
  35 H :    0.125632
  36 H :    0.104246
  37 H :    0.111977
  38 H :    0.117629
  39 H :    0.115051
  40 H :    0.132503
Sum of atomic charges:   -0.0000000

LOEWDIN ATOMIC CHARGES
----------------------
   0 C :   -0.363871
   1 C :   -0.117535
   2 O :   -0.247028
   3 P :    0.568635
   4 S :   -0.310589
   5 O :   -0.227439
   6 C :   -0.119012
   7 C :   -0.366355
   8 S :    0.082552
   9 C :   -0.480892
  10 S :    0.076112
  11 P :    0.564209
  12 S :   -0.289805
  13 O :   -0.231390
  14 C :   -0.115751
  15 C :   -0.352642
  16 O :   -0.250386
  17 C :   -0.115951
  18 C :   -0.371936
  19 H :    0.128000
  20 H :    0.124338
  21 H :    0.124734
  22 H :    0.117472
  23 H :    0.105211
  24 H :    0.109223
  25 H :    0.117949
  26 H :    0.121379
  27 H :    0.129098
  28 H :    0.123883
  29 H :    0.137507
  30 H :    0.126700
  31 H :    0.114085
  32 H :    0.101826
  33 H :    0.127990
  34 H :    0.127414
  35 H :    0.122375
  36 H :    0.118426
  37 H :    0.113054
  38 H :    0.122954
  39 H :    0.132172
  40 H :    0.123284

  Mayer bond orders larger than 0.100000
B(  0-C ,  1-C ) :   1.1678 B(  0-C , 19-H ) :   0.9398 B(  0-C , 20-H ) :   0.9306
B(  0-C , 21-H ) :   0.9458 B(  1-C ,  2-O ) :   0.9083 B(  1-C , 22-H ) :   0.9362
B(  1-C , 23-H ) :   0.9129 B(  2-O ,  3-P ) :   1.0956 B(  3-P ,  4-S ) :   1.6017
B(  3-P ,  5-O ) :   1.1536 B(  3-P ,  8-S ) :   0.9618 B(  4-S ,  8-S ) :   0.1166
B(  5-O ,  6-C ) :   0.9007 B(  6-C ,  7-C ) :   1.1580 B(  6-C , 24-H ) :   0.9120
B(  6-C , 25-H ) :   0.9354 B(  7-C , 26-H ) :   0.9348 B(  7-C , 27-H ) :   0.9388
B(  7-C , 28-H ) :   0.9449 B(  8-S ,  9-C ) :   0.9908 B(  9-C , 10-S ) :   1.0014
B(  9-C , 29-H ) :   0.9116 B(  9-C , 30-H ) :   0.8462 B( 10-S , 11-P ) :   0.9436
B( 10-S , 12-S ) :   0.1044 B( 11-P , 12-S ) :   1.6493 B( 11-P , 13-O ) :   1.1444
B( 11-P , 16-O ) :   1.0824 B( 13-O , 14-C ) :   0.8889 B( 14-C , 15-C ) :   1.1651
B( 14-C , 31-H ) :   0.9320 B( 14-C , 32-H ) :   0.9093 B( 15-C , 33-H ) :   0.9490
B( 15-C , 34-H ) :   0.9403 B( 15-C , 35-H ) :   0.9426 B( 16-O , 17-C ) :   0.9077
B( 17-C , 18-C ) :   1.1663 B( 17-C , 36-H ) :   0.9344 B( 17-C , 37-H ) :   0.9181
B( 18-C , 38-H ) :   0.9434 B( 18-C , 39-H ) :   0.9369 B( 18-C , 40-H ) :   0.9346

Dispersion correction           -0.067860909
FINAL SINGLE POINT ENERGY     -2929.522365118694

DIPOLE MOMENT
-------------

Method             : SCF
Type of density    : Electron Density
Multiplicity       :   1
Irrep              :   0
Energy             : -2929.6401788152734298 Eh
Relativity type    :
Basis              : AO
                                X                 Y                 Z
Electronic contribution:     -5.559812296      -5.505205739      -6.673771861
Nuclear contribution   :      5.213471354       5.000029456       7.736362198
                        -----------------------------------------
Total Dipole Moment    :     -0.346340941      -0.505176283       1.062590338
                        -----------------------------------------
Magnitude (a.u.)       :      1.226480065
Magnitude (Debye)      :      3.117464578

Rotational constants in cm-1:             0.013188             0.005176             0.005123
Rotational constants in MHz :           395.351844           155.181635           153.595325

                             ****ORCA TERMINATED NORMALLY****
TOTAL RUN TIME: 0 days 0 hours 0 minutes 21 seconds 264 msec
