                         Program Version 6.0.0  -   RELEASE  -
|  1> ! pbe def2-sv(p) def2/J RI DEFGRID1 loosescf d4 GCP(DFT/SV(P)) printgap
|  2> %output
|  3>     printlevel normal
|  4> end
|  5> * xyz 0 1
|  6> C 3.4302668933 -0.7468590753 2.2135918366
|  7> C 4.1779667247 0.0290919576 1.1507752597
|  8> O 3.6114845178 -0.1205995116 -0.1737576998
|  9> P 2.0928219654 0.1036544447 -0.58067329
| 10> S 1.9518526605 0.3993996935 -2.508510383
| 11> O 1.5368390309 1.2661104971 0.36843159
| 12> C 1.4422726951 2.6298766655 -0.0728056272
| 13> C 2.7914639929 3.3177205541 -0.0418900993
| 14> S 1.1370512952 -1.6188416748 0.1588384947
| 15> C -0.1690889223 -1.8652021915 -1.0890870202
| 16> S -1.8080563588 -1.9635566762 -0.351900259
| 17> P -1.9738894901 0.0929619919 0.1783599781
| 18> S -1.4634483602 1.3133176628 -1.2712785843
| 19> O -1.0839156203 0.4004502089 1.441715716
| 20> C -1.3609979618 0.0127750248 2.8118732399
| 21> C -1.3549094083 -1.4879844758 3.0154478393
| 22> O -3.4384247018 0.2053142414 0.7773306163
| 23> C -4.6237424702 -0.3439138017 0.1719606933
| 24> C -4.8592650643 0.1769263696 -1.2299742539
| 25> H 3.37588434 -1.8007464816 1.9515346837
| 26> H 3.9496877672 -0.6393612631 3.1609897801
| 27> H 2.4186065847 -0.3574465987 2.3172979329
| 28> H 5.1973924959 -0.3390641143 1.024302278
| 29> H 4.1981173181 1.0944062971 1.3914971384
| 30> H 1.0222223091 2.6451694028 -1.0840718979
| 31> H 0.7291057012 3.0869505205 0.6151880621
| 32> H 3.1962276668 3.3196960534 0.9669020479
| 33> H 3.4811381026 2.8006658314 -0.7095215367
| 34> H 2.6761310754 4.3418792006 -0.3826396326
| 35> H 0.0049556006 -2.8199919923 -1.5786407939
| 36> H -0.1272370701 -1.0415361392 -1.8082054937
| 37> H -0.5552169822 0.4942200753 3.3685582824
| 38> H -2.3209660268 0.4460009313 3.0978117515
| 39> H -2.2025457813 -1.9474305044 2.5121983009
| 40> H -0.4371226948 -1.9218448327 2.6244215847
| 41> H -1.4220562682 -1.69568969 4.0788652189
| 42> H -4.5323439857 -1.4334219953 0.1683092409
| 43> H -5.4221191701 -0.0381059543 0.8504471039
| 44> H -4.8879781721 1.2640322211 -1.232300179
| 45> H -4.0554233911 -0.1448957676 -1.8906299826
| 46> H -5.8012653434 -0.2092614722 -1.6054810036
| 47> *
| 48>
| 49>                          ****END OF INPUT****

CARTESIAN COORDINATES (ANGSTROEM)
---------------------------------
  C      3.430267   -0.746859    2.213592
  C      4.177967    0.029092    1.150775
  O      3.611485   -0.120600   -0.173758
  P      2.092822    0.103654   -0.580673
  S      1.951853    0.399400   -2.508510
  O      1.536839    1.266110    0.368432
  C      1.442273    2.629877   -0.072806
  C      2.791464    3.317721   -0.041890
  S      1.137051   -1.618842    0.158838
  C     -0.169089   -1.865202   -1.089087
  S     -1.808056   -1.963557   -0.351900
  P     -1.973889    0.092962    0.178360
  S     -1.463448    1.313318   -1.271279
  O     -1.083916    0.400450    1.441716
  C     -1.360998    0.012775    2.811873
  C     -1.354909   -1.487984    3.015448
  O     -3.438425    0.205314    0.777331
  C     -4.623742   -0.343914    0.171961
  C     -4.859265    0.176926   -1.229974
  H      3.375884   -1.800746    1.951535
  H      3.949688   -0.639361    3.160990
  H      2.418607   -0.357447    2.317298
  H      5.197392   -0.339064    1.024302
  H      4.198117    1.094406    1.391497
  H      1.022222    2.645169   -1.084072
  H      0.729106    3.086951    0.615188
  H      3.196228    3.319696    0.966902
  H      3.481138    2.800666   -0.709522
  H      2.676131    4.341879   -0.382640
  H      0.004956   -2.819992   -1.578641
  H     -0.127237   -1.041536   -1.808205
  H     -0.555217    0.494220    3.368558
  H     -2.320966    0.446001    3.097812
  H     -2.202546   -1.947431    2.512198
  H     -0.437123   -1.921845    2.624422
  H     -1.422056   -1.695690    4.078865
  H     -4.532344   -1.433422    0.168309
  H     -5.422119   -0.038106    0.850447
  H     -4.887978    1.264032   -1.232300
  H     -4.055423   -0.144896   -1.890630
  H     -5.801265   -0.209261   -1.605481

 Total Charge           Charge          ....    0
 Multiplicity           Mult            ....    1
 Number of Electrons    NEL             ....  202
 Basis Dimension        Dim             ....  334

ORBITAL ENERGIES
----------------

  NO   OCC          E(Eh)            E(eV)
   0   2.0000     -88.044235     -2395.8054
   1   2.0000     -88.037139     -2395.6123
   2   2.0000     -87.976958     -2393.9747
   3   2.0000     -87.974546     -2393.9091
   4   2.0000     -76.425502     -2079.6436
   5   2.0000     -76.418165     -2079.4440
   6   2.0000     -18.798555      -511.5347
   7   2.0000     -18.787330      -511.2292
   8   2.0000     -18.786636      -511.2103
   9   2.0000     -18.780032      -511.0307
  10   2.0000      -9.962766      -271.1006
  11   2.0000      -9.957336      -270.9529
  12   2.0000      -9.955856      -270.9126
  13   2.0000      -9.951464      -270.7931
  14   2.0000      -9.936746      -270.3926
  15   2.0000      -9.891513      -269.1618
  16   2.0000      -9.886516      -269.0258
  17   2.0000      -9.884232      -268.9636
  18   2.0000      -9.879056      -268.8228
  19   2.0000      -7.689219      -209.2343
  20   2.0000      -7.682169      -209.0425
  21   2.0000      -7.621834      -207.4007
  22   2.0000      -7.619804      -207.3454
  23   2.0000      -6.422497      -174.7650
  24   2.0000      -6.415839      -174.5839
  25   2.0000      -5.716957      -155.5663
  26   2.0000      -5.713662      -155.4766
  27   2.0000      -5.710184      -155.3820
  28   2.0000      -5.706657      -155.2860
  29   2.0000      -5.706419      -155.2796
  30   2.0000      -5.698966      -155.0767
  31   2.0000      -5.650919      -153.7693
  32   2.0000      -5.648939      -153.7154
  33   2.0000      -5.642396      -153.5374
  34   2.0000      -5.641872      -153.5231
  35   2.0000      -5.640433      -153.4840
  36   2.0000      -5.639670      -153.4632
  37   2.0000      -4.645588      -126.4129
  38   2.0000      -4.644448      -126.3818
  39   2.0000      -4.642359      -126.3250
  40   2.0000      -4.638762      -126.2271
  41   2.0000      -4.637136      -126.1829
  42   2.0000      -4.636457      -126.1644
  43   2.0000      -0.989875       -26.9359
  44   2.0000      -0.976271       -26.5657
  45   2.0000      -0.944554       -25.7026
  46   2.0000      -0.934651       -25.4331
  47   2.0000      -0.761479       -20.7209
  48   2.0000      -0.720202       -19.5977
  49   2.0000      -0.710384       -19.3305
  50   2.0000      -0.692877       -18.8541
  51   2.0000      -0.689163       -18.7531
  52   2.0000      -0.673380       -18.3236
  53   2.0000      -0.648953       -17.6589
  54   2.0000      -0.629529       -17.1303
  55   2.0000      -0.594342       -16.1729
  56   2.0000      -0.587792       -15.9946
  57   2.0000      -0.582100       -15.8397
  58   2.0000      -0.574244       -15.6260
  59   2.0000      -0.558321       -15.1927
  60   2.0000      -0.500146       -13.6097
  61   2.0000      -0.486649       -13.2424
  62   2.0000      -0.472371       -12.8539
  63   2.0000      -0.470111       -12.7924
  64   2.0000      -0.454128       -12.3575
  65   2.0000      -0.442657       -12.0453
  66   2.0000      -0.441244       -12.0068
  67   2.0000      -0.437369       -11.9014
  68   2.0000      -0.432732       -11.7752
  69   2.0000      -0.414579       -11.2813
  70   2.0000      -0.412067       -11.2129
  71   2.0000      -0.407391       -11.0857
  72   2.0000      -0.391394       -10.6504
  73   2.0000      -0.387472       -10.5436
  74   2.0000      -0.385587       -10.4924
  75   2.0000      -0.365508        -9.9460
  76   2.0000      -0.359479        -9.7819
  77   2.0000      -0.354675        -9.6512
  78   2.0000      -0.354356        -9.6425
  79   2.0000      -0.348513        -9.4835
  80   2.0000      -0.345811        -9.4100
  81   2.0000      -0.344117        -9.3639
  82   2.0000      -0.341359        -9.2889
  83   2.0000      -0.337880        -9.1942
  84   2.0000      -0.331276        -9.0145
  85   2.0000      -0.324526        -8.8308
  86   2.0000      -0.305235        -8.3059
  87   2.0000      -0.303405        -8.2561
  88   2.0000      -0.299226        -8.1424
  89   2.0000      -0.291389        -7.9291
  90   2.0000      -0.278510        -7.5787
  91   2.0000      -0.271596        -7.3905
  92   2.0000      -0.267743        -7.2857
  93   2.0000      -0.258385        -7.0310
  94   2.0000      -0.254844        -6.9346
  95   2.0000      -0.232324        -6.3219
  96   2.0000      -0.213975        -5.8225
  97   2.0000      -0.207506        -5.6465
  98   2.0000      -0.194757        -5.2996
  99   2.0000      -0.187890        -5.1128
 100   2.0000      -0.181258        -4.9323
 101   0.0000      -0.041191        -1.1209
 102   0.0000      -0.026915        -0.7324
 103   0.0000      -0.011250        -0.3061
 104   0.0000       0.009935         0.2703
 105   0.0000       0.018963         0.5160

MULLIKEN ATOMIC CHARGES
-----------------------
   0 C :   -0.356039
   1 C :    0.001022
   2 O :   -0.375521
   3 P :    0.625639
   4 S :   -0.306236
   5 O :   -0.379034
   6 C :   -0.011696
   7 C :   -0.309157
   8 S :   -0.118449
   9 C :   -0.339298
  10 S :   -0.125709
  11 P :    0.603396
  12 S :   -0.301237
  13 O :   -0.346200
  14 C :    0.005053
  15 C :   -0.324623
  16 O :   -0.382666
  17 C :   -0.017142
  18 C :   -0.307227
  19 H :    0.135144
  20 H :    0.117009
  21 H :    0.142967
  22 H :    0.111390
  23 H :    0.106538
  24 H :    0.129929
  25 H :    0.100629
  26 H :    0.112638
  27 H :    0.126036
  28 H :    0.112382
  29 H :    0.183498
  30 H :    0.214456
  31 H :    0.107905
  32 H :    0.107990
  33 H :    0.118138
  34 H :    0.134816
  35 H :    0.109707
  36 H :    0.115582
  37 H :    0.109414
  38 H :    0.126543
  39 H :    0.130962
  40 H :    0.111448
Sum of atomic charges:    0.0000000

LOEWDIN ATOMIC CHARGES
----------------------
   0 C :   -0.379619
   1 C :   -0.109227
   2 O :   -0.248767
   3 P :    0.573541
   4 S :   -0.301938
   5 O :   -0.247075
   6 C :   -0.125619
   7 C :   -0.365469
   8 S :    0.084428
   9 C :   -0.478660
  10 S :    0.067303
  11 P :    0.565265
  12 S :   -0.289997
  13 O :   -0.229222
  14 C :   -0.108556
  15 C :   -0.372692
  16 O :   -0.245777
  17 C :   -0.114940
  18 C :   -0.368604
  19 H :    0.126661
  20 H :    0.133427
  21 H :    0.122341
  22 H :    0.123339
  23 H :    0.111687
  24 H :    0.108555
  25 H :    0.116288
  26 H :    0.117383
  27 H :    0.124497
  28 H :    0.131581
  29 H :    0.137985
  30 H :    0.126983
  31 H :    0.119969
  32 H :    0.113309
  33 H :    0.116048
  34 H :    0.122180
  35 H :    0.129335
  36 H :    0.107615
  37 H :    0.121144
  38 H :    0.131131
  39 H :    0.123855
  40 H :    0.130311

  Mayer bond orders larger than 0.100000
B(  0-C ,  1-C ) :   1.1688 B(  0-C , 19-H ) :   0.9355 B(  0-C , 20-H ) :   0.9332
B(  0-C , 21-H ) :   0.9300 B(  1-C ,  2-O ) :   0.9086 B(  1-C , 22-H ) :   0.9341
B(  1-C , 23-H ) :   0.9230 B(  2-O ,  3-P ) :   1.1048 B(  3-P ,  4-S ) :   1.6388
B(  3-P ,  5-O ) :   1.0768 B(  3-P ,  8-S ) :   0.9683 B(  4-S ,  8-S ) :   0.1068
B(  5-O ,  6-C ) :   0.9044 B(  6-C ,  7-C ) :   1.1529 B(  6-C , 24-H ) :   0.9048
B(  6-C , 25-H ) :   0.9341 B(  7-C , 26-H ) :   0.9371 B(  7-C , 27-H ) :   0.9370
B(  7-C , 28-H ) :   0.9388 B(  8-S ,  9-C ) :   0.9945 B(  9-C , 10-S ) :   1.0076
B(  9-C , 29-H ) :   0.9110 B(  9-C , 30-H ) :   0.8401 B( 10-S , 11-P ) :   0.9287
B( 10-S , 12-S ) :   0.1060 B( 11-P , 12-S ) :   1.6548 B( 11-P , 13-O ) :   1.1413
B( 11-P , 16-O ) :   1.0765 B( 13-O , 14-C ) :   0.9001 B( 14-C , 15-C ) :   1.1703
B( 14-C , 31-H ) :   0.9323 B( 14-C , 32-H ) :   0.9288 B( 15-C , 33-H ) :   0.9399
B( 15-C , 34-H ) :   0.9354 B( 15-C , 35-H ) :   0.9352 B( 16-O , 17-C ) :   0.9121
B( 17-C , 18-C ) :   1.1670 B( 17-C , 36-H ) :   0.9248 B( 17-C , 37-H ) :   0.9335
B( 18-C , 38-H ) :   0.9436 B( 18-C , 39-H ) :   0.9310 B( 18-C , 40-H ) :   0.9351

Dispersion correction           -0.069311963
FINAL SINGLE POINT ENERGY     -2929.507752363034

DIPOLE MOMENT
-------------

Method             : SCF
Type of density    : Electron Density
Multiplicity       :   1
Irrep              :   0
Energy             : -2929.6259465504299442 Eh
Relativity type    :
Basis              : AO
                                X                 Y                 Z
Electronic contribution:      0.916437984      -5.029097213     -15.099991755
Nuclear contribution   :     -1.512858367       4.693019756      17.244233479
                        -----------------------------------------
Total Dipole Moment    :     -0.596420383      -0.336077457       2.144241724
                        -----------------------------------------
Magnitude (a.u.)       :      2.250874920
Magnitude (Debye)      :      5.721269369

Rotational constants in cm-1:             0.012404             0.005738             0.005292
Rotational constants in MHz :           371.872100           172.007201           158.658004

                             ****ORCA TERMINATED NORMALLY****
TOTAL RUN TIME: 0 days 0 hours 0 minutes 22 seconds 97 msec
