                         Program Version 6.0.0  -   RELEASE  -
|  1> ! pbe def2-sv(p) def2/J RI DEFGRID1 loosescf d4 GCP(DFT/SV(P)) printgap
|  2> %output
|  3>     printlevel normal
|  4> end
|  5> * xyz 0 1
|  6> C 4.240702435 2.0296050853 -1.0574051039
|  7> C 4.6419096112 0.6148837525 -0.6942794718
|  8> O 3.5196679892 -0.2880627167 -0.6769166878
|  9> P 2.3401365262 -0.1709341142 0.382263079
| 10> S 2.8598595853 0.2884535436 2.2091928705
| 11> O 1.6822374131 -1.6011612286 0.2974119513
| 12> C 1.4456444419 -2.296035122 -0.954134319
| 13> C 0.640162576 -3.5376784642 -0.6395858272
| 14> S 0.9594904869 1.1680162745 -0.5395874224
| 15> C 0.0278163253 1.5581325329 0.9604467461
| 16> S -1.0237498854 0.1967525487 1.5407826808
| 17> P -2.339013868 0.0724043767 -0.1222491348
| 18> S -1.803097569 -0.8919207185 -1.7453032207
| 19> O -2.7109752069 1.5975878267 -0.3043516259
| 20> C -2.9510005087 2.222220853 -1.5864901377
| 21> C -1.8836743814 3.2627916631 -1.8614830881
| 22> O -3.6798122697 -0.4963328472 0.5196045639
| 23> C -3.9504645706 -1.9039089491 0.6093062958
| 24> C -3.1378199904 -2.5601874139 1.7074605031
| 25> H 3.6418061914 2.4646011159 -0.2588991249
| 26> H 5.134742914 2.6298245787 -1.1922592015
| 27> H 3.6598188042 2.0347525559 -1.9764453631
| 28> H 5.1173928675 0.5899037794 0.2908661959
| 29> H 5.308547936 0.1806335665 -1.4407641554
| 30> H 0.899428685 -1.6314460134 -1.630271407
| 31> H 2.4142756252 -2.5414004224 -1.3924703066
| 32> H 1.155594552 -4.1403600749 0.102542592
| 33> H -0.3371313075 -3.2598768404 -0.2534685809
| 34> H 0.5058800875 -4.1115126858 -1.5505259816
| 35> H -0.5865220723 2.4280559448 0.7448237351
| 36> H 0.7282083017 1.7548361509 1.7739688872
| 37> H -2.9541282517 1.4518172534 -2.364126315
| 38> H -3.941897186 2.6727190232 -1.5119155386
| 39> H -0.9038781701 2.7910383877 -1.9221474389
| 40> H -2.1004457065 3.7491367925 -2.8069544351
| 41> H -1.8711670242 4.0092158759 -1.0719966106
| 42> H -5.0204136889 -1.9584836349 0.8141054261
| 43> H -3.7344901832 -2.3616818737 -0.362460671
| 44> H -3.3269753909 -2.0729187876 2.6603674648
| 45> H -3.404039604 -3.6099209224 1.7780609922
| 46> H -2.0733903065 -2.4774455692 1.485982541
| 47> *
| 48>
| 49>                          ****END OF INPUT****

CARTESIAN COORDINATES (ANGSTROEM)
---------------------------------
  C      4.240702    2.029605   -1.057405
  C      4.641910    0.614884   -0.694279
  O      3.519668   -0.288063   -0.676917
  P      2.340137   -0.170934    0.382263
  S      2.859860    0.288454    2.209193
  O      1.682237   -1.601161    0.297412
  C      1.445644   -2.296035   -0.954134
  C      0.640163   -3.537678   -0.639586
  S      0.959490    1.168016   -0.539587
  C      0.027816    1.558133    0.960447
  S     -1.023750    0.196753    1.540783
  P     -2.339014    0.072404   -0.122249
  S     -1.803098   -0.891921   -1.745303
  O     -2.710975    1.597588   -0.304352
  C     -2.951001    2.222221   -1.586490
  C     -1.883674    3.262792   -1.861483
  O     -3.679812   -0.496333    0.519605
  C     -3.950465   -1.903909    0.609306
  C     -3.137820   -2.560187    1.707461
  H      3.641806    2.464601   -0.258899
  H      5.134743    2.629825   -1.192259
  H      3.659819    2.034753   -1.976445
  H      5.117393    0.589904    0.290866
  H      5.308548    0.180634   -1.440764
  H      0.899429   -1.631446   -1.630271
  H      2.414276   -2.541400   -1.392470
  H      1.155595   -4.140360    0.102543
  H     -0.337131   -3.259877   -0.253469
  H      0.505880   -4.111513   -1.550526
  H     -0.586522    2.428056    0.744824
  H      0.728208    1.754836    1.773969
  H     -2.954128    1.451817   -2.364126
  H     -3.941897    2.672719   -1.511916
  H     -0.903878    2.791038   -1.922147
  H     -2.100446    3.749137   -2.806954
  H     -1.871167    4.009216   -1.071997
  H     -5.020414   -1.958484    0.814105
  H     -3.734490   -2.361682   -0.362461
  H     -3.326975   -2.072919    2.660367
  H     -3.404040   -3.609921    1.778061
  H     -2.073390   -2.477446    1.485983

 Total Charge           Charge          ....    0
 Multiplicity           Mult            ....    1
 Number of Electrons    NEL             ....  202
 Basis Dimension        Dim             ....  334

ORBITAL ENERGIES
----------------

  NO   OCC          E(Eh)            E(eV)
   0   2.0000     -88.041153     -2395.7216
   1   2.0000     -88.040404     -2395.7012
   2   2.0000     -87.989993     -2394.3294
   3   2.0000     -87.985545     -2394.2084
   4   2.0000     -76.428945     -2079.7373
   5   2.0000     -76.424390     -2079.6134
   6   2.0000     -18.797324      -511.5012
   7   2.0000     -18.795008      -511.4382
   8   2.0000     -18.790960      -511.3280
   9   2.0000     -18.785000      -511.1658
  10   2.0000      -9.956583      -270.9324
  11   2.0000      -9.954640      -270.8795
  12   2.0000      -9.954592      -270.8782
  13   2.0000      -9.952152      -270.8118
  14   2.0000      -9.942968      -270.5619
  15   2.0000      -9.891419      -269.1592
  16   2.0000      -9.886617      -269.0285
  17   2.0000      -9.885179      -268.9894
  18   2.0000      -9.877431      -268.7785
  19   2.0000      -7.685706      -209.1387
  20   2.0000      -7.685524      -209.1337
  21   2.0000      -7.634822      -207.7541
  22   2.0000      -7.630824      -207.6453
  23   2.0000      -6.426569      -174.8758
  24   2.0000      -6.421989      -174.7512
  25   2.0000      -5.713573      -155.4742
  26   2.0000      -5.713429      -155.4703
  27   2.0000      -5.710348      -155.3865
  28   2.0000      -5.710122      -155.3803
  29   2.0000      -5.702759      -155.1800
  30   2.0000      -5.702251      -155.1662
  31   2.0000      -5.663474      -154.1110
  32   2.0000      -5.659769      -154.0102
  33   2.0000      -5.655553      -153.8954
  34   2.0000      -5.655116      -153.8835
  35   2.0000      -5.651367      -153.7815
  36   2.0000      -5.650999      -153.7715
  37   2.0000      -4.649199      -126.5111
  38   2.0000      -4.648433      -126.4903
  39   2.0000      -4.646857      -126.4474
  40   2.0000      -4.644917      -126.3946
  41   2.0000      -4.643532      -126.3569
  42   2.0000      -4.642339      -126.3245
  43   2.0000      -0.989277       -26.9196
  44   2.0000      -0.986078       -26.8326
  45   2.0000      -0.948967       -25.8227
  46   2.0000      -0.941031       -25.6068
  47   2.0000      -0.763053       -20.7637
  48   2.0000      -0.722808       -19.6686
  49   2.0000      -0.709773       -19.3139
  50   2.0000      -0.689040       -18.7497
  51   2.0000      -0.687407       -18.7053
  52   2.0000      -0.673213       -18.3191
  53   2.0000      -0.653136       -17.7727
  54   2.0000      -0.637962       -17.3598
  55   2.0000      -0.601888       -16.3782
  56   2.0000      -0.591603       -16.0983
  57   2.0000      -0.575448       -15.6587
  58   2.0000      -0.564475       -15.3602
  59   2.0000      -0.559249       -15.2179
  60   2.0000      -0.504650       -13.7322
  61   2.0000      -0.500405       -13.6167
  62   2.0000      -0.475539       -12.9401
  63   2.0000      -0.472847       -12.8668
  64   2.0000      -0.462445       -12.5838
  65   2.0000      -0.443881       -12.0786
  66   2.0000      -0.440655       -11.9908
  67   2.0000      -0.435039       -11.8380
  68   2.0000      -0.428063       -11.6482
  69   2.0000      -0.419318       -11.4102
  70   2.0000      -0.410644       -11.1742
  71   2.0000      -0.395315       -10.7571
  72   2.0000      -0.392940       -10.6924
  73   2.0000      -0.386907       -10.5283
  74   2.0000      -0.378656       -10.3038
  75   2.0000      -0.374991       -10.2040
  76   2.0000      -0.364004        -9.9051
  77   2.0000      -0.361868        -9.8469
  78   2.0000      -0.358361        -9.7515
  79   2.0000      -0.353525        -9.6199
  80   2.0000      -0.348443        -9.4816
  81   2.0000      -0.346070        -9.4170
  82   2.0000      -0.339058        -9.2262
  83   2.0000      -0.336717        -9.1625
  84   2.0000      -0.333124        -9.0648
  85   2.0000      -0.319292        -8.6884
  86   2.0000      -0.307895        -8.3783
  87   2.0000      -0.298831        -8.1316
  88   2.0000      -0.297697        -8.1007
  89   2.0000      -0.294682        -8.0187
  90   2.0000      -0.288039        -7.8379
  91   2.0000      -0.276594        -7.5265
  92   2.0000      -0.266661        -7.2562
  93   2.0000      -0.264027        -7.1845
  94   2.0000      -0.257012        -6.9937
  95   2.0000      -0.241127        -6.5614
  96   2.0000      -0.219752        -5.9798
  97   2.0000      -0.209284        -5.6949
  98   2.0000      -0.206892        -5.6298
  99   2.0000      -0.201284        -5.4772
 100   2.0000      -0.194063        -5.2807
 101   0.0000      -0.047409        -1.2901
 102   0.0000      -0.025641        -0.6977
 103   0.0000      -0.015725        -0.4279
 104   0.0000      -0.000396        -0.0108
 105   0.0000       0.014608         0.3975

MULLIKEN ATOMIC CHARGES
-----------------------
   0 C :   -0.317788
   1 C :    0.000854
   2 O :   -0.387238
   3 P :    0.627384
   4 S :   -0.317982
   5 O :   -0.356314
   6 C :   -0.023324
   7 C :   -0.290122
   8 S :   -0.105146
   9 C :   -0.373042
  10 S :   -0.074165
  11 P :    0.608565
  12 S :   -0.328049
  13 O :   -0.373263
  14 C :   -0.005076
  15 C :   -0.315454
  16 O :   -0.363595
  17 C :   -0.005814
  18 C :   -0.344988
  19 H :    0.126857
  20 H :    0.113768
  21 H :    0.118049
  22 H :    0.113438
  23 H :    0.105372
  24 H :    0.122571
  25 H :    0.101921
  26 H :    0.114458
  27 H :    0.130045
  28 H :    0.104939
  29 H :    0.193393
  30 H :    0.194623
  31 H :    0.113712
  32 H :    0.109059
  33 H :    0.133038
  34 H :    0.115735
  35 H :    0.121052
  36 H :    0.106719
  37 H :    0.109717
  38 H :    0.123284
  39 H :    0.116110
  40 H :    0.156696
Sum of atomic charges:   -0.0000000

LOEWDIN ATOMIC CHARGES
----------------------
   0 C :   -0.371270
   1 C :   -0.115065
   2 O :   -0.247031
   3 P :    0.575477
   4 S :   -0.310938
   5 O :   -0.235055
   6 C :   -0.118265
   7 C :   -0.352570
   8 S :    0.078503
   9 C :   -0.485086
  10 S :    0.091968
  11 P :    0.569392
  12 S :   -0.307023
  13 O :   -0.241331
  14 C :   -0.115948
  15 C :   -0.360673
  16 O :   -0.243236
  17 C :   -0.121964
  18 C :   -0.369661
  19 H :    0.121058
  20 H :    0.131462
  21 H :    0.123581
  22 H :    0.113517
  23 H :    0.118971
  24 H :    0.104674
  25 H :    0.110132
  26 H :    0.126158
  27 H :    0.122009
  28 H :    0.129657
  29 H :    0.132031
  30 H :    0.128973
  31 H :    0.108677
  32 H :    0.119274
  33 H :    0.120534
  34 H :    0.133523
  35 H :    0.125118
  36 H :    0.119609
  37 H :    0.107099
  38 H :    0.128444
  39 H :    0.132719
  40 H :    0.122556

  Mayer bond orders larger than 0.100000
B(  0-C ,  1-C ) :   1.1668 B(  0-C , 19-H ) :   0.9348 B(  0-C , 20-H ) :   0.9366
B(  0-C , 21-H ) :   0.9436 B(  1-C ,  2-O ) :   0.9069 B(  1-C , 22-H ) :   0.9191
B(  1-C , 23-H ) :   0.9344 B(  2-O ,  3-P ) :   1.0867 B(  3-P ,  4-S ) :   1.6299
B(  3-P ,  5-O ) :   1.1515 B(  3-P ,  8-S ) :   0.9382 B(  4-S ,  8-S ) :   0.1064
B(  5-O ,  6-C ) :   0.8854 B(  6-C ,  7-C ) :   1.1707 B(  6-C , 24-H ) :   0.9039
B(  6-C , 25-H ) :   0.9282 B(  7-C , 26-H ) :   0.9490 B(  7-C , 27-H ) :   0.9330
B(  7-C , 28-H ) :   0.9387 B(  8-S ,  9-C ) :   1.0150 B(  9-C , 10-S ) :   0.9989
B(  9-C , 29-H ) :   0.8918 B(  9-C , 30-H ) :   0.8687 B( 10-S , 11-P ) :   0.9712
B( 10-S , 12-S ) :   0.1065 B( 11-P , 12-S ) :   1.6040 B( 11-P , 13-O ) :   1.1175
B( 11-P , 16-O ) :   1.1164 B( 13-O , 14-C ) :   0.8962 B( 14-C , 15-C ) :   1.1687
B( 14-C , 31-H ) :   0.9018 B( 14-C , 32-H ) :   0.9321 B( 15-C , 33-H ) :   0.9348
B( 15-C , 34-H ) :   0.9379 B( 15-C , 35-H ) :   0.9438 B( 16-O , 17-C ) :   0.9140
B( 17-C , 18-C ) :   1.1622 B( 17-C , 36-H ) :   0.9321 B( 17-C , 37-H ) :   0.9108
B( 18-C , 38-H ) :   0.9431 B( 18-C , 39-H ) :   0.9394 B( 18-C , 40-H ) :   0.9227

Dispersion correction           -0.066082820
FINAL SINGLE POINT ENERGY     -2929.522393999417

DIPOLE MOMENT
-------------

Method             : SCF
Type of density    : Electron Density
Multiplicity       :   1
Irrep              :   0
Energy             : -2929.6410756705436143 Eh
Relativity type    :
Basis              : AO
                                X                 Y                 Z
Electronic contribution:      1.245480144       1.637555509       8.720158831
Nuclear contribution   :     -1.631709361      -1.267096835      -9.737679186
                        -----------------------------------------
Total Dipole Moment    :     -0.386229217       0.370458674      -1.017520355
                        -----------------------------------------
Magnitude (a.u.)       :      1.149678351
Magnitude (Debye)      :      2.922250132

Rotational constants in cm-1:             0.011353             0.005525             0.004811
Rotational constants in MHz :           340.349035           165.626689           144.244427

                             ****ORCA TERMINATED NORMALLY****
TOTAL RUN TIME: 0 days 0 hours 0 minutes 21 seconds 438 msec
