                         Program Version 6.0.0  -   RELEASE  -
|  1> ! r2scan-3c def2/J RI DEFGRID2 scfconv6 printgap
|  2> %output
|  3>     printlevel normal
|  4> end
|  5> * xyz 0 1
|  6> C 5.2857410095 -1.2616573376 -1.2357346577
|  7> C 3.8714640898 -1.6104064384 -1.6582986318
|  8> O 2.9854011267 -1.6450650951 -0.5222667967
|  9> P 2.1584396415 -0.3789530687 -0.0374764253
| 10> S 3.1554982277 1.2643982277 0.370103769
| 11> O 1.3369100872 -0.9949743259 1.1641307343
| 12> C 1.7630733109 -0.8393162398 2.5345513788
| 13> C 3.0257048165 -1.6267454844 2.8108707678
| 14> S 0.6760149365 -0.1903752263 -1.5405298415
| 15> C 0.0935456595 1.4467121559 -1.0280321282
| 16> S -0.8252355197 1.4041095573 0.5257230603
| 17> P -2.5463683916 0.4150285507 -0.2688980682
| 18> S -3.0319528677 0.9076348749 -2.0975326067
| 19> O -3.6202093585 0.6005763113 0.8878779682
| 20> C -3.9733999919 1.8507286597 1.5108566761
| 21> C -4.383144626 2.9105549982 0.5103565084
| 22> O -2.2821419914 -1.1357543782 -0.1943101137
| 23> C -1.9855215889 -1.8408220081 1.0373674085
| 24> C -1.2427056382 -3.1106713037 0.6780359397
| 25> H 5.936745946 -1.2973507561 -2.1032591446
| 26> H 5.3176410962 -0.2607161268 -0.8109523702
| 27> H 5.639153591 -1.9705848497 -0.4922297122
| 28> H 3.818442267 -2.6176129537 -2.0759044609
| 29> H 3.4910492031 -0.8934708731 -2.3918595226
| 30> H 1.9168887997 0.2263291924 2.7322479276
| 31> H 0.9184311078 -1.207020175 3.118346119
| 32> H 2.8853340047 -2.6701007503 2.5416778022
| 33> H 3.8466299524 -1.2191016157 2.2218678097
| 34> H 3.2758163763 -1.5526927668 3.8644722108
| 35> H -0.5596965877 1.8097458361 -1.8223657632
| 36> H 0.9483397917 2.106222876 -0.8746933883
| 37> H -4.8009075912 1.582003423 2.1697884959
| 38> H -3.1187006809 2.1880351461 2.10377805
| 39> H -4.721112558 3.7951943367 1.0403275275
| 40> H -3.5381987477 3.1771168636 -0.1230117929
| 41> H -5.1844339534 2.5426176098 -0.126077065
| 42> H -1.3812920664 -1.1900913705 1.6766535768
| 43> H -2.9356775853 -2.0534880842 1.5308243367
| 44> H -0.286209038 -2.8699073605 0.2200922529
| 45> H -1.0725596803 -3.6921272251 1.5784260923
| 46> H -1.8289935123 -3.6950290858 -0.0252789396
| 47> *
| 48>
| 49>                          ****END OF INPUT****

CARTESIAN COORDINATES (ANGSTROEM)
---------------------------------
  C      5.285741   -1.261657   -1.235735
  C      3.871464   -1.610406   -1.658299
  O      2.985401   -1.645065   -0.522267
  P      2.158440   -0.378953   -0.037476
  S      3.155498    1.264398    0.370104
  O      1.336910   -0.994974    1.164131
  C      1.763073   -0.839316    2.534551
  C      3.025705   -1.626745    2.810871
  S      0.676015   -0.190375   -1.540530
  C      0.093546    1.446712   -1.028032
  S     -0.825236    1.404110    0.525723
  P     -2.546368    0.415029   -0.268898
  S     -3.031953    0.907635   -2.097533
  O     -3.620209    0.600576    0.887878
  C     -3.973400    1.850729    1.510857
  C     -4.383145    2.910555    0.510357
  O     -2.282142   -1.135754   -0.194310
  C     -1.985522   -1.840822    1.037367
  C     -1.242706   -3.110671    0.678036
  H      5.936746   -1.297351   -2.103259
  H      5.317641   -0.260716   -0.810952
  H      5.639154   -1.970585   -0.492230
  H      3.818442   -2.617613   -2.075904
  H      3.491049   -0.893471   -2.391860
  H      1.916889    0.226329    2.732248
  H      0.918431   -1.207020    3.118346
  H      2.885334   -2.670101    2.541678
  H      3.846630   -1.219102    2.221868
  H      3.275816   -1.552693    3.864472
  H     -0.559697    1.809746   -1.822366
  H      0.948340    2.106223   -0.874693
  H     -4.800908    1.582003    2.169788
  H     -3.118701    2.188035    2.103778
  H     -4.721113    3.795194    1.040328
  H     -3.538199    3.177117   -0.123012
  H     -5.184434    2.542618   -0.126077
  H     -1.381292   -1.190091    1.676654
  H     -2.935678   -2.053488    1.530824
  H     -0.286209   -2.869907    0.220092
  H     -1.072560   -3.692127    1.578426
  H     -1.828994   -3.695029   -0.025279

 Total Charge           Charge          ....    0
 Multiplicity           Mult            ....    1
 Number of Electrons    NEL             ....  202
 Basis Dimension        Dim             ....  539

ORBITAL ENERGIES
----------------

  NO   OCC          E(Eh)            E(eV)
   0   2.0000     -88.575946     -2410.2740
   1   2.0000     -88.575251     -2410.2551
   2   2.0000     -88.524933     -2408.8859
   3   2.0000     -88.515162     -2408.6200
   4   2.0000     -76.917991     -2093.0449
   5   2.0000     -76.912026     -2092.8826
   6   2.0000     -18.997705      -516.9538
   7   2.0000     -18.995644      -516.8977
   8   2.0000     -18.994376      -516.8633
   9   2.0000     -18.986333      -516.6444
  10   2.0000     -10.105349      -274.9805
  11   2.0000     -10.104894      -274.9682
  12   2.0000     -10.103269      -274.9239
  13   2.0000     -10.102391      -274.9000
  14   2.0000     -10.097494      -274.7668
  15   2.0000     -10.033318      -273.0205
  16   2.0000     -10.029479      -272.9160
  17   2.0000     -10.027576      -272.8642
  18   2.0000     -10.026927      -272.8466
  19   2.0000      -7.870016      -214.1540
  20   2.0000      -7.869556      -214.1415
  21   2.0000      -7.819774      -212.7869
  22   2.0000      -7.810015      -212.5213
  23   2.0000      -6.596523      -179.5005
  24   2.0000      -6.590332      -179.3321
  25   2.0000      -5.816882      -158.2854
  26   2.0000      -5.816280      -158.2690
  27   2.0000      -5.813894      -158.2041
  28   2.0000      -5.813317      -158.1884
  29   2.0000      -5.807170      -158.0211
  30   2.0000      -5.806935      -158.0147
  31   2.0000      -5.767346      -156.9375
  32   2.0000      -5.760017      -156.7380
  33   2.0000      -5.759880      -156.7343
  34   2.0000      -5.757834      -156.6786
  35   2.0000      -5.750241      -156.4720
  36   2.0000      -5.749895      -156.4626
  37   2.0000      -4.741985      -129.0360
  38   2.0000      -4.741476      -129.0221
  39   2.0000      -4.740250      -128.9888
  40   2.0000      -4.736163      -128.8775
  41   2.0000      -4.735537      -128.8605
  42   2.0000      -4.733542      -128.8062
  43   2.0000      -1.055899       -28.7325
  44   2.0000      -1.050221       -28.5780
  45   2.0000      -1.016825       -27.6692
  46   2.0000      -1.007796       -27.4235
  47   2.0000      -0.802507       -21.8373
  48   2.0000      -0.760557       -20.6958
  49   2.0000      -0.751849       -20.4589
  50   2.0000      -0.735479       -20.0134
  51   2.0000      -0.733310       -19.9544
  52   2.0000      -0.712380       -19.3848
  53   2.0000      -0.686352       -18.6766
  54   2.0000      -0.669839       -18.2272
  55   2.0000      -0.633522       -17.2390
  56   2.0000      -0.620616       -16.8878
  57   2.0000      -0.607676       -16.5357
  58   2.0000      -0.601955       -16.3800
  59   2.0000      -0.596300       -16.2262
  60   2.0000      -0.534078       -14.5330
  61   2.0000      -0.523992       -14.2585
  62   2.0000      -0.500307       -13.6140
  63   2.0000      -0.493315       -13.4238
  64   2.0000      -0.477915       -13.0047
  65   2.0000      -0.467867       -12.7313
  66   2.0000      -0.461344       -12.5538
  67   2.0000      -0.452564       -12.3149
  68   2.0000      -0.446597       -12.1525
  69   2.0000      -0.435729       -11.8568
  70   2.0000      -0.426736       -11.6121
  71   2.0000      -0.419672       -11.4199
  72   2.0000      -0.412351       -11.2206
  73   2.0000      -0.405638       -11.0380
  74   2.0000      -0.399847       -10.8804
  75   2.0000      -0.392083       -10.6691
  76   2.0000      -0.378335       -10.2950
  77   2.0000      -0.372081       -10.1248
  78   2.0000      -0.366673        -9.9777
  79   2.0000      -0.365421        -9.9436
  80   2.0000      -0.361786        -9.8447
  81   2.0000      -0.360134        -9.7998
  82   2.0000      -0.356467        -9.7000
  83   2.0000      -0.353157        -9.6099
  84   2.0000      -0.352046        -9.5797
  85   2.0000      -0.337382        -9.1806
  86   2.0000      -0.326782        -8.8922
  87   2.0000      -0.315800        -8.5934
  88   2.0000      -0.311948        -8.4885
  89   2.0000      -0.309630        -8.4255
  90   2.0000      -0.307513        -8.3678
  91   2.0000      -0.294891        -8.0244
  92   2.0000      -0.289393        -7.8748
  93   2.0000      -0.283293        -7.7088
  94   2.0000      -0.270740        -7.3672
  95   2.0000      -0.247996        -6.7483
  96   2.0000      -0.233599        -6.3565
  97   2.0000      -0.225806        -6.1445
  98   2.0000      -0.217919        -5.9299
  99   2.0000      -0.212587        -5.7848
 100   2.0000      -0.210421        -5.7258
 101   0.0000      -0.046579        -1.2675
 102   0.0000      -0.024848        -0.6761
 103   0.0000      -0.004418        -0.1202
 104   0.0000      -0.003043        -0.0828
 105   0.0000       0.015348         0.4176

MULLIKEN ATOMIC CHARGES
-----------------------
   0 C :   -0.454579
   1 C :   -0.136110
   2 O :   -0.299620
   3 P :    0.662199
   4 S :   -0.484702
   5 O :   -0.258236
   6 C :   -0.142028
   7 C :   -0.450298
   8 S :   -0.116941
   9 C :   -0.229872
  10 S :   -0.185209
  11 P :    0.657645
  12 S :   -0.433328
  13 O :   -0.294113
  14 C :   -0.159202
  15 C :   -0.427694
  16 O :   -0.258090
  17 C :   -0.105512
  18 C :   -0.464503
  19 H :    0.146698
  20 H :    0.182206
  21 H :    0.151502
  22 H :    0.152123
  23 H :    0.155663
  24 H :    0.175532
  25 H :    0.147977
  26 H :    0.157397
  27 H :    0.170516
  28 H :    0.148833
  29 H :    0.218543
  30 H :    0.214477
  31 H :    0.149330
  32 H :    0.151026
  33 H :    0.146128
  34 H :    0.169676
  35 H :    0.165313
  36 H :    0.152968
  37 H :    0.153509
  38 H :    0.174882
  39 H :    0.140704
  40 H :    0.155189
Sum of atomic charges:   -0.0000000

LOEWDIN ATOMIC CHARGES
----------------------
   0 C :   -0.401584
   1 C :    0.023894
   2 O :   -0.660235
   3 P :    0.375678
   4 S :   -0.134157
   5 O :   -0.679949
   6 C :    0.016781
   7 C :   -0.398732
   8 S :    0.176942
   9 C :   -0.425420
  10 S :    0.134245
  11 P :    0.379043
  12 S :   -0.101446
  13 O :   -0.663298
  14 C :    0.023977
  15 C :   -0.405827
  16 O :   -0.653132
  17 C :    0.023959
  18 C :   -0.389535
  19 H :    0.158975
  20 H :    0.169067
  21 H :    0.157942
  22 H :    0.179986
  23 H :    0.176664
  24 H :    0.182217
  25 H :    0.177797
  26 H :    0.160691
  27 H :    0.166485
  28 H :    0.160105
  29 H :    0.194004
  30 H :    0.191795
  31 H :    0.181099
  32 H :    0.171296
  33 H :    0.158267
  34 H :    0.167063
  35 H :    0.165989
  36 H :    0.176363
  37 H :    0.172835
  38 H :    0.169835
  39 H :    0.158367
  40 H :    0.161955

  Mayer bond orders larger than 0.100000
B(  0-C ,  1-C ) :   0.9525 B(  0-C , 19-H ) :   0.9636 B(  0-C , 20-H ) :   0.9568
B(  0-C , 21-H ) :   0.9746 B(  1-C ,  2-O ) :   0.7813 B(  1-C , 22-H ) :   0.9631
B(  1-C , 23-H ) :   0.9631 B(  2-O ,  3-P ) :   1.0666 B(  3-P ,  4-S ) :   1.7465
B(  3-P ,  5-O ) :   1.1272 B(  3-P ,  8-S ) :   1.1082 B(  5-O ,  6-C ) :   0.7691
B(  6-C ,  7-C ) :   0.9187 B(  6-C , 24-H ) :   0.9576 B(  6-C , 25-H ) :   0.9626
B(  7-C , 26-H ) :   0.9742 B(  7-C , 27-H ) :   0.9578 B(  7-C , 28-H ) :   0.9633
B(  8-S ,  9-C ) :   0.9149 B(  9-C , 10-S ) :   0.9134 B(  9-C , 29-H ) :   0.9021
B(  9-C , 30-H ) :   0.9045 B( 10-S , 11-P ) :   0.9805 B( 11-P , 12-S ) :   1.8579
B( 11-P , 13-O ) :   1.0393 B( 11-P , 16-O ) :   1.1627 B( 13-O , 14-C ) :   0.8053
B( 14-C , 15-C ) :   0.9436 B( 14-C , 31-H ) :   0.9587 B( 14-C , 32-H ) :   0.9616
B( 15-C , 33-H ) :   0.9618 B( 15-C , 34-H ) :   0.9545 B( 15-C , 35-H ) :   0.9656
B( 16-O , 17-C ) :   0.7361 B( 17-C , 18-C ) :   0.9441 B( 17-C , 36-H ) :   0.9537
B( 17-C , 37-H ) :   0.9457 B( 18-C , 38-H ) :   0.9652 B( 18-C , 39-H ) :   0.9683
B( 18-C , 40-H ) :   0.9701

Dispersion correction           -0.021705684
FINAL SINGLE POINT ENERGY     -2932.462674107161

DIPOLE MOMENT
-------------

Method             : SCF
Type of density    : Electron Density
Multiplicity       :   1
Irrep              :   0
Energy             : -2932.4874260571377818 Eh
Relativity type    :
Basis              : AO
                                X                 Y                 Z
Electronic contribution:     -7.893424888       8.613952541     -11.939986925
Nuclear contribution   :      8.360985970      -9.335727836      13.463094637
                        -----------------------------------------
Total Dipole Moment    :      0.467561082      -0.721775295       1.523107713
                        -----------------------------------------
Magnitude (a.u.)       :      1.749122650
Magnitude (Debye)      :      4.445916454

Rotational constants in cm-1:             0.013647             0.004677             0.004513
Rotational constants in MHz :           409.137995           140.201856           135.288723

                             ****ORCA TERMINATED NORMALLY****
TOTAL RUN TIME: 0 days 0 hours 1 minutes 21 seconds 373 msec
