                         Program Version 6.0.0  -   RELEASE  -
|  1> ! r2scan-3c def2/J RI DEFGRID2 scfconv6 printgap
|  2> %output
|  3>     printlevel normal
|  4> end
|  5> %cpcm
|  6>     smd true
|  7>     smdsolvent "water"
|  8> end
|  9> * xyz 0 1
| 10> C 5.2857410095 -1.2616573376 -1.2357346577
| 11> C 3.8714640898 -1.6104064384 -1.6582986318
| 12> O 2.9854011267 -1.6450650951 -0.5222667967
| 13> P 2.1584396415 -0.3789530687 -0.0374764253
| 14> S 3.1554982277 1.2643982277 0.370103769
| 15> O 1.3369100872 -0.9949743259 1.1641307343
| 16> C 1.7630733109 -0.8393162398 2.5345513788
| 17> C 3.0257048165 -1.6267454844 2.8108707678
| 18> S 0.6760149365 -0.1903752263 -1.5405298415
| 19> C 0.0935456595 1.4467121559 -1.0280321282
| 20> S -0.8252355197 1.4041095573 0.5257230603
| 21> P -2.5463683916 0.4150285507 -0.2688980682
| 22> S -3.0319528677 0.9076348749 -2.0975326067
| 23> O -3.6202093585 0.6005763113 0.8878779682
| 24> C -3.9733999919 1.8507286597 1.5108566761
| 25> C -4.383144626 2.9105549982 0.5103565084
| 26> O -2.2821419914 -1.1357543782 -0.1943101137
| 27> C -1.9855215889 -1.8408220081 1.0373674085
| 28> C -1.2427056382 -3.1106713037 0.6780359397
| 29> H 5.936745946 -1.2973507561 -2.1032591446
| 30> H 5.3176410962 -0.2607161268 -0.8109523702
| 31> H 5.639153591 -1.9705848497 -0.4922297122
| 32> H 3.818442267 -2.6176129537 -2.0759044609
| 33> H 3.4910492031 -0.8934708731 -2.3918595226
| 34> H 1.9168887997 0.2263291924 2.7322479276
| 35> H 0.9184311078 -1.207020175 3.118346119
| 36> H 2.8853340047 -2.6701007503 2.5416778022
| 37> H 3.8466299524 -1.2191016157 2.2218678097
| 38> H 3.2758163763 -1.5526927668 3.8644722108
| 39> H -0.5596965877 1.8097458361 -1.8223657632
| 40> H 0.9483397917 2.106222876 -0.8746933883
| 41> H -4.8009075912 1.582003423 2.1697884959
| 42> H -3.1187006809 2.1880351461 2.10377805
| 43> H -4.721112558 3.7951943367 1.0403275275
| 44> H -3.5381987477 3.1771168636 -0.1230117929
| 45> H -5.1844339534 2.5426176098 -0.126077065
| 46> H -1.3812920664 -1.1900913705 1.6766535768
| 47> H -2.9356775853 -2.0534880842 1.5308243367
| 48> H -0.286209038 -2.8699073605 0.2200922529
| 49> H -1.0725596803 -3.6921272251 1.5784260923
| 50> H -1.8289935123 -3.6950290858 -0.0252789396
| 51> *
| 52>
| 53>                          ****END OF INPUT****

CARTESIAN COORDINATES (ANGSTROEM)
---------------------------------
  C      5.285741   -1.261657   -1.235735
  C      3.871464   -1.610406   -1.658299
  O      2.985401   -1.645065   -0.522267
  P      2.158440   -0.378953   -0.037476
  S      3.155498    1.264398    0.370104
  O      1.336910   -0.994974    1.164131
  C      1.763073   -0.839316    2.534551
  C      3.025705   -1.626745    2.810871
  S      0.676015   -0.190375   -1.540530
  C      0.093546    1.446712   -1.028032
  S     -0.825236    1.404110    0.525723
  P     -2.546368    0.415029   -0.268898
  S     -3.031953    0.907635   -2.097533
  O     -3.620209    0.600576    0.887878
  C     -3.973400    1.850729    1.510857
  C     -4.383145    2.910555    0.510357
  O     -2.282142   -1.135754   -0.194310
  C     -1.985522   -1.840822    1.037367
  C     -1.242706   -3.110671    0.678036
  H      5.936746   -1.297351   -2.103259
  H      5.317641   -0.260716   -0.810952
  H      5.639154   -1.970585   -0.492230
  H      3.818442   -2.617613   -2.075904
  H      3.491049   -0.893471   -2.391860
  H      1.916889    0.226329    2.732248
  H      0.918431   -1.207020    3.118346
  H      2.885334   -2.670101    2.541678
  H      3.846630   -1.219102    2.221868
  H      3.275816   -1.552693    3.864472
  H     -0.559697    1.809746   -1.822366
  H      0.948340    2.106223   -0.874693
  H     -4.800908    1.582003    2.169788
  H     -3.118701    2.188035    2.103778
  H     -4.721113    3.795194    1.040328
  H     -3.538199    3.177117   -0.123012
  H     -5.184434    2.542618   -0.126077
  H     -1.381292   -1.190091    1.676654
  H     -2.935678   -2.053488    1.530824
  H     -0.286209   -2.869907    0.220092
  H     -1.072560   -3.692127    1.578426
  H     -1.828994   -3.695029   -0.025279

 Total Charge           Charge          ....    0
 Multiplicity           Mult            ....    1
 Number of Electrons    NEL             ....  202
 Basis Dimension        Dim             ....  539

ORBITAL ENERGIES
----------------

  NO   OCC          E(Eh)            E(eV)
   0   2.0000     -88.579867     -2410.3807
   1   2.0000     -88.579215     -2410.3630
   2   2.0000     -88.529224     -2409.0027
   3   2.0000     -88.527946     -2408.9679
   4   2.0000     -76.920353     -2093.1092
   5   2.0000     -76.920264     -2093.1068
   6   2.0000     -18.997054      -516.9361
   7   2.0000     -18.996762      -516.9282
   8   2.0000     -18.993894      -516.8501
   9   2.0000     -18.993235      -516.8322
  10   2.0000     -10.103501      -274.9302
  11   2.0000     -10.093636      -274.6618
  12   2.0000     -10.092338      -274.6265
  13   2.0000     -10.090617      -274.5796
  14   2.0000     -10.089839      -274.5585
  15   2.0000     -10.018914      -272.6285
  16   2.0000     -10.018878      -272.6275
  17   2.0000     -10.018766      -272.6245
  18   2.0000     -10.017013      -272.5768
  19   2.0000      -7.874066      -214.2642
  20   2.0000      -7.873455      -214.2476
  21   2.0000      -7.824331      -212.9109
  22   2.0000      -7.823188      -212.8798
  23   2.0000      -6.598888      -179.5649
  24   2.0000      -6.598617      -179.5575
  25   2.0000      -5.820882      -158.3942
  26   2.0000      -5.820216      -158.3761
  27   2.0000      -5.817933      -158.3140
  28   2.0000      -5.817246      -158.2953
  29   2.0000      -5.811276      -158.1329
  30   2.0000      -5.810775      -158.1192
  31   2.0000      -5.771857      -157.0602
  32   2.0000      -5.770870      -157.0334
  33   2.0000      -5.764578      -156.8621
  34   2.0000      -5.764430      -156.8581
  35   2.0000      -5.763419      -156.8306
  36   2.0000      -5.763123      -156.8225
  37   2.0000      -4.744381      -129.1012
  38   2.0000      -4.744283      -129.0985
  39   2.0000      -4.743842      -129.0865
  40   2.0000      -4.743777      -129.0847
  41   2.0000      -4.742717      -129.0559
  42   2.0000      -4.741974      -129.0357
  43   2.0000      -1.054511       -28.6947
  44   2.0000      -1.054125       -28.6842
  45   2.0000      -1.014456       -27.6047
  46   2.0000      -1.011551       -27.5257
  47   2.0000      -0.805278       -21.9127
  48   2.0000      -0.757166       -20.6035
  49   2.0000      -0.745819       -20.2948
  50   2.0000      -0.726075       -19.7575
  51   2.0000      -0.723602       -19.6902
  52   2.0000      -0.711510       -19.3612
  53   2.0000      -0.689702       -18.7678
  54   2.0000      -0.675721       -18.3873
  55   2.0000      -0.628360       -17.0985
  56   2.0000      -0.618529       -16.8310
  57   2.0000      -0.600714       -16.3463
  58   2.0000      -0.597702       -16.2643
  59   2.0000      -0.593591       -16.1524
  60   2.0000      -0.530515       -14.4360
  61   2.0000      -0.519046       -14.1239
  62   2.0000      -0.493650       -13.4329
  63   2.0000      -0.490045       -13.3348
  64   2.0000      -0.477086       -12.9822
  65   2.0000      -0.461753       -12.5649
  66   2.0000      -0.454698       -12.3730
  67   2.0000      -0.447155       -12.1677
  68   2.0000      -0.442679       -12.0459
  69   2.0000      -0.433461       -11.7951
  70   2.0000      -0.419852       -11.4248
  71   2.0000      -0.417953       -11.3731
  72   2.0000      -0.405388       -11.0312
  73   2.0000      -0.403113       -10.9693
  74   2.0000      -0.398264       -10.8373
  75   2.0000      -0.388555       -10.5731
  76   2.0000      -0.377382       -10.2691
  77   2.0000      -0.365024        -9.9328
  78   2.0000      -0.360777        -9.8172
  79   2.0000      -0.358826        -9.7641
  80   2.0000      -0.354708        -9.6521
  81   2.0000      -0.352869        -9.6020
  82   2.0000      -0.351128        -9.5547
  83   2.0000      -0.347468        -9.4551
  84   2.0000      -0.345701        -9.4070
  85   2.0000      -0.333530        -9.0758
  86   2.0000      -0.323782        -8.8106
  87   2.0000      -0.311683        -8.4813
  88   2.0000      -0.308517        -8.3952
  89   2.0000      -0.307093        -8.3564
  90   2.0000      -0.301161        -8.1950
  91   2.0000      -0.289934        -7.8895
  92   2.0000      -0.288446        -7.8490
  93   2.0000      -0.282994        -7.7007
  94   2.0000      -0.273109        -7.4317
  95   2.0000      -0.251603        -6.8465
  96   2.0000      -0.239446        -6.5156
  97   2.0000      -0.232598        -6.3293
  98   2.0000      -0.224219        -6.1013
  99   2.0000      -0.223138        -6.0719
 100   2.0000      -0.221791        -6.0352
 101   0.0000      -0.051862        -1.4112
 102   0.0000      -0.031357        -0.8533
 103   0.0000      -0.008642        -0.2352
 104   0.0000      -0.006924        -0.1884
 105   0.0000       0.015070         0.4101

MULLIKEN ATOMIC CHARGES
-----------------------
   0 C :   -0.490212
   1 C :   -0.130944
   2 O :   -0.325563
   3 P :    0.699072
   4 S :   -0.524848
   5 O :   -0.280628
   6 C :   -0.137094
   7 C :   -0.491852
   8 S :   -0.145312
   9 C :   -0.236421
  10 S :   -0.178457
  11 P :    0.674653
  12 S :   -0.495809
  13 O :   -0.315425
  14 C :   -0.158576
  15 C :   -0.466298
  16 O :   -0.289986
  17 C :   -0.105372
  18 C :   -0.506696
  19 H :    0.170083
  20 H :    0.171484
  21 H :    0.167528
  22 H :    0.177602
  23 H :    0.164766
  24 H :    0.176760
  25 H :    0.181673
  26 H :    0.171872
  27 H :    0.167862
  28 H :    0.173576
  29 H :    0.231986
  30 H :    0.234268
  31 H :    0.177426
  32 H :    0.172252
  33 H :    0.173668
  34 H :    0.164694
  35 H :    0.170560
  36 H :    0.173568
  37 H :    0.175246
  38 H :    0.170008
  39 H :    0.172582
  40 H :    0.166301
Sum of atomic charges:   -0.0000000

LOEWDIN ATOMIC CHARGES
----------------------
   0 C :   -0.405365
   1 C :    0.029104
   2 O :   -0.670841
   3 P :    0.381619
   4 S :   -0.158962
   5 O :   -0.687037
   6 C :    0.022755
   7 C :   -0.402303
   8 S :    0.160157
   9 C :   -0.421570
  10 S :    0.144160
  11 P :    0.381511
  12 S :   -0.148604
  13 O :   -0.670495
  14 C :    0.031592
  15 C :   -0.409452
  16 O :   -0.677296
  17 C :    0.030230
  18 C :   -0.393915
  19 H :    0.167604
  20 H :    0.163031
  21 H :    0.162503
  22 H :    0.190876
  23 H :    0.180297
  24 H :    0.182547
  25 H :    0.191214
  26 H :    0.164279
  27 H :    0.162893
  28 H :    0.169226
  29 H :    0.197658
  30 H :    0.197434
  31 H :    0.193180
  32 H :    0.179610
  33 H :    0.168737
  34 H :    0.161979
  35 H :    0.164446
  36 H :    0.183953
  37 H :    0.182845
  38 H :    0.165594
  39 H :    0.170769
  40 H :    0.164036

  Mayer bond orders larger than 0.100000
B(  0-C ,  1-C ) :   0.9436 B(  0-C , 19-H ) :   0.9588 B(  0-C , 20-H ) :   0.9609
B(  0-C , 21-H ) :   0.9716 B(  1-C ,  2-O ) :   0.7697 B(  1-C , 22-H ) :   0.9531
B(  1-C , 23-H ) :   0.9569 B(  2-O ,  3-P ) :   1.0739 B(  3-P ,  4-S ) :   1.7171
B(  3-P ,  5-O ) :   1.1393 B(  3-P ,  8-S ) :   1.1071 B(  5-O ,  6-C ) :   0.7563
B(  6-C ,  7-C ) :   0.9048 B(  6-C , 24-H ) :   0.9548 B(  6-C , 25-H ) :   0.9523
B(  7-C , 26-H ) :   0.9733 B(  7-C , 27-H ) :   0.9581 B(  7-C , 28-H ) :   0.9573
B(  8-S ,  9-C ) :   0.9018 B(  9-C , 10-S ) :   0.9017 B(  9-C , 29-H ) :   0.8989
B(  9-C , 30-H ) :   0.9009 B( 10-S , 11-P ) :   0.9965 B( 11-P , 12-S ) :   1.8240
B( 11-P , 13-O ) :   1.0585 B( 11-P , 16-O ) :   1.1681 B( 13-O , 14-C ) :   0.7936
B( 14-C , 15-C ) :   0.9218 B( 14-C , 31-H ) :   0.9489 B( 14-C , 32-H ) :   0.9573
B( 15-C , 33-H ) :   0.9558 B( 15-C , 34-H ) :   0.9578 B( 15-C , 35-H ) :   0.9666
B( 16-O , 17-C ) :   0.7251 B( 17-C , 18-C ) :   0.9308 B( 17-C , 36-H ) :   0.9456
B( 17-C , 37-H ) :   0.9357 B( 18-C , 38-H ) :   0.9668 B( 18-C , 39-H ) :   0.9612
B( 18-C , 40-H ) :   0.9687

Dispersion correction           -0.021705684
FINAL SINGLE POINT ENERGY     -2932.472481700648

DIPOLE MOMENT
-------------

Method             : SCF
Type of density    : Electron Density
Multiplicity       :   1
Irrep              :   0
Energy             : -2932.4972336506248212 Eh
Relativity type    :
Basis              : AO
                                X                 Y                 Z
Electronic contribution:     -7.754352498       8.507658757     -11.168730796
Nuclear contribution   :      8.360985970      -9.335727836      13.463094637
                        -----------------------------------------
Total Dipole Moment    :      0.606633472      -0.828069079       2.294363842
                        -----------------------------------------
Magnitude (a.u.)       :      2.513525016
Magnitude (Debye)      :      6.388872859

Rotational constants in cm-1:             0.013647             0.004677             0.004513
Rotational constants in MHz :           409.137995           140.201856           135.288723

                             ****ORCA TERMINATED NORMALLY****
TOTAL RUN TIME: 0 days 0 hours 1 minutes 57 seconds 283 msec
