                         Program Version 6.0.1  -  RELEASE   -
|  1> ! pbe def2-sv(p) def2/J RI DEFGRID1 loosescf d4 GCP(DFT/SV(P)) printgap
|  2> %output
|  3>     printlevel normal
|  4> end
|  5> * xyz 0 1
|  6> C 4.1502849107 -3.067224902 -2.4087806993
|  7> C 2.9797144515 -3.1635498088 -1.4493894592
|  8> O 2.6793219139 -1.8379566464 -0.9704861929
|  9> C 2.038655194 -1.7130928488 0.1720656227
| 10> O 1.6958714802 -2.6386388808 0.873530913
| 11> C 1.766597239 -0.255540053 0.5009018456
| 12> C 0.9673731128 0.3885355253 -0.6329618489
| 13> H 1.5870372304 0.4646241583 -1.5301665156
| 14> C 0.4532790021 1.760269353 -0.2441250862
| 15> O -0.7312901589 2.0353244961 -0.2431611984
| 16> O 1.4095697962 2.5764286107 0.0859607588
| 17> C 1.0386452885 3.9010328901 0.5337134122
| 18> C 2.3111639043 4.6503413664 0.8710012897
| 19> S -0.4629234258 -0.6192122735 -1.1409377422
| 20> P -1.8571571023 -0.1967443293 0.4240694002
| 21> S -1.3253717918 0.4645803222 2.1902161498
| 22> O -3.1386801934 0.4686590678 -0.2592800481
| 23> C -3.487934452 1.8519384796 -0.304128747
| 24> O -2.4390628368 -1.6625835599 0.6563730552
| 25> C -3.0143807764 -2.464006034 -0.3871936056
| 26> H 3.8994141213 -2.4087409868 -3.2345109826
| 27> H 5.0239941374 -2.6742858763 -1.8972928884
| 28> H 4.3775082321 -4.0552002027 -2.794945136
| 29> H 3.2031764923 -3.8015319145 -0.5888885485
| 30> H 2.0834465977 -3.5467337796 -1.9461262765
| 31> H 2.7120058718 0.2764890209 0.6134860359
| 32> H 1.2127468146 -0.2175632745 1.4414519188
| 33> H 0.4772053732 4.388077086 -0.2686364248
| 34> H 0.3823029816 3.7916997394 1.4024172916
| 35> H 2.953104056 4.7078952365 -0.0025947616
| 36> H 2.0573566103 5.6536083767 1.1961722549
| 37> H 2.8442515094 4.1418820572 1.6683162555
| 38> H -3.1618848098 2.3537539167 0.6065659479
| 39> H -4.5724476595 1.8733714092 -0.3869895508
| 40> H -3.0206215023 2.3212075436 -1.167401618
| 41> H -2.2989056442 -2.5883997066 -1.2008593807
| 42> H -3.9239949638 -1.9941938687 -0.7570090892
| 43> H -3.2333771726 -3.421722426 0.0780907126
| 44> *
| 45>
| 46>                          ****END OF INPUT****

CARTESIAN COORDINATES (ANGSTROEM)
---------------------------------
  C      4.150285   -3.067225   -2.408781
  C      2.979714   -3.163550   -1.449389
  O      2.679322   -1.837957   -0.970486
  C      2.038655   -1.713093    0.172066
  O      1.695871   -2.638639    0.873531
  C      1.766597   -0.255540    0.500902
  C      0.967373    0.388536   -0.632962
  H      1.587037    0.464624   -1.530167
  C      0.453279    1.760269   -0.244125
  O     -0.731290    2.035324   -0.243161
  O      1.409570    2.576429    0.085961
  C      1.038645    3.901033    0.533713
  C      2.311164    4.650341    0.871001
  S     -0.462923   -0.619212   -1.140938
  P     -1.857157   -0.196744    0.424069
  S     -1.325372    0.464580    2.190216
  O     -3.138680    0.468659   -0.259280
  C     -3.487934    1.851938   -0.304129
  O     -2.439063   -1.662584    0.656373
  C     -3.014381   -2.464006   -0.387194
  H      3.899414   -2.408741   -3.234511
  H      5.023994   -2.674286   -1.897293
  H      4.377508   -4.055200   -2.794945
  H      3.203176   -3.801532   -0.588889
  H      2.083447   -3.546734   -1.946126
  H      2.712006    0.276489    0.613486
  H      1.212747   -0.217563    1.441452
  H      0.477205    4.388077   -0.268636
  H      0.382303    3.791700    1.402417
  H      2.953104    4.707895   -0.002595
  H      2.057357    5.653608    1.196172
  H      2.844252    4.141882    1.668316
  H     -3.161885    2.353754    0.606566
  H     -4.572448    1.873371   -0.386990
  H     -3.020622    2.321208   -1.167402
  H     -2.298906   -2.588400   -1.200859
  H     -3.923995   -1.994194   -0.757009
  H     -3.233377   -3.421722    0.078091

 Total Charge           Charge          ....    0
 Multiplicity           Mult            ....    1
 Number of Electrons    NEL             ....  174
 Basis Dimension        Dim             ....  316

ORBITAL ENERGIES
----------------

  NO   OCC          E(Eh)            E(eV)
   0   2.0000     -88.033513     -2395.5137
   1   2.0000     -87.969105     -2393.7610
   2   2.0000     -76.417740     -2079.4324
   3   2.0000     -18.826440      -512.2935
   4   2.0000     -18.801562      -511.6165
   5   2.0000     -18.781177      -511.0618
   6   2.0000     -18.771162      -510.7893
   7   2.0000     -18.757394      -510.4146
   8   2.0000     -18.730425      -509.6808
   9   2.0000     -10.029487      -272.9162
  10   2.0000     -10.004662      -272.2407
  11   2.0000      -9.961670      -271.0708
  12   2.0000      -9.953638      -270.8523
  13   2.0000      -9.947621      -270.6885
  14   2.0000      -9.936298      -270.3804
  15   2.0000      -9.933330      -270.2997
  16   2.0000      -9.903655      -269.4921
  17   2.0000      -9.899024      -269.3661
  18   2.0000      -9.890952      -269.1465
  19   2.0000      -7.678262      -208.9361
  20   2.0000      -7.614474      -207.2004
  21   2.0000      -6.413553      -174.5217
  22   2.0000      -5.706320      -155.2769
  23   2.0000      -5.702944      -155.1850
  24   2.0000      -5.694884      -154.9657
  25   2.0000      -5.643898      -153.5783
  26   2.0000      -5.635226      -153.3423
  27   2.0000      -5.633910      -153.3065
  28   2.0000      -4.636388      -126.1625
  29   2.0000      -4.635468      -126.1375
  30   2.0000      -4.634066      -126.0993
  31   2.0000      -1.035714       -28.1832
  32   2.0000      -1.008254       -27.4360
  33   2.0000      -0.970402       -26.4060
  34   2.0000      -0.938072       -25.5262
  35   2.0000      -0.924843       -25.1663
  36   2.0000      -0.908346       -24.7174
  37   2.0000      -0.767620       -20.8880
  38   2.0000      -0.721758       -19.6400
  39   2.0000      -0.710174       -19.3248
  40   2.0000      -0.687678       -18.7127
  41   2.0000      -0.653175       -17.7738
  42   2.0000      -0.627746       -17.0818
  43   2.0000      -0.626246       -17.0410
  44   2.0000      -0.606258       -16.4971
  45   2.0000      -0.587358       -15.9828
  46   2.0000      -0.564607       -15.3638
  47   2.0000      -0.524625       -14.2758
  48   2.0000      -0.510906       -13.9025
  49   2.0000      -0.502818       -13.6824
  50   2.0000      -0.484333       -13.1794
  51   2.0000      -0.466480       -12.6936
  52   2.0000      -0.463032       -12.5997
  53   2.0000      -0.449319       -12.2266
  54   2.0000      -0.444069       -12.0837
  55   2.0000      -0.434281       -11.8174
  56   2.0000      -0.424359       -11.5474
  57   2.0000      -0.414653       -11.2833
  58   2.0000      -0.412266       -11.2183
  59   2.0000      -0.403913       -10.9910
  60   2.0000      -0.402135       -10.9427
  61   2.0000      -0.391532       -10.6541
  62   2.0000      -0.386012       -10.5039
  63   2.0000      -0.380445       -10.3524
  64   2.0000      -0.374653       -10.1948
  65   2.0000      -0.370026       -10.0689
  66   2.0000      -0.364626        -9.9220
  67   2.0000      -0.357648        -9.7321
  68   2.0000      -0.350975        -9.5505
  69   2.0000      -0.338834        -9.2202
  70   2.0000      -0.335594        -9.1320
  71   2.0000      -0.329909        -8.9773
  72   2.0000      -0.322779        -8.7833
  73   2.0000      -0.315441        -8.5836
  74   2.0000      -0.307256        -8.3609
  75   2.0000      -0.296901        -8.0791
  76   2.0000      -0.290201        -7.8968
  77   2.0000      -0.286878        -7.8064
  78   2.0000      -0.282602        -7.6900
  79   2.0000      -0.260159        -7.0793
  80   2.0000      -0.256704        -6.9853
  81   2.0000      -0.250429        -6.8145
  82   2.0000      -0.244985        -6.6664
  83   2.0000      -0.213140        -5.7998
  84   2.0000      -0.210817        -5.7366
  85   2.0000      -0.190004        -5.1703
  86   2.0000      -0.181585        -4.9412
  87   0.0000      -0.046380        -1.2621
  88   0.0000      -0.037173        -1.0115
  89   0.0000      -0.011378        -0.3096
  90   0.0000      -0.001359        -0.0370
  91   0.0000       0.031724         0.8632

MULLIKEN ATOMIC CHARGES
-----------------------
   0 C :   -0.278944
   1 C :   -0.023939
   2 O :   -0.245063
   3 C :    0.115679
   4 O :   -0.180062
   5 C :   -0.067261
   6 C :   -0.309107
   7 H :    0.150696
   8 C :    0.217507
   9 O :   -0.194464
  10 O :   -0.218998
  11 C :   -0.032638
  12 C :   -0.274228
  13 S :   -0.116280
  14 P :    0.642013
  15 S :   -0.326558
  16 O :   -0.398528
  17 C :   -0.078246
  18 O :   -0.365384
  19 C :   -0.110303
  20 H :    0.112508
  21 H :    0.114523
  22 H :    0.112818
  23 H :    0.114651
  24 H :    0.104982
  25 H :    0.113977
  26 H :    0.122848
  27 H :    0.108935
  28 H :    0.124220
  29 H :    0.116999
  30 H :    0.116950
  31 H :    0.123021
  32 H :    0.114671
  33 H :    0.115102
  34 H :    0.113146
  35 H :    0.118142
  36 H :    0.116599
  37 H :    0.130020
Sum of atomic charges:   -0.0000000

LOEWDIN ATOMIC CHARGES
----------------------
   0 C :   -0.351212
   1 C :   -0.107598
   2 O :   -0.069611
   3 C :    0.017882
   4 O :   -0.150717
   5 C :   -0.255391
   6 C :   -0.260482
   7 H :    0.149526
   8 C :    0.021405
   9 O :   -0.155536
  10 O :   -0.038050
  11 C :   -0.102667
  12 C :   -0.350174
  13 S :    0.094177
  14 P :    0.589182
  15 S :   -0.319555
  16 O :   -0.254316
  17 C :   -0.206131
  18 O :   -0.250739
  19 C :   -0.213637
  20 H :    0.125098
  21 H :    0.126275
  22 H :    0.130998
  23 H :    0.120223
  24 H :    0.117154
  25 H :    0.141384
  26 H :    0.135984
  27 H :    0.118695
  28 H :    0.126159
  29 H :    0.127758
  30 H :    0.134242
  31 H :    0.130504
  32 H :    0.111410
  33 H :    0.115386
  34 H :    0.111706
  35 H :    0.103458
  36 H :    0.111854
  37 H :    0.125353

  Mayer bond orders larger than 0.100000
B(  0-C ,  1-C ) :   1.1558 B(  0-C , 20-H ) :   0.9486 B(  0-C , 21-H ) :   0.9520
B(  0-C , 22-H ) :   0.9444 B(  1-C ,  2-O ) :   0.9067 B(  1-C , 23-H ) :   0.9203
B(  1-C , 24-H ) :   0.9344 B(  2-O ,  3-C ) :   1.1944 B(  3-C ,  4-O ) :   2.0970
B(  3-C ,  5-C ) :   1.0233 B(  5-C ,  6-C ) :   1.0452 B(  5-C , 25-H ) :   0.8720
B(  5-C , 26-H ) :   0.8762 B(  6-C ,  7-H ) :   0.8568 B(  6-C ,  8-C ) :   0.9266
B(  6-C , 13-S ) :   1.0470 B(  8-C ,  9-O ) :   1.9442 B(  8-C , 10-O ) :   1.2816
B( 10-O , 11-C ) :   0.8868 B( 11-C , 12-C ) :   1.1549 B( 11-C , 27-H ) :   0.9315
B( 11-C , 28-H ) :   0.9282 B( 12-C , 29-H ) :   0.9496 B( 12-C , 30-H ) :   0.9421
B( 12-C , 31-H ) :   0.9491 B( 13-S , 14-P ) :   0.9113 B( 13-S , 15-S ) :   0.1109
B( 14-P , 15-S ) :   1.5866 B( 14-P , 16-O ) :   1.0882 B( 14-P , 18-O ) :   1.1089
B( 16-O , 17-C ) :   0.9291 B( 17-C , 32-H ) :   0.9416 B( 17-C , 33-H ) :   0.9541
B( 17-C , 34-H ) :   0.9528 B( 18-O , 19-C ) :   0.9351 B( 19-C , 35-H ) :   0.9363
B( 19-C , 36-H ) :   0.9462 B( 19-C , 37-H ) :   0.9605

Dispersion correction           -0.050848435
FINAL SINGLE POINT ENERGY     -1979.008007944526

DIPOLE MOMENT
-------------

Method             : SCF
Type of density    : Electron Density
Multiplicity       :   1
Irrep              :   0
Energy             : -1979.1386794487602856 Eh
Relativity type    :
Basis              : AO
                                X                 Y                 Z
Electronic contribution:    -12.687482384      -3.997690980       6.924410669
Nuclear contribution   :     13.526519913       5.103344102      -8.633917213
                        -----------------------------------------
Total Dipole Moment    :      0.839037529       1.105653123      -1.709506543
                        -----------------------------------------
Magnitude (a.u.)       :      2.202013947
Magnitude (Debye)      :      5.597074648

Rotational constants in cm-1:             0.010515             0.007987             0.005394
Rotational constants in MHz :           315.232891           239.441052           161.701089

                             ****ORCA TERMINATED NORMALLY****
TOTAL RUN TIME: 0 days 0 hours 0 minutes 32 seconds 352 msec
