                         Program Version 6.0.1  -  RELEASE   -
|  1> ! pbe def2-sv(p) def2/J RI DEFGRID1 loosescf d4 GCP(DFT/SV(P)) printgap
|  2> %output
|  3>     printlevel normal
|  4> end
|  5> * xyz 0 1
|  6> C 4.9200648193 0.2689672319 -1.6900485857
|  7> C 4.5834508444 -0.8815084436 -0.7574126555
|  8> O 3.1895972566 -1.2123346853 -0.9144436701
|  9> C 2.4163345835 -1.2838229697 0.1473514543
| 10> O 2.7918471505 -1.1642398464 1.2916827811
| 11> C 0.9709786681 -1.5351782302 -0.2504309152
| 12> C 0.4467327947 -0.3489503987 -1.0677878896
| 13> H 1.0449546751 -0.2312061866 -1.974111469
| 14> C 0.4987882436 0.9204336867 -0.2450203686
| 15> O -0.5028833518 1.4741815474 0.1691593003
| 16> O 1.7167423386 1.3213134531 -0.0263391947
| 17> C 1.9325416169 2.4436169133 0.8632260183
| 18> C 3.2901537888 2.2763437029 1.5170642012
| 19> S -1.2683930563 -0.5981906097 -1.6286349992
| 20> P -2.426530458 -0.1168677298 0.0860683913
| 21> S -1.8053444112 -0.5588253515 1.9047756804
| 22> O -3.1777190788 1.2610766602 -0.1496547573
| 23> C -3.0569592636 2.4243433757 0.6701162049
| 24> O -3.7173525684 -0.9916802066 -0.3002052145
| 25> C -3.6938419 -2.4196173258 -0.2507757125
| 26> H 4.7452391169 -0.0233717569 -2.7210531141
| 27> H 4.2974607463 1.1293370111 -1.4597773518
| 28> H 5.9639914805 0.5374758126 -1.5666731489
| 29> H 4.7637366137 -0.6234570278 0.2895510387
| 30> H 5.1511151947 -1.7784867374 -1.0155010038
| 31> H 0.3794893496 -1.6727362046 0.6570966183
| 32> H 0.9175301962 -2.4323742116 -0.8668246221
| 33> H 1.8805690106 3.3542701494 0.2606022609
| 34> H 1.1261846802 2.453938638 1.6018618297
| 35> H 4.0798288573 2.3261832198 0.7737294857
| 36> H 3.4338961636 3.0679314584 2.2446842866
| 37> H 3.3395703356 1.3143829464 2.0220211687
| 38> H -4.0644064398 2.8180764337 0.7878942344
| 39> H -2.4127184968 3.1463010167 0.1716225652
| 40> H -2.6350300667 2.1650069395 1.6426046604
| 41> H -3.1183856419 -2.8163266625 -1.0875580921
| 42> H -4.7327202615 -2.7318646761 -0.3208362999
| 43> H -3.2604678275 -2.7552722942 0.6938569033
| 44> *
| 45>
| 46>                          ****END OF INPUT****

CARTESIAN COORDINATES (ANGSTROEM)
---------------------------------
  C      4.920065    0.268967   -1.690049
  C      4.583451   -0.881508   -0.757413
  O      3.189597   -1.212335   -0.914444
  C      2.416335   -1.283823    0.147351
  O      2.791847   -1.164240    1.291683
  C      0.970979   -1.535178   -0.250431
  C      0.446733   -0.348950   -1.067788
  H      1.044955   -0.231206   -1.974111
  C      0.498788    0.920434   -0.245020
  O     -0.502883    1.474182    0.169159
  O      1.716742    1.321313   -0.026339
  C      1.932542    2.443617    0.863226
  C      3.290154    2.276344    1.517064
  S     -1.268393   -0.598191   -1.628635
  P     -2.426530   -0.116868    0.086068
  S     -1.805344   -0.558825    1.904776
  O     -3.177719    1.261077   -0.149655
  C     -3.056959    2.424343    0.670116
  O     -3.717353   -0.991680   -0.300205
  C     -3.693842   -2.419617   -0.250776
  H      4.745239   -0.023372   -2.721053
  H      4.297461    1.129337   -1.459777
  H      5.963991    0.537476   -1.566673
  H      4.763737   -0.623457    0.289551
  H      5.151115   -1.778487   -1.015501
  H      0.379489   -1.672736    0.657097
  H      0.917530   -2.432374   -0.866825
  H      1.880569    3.354270    0.260602
  H      1.126185    2.453939    1.601862
  H      4.079829    2.326183    0.773729
  H      3.433896    3.067931    2.244684
  H      3.339570    1.314383    2.022021
  H     -4.064406    2.818076    0.787894
  H     -2.412718    3.146301    0.171623
  H     -2.635030    2.165007    1.642605
  H     -3.118386   -2.816327   -1.087558
  H     -4.732720   -2.731865   -0.320836
  H     -3.260468   -2.755272    0.693857

 Total Charge           Charge          ....    0
 Multiplicity           Mult            ....    1
 Number of Electrons    NEL             ....  174
 Basis Dimension        Dim             ....  316

ORBITAL ENERGIES
----------------

  NO   OCC          E(Eh)            E(eV)
   0   2.0000     -88.036501     -2395.5950
   1   2.0000     -87.970475     -2393.7983
   2   2.0000     -76.418618     -2079.4563
   3   2.0000     -18.831953      -512.4435
   4   2.0000     -18.808943      -511.8173
   5   2.0000     -18.776762      -510.9417
   6   2.0000     -18.770873      -510.7814
   7   2.0000     -18.766427      -510.6604
   8   2.0000     -18.741922      -509.9936
   9   2.0000     -10.035919      -273.0912
  10   2.0000     -10.014757      -272.5154
  11   2.0000      -9.963572      -271.1226
  12   2.0000      -9.957061      -270.9454
  13   2.0000      -9.954203      -270.8676
  14   2.0000      -9.931192      -270.2415
  15   2.0000      -9.929288      -270.1897
  16   2.0000      -9.909764      -269.6584
  17   2.0000      -9.896932      -269.3092
  18   2.0000      -9.895556      -269.2718
  19   2.0000      -7.681610      -209.0272
  20   2.0000      -7.615475      -207.2276
  21   2.0000      -6.413983      -174.5333
  22   2.0000      -5.709716      -155.3693
  23   2.0000      -5.706039      -155.2692
  24   2.0000      -5.698387      -155.0610
  25   2.0000      -5.644611      -153.5977
  26   2.0000      -5.636410      -153.3745
  27   2.0000      -5.635100      -153.3389
  28   2.0000      -4.636418      -126.1633
  29   2.0000      -4.636138      -126.1557
  30   2.0000      -4.634644      -126.1151
  31   2.0000      -1.041554       -28.3421
  32   2.0000      -1.016123       -27.6501
  33   2.0000      -0.970232       -26.4014
  34   2.0000      -0.944951       -25.7134
  35   2.0000      -0.924079       -25.1455
  36   2.0000      -0.919853       -25.0305
  37   2.0000      -0.771978       -21.0066
  38   2.0000      -0.721828       -19.6419
  39   2.0000      -0.717528       -19.5249
  40   2.0000      -0.687834       -18.7169
  41   2.0000      -0.656684       -17.8693
  42   2.0000      -0.627728       -17.0813
  43   2.0000      -0.618208       -16.8223
  44   2.0000      -0.609064       -16.5735
  45   2.0000      -0.596094       -16.2205
  46   2.0000      -0.568124       -15.4594
  47   2.0000      -0.526697       -14.3322
  48   2.0000      -0.513892       -13.9837
  49   2.0000      -0.503398       -13.6982
  50   2.0000      -0.487643       -13.2694
  51   2.0000      -0.472021       -12.8443
  52   2.0000      -0.464878       -12.6500
  53   2.0000      -0.456517       -12.4224
  54   2.0000      -0.451640       -12.2897
  55   2.0000      -0.437561       -11.9066
  56   2.0000      -0.418497       -11.3879
  57   2.0000      -0.415528       -11.3071
  58   2.0000      -0.410711       -11.1760
  59   2.0000      -0.406975       -11.0743
  60   2.0000      -0.400892       -10.9088
  61   2.0000      -0.390399       -10.6233
  62   2.0000      -0.388325       -10.5669
  63   2.0000      -0.384456       -10.4616
  64   2.0000      -0.379491       -10.3265
  65   2.0000      -0.372449       -10.1349
  66   2.0000      -0.367982       -10.0133
  67   2.0000      -0.363756        -9.8983
  68   2.0000      -0.350998        -9.5511
  69   2.0000      -0.348043        -9.4707
  70   2.0000      -0.343082        -9.3357
  71   2.0000      -0.333896        -9.0858
  72   2.0000      -0.332709        -9.0535
  73   2.0000      -0.316326        -8.6077
  74   2.0000      -0.308456        -8.3935
  75   2.0000      -0.300157        -8.1677
  76   2.0000      -0.292257        -7.9527
  77   2.0000      -0.287372        -7.8198
  78   2.0000      -0.276870        -7.5340
  79   2.0000      -0.264430        -7.1955
  80   2.0000      -0.262561        -7.1447
  81   2.0000      -0.245435        -6.6786
  82   2.0000      -0.245081        -6.6690
  83   2.0000      -0.231367        -6.2958
  84   2.0000      -0.216894        -5.9020
  85   2.0000      -0.190808        -5.1922
  86   2.0000      -0.182854        -4.9757
  87   0.0000      -0.050743        -1.3808
  88   0.0000      -0.040104        -1.0913
  89   0.0000      -0.024379        -0.6634
  90   0.0000       0.009602         0.2613
  91   0.0000       0.022003         0.5987

MULLIKEN ATOMIC CHARGES
-----------------------
   0 C :   -0.299307
   1 C :   -0.027692
   2 O :   -0.240976
   3 C :    0.097806
   4 O :   -0.189626
   5 C :   -0.040765
   6 C :   -0.331542
   7 H :    0.154106
   8 C :    0.231989
   9 O :   -0.192198
  10 O :   -0.220911
  11 C :   -0.029368
  12 C :   -0.311798
  13 S :   -0.084506
  14 P :    0.623936
  15 S :   -0.342077
  16 O :   -0.369469
  17 C :   -0.083639
  18 O :   -0.376242
  19 C :   -0.099580
  20 H :    0.115167
  21 H :    0.119313
  22 H :    0.113965
  23 H :    0.119629
  24 H :    0.108921
  25 H :    0.124601
  26 H :    0.119298
  27 H :    0.110638
  28 H :    0.129303
  29 H :    0.116918
  30 H :    0.116236
  31 H :    0.153618
  32 H :    0.118550
  33 H :    0.110099
  34 H :    0.116605
  35 H :    0.107276
  36 H :    0.120815
  37 H :    0.110907
Sum of atomic charges:   -0.0000000

LOEWDIN ATOMIC CHARGES
----------------------
   0 C :   -0.354035
   1 C :   -0.110310
   2 O :   -0.062174
   3 C :    0.022307
   4 O :   -0.159304
   5 C :   -0.247883
   6 C :   -0.266641
   7 H :    0.147853
   8 C :    0.033559
   9 O :   -0.145490
  10 O :   -0.030826
  11 C :   -0.101358
  12 C :   -0.356386
  13 S :    0.105833
  14 P :    0.586171
  15 S :   -0.337798
  16 O :   -0.239670
  17 C :   -0.208290
  18 O :   -0.260359
  19 C :   -0.222091
  20 H :    0.126090
  21 H :    0.122749
  22 H :    0.130915
  23 H :    0.121124
  24 H :    0.119458
  25 H :    0.134928
  26 H :    0.142223
  27 H :    0.119601
  28 H :    0.127685
  29 H :    0.123286
  30 H :    0.133770
  31 H :    0.139415
  32 H :    0.116956
  33 H :    0.110690
  34 H :    0.109039
  35 H :    0.102544
  36 H :    0.120221
  37 H :    0.106202

  Mayer bond orders larger than 0.100000
B(  0-C ,  1-C ) :   1.1681 B(  0-C , 20-H ) :   0.9474 B(  0-C , 21-H ) :   0.9403
B(  0-C , 22-H ) :   0.9447 B(  1-C ,  2-O ) :   0.9083 B(  1-C , 23-H ) :   0.9067
B(  1-C , 24-H ) :   0.9356 B(  2-O ,  3-C ) :   1.1975 B(  3-C ,  4-O ) :   2.0583
B(  3-C ,  5-C ) :   1.0087 B(  5-C ,  6-C ) :   1.0264 B(  5-C , 25-H ) :   0.8726
B(  5-C , 26-H ) :   0.8893 B(  6-C ,  7-H ) :   0.8708 B(  6-C ,  8-C ) :   0.9091
B(  6-C , 13-S ) :   1.0324 B(  8-C ,  9-O ) :   1.9306 B(  8-C , 10-O ) :   1.2646
B(  9-O , 14-P ) :   0.1271 B( 10-O , 11-C ) :   0.8766 B( 11-C , 12-C ) :   1.1634
B( 11-C , 27-H ) :   0.9364 B( 11-C , 28-H ) :   0.9187 B( 12-C , 29-H ) :   0.9449
B( 12-C , 30-H ) :   0.9394 B( 12-C , 31-H ) :   0.9336 B( 13-S , 14-P ) :   0.9290
B( 13-S , 15-S ) :   0.1163 B( 14-P , 15-S ) :   1.5574 B( 14-P , 16-O ) :   1.1326
B( 14-P , 18-O ) :   1.0762 B( 16-O , 17-C ) :   0.9294 B( 17-C , 32-H ) :   0.9544
B( 17-C , 33-H ) :   0.9551 B( 17-C , 34-H ) :   0.9337 B( 18-O , 19-C ) :   0.9464
B( 19-C , 35-H ) :   0.9446 B( 19-C , 36-H ) :   0.9597 B( 19-C , 37-H ) :   0.9319

Dispersion correction           -0.052701126
FINAL SINGLE POINT ENERGY     -1979.012201346125

DIPOLE MOMENT
-------------

Method             : SCF
Type of density    : Electron Density
Multiplicity       :   1
Irrep              :   0
Energy             : -1979.1440272384197669 Eh
Relativity type    :
Basis              : AO
                                X                 Y                 Z
Electronic contribution:    -20.239980165      -6.188544708      -1.016940974
Nuclear contribution   :     21.869176288       6.947795857       0.041097917
                        -----------------------------------------
Total Dipole Moment    :      1.629196122       0.759251148      -0.975843058
                        -----------------------------------------
Magnitude (a.u.)       :      2.045241302
Magnitude (Debye)      :      5.198590251

Rotational constants in cm-1:             0.017222             0.006210             0.005512
Rotational constants in MHz :           516.309277           186.168274           165.243068

                             ****ORCA TERMINATED NORMALLY****
TOTAL RUN TIME: 0 days 0 hours 0 minutes 44 seconds 371 msec
