                         Program Version 6.0.0  -   RELEASE  -
|  1> ! r2scan-3c def2/J RI DEFGRID2 scfconv6 printgap
|  2> %output
|  3>     printlevel normal
|  4> end
|  5> * xyz 0 1
|  6> C 2.7830136525 0.8008306795 -0.0013736136
|  7> C 1.3393811473 0.394941712 0.0008174476
|  8> C 0.3274681184 1.3403919346 0.0034948491
|  9> C -1.0113753913 0.9626325889 0.0041109008
| 10> C -1.3241701271 -0.3864751815 0.001536044
| 11> C -0.3276259779 -1.3571266297 -0.0013262933
| 12> C 0.997069029 -0.9534520249 -0.0014877796
| 13> C -0.6978252254 -2.8103212037 -0.0001789015
| 14> C -2.08568581 2.0088785598 -0.00326923
| 15> H 2.8827813596 1.8824137274 0.0327749978
| 16> H 3.2970769064 0.3744631551 0.8585518537
| 17> H 3.2762997649 0.4333107583 -0.9000666018
| 18> H 0.5782331373 2.3921835994 0.0057695348
| 19> H -2.3604386095 -0.6951927147 0.0021461354
| 20> H 1.7827323069 -1.6963494223 -0.0029949477
| 21> H -1.3323081493 -3.0398874183 -0.8546764627
| 22> H 0.1886809006 -3.4372939131 -0.0443876119
| 23> H -1.2540555951 -3.0564291002 0.9032441426
| 24> H -3.0651465011 1.5611933591 0.1424917583
| 25> H -1.91132273 2.7391916046 0.7846283463
| 26> H -2.0855050404 2.538816122 -0.9551690475
| 27> *
| 28>
| 29>                          ****END OF INPUT****

CARTESIAN COORDINATES (ANGSTROEM)
---------------------------------
  C      2.783014    0.800831   -0.001374
  C      1.339381    0.394942    0.000817
  C      0.327468    1.340392    0.003495
  C     -1.011375    0.962633    0.004111
  C     -1.324170   -0.386475    0.001536
  C     -0.327626   -1.357127   -0.001326
  C      0.997069   -0.953452   -0.001488
  C     -0.697825   -2.810321   -0.000179
  C     -2.085686    2.008879   -0.003269
  H      2.882781    1.882414    0.032775
  H      3.297077    0.374463    0.858552
  H      3.276300    0.433311   -0.900067
  H      0.578233    2.392184    0.005770
  H     -2.360439   -0.695193    0.002146
  H      1.782732   -1.696349   -0.002995
  H     -1.332308   -3.039887   -0.854676
  H      0.188681   -3.437294   -0.044388
  H     -1.254056   -3.056429    0.903244
  H     -3.065147    1.561193    0.142492
  H     -1.911323    2.739192    0.784628
  H     -2.085505    2.538816   -0.955169

 Total Charge           Charge          ....    0
 Multiplicity           Mult            ....    1
 Number of Electrons    NEL             ....   66
 Basis Dimension        Dim             ....  231

ORBITAL ENERGIES
----------------

  NO   OCC          E(Eh)            E(eV)
   0   2.0000     -10.035631      -273.0834
   1   2.0000     -10.035614      -273.0829
   2   2.0000     -10.035595      -273.0824
   3   2.0000     -10.023299      -272.7478
   4   2.0000     -10.023285      -272.7474
   5   2.0000     -10.023284      -272.7474
   6   2.0000     -10.018383      -272.6141
   7   2.0000     -10.018366      -272.6136
   8   2.0000     -10.018341      -272.6129
   9   2.0000      -0.826307       -22.4850
  10   2.0000      -0.746731       -20.3196
  11   2.0000      -0.746724       -20.3194
  12   2.0000      -0.666796       -18.1444
  13   2.0000      -0.644233       -17.5305
  14   2.0000      -0.644185       -17.5292
  15   2.0000      -0.537010       -14.6128
  16   2.0000      -0.537001       -14.6125
  17   2.0000      -0.462621       -12.5885
  18   2.0000      -0.444564       -12.0972
  19   2.0000      -0.398093       -10.8327
  20   2.0000      -0.395957       -10.7745
  21   2.0000      -0.382570       -10.4103
  22   2.0000      -0.382520       -10.4089
  23   2.0000      -0.369946       -10.0668
  24   2.0000      -0.369899       -10.0655
  25   2.0000      -0.360996        -9.8232
  26   2.0000      -0.360889        -9.8203
  27   2.0000      -0.330111        -8.9828
  28   2.0000      -0.305573        -8.3151
  29   2.0000      -0.297963        -8.1080
  30   2.0000      -0.297932        -8.1071
  31   2.0000      -0.214475        -5.8362
  32   2.0000      -0.214319        -5.8319
  33   0.0000      -0.020732        -0.5641
  34   0.0000      -0.020346        -0.5536
  35   0.0000       0.072395         1.9700
  36   0.0000       0.106917         2.9093
  37   0.0000       0.107714         2.9311

MULLIKEN ATOMIC CHARGES
-----------------------
   0 C :   -0.559987
   1 C :    0.237135
   2 C :   -0.293655
   3 C :    0.239876
   4 C :   -0.291122
   5 C :    0.238326
   6 C :   -0.291686
   7 C :   -0.560016
   8 C :   -0.559515
   9 H :    0.150377
  10 H :    0.158794
  11 H :    0.160705
  12 H :    0.143753
  13 H :    0.143711
  14 H :    0.143623
  15 H :    0.158386
  16 H :    0.150410
  17 H :    0.161044
  18 H :    0.150418
  19 H :    0.155657
  20 H :    0.163766
Sum of atomic charges:    0.0000000

LOEWDIN ATOMIC CHARGES
----------------------
   0 C :   -0.390698
   1 C :   -0.088340
   2 C :   -0.175329
   3 C :   -0.088276
   4 C :   -0.175044
   5 C :   -0.088284
   6 C :   -0.175158
   7 C :   -0.390699
   8 C :   -0.390670
   9 H :    0.157946
  10 H :    0.163759
  11 H :    0.164183
  12 H :    0.168216
  13 H :    0.168341
  14 H :    0.168296
  15 H :    0.163682
  16 H :    0.157954
  17 H :    0.164248
  18 H :    0.158146
  19 H :    0.162950
  20 H :    0.164776

  Mayer bond orders larger than 0.100000
B(  0-C ,  1-C ) :   0.7617 B(  0-C ,  9-H ) :   0.9974 B(  0-C , 10-H ) :   0.9788
B(  0-C , 11-H ) :   0.9772 B(  1-C ,  2-C ) :   1.4649 B(  1-C ,  6-C ) :   1.4146
B(  2-C ,  3-C ) :   1.4145 B(  2-C , 12-H ) :   0.9355 B(  3-C ,  4-C ) :   1.4608
B(  3-C ,  8-C ) :   0.7612 B(  4-C ,  5-C ) :   1.4143 B(  4-C , 13-H ) :   0.9372
B(  5-C ,  6-C ) :   1.4623 B(  5-C ,  7-C ) :   0.7615 B(  6-C , 14-H ) :   0.9368
B(  7-C , 15-H ) :   0.9793 B(  7-C , 16-H ) :   0.9974 B(  7-C , 17-H ) :   0.9767
B(  8-C , 18-H ) :   0.9970 B(  8-C , 19-H ) :   0.9823 B(  8-C , 20-H ) :   0.9740

Dispersion correction           -0.006775661
FINAL SINGLE POINT ENERGY      -350.086540188862

DIPOLE MOMENT
-------------

Method             : SCF
Type of density    : Electron Density
Multiplicity       :   1
Irrep              :   0
Energy             :  -350.0873698621986136 Eh
Relativity type    :
Basis              : AO
                                X                 Y                 Z
Electronic contribution:      0.001437883       0.001931709       0.017760625
Nuclear contribution   :     -0.002788467      -0.003358866      -0.025975878
                        -----------------------------------------
Total Dipole Moment    :     -0.001350584      -0.001427157      -0.008215253
                        -----------------------------------------
Magnitude (a.u.)       :      0.008446966
Magnitude (Debye)      :      0.021470482

Rotational constants in cm-1:             0.059076             0.059051             0.030024
Rotational constants in MHz :          1771.065941          1770.295884           900.108087

                             ****ORCA TERMINATED NORMALLY****
TOTAL RUN TIME: 0 days 0 hours 1 minutes 3 seconds 186 msec
