                         Program Version 6.0.0  -   RELEASE  -
|  1> ! r2scan-3c def2/J RI DEFGRID2 scfconv6 printgap
|  2> %output
|  3>     printlevel normal
|  4> end
|  5> %cpcm
|  6>     smd true
|  7>     smdsolvent "water"
|  8> end
|  9> * xyz 0 1
| 10> C 2.7830136525 0.8008306795 -0.0013736136
| 11> C 1.3393811473 0.394941712 0.0008174476
| 12> C 0.3274681184 1.3403919346 0.0034948491
| 13> C -1.0113753913 0.9626325889 0.0041109008
| 14> C -1.3241701271 -0.3864751815 0.001536044
| 15> C -0.3276259779 -1.3571266297 -0.0013262933
| 16> C 0.997069029 -0.9534520249 -0.0014877796
| 17> C -0.6978252254 -2.8103212037 -0.0001789015
| 18> C -2.08568581 2.0088785598 -0.00326923
| 19> H 2.8827813596 1.8824137274 0.0327749978
| 20> H 3.2970769064 0.3744631551 0.8585518537
| 21> H 3.2762997649 0.4333107583 -0.9000666018
| 22> H 0.5782331373 2.3921835994 0.0057695348
| 23> H -2.3604386095 -0.6951927147 0.0021461354
| 24> H 1.7827323069 -1.6963494223 -0.0029949477
| 25> H -1.3323081493 -3.0398874183 -0.8546764627
| 26> H 0.1886809006 -3.4372939131 -0.0443876119
| 27> H -1.2540555951 -3.0564291002 0.9032441426
| 28> H -3.0651465011 1.5611933591 0.1424917583
| 29> H -1.91132273 2.7391916046 0.7846283463
| 30> H -2.0855050404 2.538816122 -0.9551690475
| 31> *
| 32>
| 33>                          ****END OF INPUT****

CARTESIAN COORDINATES (ANGSTROEM)
---------------------------------
  C      2.783014    0.800831   -0.001374
  C      1.339381    0.394942    0.000817
  C      0.327468    1.340392    0.003495
  C     -1.011375    0.962633    0.004111
  C     -1.324170   -0.386475    0.001536
  C     -0.327626   -1.357127   -0.001326
  C      0.997069   -0.953452   -0.001488
  C     -0.697825   -2.810321   -0.000179
  C     -2.085686    2.008879   -0.003269
  H      2.882781    1.882414    0.032775
  H      3.297077    0.374463    0.858552
  H      3.276300    0.433311   -0.900067
  H      0.578233    2.392184    0.005770
  H     -2.360439   -0.695193    0.002146
  H      1.782732   -1.696349   -0.002995
  H     -1.332308   -3.039887   -0.854676
  H      0.188681   -3.437294   -0.044388
  H     -1.254056   -3.056429    0.903244
  H     -3.065147    1.561193    0.142492
  H     -1.911323    2.739192    0.784628
  H     -2.085505    2.538816   -0.955169

 Total Charge           Charge          ....    0
 Multiplicity           Mult            ....    1
 Number of Electrons    NEL             ....   66
 Basis Dimension        Dim             ....  231

ORBITAL ENERGIES
----------------

  NO   OCC          E(Eh)            E(eV)
   0   2.0000     -10.037670      -273.1389
   1   2.0000     -10.037648      -273.1383
   2   2.0000     -10.037645      -273.1382
   3   2.0000     -10.018314      -272.6122
   4   2.0000     -10.018301      -272.6118
   5   2.0000     -10.018273      -272.6111
   6   2.0000     -10.016747      -272.5696
   7   2.0000     -10.016726      -272.5690
   8   2.0000     -10.016712      -272.5686
   9   2.0000      -0.828654       -22.5488
  10   2.0000      -0.745889       -20.2967
  11   2.0000      -0.745870       -20.2962
  12   2.0000      -0.662591       -18.0300
  13   2.0000      -0.642267       -17.4770
  14   2.0000      -0.642220       -17.4757
  15   2.0000      -0.535628       -14.5752
  16   2.0000      -0.535620       -14.5750
  17   2.0000      -0.460474       -12.5301
  18   2.0000      -0.443140       -12.0585
  19   2.0000      -0.396311       -10.7842
  20   2.0000      -0.392401       -10.6778
  21   2.0000      -0.377386       -10.2692
  22   2.0000      -0.377321       -10.2674
  23   2.0000      -0.366283        -9.9671
  24   2.0000      -0.366219        -9.9653
  25   2.0000      -0.355719        -9.6796
  26   2.0000      -0.355620        -9.6769
  27   2.0000      -0.325002        -8.8438
  28   2.0000      -0.306888        -8.3509
  29   2.0000      -0.295867        -8.0509
  30   2.0000      -0.295839        -8.0502
  31   2.0000      -0.218224        -5.9382
  32   2.0000      -0.218063        -5.9338
  33   0.0000      -0.023763        -0.6466
  34   0.0000      -0.023392        -0.6365
  35   0.0000       0.080279         2.1845
  36   0.0000       0.107466         2.9243
  37   0.0000       0.111185         3.0255

MULLIKEN ATOMIC CHARGES
-----------------------
   0 C :   -0.577776
   1 C :    0.186440
   2 C :   -0.304911
   3 C :    0.187281
   4 C :   -0.301578
   5 C :    0.186574
   6 C :   -0.302929
   7 C :   -0.578087
   8 C :   -0.577421
   9 H :    0.169964
  10 H :    0.174321
  11 H :    0.176087
  12 H :    0.173825
  13 H :    0.173583
  14 H :    0.173680
  15 H :    0.173979
  16 H :    0.170173
  17 H :    0.176336
  18 H :    0.169770
  19 H :    0.171720
  20 H :    0.178971
Sum of atomic charges:    0.0000000

LOEWDIN ATOMIC CHARGES
----------------------
   0 C :   -0.395784
   1 C :   -0.098878
   2 C :   -0.188234
   3 C :   -0.098862
   4 C :   -0.187820
   5 C :   -0.098760
   6 C :   -0.188033
   7 C :   -0.395794
   8 C :   -0.395743
   9 H :    0.163954
  10 H :    0.169673
  11 H :    0.170117
  12 H :    0.178836
  13 H :    0.178900
  14 H :    0.178890
  15 H :    0.169608
  16 H :    0.164025
  17 H :    0.170150
  18 H :    0.164134
  19 H :    0.168908
  20 H :    0.170714

  Mayer bond orders larger than 0.100000
B(  0-C ,  1-C ) :   0.7871 B(  0-C ,  9-H ) :   0.9917 B(  0-C , 10-H ) :   0.9712
B(  0-C , 11-H ) :   0.9695 B(  1-C ,  2-C ) :   1.4356 B(  1-C ,  6-C ) :   1.3762
B(  2-C ,  3-C ) :   1.3767 B(  2-C , 12-H ) :   0.9502 B(  3-C ,  4-C ) :   1.4324
B(  3-C ,  8-C ) :   0.7873 B(  4-C ,  5-C ) :   1.3760 B(  4-C , 13-H ) :   0.9514
B(  5-C ,  6-C ) :   1.4340 B(  5-C ,  7-C ) :   0.7869 B(  6-C , 14-H ) :   0.9511
B(  7-C , 15-H ) :   0.9716 B(  7-C , 16-H ) :   0.9917 B(  7-C , 17-H ) :   0.9691
B(  8-C , 18-H ) :   0.9912 B(  8-C , 19-H ) :   0.9744 B(  8-C , 20-H ) :   0.9665

Dispersion correction           -0.006775661
FINAL SINGLE POINT ENERGY      -350.087302222264

DIPOLE MOMENT
-------------

Method             : SCF
Type of density    : Electron Density
Multiplicity       :   1
Irrep              :   0
Energy             :  -350.0881318956001564 Eh
Relativity type    :
Basis              : AO
                                X                 Y                 Z
Electronic contribution:      0.001012716       0.001349193       0.014169068
Nuclear contribution   :     -0.002788467      -0.003358866      -0.025975878
                        -----------------------------------------
Total Dipole Moment    :     -0.001775751      -0.002009672      -0.011806810
                        -----------------------------------------
Magnitude (a.u.)       :      0.012107553
Magnitude (Debye)      :      0.030774954

Rotational constants in cm-1:             0.059076             0.059051             0.030024
Rotational constants in MHz :          1771.065941          1770.295884           900.108087

                             ****ORCA TERMINATED NORMALLY****
TOTAL RUN TIME: 0 days 0 hours 1 minutes 14 seconds 422 msec
