                         Program Version 6.0.0  -   RELEASE  -
|  1> ! pbe def2-sv(p) def2/J RI DEFGRID1 loosescf d4 GCP(DFT/SV(P)) printgap
|  2> %output
|  3>     printlevel normal
|  4> end
|  5> * xyz 0 1
|  6> C 4.423663296 1.6903889154 -0.2224538572
|  7> C 3.2858185393 0.9889772919 -0.935114348
|  8> O 2.0560002309 1.104484063 -0.1689368825
|  9> P 1.537532157 -0.0270567448 0.8056716727
| 10> S 0.4011313541 0.6327194064 2.2623183741
| 11> O 2.9055721446 -0.6226758873 1.3768945025
| 12> C 2.9477268088 -1.4299400314 2.5612356273
| 13> C 2.2395971813 -2.7554974834 2.3696325989
| 14> S 0.9694400667 -1.64449847 -0.4997939224
| 15> C 0.4911914511 -0.8349128889 -2.0466601731
| 16> S -1.3046222777 -0.8030146838 -2.3961230556
| 17> P -1.9585554727 0.2905557786 -0.7279137714
| 18> S -3.7155071498 1.142649752 -0.8075731962
| 19> O -0.7386795931 1.2910183896 -0.438270731
| 20> C -0.7864992294 2.6753172368 -0.8260038636
| 21> C -0.5939048572 2.8532742552 -2.3187464472
| 22> O -1.7723636413 -0.8037995917 0.4026000139
| 23> C -2.6403192884 -0.967381458 1.5441271648
| 24> C -3.1767763326 -2.3838574462 1.5537453779
| 25> H 5.3081706351 1.65746191 -0.8510465887
| 26> H 4.1609446 2.7263713085 -0.0263218503
| 27> H 4.6370152046 1.1988723724 0.7227376001
| 28> H 3.5132093651 -0.0670267341 -1.094901592
| 29> H 3.0662943134 1.4743628649 -1.8885982014
| 30> H 4.0131912763 -1.5658190957 2.7515009375
| 31> H 2.4910335178 -0.8654077755 3.3809142719
| 32> H 1.177098884 -2.5809611905 2.197107805
| 33> H 2.6487761985 -3.2872557696 1.5145063263
| 34> H 2.3550085483 -3.3602994356 3.2631961147
| 35> H 0.9142036876 -1.4275904713 -2.8541521096
| 36> H 0.8706093433 0.1821720058 -2.0567469669
| 37> H -1.7512639406 3.0848148952 -0.5111242437
| 38> H 0.0160637278 3.1375330545 -0.2483204293
| 39> H -0.6423879974 3.9109865725 -2.5570755146
| 40> H 0.3693976424 2.4621994047 -2.6359336022
| 41> H -1.3864596593 2.3338911786 -2.8574346373
| 42> H -2.0302631183 -0.7528062589 2.4250606192
| 43> H -3.4508828782 -0.2337408425 1.4798229074
| 44> H -3.7936423309 -2.5552620325 0.6745041658
| 45> H -2.3544641235 -3.0941517533 1.5517767497
| 46> H -3.7764166704 -2.5282502012 2.4464077124
| 47> *
| 48>
| 49>                          ****END OF INPUT****

CARTESIAN COORDINATES (ANGSTROEM)
---------------------------------
  C      4.423663    1.690389   -0.222454
  C      3.285819    0.988977   -0.935114
  O      2.056000    1.104484   -0.168937
  P      1.537532   -0.027057    0.805672
  S      0.401131    0.632719    2.262318
  O      2.905572   -0.622676    1.376895
  C      2.947727   -1.429940    2.561236
  C      2.239597   -2.755497    2.369633
  S      0.969440   -1.644498   -0.499794
  C      0.491191   -0.834913   -2.046660
  S     -1.304622   -0.803015   -2.396123
  P     -1.958555    0.290556   -0.727914
  S     -3.715507    1.142650   -0.807573
  O     -0.738680    1.291018   -0.438271
  C     -0.786499    2.675317   -0.826004
  C     -0.593905    2.853274   -2.318746
  O     -1.772364   -0.803800    0.402600
  C     -2.640319   -0.967381    1.544127
  C     -3.176776   -2.383857    1.553745
  H      5.308171    1.657462   -0.851047
  H      4.160945    2.726371   -0.026322
  H      4.637015    1.198872    0.722738
  H      3.513209   -0.067027   -1.094902
  H      3.066294    1.474363   -1.888598
  H      4.013191   -1.565819    2.751501
  H      2.491034   -0.865408    3.380914
  H      1.177099   -2.580961    2.197108
  H      2.648776   -3.287256    1.514506
  H      2.355009   -3.360299    3.263196
  H      0.914204   -1.427590   -2.854152
  H      0.870609    0.182172   -2.056747
  H     -1.751264    3.084815   -0.511124
  H      0.016064    3.137533   -0.248320
  H     -0.642388    3.910987   -2.557076
  H      0.369398    2.462199   -2.635934
  H     -1.386460    2.333891   -2.857435
  H     -2.030263   -0.752806    2.425061
  H     -3.450883   -0.233741    1.479823
  H     -3.793642   -2.555262    0.674504
  H     -2.354464   -3.094152    1.551777
  H     -3.776417   -2.528250    2.446408

 Total Charge           Charge          ....    0
 Multiplicity           Mult            ....    1
 Number of Electrons    NEL             ....  202
 Basis Dimension        Dim             ....  334

ORBITAL ENERGIES
----------------

  NO   OCC          E(Eh)            E(eV)
   0   2.0000     -88.043596     -2395.7880
   1   2.0000     -88.039525     -2395.6773
   2   2.0000     -87.983886     -2394.1633
   3   2.0000     -87.982963     -2394.1381
   4   2.0000     -76.430565     -2079.7814
   5   2.0000     -76.421186     -2079.5262
   6   2.0000     -18.801543      -511.6160
   7   2.0000     -18.793809      -511.4055
   8   2.0000     -18.785271      -511.1732
   9   2.0000     -18.778920      -511.0004
  10   2.0000      -9.966669      -271.2069
  11   2.0000      -9.964524      -271.1485
  12   2.0000      -9.953830      -270.8575
  13   2.0000      -9.944681      -270.6085
  14   2.0000      -9.936013      -270.3727
  15   2.0000      -9.893356      -269.2119
  16   2.0000      -9.888278      -269.0737
  17   2.0000      -9.883835      -268.9528
  18   2.0000      -9.874878      -268.7091
  19   2.0000      -7.688161      -209.2055
  20   2.0000      -7.685442      -209.1315
  21   2.0000      -7.629079      -207.5978
  22   2.0000      -7.628027      -207.5692
  23   2.0000      -6.427353      -174.8972
  24   2.0000      -6.418924      -174.6678
  25   2.0000      -5.716333      -155.5493
  26   2.0000      -5.713678      -155.4771
  27   2.0000      -5.712622      -155.4484
  28   2.0000      -5.709684      -155.3684
  29   2.0000      -5.704947      -155.2395
  30   2.0000      -5.702190      -155.1645
  31   2.0000      -5.658020      -153.9626
  32   2.0000      -5.657321      -153.9435
  33   2.0000      -5.649598      -153.7334
  34   2.0000      -5.649278      -153.7247
  35   2.0000      -5.648779      -153.7111
  36   2.0000      -5.647636      -153.6800
  37   2.0000      -4.650673      -126.5513
  38   2.0000      -4.649184      -126.5107
  39   2.0000      -4.647176      -126.4561
  40   2.0000      -4.641142      -126.2919
  41   2.0000      -4.640952      -126.2867
  42   2.0000      -4.639449      -126.2458
  43   2.0000      -0.993813       -27.0430
  44   2.0000      -0.975877       -26.5550
  45   2.0000      -0.949740       -25.8437
  46   2.0000      -0.936100       -25.4726
  47   2.0000      -0.761375       -20.7181
  48   2.0000      -0.722675       -19.6650
  49   2.0000      -0.707888       -19.2626
  50   2.0000      -0.694961       -18.9108
  51   2.0000      -0.680656       -18.5216
  52   2.0000      -0.673649       -18.3309
  53   2.0000      -0.651824       -17.7370
  54   2.0000      -0.638635       -17.3781
  55   2.0000      -0.597806       -16.2671
  56   2.0000      -0.589880       -16.0514
  57   2.0000      -0.583299       -15.8724
  58   2.0000      -0.567660       -15.4468
  59   2.0000      -0.556294       -15.1375
  60   2.0000      -0.509191       -13.8558
  61   2.0000      -0.491656       -13.3786
  62   2.0000      -0.479802       -13.0561
  63   2.0000      -0.467002       -12.7078
  64   2.0000      -0.461603       -12.5609
  65   2.0000      -0.447739       -12.1836
  66   2.0000      -0.439796       -11.9674
  67   2.0000      -0.435734       -11.8569
  68   2.0000      -0.430115       -11.7040
  69   2.0000      -0.418760       -11.3950
  70   2.0000      -0.409812       -11.1516
  71   2.0000      -0.402379       -10.9493
  72   2.0000      -0.390178       -10.6173
  73   2.0000      -0.388101       -10.5608
  74   2.0000      -0.382846       -10.4178
  75   2.0000      -0.367187        -9.9917
  76   2.0000      -0.364378        -9.9152
  77   2.0000      -0.362909        -9.8753
  78   2.0000      -0.357682        -9.7330
  79   2.0000      -0.352397        -9.5892
  80   2.0000      -0.350331        -9.5330
  81   2.0000      -0.344804        -9.3826
  82   2.0000      -0.338444        -9.2095
  83   2.0000      -0.333939        -9.0869
  84   2.0000      -0.328575        -8.9410
  85   2.0000      -0.323370        -8.7994
  86   2.0000      -0.314838        -8.5672
  87   2.0000      -0.306624        -8.3437
  88   2.0000      -0.296512        -8.0685
  89   2.0000      -0.289236        -7.8705
  90   2.0000      -0.279492        -7.6054
  91   2.0000      -0.274681        -7.4745
  92   2.0000      -0.265232        -7.2173
  93   2.0000      -0.260858        -7.0983
  94   2.0000      -0.258316        -7.0291
  95   2.0000      -0.229596        -6.2476
  96   2.0000      -0.216269        -5.8850
  97   2.0000      -0.204201        -5.5566
  98   2.0000      -0.203533        -5.5384
  99   2.0000      -0.198540        -5.4025
 100   2.0000      -0.190471        -5.1830
 101   0.0000      -0.044157        -1.2016
 102   0.0000      -0.040793        -1.1100
 103   0.0000      -0.016344        -0.4447
 104   0.0000      -0.007339        -0.1997
 105   0.0000       0.009800         0.2667

MULLIKEN ATOMIC CHARGES
-----------------------
   0 C :   -0.276822
   1 C :   -0.033366
   2 O :   -0.373959
   3 P :    0.627301
   4 S :   -0.300291
   5 O :   -0.386056
   6 C :   -0.000253
   7 C :   -0.332091
   8 S :   -0.092023
   9 C :   -0.377720
  10 S :   -0.075756
  11 P :    0.619085
  12 S :   -0.323322
  13 O :   -0.381899
  14 C :    0.007524
  15 C :   -0.328247
  16 O :   -0.362404
  17 C :   -0.010779
  18 C :   -0.283917
  19 H :    0.110328
  20 H :    0.120069
  21 H :    0.125757
  22 H :    0.107782
  23 H :    0.108469
  24 H :    0.102270
  25 H :    0.111980
  26 H :    0.132670
  27 H :    0.122599
  28 H :    0.117441
  29 H :    0.181927
  30 H :    0.216983
  31 H :    0.115665
  32 H :    0.106248
  33 H :    0.112438
  34 H :    0.116394
  35 H :    0.126981
  36 H :    0.108388
  37 H :    0.106785
  38 H :    0.113331
  39 H :    0.114363
  40 H :    0.106128
Sum of atomic charges:   -0.0000000

LOEWDIN ATOMIC CHARGES
----------------------
   0 C :   -0.355835
   1 C :   -0.117686
   2 O :   -0.239084
   3 P :    0.583415
   4 S :   -0.285234
   5 O :   -0.251874
   6 C :   -0.122835
   7 C :   -0.373211
   8 S :    0.083424
   9 C :   -0.477600
  10 S :    0.076619
  11 P :    0.565869
  12 S :   -0.313457
  13 O :   -0.246352
  14 C :   -0.121218
  15 C :   -0.366357
  16 O :   -0.241490
  17 C :   -0.121369
  18 C :   -0.353455
  19 H :    0.130595
  20 H :    0.129149
  21 H :    0.129054
  22 H :    0.110246
  23 H :    0.115065
  24 H :    0.117207
  25 H :    0.109370
  26 H :    0.120182
  27 H :    0.124436
  28 H :    0.133419
  29 H :    0.139976
  30 H :    0.128609
  31 H :    0.111248
  32 H :    0.117912
  33 H :    0.131646
  34 H :    0.117144
  35 H :    0.123257
  36 H :    0.106706
  37 H :    0.104988
  38 H :    0.125322
  39 H :    0.124317
  40 H :    0.127884

  Mayer bond orders larger than 0.100000
B(  0-C ,  1-C ) :   1.1756 B(  0-C , 19-H ) :   0.9387 B(  0-C , 20-H ) :   0.9473
B(  0-C , 21-H ) :   0.9421 B(  1-C ,  2-O ) :   0.8890 B(  1-C , 22-H ) :   0.9130
B(  1-C , 23-H ) :   0.9266 B(  2-O ,  3-P ) :   1.0984 B(  3-P ,  4-S ) :   1.6345
B(  3-P ,  5-O ) :   1.0451 B(  3-P ,  8-S ) :   0.9456 B(  4-S ,  8-S ) :   0.1102
B(  5-O ,  6-C ) :   0.9138 B(  6-C ,  7-C ) :   1.1646 B(  6-C , 24-H ) :   0.9314
B(  6-C , 25-H ) :   0.9112 B(  7-C , 26-H ) :   0.9294 B(  7-C , 27-H ) :   0.9413
B(  7-C , 28-H ) :   0.9375 B(  8-S ,  9-C ) :   1.0182 B(  9-C , 10-S ) :   0.9840
B(  9-C , 29-H ) :   0.9104 B(  9-C , 30-H ) :   0.8686 B( 10-S , 11-P ) :   0.9825
B( 11-P , 12-S ) :   1.6373 B( 11-P , 13-O ) :   1.0561 B( 11-P , 16-O ) :   1.1282
B( 13-O , 14-C ) :   0.8998 B( 14-C , 15-C ) :   1.1623 B( 14-C , 31-H ) :   0.9139
B( 14-C , 32-H ) :   0.9253 B( 15-C , 33-H ) :   0.9389 B( 15-C , 34-H ) :   0.9382
B( 15-C , 35-H ) :   0.9354 B( 16-O , 17-C ) :   0.8953 B( 17-C , 18-C ) :   1.1640
B( 17-C , 36-H ) :   0.9135 B( 17-C , 37-H ) :   0.9060 B( 18-C , 38-H ) :   0.9497
B( 18-C , 39-H ) :   0.9504 B( 18-C , 40-H ) :   0.9419

Dispersion correction           -0.069417195
FINAL SINGLE POINT ENERGY     -2929.504788246492

DIPOLE MOMENT
-------------

Method             : SCF
Type of density    : Electron Density
Multiplicity       :   1
Irrep              :   0
Energy             : -2929.6245178943386236 Eh
Relativity type    :
Basis              : AO
                                X                 Y                 Z
Electronic contribution:    -13.743255612       0.016318023      -4.797405856
Nuclear contribution   :     15.862145182      -0.342267142       4.517106686
                        -----------------------------------------
Total Dipole Moment    :      2.118889570      -0.325949118      -0.280299170
                        -----------------------------------------
Magnitude (a.u.)       :      2.162060004
Magnitude (Debye)      :      5.495519794

Rotational constants in cm-1:             0.010965             0.006602             0.005490
Rotational constants in MHz :           328.720594           197.935375           164.585951

                             ****ORCA TERMINATED NORMALLY****
TOTAL RUN TIME: 0 days 0 hours 0 minutes 22 seconds 405 msec
