                         Program Version 6.0.0  -   RELEASE  -
|  1> ! pbe def2-sv(p) def2/J RI DEFGRID1 loosescf d4 GCP(DFT/SV(P)) printgap
|  2> %output
|  3>     printlevel normal
|  4> end
|  5> * xyz 0 1
|  6> C 5.182762564 -0.8249108261 -2.3693179093
|  7> C 3.7423472218 -1.1319064293 -2.0115512562
|  8> O 3.5031963046 -0.6561929548 -0.6720252792
|  9> P 2.055556909 -0.264149298 -0.1518110854
| 10> S 1.0336319448 0.8205903379 -1.4313162929
| 11> O 2.3571754705 0.3724787688 1.2621452257
| 12> C 2.6164528518 1.7780375776 1.449821125
| 13> C 3.8701404745 2.2227479185 0.7287472147
| 14> S 1.3104084894 -2.14411648 0.442416866
| 15> C -0.3224694595 -1.6924655865 1.0897748049
| 16> S -1.5343523374 -1.3231475209 -0.2177040794
| 17> P -2.2374284408 0.5351447232 0.5520731762
| 18> S -0.9417268244 1.6267002859 1.5303429359
| 19> O -3.4341299633 0.1733272229 1.5101104338
| 20> C -4.5740797588 -0.6290109803 1.1021401007
| 21> C -4.5234542632 -1.9854607275 1.7762145739
| 22> O -3.0039705263 1.2201966718 -0.6543886949
| 23> C -2.3885634646 1.817907996 -1.8120175039
| 24> C -2.3672427254 0.8475528606 -2.9757501096
| 25> H 5.849379682 -1.2915110332 -1.6499899132
| 26> H 5.3928031149 -1.2134146666 -3.3603475907
| 27> H 5.3521631382 0.2482611246 -2.3621324553
| 28> H 3.5480763004 -2.2072891369 -2.0261356008
| 29> H 3.0444777874 -0.6306451502 -2.6911784651
| 30> H 1.7413629381 2.3400756313 1.107841099
| 31> H 2.7066482525 1.8794685376 2.532113529
| 32> H 4.0795376963 3.2579135542 0.9793378444
| 33> H 4.7110053157 1.5986559103 1.0201755762
| 34> H 3.7246788366 2.1415853187 -0.3480044036
| 35> H -0.2276278044 -0.8149939123 1.7342121412
| 36> H -0.6619227727 -2.5618109402 1.646483627
| 37> H -5.4454798593 -0.0565469512 1.423026971
| 38> H -4.5760224341 -0.7229459216 0.0146365673
| 39> H -4.4209558826 -1.8622147933 2.8508073222
| 40> H -5.4438718962 -2.5198065708 1.5634141754
| 41> H -3.683291435 -2.5658742515 1.4032877451
| 42> H -3.0115109286 2.687203379 -2.0305864161
| 43> H -1.3775421704 2.1488641993 -1.5585812971
| 44> H -3.3689465316 0.4778466413 -3.1750154218
| 45> H -1.9890829475 1.3623255167 -3.8528133203
| 46> H -1.7119075082 0.0073842292 -2.7580045028
| 47> *
| 48>
| 49>                          ****END OF INPUT****

CARTESIAN COORDINATES (ANGSTROEM)
---------------------------------
  C      5.182763   -0.824911   -2.369318
  C      3.742347   -1.131906   -2.011551
  O      3.503196   -0.656193   -0.672025
  P      2.055557   -0.264149   -0.151811
  S      1.033632    0.820590   -1.431316
  O      2.357175    0.372479    1.262145
  C      2.616453    1.778038    1.449821
  C      3.870140    2.222748    0.728747
  S      1.310408   -2.144116    0.442417
  C     -0.322469   -1.692466    1.089775
  S     -1.534352   -1.323148   -0.217704
  P     -2.237428    0.535145    0.552073
  S     -0.941727    1.626700    1.530343
  O     -3.434130    0.173327    1.510110
  C     -4.574080   -0.629011    1.102140
  C     -4.523454   -1.985461    1.776215
  O     -3.003971    1.220197   -0.654389
  C     -2.388563    1.817908   -1.812018
  C     -2.367243    0.847553   -2.975750
  H      5.849380   -1.291511   -1.649990
  H      5.392803   -1.213415   -3.360348
  H      5.352163    0.248261   -2.362132
  H      3.548076   -2.207289   -2.026136
  H      3.044478   -0.630645   -2.691178
  H      1.741363    2.340076    1.107841
  H      2.706648    1.879469    2.532114
  H      4.079538    3.257914    0.979338
  H      4.711005    1.598656    1.020176
  H      3.724679    2.141585   -0.348004
  H     -0.227628   -0.814994    1.734212
  H     -0.661923   -2.561811    1.646484
  H     -5.445480   -0.056547    1.423027
  H     -4.576022   -0.722946    0.014637
  H     -4.420956   -1.862215    2.850807
  H     -5.443872   -2.519807    1.563414
  H     -3.683291   -2.565874    1.403288
  H     -3.011511    2.687203   -2.030586
  H     -1.377542    2.148864   -1.558581
  H     -3.368947    0.477847   -3.175015
  H     -1.989083    1.362326   -3.852813
  H     -1.711908    0.007384   -2.758005

 Total Charge           Charge          ....    0
 Multiplicity           Mult            ....    1
 Number of Electrons    NEL             ....  202
 Basis Dimension        Dim             ....  334

ORBITAL ENERGIES
----------------

  NO   OCC          E(Eh)            E(eV)
   0   2.0000     -88.040413     -2395.7014
   1   2.0000     -88.039770     -2395.6839
   2   2.0000     -87.981880     -2394.1087
   3   2.0000     -87.979235     -2394.0367
   4   2.0000     -76.423224     -2079.5816
   5   2.0000     -76.422645     -2079.5659
   6   2.0000     -18.792289      -511.3642
   7   2.0000     -18.790493      -511.3153
   8   2.0000     -18.785976      -511.1924
   9   2.0000     -18.785167      -511.1704
  10   2.0000      -9.954591      -270.8782
  11   2.0000      -9.954504      -270.8758
  12   2.0000      -9.951299      -270.7886
  13   2.0000      -9.948670      -270.7171
  14   2.0000      -9.943118      -270.5660
  15   2.0000      -9.887645      -269.0565
  16   2.0000      -9.886333      -269.0208
  17   2.0000      -9.879735      -268.8412
  18   2.0000      -9.878419      -268.8055
  19   2.0000      -7.686127      -209.1502
  20   2.0000      -7.684456      -209.1047
  21   2.0000      -7.626647      -207.5316
  22   2.0000      -7.624447      -207.4718
  23   2.0000      -6.420772      -174.7181
  24   2.0000      -6.420196      -174.7024
  25   2.0000      -5.713991      -155.4856
  26   2.0000      -5.712251      -155.4382
  27   2.0000      -5.710651      -155.3947
  28   2.0000      -5.709084      -155.3521
  29   2.0000      -5.702992      -155.1863
  30   2.0000      -5.701439      -155.1440
  31   2.0000      -5.655372      -153.8905
  32   2.0000      -5.653487      -153.8392
  33   2.0000      -5.647293      -153.6707
  34   2.0000      -5.646966      -153.6617
  35   2.0000      -5.645207      -153.6139
  36   2.0000      -5.644254      -153.5880
  37   2.0000      -4.643255      -126.3494
  38   2.0000      -4.642997      -126.3424
  39   2.0000      -4.642604      -126.3317
  40   2.0000      -4.642000      -126.3152
  41   2.0000      -4.641263      -126.2952
  42   2.0000      -4.640411      -126.2720
  43   2.0000      -0.985199       -26.8086
  44   2.0000      -0.983769       -26.7697
  45   2.0000      -0.942954       -25.6591
  46   2.0000      -0.940762       -25.5994
  47   2.0000      -0.759728       -20.6732
  48   2.0000      -0.720370       -19.6023
  49   2.0000      -0.709501       -19.3065
  50   2.0000      -0.687284       -18.7019
  51   2.0000      -0.685739       -18.6599
  52   2.0000      -0.671853       -18.2820
  53   2.0000      -0.648339       -17.6422
  54   2.0000      -0.631687       -17.1891
  55   2.0000      -0.596095       -16.2206
  56   2.0000      -0.586786       -15.9673
  57   2.0000      -0.572743       -15.5851
  58   2.0000      -0.564125       -15.3506
  59   2.0000      -0.560186       -15.2434
  60   2.0000      -0.504184       -13.7196
  61   2.0000      -0.498175       -13.5560
  62   2.0000      -0.475655       -12.9432
  63   2.0000      -0.472304       -12.8521
  64   2.0000      -0.451717       -12.2919
  65   2.0000      -0.445421       -12.1205
  66   2.0000      -0.438069       -11.9205
  67   2.0000      -0.435394       -11.8477
  68   2.0000      -0.427084       -11.6215
  69   2.0000      -0.414566       -11.2809
  70   2.0000      -0.405616       -11.0374
  71   2.0000      -0.397787       -10.8243
  72   2.0000      -0.391967       -10.6660
  73   2.0000      -0.380595       -10.3565
  74   2.0000      -0.375955       -10.2303
  75   2.0000      -0.371716       -10.1149
  76   2.0000      -0.363696        -9.8967
  77   2.0000      -0.356115        -9.6904
  78   2.0000      -0.355826        -9.6825
  79   2.0000      -0.348417        -9.4809
  80   2.0000      -0.346864        -9.4387
  81   2.0000      -0.343061        -9.3352
  82   2.0000      -0.339778        -9.2458
  83   2.0000      -0.332896        -9.0586
  84   2.0000      -0.330565        -8.9951
  85   2.0000      -0.313808        -8.5392
  86   2.0000      -0.310720        -8.4551
  87   2.0000      -0.297687        -8.1005
  88   2.0000      -0.296334        -8.0637
  89   2.0000      -0.289430        -7.8758
  90   2.0000      -0.280803        -7.6410
  91   2.0000      -0.271700        -7.3933
  92   2.0000      -0.267561        -7.2807
  93   2.0000      -0.262011        -7.1297
  94   2.0000      -0.258000        -7.0205
  95   2.0000      -0.240562        -6.5460
  96   2.0000      -0.223394        -6.0788
  97   2.0000      -0.204421        -5.5626
  98   2.0000      -0.199865        -5.4386
  99   2.0000      -0.192138        -5.2283
 100   2.0000      -0.182008        -4.9527
 101   0.0000      -0.038183        -1.0390
 102   0.0000      -0.030319        -0.8250
 103   0.0000      -0.010771        -0.2931
 104   0.0000       0.004988         0.1357
 105   0.0000       0.021149         0.5755

MULLIKEN ATOMIC CHARGES
-----------------------
   0 C :   -0.285072
   1 C :   -0.009936
   2 O :   -0.378035
   3 P :    0.629872
   4 S :   -0.336250
   5 O :   -0.363786
   6 C :   -0.009894
   7 C :   -0.311331
   8 S :   -0.094032
   9 C :   -0.347255
  10 S :   -0.105273
  11 P :    0.606408
  12 S :   -0.308020
  13 O :   -0.358869
  14 C :   -0.007667
  15 C :   -0.289690
  16 O :   -0.379132
  17 C :   -0.012286
  18 C :   -0.310328
  19 H :    0.117499
  20 H :    0.111558
  21 H :    0.120949
  22 H :    0.102419
  23 H :    0.104754
  24 H :    0.130821
  25 H :    0.104973
  26 H :    0.111213
  27 H :    0.115124
  28 H :    0.122102
  29 H :    0.195697
  30 H :    0.181313
  31 H :    0.111219
  32 H :    0.102693
  33 H :    0.119781
  34 H :    0.108605
  35 H :    0.116162
  36 H :    0.104699
  37 H :    0.128375
  38 H :    0.108671
  39 H :    0.111367
  40 H :    0.140583
Sum of atomic charges:   -0.0000000

LOEWDIN ATOMIC CHARGES
----------------------
   0 C :   -0.350990
   1 C :   -0.120972
   2 O :   -0.246510
   3 P :    0.570986
   4 S :   -0.317308
   5 O :   -0.234429
   6 C :   -0.117807
   7 C :   -0.367550
   8 S :    0.080130
   9 C :   -0.478562
  10 S :    0.068855
  11 P :    0.569056
  12 S :   -0.298402
  13 O :   -0.242091
  14 C :   -0.113087
  15 C :   -0.360241
  16 O :   -0.241781
  17 C :   -0.114499
  18 C :   -0.365550
  19 H :    0.127164
  20 H :    0.130648
  21 H :    0.128124
  22 H :    0.111317
  23 H :    0.106324
  24 H :    0.110993
  25 H :    0.119952
  26 H :    0.130327
  27 H :    0.124948
  28 H :    0.120031
  29 H :    0.124735
  30 H :    0.134906
  31 H :    0.121892
  32 H :    0.107117
  33 H :    0.128836
  34 H :    0.129264
  35 H :    0.118748
  36 H :    0.118750
  37 H :    0.110449
  38 H :    0.121861
  39 H :    0.131857
  40 H :    0.122509

  Mayer bond orders larger than 0.100000
B(  0-C ,  1-C ) :   1.1607 B(  0-C , 19-H ) :   0.9503 B(  0-C , 20-H ) :   0.9417
B(  0-C , 21-H ) :   0.9512 B(  1-C ,  2-O ) :   0.9052 B(  1-C , 22-H ) :   0.9314
B(  1-C , 23-H ) :   0.9035 B(  2-O ,  3-P ) :   1.1005 B(  3-P ,  4-S ) :   1.6152
B(  3-P ,  5-O ) :   1.1410 B(  3-P ,  8-S ) :   0.9693 B(  4-S ,  8-S ) :   0.1158
B(  5-O ,  6-C ) :   0.8968 B(  6-C ,  7-C ) :   1.1632 B(  6-C , 24-H ) :   0.9102
B(  6-C , 25-H ) :   0.9359 B(  7-C , 26-H ) :   0.9381 B(  7-C , 27-H ) :   0.9447
B(  7-C , 28-H ) :   0.9330 B(  8-S ,  9-C ) :   1.0051 B(  9-C , 10-S ) :   0.9883
B(  9-C , 29-H ) :   0.8531 B(  9-C , 30-H ) :   0.9106 B( 10-S , 11-P ) :   0.9405
B( 10-S , 12-S ) :   0.1134 B( 11-P , 12-S ) :   1.6340 B( 11-P , 13-O ) :   1.1306
B( 11-P , 16-O ) :   1.1134 B( 12-S , 29-H ) :   0.1040 B( 13-O , 14-C ) :   0.8919
B( 14-C , 15-C ) :   1.1638 B( 14-C , 31-H ) :   0.9346 B( 14-C , 32-H ) :   0.9174
B( 15-C , 33-H ) :   0.9463 B( 15-C , 34-H ) :   0.9401 B( 15-C , 35-H ) :   0.9382
B( 16-O , 17-C ) :   0.8946 B( 17-C , 18-C ) :   1.1722 B( 17-C , 36-H ) :   0.9339
B( 17-C , 37-H ) :   0.9048 B( 18-C , 38-H ) :   0.9471 B( 18-C , 39-H ) :   0.9399
B( 18-C , 40-H ) :   0.9308

Dispersion correction           -0.065576494
FINAL SINGLE POINT ENERGY     -2929.517785902925

DIPOLE MOMENT
-------------

Method             : SCF
Type of density    : Electron Density
Multiplicity       :   1
Irrep              :   0
Energy             : -2929.6362554962493050 Eh
Relativity type    :
Basis              : AO
                                X                 Y                 Z
Electronic contribution:     -4.267197147      -1.962031007       8.684838165
Nuclear contribution   :      4.128084749       1.401092402      -9.293363825
                        -----------------------------------------
Total Dipole Moment    :     -0.139112398      -0.560938606      -0.608525661
                        -----------------------------------------
Magnitude (a.u.)       :      0.839230516
Magnitude (Debye)      :      2.133154446

Rotational constants in cm-1:             0.012840             0.004821             0.004730
Rotational constants in MHz :           384.932679           144.517804           141.811490

                             ****ORCA TERMINATED NORMALLY****
TOTAL RUN TIME: 0 days 0 hours 0 minutes 20 seconds 751 msec
