                         Program Version 6.0.0  -   RELEASE  -
|  1> ! r2scan-3c def2/J RI DEFGRID2 scfconv6 printgap
|  2> %output
|  3>     printlevel normal
|  4> end
|  5> * xyz 0 1
|  6> C 5.0832772969 -1.6353904131 -0.5302285317
|  7> C 4.5819472574 -0.6445555358 -1.5596195683
|  8> O 3.1768931301 -0.3585323805 -1.3953945604
|  9> P 2.6304195455 0.4275634833 -0.1281592595
| 10> S 3.8012704917 1.8148287002 0.6040980473
| 11> O 2.2873857188 -0.7698405899 0.8694765135
| 12> C 2.2024289486 -0.581161485 2.2902602469
| 13> C 1.0209307614 0.2805003065 2.6861368158
| 14> S 0.7833724644 1.0617324516 -0.9358721938
| 15> C 0.1564744533 -0.5538460475 -1.5016000822
| 16> S -0.6863079356 -1.4968590649 -0.2096922916
| 17> P -2.3711242942 -0.2309019131 -0.0572231986
| 18> S -3.0190219055 0.5248078013 -1.7532023384
| 19> O -1.8927918416 0.8229691773 1.0209338928
| 20> C -2.4261913888 2.1591853625 1.0783227948
| 21> C -3.8515834633 2.1563096911 1.5882656501
| 22> O -3.3881613528 -1.0962292233 0.8027411194
| 23> C -4.0241550208 -2.2899462416 0.3037268108
| 24> C -5.3383281814 -1.9680023467 -0.381467594
| 25> H 5.0528009169 -1.1857763518 0.4613522171
| 26> H 4.4637539522 -2.5284335547 -0.5319149966
| 27> H 6.1087342472 -1.9053059766 -0.7624352748
| 28> H 4.6489195911 -1.041719254 -2.5733421304
| 29> H 5.1354397099 0.2970823508 -1.490925492
| 30> H 2.1147531171 -1.5936557662 2.6859425941
| 31> H 3.1350167882 -0.1205536797 2.6323162788
| 32> H 0.0885168245 -0.1563646179 2.3368613227
| 33> H 0.9888594264 0.3741115959 3.7668519962
| 34> H 1.1286619193 1.2738386385 2.2486130551
| 35> H 0.9829050035 -1.1577574126 -1.8625769846
| 36> H -0.5548028739 -0.331006314 -2.2978260296
| 37> H -1.7501819976 2.686744588 1.7522632168
| 38> H -2.3685339411 2.6020946406 0.0785584877
| 39> H -3.9041761701 1.6559028929 2.5513933547
| 40> H -4.2031938492 3.1782262219 1.6887680854
| 41> H -4.4907203885 1.627922005 0.8814666424
| 42> H -3.3402726303 -2.8041785031 -0.3776079194
| 43> H -4.1805176151 -2.903224715 1.1930940756
| 44> H -5.1674208396 -1.3369042624 -1.2508397068
| 45> H -5.8096781683 -2.8912619902 -0.7025542695
| 46> H -6.0005701317 -1.4468164721 0.3042308143
| 47> *
| 48>
| 49>                          ****END OF INPUT****

CARTESIAN COORDINATES (ANGSTROEM)
---------------------------------
  C      5.083277   -1.635390   -0.530229
  C      4.581947   -0.644556   -1.559620
  O      3.176893   -0.358532   -1.395395
  P      2.630420    0.427563   -0.128159
  S      3.801270    1.814829    0.604098
  O      2.287386   -0.769841    0.869477
  C      2.202429   -0.581161    2.290260
  C      1.020931    0.280500    2.686137
  S      0.783372    1.061732   -0.935872
  C      0.156474   -0.553846   -1.501600
  S     -0.686308   -1.496859   -0.209692
  P     -2.371124   -0.230902   -0.057223
  S     -3.019022    0.524808   -1.753202
  O     -1.892792    0.822969    1.020934
  C     -2.426191    2.159185    1.078323
  C     -3.851583    2.156310    1.588266
  O     -3.388161   -1.096229    0.802741
  C     -4.024155   -2.289946    0.303727
  C     -5.338328   -1.968002   -0.381468
  H      5.052801   -1.185776    0.461352
  H      4.463754   -2.528434   -0.531915
  H      6.108734   -1.905306   -0.762435
  H      4.648920   -1.041719   -2.573342
  H      5.135440    0.297082   -1.490925
  H      2.114753   -1.593656    2.685943
  H      3.135017   -0.120554    2.632316
  H      0.088517   -0.156365    2.336861
  H      0.988859    0.374112    3.766852
  H      1.128662    1.273839    2.248613
  H      0.982905   -1.157757   -1.862577
  H     -0.554803   -0.331006   -2.297826
  H     -1.750182    2.686745    1.752263
  H     -2.368534    2.602095    0.078558
  H     -3.904176    1.655903    2.551393
  H     -4.203194    3.178226    1.688768
  H     -4.490720    1.627922    0.881467
  H     -3.340273   -2.804179   -0.377608
  H     -4.180518   -2.903225    1.193094
  H     -5.167421   -1.336904   -1.250840
  H     -5.809678   -2.891262   -0.702554
  H     -6.000570   -1.446816    0.304231

 Total Charge           Charge          ....    0
 Multiplicity           Mult            ....    1
 Number of Electrons    NEL             ....  202
 Basis Dimension        Dim             ....  539

ORBITAL ENERGIES
----------------

  NO   OCC          E(Eh)            E(eV)
   0   2.0000     -88.578471     -2410.3427
   1   2.0000     -88.572811     -2410.1887
   2   2.0000     -88.525740     -2408.9079
   3   2.0000     -88.521368     -2408.7889
   4   2.0000     -76.918492     -2093.0586
   5   2.0000     -76.913615     -2092.9259
   6   2.0000     -18.998104      -516.9647
   7   2.0000     -18.992375      -516.8088
   8   2.0000     -18.990130      -516.7477
   9   2.0000     -18.989060      -516.7186
  10   2.0000     -10.106958      -275.0243
  11   2.0000     -10.105925      -274.9962
  12   2.0000     -10.099164      -274.8122
  13   2.0000     -10.097441      -274.7653
  14   2.0000     -10.094403      -274.6827
  15   2.0000     -10.030387      -272.9407
  16   2.0000     -10.029826      -272.9254
  17   2.0000     -10.029135      -272.9066
  18   2.0000     -10.019634      -272.6481
  19   2.0000      -7.872946      -214.2337
  20   2.0000      -7.866827      -214.0672
  21   2.0000      -7.820470      -212.8058
  22   2.0000      -7.815994      -212.6840
  23   2.0000      -6.596954      -179.5122
  24   2.0000      -6.591944      -179.3759
  25   2.0000      -5.819747      -158.3634
  26   2.0000      -5.816743      -158.2816
  27   2.0000      -5.814187      -158.2121
  28   2.0000      -5.810469      -158.1109
  29   2.0000      -5.810160      -158.1025
  30   2.0000      -5.803726      -157.9274
  31   2.0000      -5.768039      -156.9563
  32   2.0000      -5.763661      -156.8372
  33   2.0000      -5.760743      -156.7578
  34   2.0000      -5.760577      -156.7533
  35   2.0000      -5.756396      -156.6395
  36   2.0000      -5.755878      -156.6254
  37   2.0000      -4.742382      -129.0468
  38   2.0000      -4.741910      -129.0339
  39   2.0000      -4.740728      -129.0018
  40   2.0000      -4.737272      -128.9077
  41   2.0000      -4.736949      -128.8989
  42   2.0000      -4.735789      -128.8674
  43   2.0000      -1.054547       -28.6957
  44   2.0000      -1.048490       -28.5309
  45   2.0000      -1.015249       -27.6263
  46   2.0000      -1.009825       -27.4787
  47   2.0000      -0.802342       -21.8328
  48   2.0000      -0.760251       -20.6875
  49   2.0000      -0.748199       -20.3595
  50   2.0000      -0.733103       -19.9488
  51   2.0000      -0.728311       -19.8184
  52   2.0000      -0.711621       -19.3642
  53   2.0000      -0.691426       -18.8147
  54   2.0000      -0.670889       -18.2558
  55   2.0000      -0.632842       -17.2205
  56   2.0000      -0.626890       -17.0585
  57   2.0000      -0.606848       -16.5132
  58   2.0000      -0.604019       -16.4362
  59   2.0000      -0.593875       -16.1602
  60   2.0000      -0.527750       -14.3608
  61   2.0000      -0.517343       -14.0776
  62   2.0000      -0.498422       -13.5628
  63   2.0000      -0.489951       -13.3323
  64   2.0000      -0.479039       -13.0353
  65   2.0000      -0.462768       -12.5926
  66   2.0000      -0.461294       -12.5524
  67   2.0000      -0.455974       -12.4077
  68   2.0000      -0.445721       -12.1287
  69   2.0000      -0.427703       -11.6384
  70   2.0000      -0.425724       -11.5845
  71   2.0000      -0.415654       -11.3105
  72   2.0000      -0.412593       -11.2272
  73   2.0000      -0.410752       -11.1771
  74   2.0000      -0.408584       -11.1181
  75   2.0000      -0.390703       -10.6316
  76   2.0000      -0.382609       -10.4113
  77   2.0000      -0.371332       -10.1045
  78   2.0000      -0.368100       -10.0165
  79   2.0000      -0.365737        -9.9522
  80   2.0000      -0.363990        -9.9047
  81   2.0000      -0.358690        -9.7604
  82   2.0000      -0.354801        -9.6546
  83   2.0000      -0.352253        -9.5853
  84   2.0000      -0.345684        -9.4065
  85   2.0000      -0.335439        -9.1278
  86   2.0000      -0.326091        -8.8734
  87   2.0000      -0.315890        -8.5958
  88   2.0000      -0.308972        -8.4076
  89   2.0000      -0.304532        -8.2867
  90   2.0000      -0.301525        -8.2049
  91   2.0000      -0.292605        -7.9622
  92   2.0000      -0.288712        -7.8562
  93   2.0000      -0.285758        -7.7759
  94   2.0000      -0.270571        -7.3626
  95   2.0000      -0.245654        -6.6846
  96   2.0000      -0.229726        -6.2512
  97   2.0000      -0.224102        -6.0981
  98   2.0000      -0.222186        -6.0460
  99   2.0000      -0.219638        -5.9766
 100   2.0000      -0.215503        -5.8641
 101   0.0000      -0.044086        -1.1996
 102   0.0000      -0.022266        -0.6059
 103   0.0000      -0.015384        -0.4186
 104   0.0000       0.004562         0.1242
 105   0.0000       0.008677         0.2361

MULLIKEN ATOMIC CHARGES
-----------------------
   0 C :   -0.431840
   1 C :   -0.154462
   2 O :   -0.305685
   3 P :    0.657258
   4 S :   -0.462480
   5 O :   -0.267656
   6 C :   -0.142380
   7 C :   -0.455114
   8 S :   -0.112576
   9 C :   -0.254634
  10 S :   -0.117156
  11 P :    0.655266
  12 S :   -0.478252
  13 O :   -0.260547
  14 C :   -0.143579
  15 C :   -0.442472
  16 O :   -0.296011
  17 C :   -0.138492
  18 C :   -0.450743
  19 H :    0.167074
  20 H :    0.153759
  21 H :    0.147833
  22 H :    0.148851
  23 H :    0.173940
  24 H :    0.146977
  25 H :    0.163201
  26 H :    0.177853
  27 H :    0.143136
  28 H :    0.167257
  29 H :    0.211143
  30 H :    0.216054
  31 H :    0.155730
  32 H :    0.173913
  33 H :    0.155800
  34 H :    0.148645
  35 H :    0.165934
  36 H :    0.153202
  37 H :    0.151510
  38 H :    0.181354
  39 H :    0.145867
  40 H :    0.152523
Sum of atomic charges:    0.0000000

LOEWDIN ATOMIC CHARGES
----------------------
   0 C :   -0.399633
   1 C :    0.023814
   2 O :   -0.693120
   3 P :    0.370797
   4 S :   -0.110604
   5 O :   -0.677001
   6 C :    0.015979
   7 C :   -0.408222
   8 S :    0.188440
   9 C :   -0.410660
  10 S :    0.165584
  11 P :    0.375481
  12 S :   -0.131516
  13 O :   -0.675086
  14 C :    0.019946
  15 C :   -0.398243
  16 O :   -0.657585
  17 C :    0.023388
  18 C :   -0.401582
  19 H :    0.164839
  20 H :    0.160584
  21 H :    0.159724
  22 H :    0.179565
  23 H :    0.180833
  24 H :    0.179705
  25 H :    0.178574
  26 H :    0.171519
  27 H :    0.157394
  28 H :    0.166099
  29 H :    0.195240
  30 H :    0.195369
  31 H :    0.181763
  32 H :    0.181823
  33 H :    0.160245
  34 H :    0.160238
  35 H :    0.164689
  36 H :    0.175335
  37 H :    0.179840
  38 H :    0.169343
  39 H :    0.158490
  40 H :    0.158613

  Mayer bond orders larger than 0.100000
B(  0-C ,  1-C ) :   0.9239 B(  0-C , 19-H ) :   0.9602 B(  0-C , 20-H ) :   0.9703
B(  0-C , 21-H ) :   0.9610 B(  1-C ,  2-O ) :   0.8114 B(  1-C , 22-H ) :   0.9621
B(  1-C , 23-H ) :   0.9665 B(  2-O ,  3-P ) :   1.1272 B(  3-P ,  4-S ) :   1.8078
B(  3-P ,  5-O ) :   1.0332 B(  3-P ,  8-S ) :   1.0874 B(  5-O ,  6-C ) :   0.7924
B(  6-C ,  7-C ) :   0.9316 B(  6-C , 24-H ) :   0.9604 B(  6-C , 25-H ) :   0.9581
B(  7-C , 26-H ) :   0.9586 B(  7-C , 27-H ) :   0.9614 B(  7-C , 28-H ) :   0.9607
B(  8-S ,  9-C ) :   0.9092 B(  9-C , 10-S ) :   0.9183 B(  9-C , 29-H ) :   0.9110
B(  9-C , 30-H ) :   0.9082 B( 10-S , 11-P ) :   1.1025 B( 11-P , 12-S ) :   1.7484
B( 11-P , 13-O ) :   1.1470 B( 11-P , 16-O ) :   1.0741 B( 13-O , 14-C ) :   0.7837
B( 14-C , 15-C ) :   0.9250 B( 14-C , 31-H ) :   0.9612 B( 14-C , 32-H ) :   0.9613
B( 15-C , 33-H ) :   0.9726 B( 15-C , 34-H ) :   0.9632 B( 15-C , 35-H ) :   0.9591
B( 16-O , 17-C ) :   0.7822 B( 17-C , 18-C ) :   0.9545 B( 17-C , 36-H ) :   0.9626
B( 17-C , 37-H ) :   0.9631 B( 18-C , 38-H ) :   0.9559 B( 18-C , 39-H ) :   0.9641
B( 18-C , 40-H ) :   0.9743

Dispersion correction           -0.021451638
FINAL SINGLE POINT ENERGY     -2932.463303887741

DIPOLE MOMENT
-------------

Method             : SCF
Type of density    : Electron Density
Multiplicity       :   1
Irrep              :   0
Energy             : -2932.4885061787090308 Eh
Relativity type    :
Basis              : AO
                                X                 Y                 Z
Electronic contribution:      7.233959821       6.083232447      -9.686900782
Nuclear contribution   :     -7.686342439      -7.482130626      10.319452904
                        -----------------------------------------
Total Dipole Moment    :     -0.452382617      -1.398898179       0.632552122
                        -----------------------------------------
Magnitude (a.u.)       :      1.600527517
Magnitude (Debye)      :      4.068217643

Rotational constants in cm-1:             0.014709             0.004321             0.004099
Rotational constants in MHz :           440.962986           129.540185           122.897414

                             ****ORCA TERMINATED NORMALLY****
TOTAL RUN TIME: 0 days 0 hours 1 minutes 19 seconds 301 msec
