                         Program Version 6.0.0  -   RELEASE  -
|  1> ! r2scan-3c def2/J RI DEFGRID2 scfconv6 printgap
|  2> %output
|  3>     printlevel normal
|  4> end
|  5> %cpcm
|  6>     smd true
|  7>     smdsolvent "water"
|  8> end
|  9> * xyz 0 1
| 10> C 5.0832772969 -1.6353904131 -0.5302285317
| 11> C 4.5819472574 -0.6445555358 -1.5596195683
| 12> O 3.1768931301 -0.3585323805 -1.3953945604
| 13> P 2.6304195455 0.4275634833 -0.1281592595
| 14> S 3.8012704917 1.8148287002 0.6040980473
| 15> O 2.2873857188 -0.7698405899 0.8694765135
| 16> C 2.2024289486 -0.581161485 2.2902602469
| 17> C 1.0209307614 0.2805003065 2.6861368158
| 18> S 0.7833724644 1.0617324516 -0.9358721938
| 19> C 0.1564744533 -0.5538460475 -1.5016000822
| 20> S -0.6863079356 -1.4968590649 -0.2096922916
| 21> P -2.3711242942 -0.2309019131 -0.0572231986
| 22> S -3.0190219055 0.5248078013 -1.7532023384
| 23> O -1.8927918416 0.8229691773 1.0209338928
| 24> C -2.4261913888 2.1591853625 1.0783227948
| 25> C -3.8515834633 2.1563096911 1.5882656501
| 26> O -3.3881613528 -1.0962292233 0.8027411194
| 27> C -4.0241550208 -2.2899462416 0.3037268108
| 28> C -5.3383281814 -1.9680023467 -0.381467594
| 29> H 5.0528009169 -1.1857763518 0.4613522171
| 30> H 4.4637539522 -2.5284335547 -0.5319149966
| 31> H 6.1087342472 -1.9053059766 -0.7624352748
| 32> H 4.6489195911 -1.041719254 -2.5733421304
| 33> H 5.1354397099 0.2970823508 -1.490925492
| 34> H 2.1147531171 -1.5936557662 2.6859425941
| 35> H 3.1350167882 -0.1205536797 2.6323162788
| 36> H 0.0885168245 -0.1563646179 2.3368613227
| 37> H 0.9888594264 0.3741115959 3.7668519962
| 38> H 1.1286619193 1.2738386385 2.2486130551
| 39> H 0.9829050035 -1.1577574126 -1.8625769846
| 40> H -0.5548028739 -0.331006314 -2.2978260296
| 41> H -1.7501819976 2.686744588 1.7522632168
| 42> H -2.3685339411 2.6020946406 0.0785584877
| 43> H -3.9041761701 1.6559028929 2.5513933547
| 44> H -4.2031938492 3.1782262219 1.6887680854
| 45> H -4.4907203885 1.627922005 0.8814666424
| 46> H -3.3402726303 -2.8041785031 -0.3776079194
| 47> H -4.1805176151 -2.903224715 1.1930940756
| 48> H -5.1674208396 -1.3369042624 -1.2508397068
| 49> H -5.8096781683 -2.8912619902 -0.7025542695
| 50> H -6.0005701317 -1.4468164721 0.3042308143
| 51> *
| 52>
| 53>                          ****END OF INPUT****

CARTESIAN COORDINATES (ANGSTROEM)
---------------------------------
  C      5.083277   -1.635390   -0.530229
  C      4.581947   -0.644556   -1.559620
  O      3.176893   -0.358532   -1.395395
  P      2.630420    0.427563   -0.128159
  S      3.801270    1.814829    0.604098
  O      2.287386   -0.769841    0.869477
  C      2.202429   -0.581161    2.290260
  C      1.020931    0.280500    2.686137
  S      0.783372    1.061732   -0.935872
  C      0.156474   -0.553846   -1.501600
  S     -0.686308   -1.496859   -0.209692
  P     -2.371124   -0.230902   -0.057223
  S     -3.019022    0.524808   -1.753202
  O     -1.892792    0.822969    1.020934
  C     -2.426191    2.159185    1.078323
  C     -3.851583    2.156310    1.588266
  O     -3.388161   -1.096229    0.802741
  C     -4.024155   -2.289946    0.303727
  C     -5.338328   -1.968002   -0.381468
  H      5.052801   -1.185776    0.461352
  H      4.463754   -2.528434   -0.531915
  H      6.108734   -1.905306   -0.762435
  H      4.648920   -1.041719   -2.573342
  H      5.135440    0.297082   -1.490925
  H      2.114753   -1.593656    2.685943
  H      3.135017   -0.120554    2.632316
  H      0.088517   -0.156365    2.336861
  H      0.988859    0.374112    3.766852
  H      1.128662    1.273839    2.248613
  H      0.982905   -1.157757   -1.862577
  H     -0.554803   -0.331006   -2.297826
  H     -1.750182    2.686745    1.752263
  H     -2.368534    2.602095    0.078558
  H     -3.904176    1.655903    2.551393
  H     -4.203194    3.178226    1.688768
  H     -4.490720    1.627922    0.881467
  H     -3.340273   -2.804179   -0.377608
  H     -4.180518   -2.903225    1.193094
  H     -5.167421   -1.336904   -1.250840
  H     -5.809678   -2.891262   -0.702554
  H     -6.000570   -1.446816    0.304231

 Total Charge           Charge          ....    0
 Multiplicity           Mult            ....    1
 Number of Electrons    NEL             ....  202
 Basis Dimension        Dim             ....  539

ORBITAL ENERGIES
----------------

  NO   OCC          E(Eh)            E(eV)
   0   2.0000     -88.580101     -2410.3871
   1   2.0000     -88.578557     -2410.3451
   2   2.0000     -88.530859     -2409.0471
   3   2.0000     -88.530144     -2409.0277
   4   2.0000     -76.920825     -2093.1221
   5   2.0000     -76.919896     -2093.0968
   6   2.0000     -18.997343      -516.9440
   7   2.0000     -18.993753      -516.8463
   8   2.0000     -18.992363      -516.8085
   9   2.0000     -18.991976      -516.7980
  10   2.0000     -10.105873      -274.9948
  11   2.0000     -10.092420      -274.6287
  12   2.0000     -10.089579      -274.5514
  13   2.0000     -10.089431      -274.5474
  14   2.0000     -10.088164      -274.5129
  15   2.0000     -10.018720      -272.6232
  16   2.0000     -10.018680      -272.6221
  17   2.0000     -10.016985      -272.5760
  18   2.0000     -10.015593      -272.5381
  19   2.0000      -7.874532      -214.2769
  20   2.0000      -7.872699      -214.2270
  21   2.0000      -7.825835      -212.9518
  22   2.0000      -7.825148      -212.9331
  23   2.0000      -6.599342      -179.5772
  24   2.0000      -6.598265      -179.5479
  25   2.0000      -5.821340      -158.4067
  26   2.0000      -5.819983      -158.3698
  27   2.0000      -5.818339      -158.3251
  28   2.0000      -5.816266      -158.2687
  29   2.0000      -5.811741      -158.1455
  30   2.0000      -5.809743      -158.0911
  31   2.0000      -5.773408      -157.1024
  32   2.0000      -5.772660      -157.0821
  33   2.0000      -5.766208      -156.9065
  34   2.0000      -5.765774      -156.8947
  35   2.0000      -5.765409      -156.8848
  36   2.0000      -5.765271      -156.8810
  37   2.0000      -4.744731      -129.1107
  38   2.0000      -4.744301      -129.0990
  39   2.0000      -4.743531      -129.0780
  40   2.0000      -4.743251      -129.0704
  41   2.0000      -4.743177      -129.0684
  42   2.0000      -4.742228      -129.0426
  43   2.0000      -1.054547       -28.6957
  44   2.0000      -1.050680       -28.5905
  45   2.0000      -1.014649       -27.6100
  46   2.0000      -1.011452       -27.5230
  47   2.0000      -0.803650       -21.8684
  48   2.0000      -0.757168       -20.6036
  49   2.0000      -0.742237       -20.1973
  50   2.0000      -0.723342       -19.6831
  51   2.0000      -0.722258       -19.6536
  52   2.0000      -0.710621       -19.3370
  53   2.0000      -0.694610       -18.9013
  54   2.0000      -0.676115       -18.3980
  55   2.0000      -0.630433       -17.1550
  56   2.0000      -0.623750       -16.9731
  57   2.0000      -0.599589       -16.3156
  58   2.0000      -0.598346       -16.2818
  59   2.0000      -0.592144       -16.1130
  60   2.0000      -0.522532       -14.2188
  61   2.0000      -0.514044       -13.9878
  62   2.0000      -0.493841       -13.4381
  63   2.0000      -0.487714       -13.2714
  64   2.0000      -0.477392       -12.9905
  65   2.0000      -0.458096       -12.4654
  66   2.0000      -0.455162       -12.3856
  67   2.0000      -0.454330       -12.3630
  68   2.0000      -0.440484       -11.9862
  69   2.0000      -0.426921       -11.6171
  70   2.0000      -0.420075       -11.4308
  71   2.0000      -0.411493       -11.1973
  72   2.0000      -0.410246       -11.1634
  73   2.0000      -0.406566       -11.0632
  74   2.0000      -0.403861       -10.9896
  75   2.0000      -0.386168       -10.5082
  76   2.0000      -0.382877       -10.4186
  77   2.0000      -0.365180        -9.9371
  78   2.0000      -0.364176        -9.9097
  79   2.0000      -0.359638        -9.7863
  80   2.0000      -0.353619        -9.6225
  81   2.0000      -0.350966        -9.5503
  82   2.0000      -0.349626        -9.5138
  83   2.0000      -0.346008        -9.4154
  84   2.0000      -0.343571        -9.3491
  85   2.0000      -0.333135        -9.0651
  86   2.0000      -0.324264        -8.8237
  87   2.0000      -0.307404        -8.3649
  88   2.0000      -0.305445        -8.3116
  89   2.0000      -0.302132        -8.2214
  90   2.0000      -0.299136        -8.1399
  91   2.0000      -0.290700        -7.9104
  92   2.0000      -0.287218        -7.8156
  93   2.0000      -0.285058        -7.7568
  94   2.0000      -0.271484        -7.3875
  95   2.0000      -0.248589        -6.7645
  96   2.0000      -0.236883        -6.4459
  97   2.0000      -0.232340        -6.3223
  98   2.0000      -0.228527        -6.2185
  99   2.0000      -0.226916        -6.1747
 100   2.0000      -0.221979        -6.0404
 101   0.0000      -0.047122        -1.2823
 102   0.0000      -0.028883        -0.7859
 103   0.0000      -0.019430        -0.5287
 104   0.0000       0.002297         0.0625
 105   0.0000       0.004791         0.1304

MULLIKEN ATOMIC CHARGES
-----------------------
   0 C :   -0.474085
   1 C :   -0.145994
   2 O :   -0.327174
   3 P :    0.685284
   4 S :   -0.517207
   5 O :   -0.282909
   6 C :   -0.142267
   7 C :   -0.487188
   8 S :   -0.147862
   9 C :   -0.261829
  10 S :   -0.118107
  11 P :    0.687144
  12 S :   -0.523917
  13 O :   -0.286254
  14 C :   -0.140081
  15 C :   -0.484247
  16 O :   -0.324618
  17 C :   -0.129256
  18 C :   -0.489643
  19 H :    0.168075
  20 H :    0.169001
  21 H :    0.172249
  22 H :    0.175480
  23 H :    0.176370
  24 H :    0.175710
  25 H :    0.171512
  26 H :    0.174730
  27 H :    0.170556
  28 H :    0.166209
  29 H :    0.243265
  30 H :    0.231584
  31 H :    0.179443
  32 H :    0.176164
  33 H :    0.170577
  34 H :    0.172711
  35 H :    0.166228
  36 H :    0.164149
  37 H :    0.177545
  38 H :    0.170660
  39 H :    0.170016
  40 H :    0.167976
Sum of atomic charges:    0.0000000

LOEWDIN ATOMIC CHARGES
----------------------
   0 C :   -0.402716
   1 C :    0.028727
   2 O :   -0.699912
   3 P :    0.374253
   4 S :   -0.148054
   5 O :   -0.682078
   6 C :    0.021472
   7 C :   -0.411457
   8 S :    0.167260
   9 C :   -0.403381
  10 S :    0.168863
  11 P :    0.380367
  12 S :   -0.159997
  13 O :   -0.688548
  14 C :    0.022675
  15 C :   -0.401732
  16 O :   -0.669535
  17 C :    0.029870
  18 C :   -0.405715
  19 H :    0.162687
  20 H :    0.164425
  21 H :    0.168872
  22 H :    0.190885
  23 H :    0.181321
  24 H :    0.191097
  25 H :    0.181680
  26 H :    0.168901
  27 H :    0.167106
  28 H :    0.162601
  29 H :    0.206541
  30 H :    0.200252
  31 H :    0.190911
  32 H :    0.182189
  33 H :    0.164129
  34 H :    0.169029
  35 H :    0.162532
  36 H :    0.180195
  37 H :    0.191129
  38 H :    0.163057
  39 H :    0.167585
  40 H :    0.162514

  Mayer bond orders larger than 0.100000
B(  0-C ,  1-C ) :   0.9128 B(  0-C , 19-H ) :   0.9594 B(  0-C , 20-H ) :   0.9692
B(  0-C , 21-H ) :   0.9551 B(  1-C ,  2-O ) :   0.7999 B(  1-C , 22-H ) :   0.9515
B(  1-C , 23-H ) :   0.9628 B(  2-O ,  3-P ) :   1.1363 B(  3-P ,  4-S ) :   1.7724
B(  3-P ,  5-O ) :   1.0407 B(  3-P ,  8-S ) :   1.0991 B(  5-O ,  6-C ) :   0.7808
B(  6-C ,  7-C ) :   0.9182 B(  6-C , 24-H ) :   0.9512 B(  6-C , 25-H ) :   0.9567
B(  7-C , 26-H ) :   0.9588 B(  7-C , 27-H ) :   0.9562 B(  7-C , 28-H ) :   0.9630
B(  8-S ,  9-C ) :   0.9027 B(  9-C , 10-S ) :   0.9172 B(  9-C , 29-H ) :   0.8995
B(  9-C , 30-H ) :   0.9030 B( 10-S , 11-P ) :   1.1139 B( 11-P , 12-S ) :   1.7094
B( 11-P , 13-O ) :   1.1509 B( 11-P , 16-O ) :   1.0807 B( 13-O , 14-C ) :   0.7717
B( 14-C , 15-C ) :   0.9158 B( 14-C , 31-H ) :   0.9520 B( 14-C , 32-H ) :   0.9575
B( 15-C , 33-H ) :   0.9712 B( 15-C , 34-H ) :   0.9574 B( 15-C , 35-H ) :   0.9587
B( 16-O , 17-C ) :   0.7715 B( 17-C , 18-C ) :   0.9431 B( 17-C , 36-H ) :   0.9558
B( 17-C , 37-H ) :   0.9532 B( 18-C , 38-H ) :   0.9605 B( 18-C , 39-H ) :   0.9590
B( 18-C , 40-H ) :   0.9719

Dispersion correction           -0.021451638
FINAL SINGLE POINT ENERGY     -2932.471399854353

DIPOLE MOMENT
-------------

Method             : SCF
Type of density    : Electron Density
Multiplicity       :   1
Irrep              :   0
Energy             : -2932.4966021453205940 Eh
Relativity type    :
Basis              : AO
                                X                 Y                 Z
Electronic contribution:      7.210639058       5.444403548      -9.490757425
Nuclear contribution   :     -7.686342439      -7.482130626      10.319452904
                        -----------------------------------------
Total Dipole Moment    :     -0.475703381      -2.037727078       0.828695479
                        -----------------------------------------
Magnitude (a.u.)       :      2.250635810
Magnitude (Debye)      :      5.720661599

Rotational constants in cm-1:             0.014709             0.004321             0.004099
Rotational constants in MHz :           440.962986           129.540185           122.897414

                             ****ORCA TERMINATED NORMALLY****
TOTAL RUN TIME: 0 days 0 hours 1 minutes 54 seconds 618 msec
