                         Program Version 6.0.0  -   RELEASE  -
|  1> ! r2scan-3c def2/J RI DEFGRID2 scfconv6 printgap
|  2> %output
|  3>     printlevel normal
|  4> end
|  5> * xyz 0 1
|  6> C -1.8426988815 -0.0002722605 0.0818136401
|  7> C -1.0585037184 1.2493352522 -0.3005980504
|  8> C 0.3072374445 1.2644916044 0.3955362452
|  9> C 1.0665496958 7.97796e-05 0.1001603324
| 10> O 2.1990670586 4.25772e-05 -0.3440433549
| 11> C 0.3073305377 -1.2643089031 0.3959803629
| 12> C -1.0579593415 -1.2494084585 -0.3010101617
| 13> H -2.8053967961 -0.0003465223 -0.4309906724
| 14> H -2.0319876682 -0.0005147792 1.1567443256
| 15> H -0.9083745969 1.2703205106 -1.3821305833
| 16> H -1.6115746006 2.1465917172 -0.0209291059
| 17> H 0.8989202429 2.1247005609 0.0791529884
| 18> H 0.1584954091 1.3204442333 1.4758292899
| 19> H 0.8992607481 -2.1246313817 0.0804640921
| 20> H 0.1578537262 -1.3195637619 1.4762208627
| 21> H -0.907169208 -1.2696428891 -1.3824606591
| 22> H -1.6108803668 -2.1470446288 -0.0222268354
| 23> *
| 24>
| 25>                          ****END OF INPUT****

CARTESIAN COORDINATES (ANGSTROEM)
---------------------------------
  C     -1.842699   -0.000272    0.081814
  C     -1.058504    1.249335   -0.300598
  C      0.307237    1.264492    0.395536
  C      1.066550    0.000080    0.100160
  O      2.199067    0.000043   -0.344043
  C      0.307331   -1.264309    0.395980
  C     -1.057959   -1.249408   -0.301010
  H     -2.805397   -0.000347   -0.430991
  H     -2.031988   -0.000515    1.156744
  H     -0.908375    1.270321   -1.382131
  H     -1.611575    2.146592   -0.020929
  H      0.898920    2.124701    0.079153
  H      0.158495    1.320444    1.475829
  H      0.899261   -2.124631    0.080464
  H      0.157854   -1.319564    1.476221
  H     -0.907169   -1.269643   -1.382461
  H     -1.610880   -2.147045   -0.022227

 Total Charge           Charge          ....    0
 Multiplicity           Mult            ....    1
 Number of Electrons    NEL             ....   54
 Basis Dimension        Dim             ....  188

ORBITAL ENERGIES
----------------

  NO   OCC          E(Eh)            E(eV)
   0   2.0000     -18.934353      -515.2299
   1   2.0000     -10.112964      -275.1877
   2   2.0000     -10.042001      -273.2567
   3   2.0000     -10.041995      -273.2566
   4   2.0000     -10.037676      -273.1390
   5   2.0000     -10.037032      -273.1215
   6   2.0000     -10.037023      -273.1213
   7   2.0000      -0.998882       -27.1810
   8   2.0000      -0.808381       -21.9972
   9   2.0000      -0.728349       -19.8194
  10   2.0000      -0.699694       -19.0396
  11   2.0000      -0.597114       -16.2483
  12   2.0000      -0.564355       -15.3569
  13   2.0000      -0.505805       -13.7636
  14   2.0000      -0.450563       -12.2604
  15   2.0000      -0.434225       -11.8159
  16   2.0000      -0.418273       -11.3818
  17   2.0000      -0.412731       -11.2310
  18   2.0000      -0.389177       -10.5901
  19   2.0000      -0.373559       -10.1651
  20   2.0000      -0.363994        -9.9048
  21   2.0000      -0.333327        -9.0703
  22   2.0000      -0.332560        -9.0494
  23   2.0000      -0.308013        -8.3814
  24   2.0000      -0.299393        -8.1469
  25   2.0000      -0.297155        -8.0860
  26   2.0000      -0.206279        -5.6131
  27   0.0000      -0.045710        -1.2438
  28   0.0000       0.086840         2.3630
  29   0.0000       0.096902         2.6368
  30   0.0000       0.111681         3.0390
  31   0.0000       0.114945         3.1278

MULLIKEN ATOMIC CHARGES
-----------------------
   0 C :   -0.301529
   1 C :   -0.278065
   2 C :   -0.278595
   3 C :    0.204065
   4 O :   -0.337001
   5 C :   -0.278471
   6 C :   -0.278024
   7 H :    0.152021
   8 H :    0.145626
   9 H :    0.150813
  10 H :    0.150947
  11 H :    0.169792
  12 H :    0.153431
  13 H :    0.169803
  14 H :    0.153399
  15 H :    0.150806
  16 H :    0.150980
Sum of atomic charges:   -0.0000000

LOEWDIN ATOMIC CHARGES
----------------------
   0 C :   -0.303256
   1 C :   -0.287241
   2 C :   -0.271590
   3 C :    0.222471
   4 O :   -0.455302
   5 C :   -0.271583
   6 C :   -0.287225
   7 H :    0.159495
   8 H :    0.155730
   9 H :    0.159755
  10 H :    0.158079
  11 H :    0.177180
  12 H :    0.174244
  13 H :    0.177169
  14 H :    0.174228
  15 H :    0.159764
  16 H :    0.158082

  Mayer bond orders larger than 0.100000
B(  0-C ,  1-C ) :   0.9167 B(  0-C ,  6-C ) :   0.9167 B(  0-C ,  7-H ) :   0.9430
B(  0-C ,  8-H ) :   0.9907 B(  1-C ,  2-C ) :   0.8738 B(  1-C ,  9-H ) :   0.9817
B(  1-C , 10-H ) :   0.9389 B(  2-C ,  3-C ) :   0.9323 B(  2-C , 11-H ) :   0.9424
B(  2-C , 12-H ) :   0.9569 B(  3-C ,  4-O ) :   2.0067 B(  3-C ,  5-C ) :   0.9323
B(  5-C ,  6-C ) :   0.8737 B(  5-C , 13-H ) :   0.9424 B(  5-C , 14-H ) :   0.9570
B(  6-C , 15-H ) :   0.9817 B(  6-C , 16-H ) :   0.9388

Dispersion correction           -0.004793617
FINAL SINGLE POINT ENERGY      -309.806740014271

DIPOLE MOMENT
-------------

Method             : SCF
Type of density    : Electron Density
Multiplicity       :   1
Irrep              :   0
Energy             :  -309.8088484924717250 Eh
Relativity type    :
Basis              : AO
                                X                 Y                 Z
Electronic contribution:      5.978749693      -0.000223764      -0.568943042
Nuclear contribution   :     -7.248368181       0.000294333       0.960904391
                        -----------------------------------------
Total Dipole Moment    :     -1.269618487       0.000070569       0.391961348
                        -----------------------------------------
Magnitude (a.u.)       :      1.328745576
Magnitude (Debye)      :      3.377402848

Rotational constants in cm-1:             0.141802             0.084508             0.059628
Rotational constants in MHz :          4251.111755          2533.478869          1787.606904

                             ****ORCA TERMINATED NORMALLY****
TOTAL RUN TIME: 0 days 0 hours 0 minutes 25 seconds 189 msec
