                         Program Version 6.0.0  -   RELEASE  -
|  1> ! r2scan-3c def2/J RI DEFGRID2 scfconv6 printgap
|  2> %output
|  3>     printlevel normal
|  4> end
|  5> %cpcm
|  6>     smd true
|  7>     smdsolvent "water"
|  8> end
|  9> * xyz 0 1
| 10> C -1.8426988815 -0.0002722605 0.0818136401
| 11> C -1.0585037184 1.2493352522 -0.3005980504
| 12> C 0.3072374445 1.2644916044 0.3955362452
| 13> C 1.0665496958 7.97796e-05 0.1001603324
| 14> O 2.1990670586 4.25772e-05 -0.3440433549
| 15> C 0.3073305377 -1.2643089031 0.3959803629
| 16> C -1.0579593415 -1.2494084585 -0.3010101617
| 17> H -2.8053967961 -0.0003465223 -0.4309906724
| 18> H -2.0319876682 -0.0005147792 1.1567443256
| 19> H -0.9083745969 1.2703205106 -1.3821305833
| 20> H -1.6115746006 2.1465917172 -0.0209291059
| 21> H 0.8989202429 2.1247005609 0.0791529884
| 22> H 0.1584954091 1.3204442333 1.4758292899
| 23> H 0.8992607481 -2.1246313817 0.0804640921
| 24> H 0.1578537262 -1.3195637619 1.4762208627
| 25> H -0.907169208 -1.2696428891 -1.3824606591
| 26> H -1.6108803668 -2.1470446288 -0.0222268354
| 27> *
| 28>
| 29>                          ****END OF INPUT****

CARTESIAN COORDINATES (ANGSTROEM)
---------------------------------
  C     -1.842699   -0.000272    0.081814
  C     -1.058504    1.249335   -0.300598
  C      0.307237    1.264492    0.395536
  C      1.066550    0.000080    0.100160
  O      2.199067    0.000043   -0.344043
  C      0.307331   -1.264309    0.395980
  C     -1.057959   -1.249408   -0.301010
  H     -2.805397   -0.000347   -0.430991
  H     -2.031988   -0.000515    1.156744
  H     -0.908375    1.270321   -1.382131
  H     -1.611575    2.146592   -0.020929
  H      0.898920    2.124701    0.079153
  H      0.158495    1.320444    1.475829
  H      0.899261   -2.124631    0.080464
  H      0.157854   -1.319564    1.476221
  H     -0.907169   -1.269643   -1.382461
  H     -1.610880   -2.147045   -0.022227

 Total Charge           Charge          ....    0
 Multiplicity           Mult            ....    1
 Number of Electrons    NEL             ....   54
 Basis Dimension        Dim             ....  188

ORBITAL ENERGIES
----------------

  NO   OCC          E(Eh)            E(eV)
   0   2.0000     -18.946062      -515.5486
   1   2.0000     -10.120763      -275.4000
   2   2.0000     -10.027604      -272.8650
   3   2.0000     -10.027595      -272.8647
   4   2.0000     -10.026602      -272.8377
   5   2.0000     -10.026594      -272.8375
   6   2.0000     -10.019603      -272.6472
   7   2.0000      -1.013295       -27.5732
   8   2.0000      -0.795903       -21.6576
   9   2.0000      -0.716303       -19.4916
  10   2.0000      -0.689239       -18.7551
  11   2.0000      -0.585860       -15.9421
  12   2.0000      -0.551073       -14.9954
  13   2.0000      -0.497341       -13.5333
  14   2.0000      -0.445846       -12.1321
  15   2.0000      -0.425706       -11.5841
  16   2.0000      -0.413256       -11.2453
  17   2.0000      -0.406721       -11.0674
  18   2.0000      -0.381366       -10.3775
  19   2.0000      -0.371390       -10.1060
  20   2.0000      -0.351518        -9.5653
  21   2.0000      -0.334325        -9.0974
  22   2.0000      -0.317868        -8.6496
  23   2.0000      -0.292925        -7.9709
  24   2.0000      -0.287646        -7.8273
  25   2.0000      -0.287485        -7.8229
  26   2.0000      -0.217333        -5.9139
  27   0.0000      -0.049090        -1.3358
  28   0.0000       0.098576         2.6824
  29   0.0000       0.107541         2.9263
  30   0.0000       0.127515         3.4699
  31   0.0000       0.130022         3.5381

MULLIKEN ATOMIC CHARGES
-----------------------
   0 C :   -0.315056
   1 C :   -0.288033
   2 C :   -0.290090
   3 C :    0.244856
   4 O :   -0.450417
   5 C :   -0.289986
   6 C :   -0.288020
   7 H :    0.161322
   8 H :    0.159735
   9 H :    0.160238
  10 H :    0.163115
  11 H :    0.168879
  12 H :    0.185597
  13 H :    0.168899
  14 H :    0.185571
  15 H :    0.160236
  16 H :    0.163153
Sum of atomic charges:   -0.0000000

LOEWDIN ATOMIC CHARGES
----------------------
   0 C :   -0.302921
   1 C :   -0.284150
   2 C :   -0.269215
   3 C :    0.239372
   4 O :   -0.536754
   5 C :   -0.269212
   6 C :   -0.284138
   7 H :    0.162940
   8 H :    0.160973
   9 H :    0.162800
  10 H :    0.163203
  11 H :    0.176727
  12 H :    0.188830
  13 H :    0.176716
  14 H :    0.188815
  15 H :    0.162808
  16 H :    0.163207

  Mayer bond orders larger than 0.100000
B(  0-C ,  1-C ) :   0.9197 B(  0-C ,  6-C ) :   0.9196 B(  0-C ,  7-H ) :   0.9409
B(  0-C ,  8-H ) :   0.9874 B(  1-C ,  2-C ) :   0.8718 B(  1-C ,  9-H ) :   0.9805
B(  1-C , 10-H ) :   0.9356 B(  2-C ,  3-C ) :   0.9553 B(  2-C , 11-H ) :   0.9395
B(  2-C , 12-H ) :   0.9423 B(  3-C ,  4-O ) :   1.9267 B(  3-C ,  5-C ) :   0.9553
B(  5-C ,  6-C ) :   0.8716 B(  5-C , 13-H ) :   0.9394 B(  5-C , 14-H ) :   0.9424
B(  6-C , 15-H ) :   0.9806 B(  6-C , 16-H ) :   0.9356

Dispersion correction           -0.004793617
FINAL SINGLE POINT ENERGY      -309.815156485770

DIPOLE MOMENT
-------------

Method             : SCF
Type of density    : Electron Density
Multiplicity       :   1
Irrep              :   0
Energy             :  -309.8172649639703877 Eh
Relativity type    :
Basis              : AO
                                X                 Y                 Z
Electronic contribution:      5.437416235      -0.000177792      -0.345156274
Nuclear contribution   :     -7.248368181       0.000294333       0.960904391
                        -----------------------------------------
Total Dipole Moment    :     -1.810951945       0.000116541       0.615748117
                        -----------------------------------------
Magnitude (a.u.)       :      1.912770949
Magnitude (Debye)      :      4.861877373

Rotational constants in cm-1:             0.141802             0.084508             0.059628
Rotational constants in MHz :          4251.111755          2533.478869          1787.606904

                             ****ORCA TERMINATED NORMALLY****
TOTAL RUN TIME: 0 days 0 hours 0 minutes 24 seconds 114 msec
