                         Program Version 6.0.1  -  RELEASE   -
|  1> ! pbe def2-sv(p) def2/J RI DEFGRID1 loosescf d4 GCP(DFT/SV(P)) printgap
|  2> %output
|  3>     printlevel normal
|  4> end
|  5> * xyz 0 1
|  6> C 4.2556746423 -2.1190284936 0.1028937101
|  7> C 2.8168253491 -2.5107314049 -0.1919798806
|  8> O 2.0530150938 -1.3783186145 -0.6499905388
|  9> C 2.1066841118 -1.065189809 -1.9363569049
| 10> O 2.7410699351 -1.6849200665 -2.7587704339
| 11> C 1.2963286135 0.17038709 -2.2676975255
| 12> C 0.2964405299 0.5532079977 -1.1866353323
| 13> H -0.1899013511 1.5007904086 -1.4434722408
| 14> C 0.9333125265 0.725867446 0.1793087187
| 15> O 0.4262715318 0.2910812359 1.1934776179
| 16> O 2.0362910228 1.423055052 0.1230841574
| 17> C 2.6881734429 1.7617964688 1.3653023296
| 18> C 2.1008430214 3.0390566872 1.9424864246
| 19> S -1.0196013172 -0.7030302385 -1.0249897012
| 20> P -2.1159654621 0.2032510567 0.5569831302
| 21> S -1.966805455 2.1445957422 0.7607522002
| 22> O -3.6078798219 -0.2435336143 0.1448187556
| 23> C -4.2619527796 0.30937495 -0.9994486816
| 24> O -1.9888715394 -0.6258143709 1.8953310364
| 25> C -2.1689491852 -2.0535648612 1.9373126214
| 26> H 4.7861596258 -2.9807503679 0.4942939019
| 27> H 4.745679228 -1.7864526412 -0.8091644421
| 28> H 4.2858442038 -1.3172635748 0.836301576
| 29> H 2.2995547802 -2.8411678742 0.7094331354
| 30> H 2.7761072507 -3.2861993009 -0.9619699311
| 31> H 0.7872308903 -0.0033104239 -3.2164315088
| 32> H 2.002146264 0.9935878255 -2.4058205229
| 33> H 2.5659448466 0.9279786314 2.0618370158
| 34> H 3.7365493616 1.8897735058 1.0954362335
| 35> H 2.6157741153 3.2894495997 2.8639279851
| 36> H 2.2093023758 3.856373646 1.2351581753
| 37> H 1.0417856659 2.9023263378 2.1555498788
| 38> H -5.3034247781 0.009761212 -0.9159973769
| 39> H -3.8176560844 -0.0915960229 -1.9104615605
| 40> H -4.1768316244 1.3974267353 -0.9894351423
| 41> H -1.5080967496 -2.5346310515 1.2156852464
| 42> H -3.2060964485 -2.3023811281 1.7185375837
| 43> H -1.9036647503 -2.341445757 2.951311652
| 44> *
| 45>
| 46>                          ****END OF INPUT****

CARTESIAN COORDINATES (ANGSTROEM)
---------------------------------
  C      4.255675   -2.119028    0.102894
  C      2.816825   -2.510731   -0.191980
  O      2.053015   -1.378319   -0.649991
  C      2.106684   -1.065190   -1.936357
  O      2.741070   -1.684920   -2.758770
  C      1.296329    0.170387   -2.267698
  C      0.296441    0.553208   -1.186635
  H     -0.189901    1.500790   -1.443472
  C      0.933313    0.725867    0.179309
  O      0.426272    0.291081    1.193478
  O      2.036291    1.423055    0.123084
  C      2.688173    1.761796    1.365302
  C      2.100843    3.039057    1.942486
  S     -1.019601   -0.703030   -1.024990
  P     -2.115965    0.203251    0.556983
  S     -1.966805    2.144596    0.760752
  O     -3.607880   -0.243534    0.144819
  C     -4.261953    0.309375   -0.999449
  O     -1.988872   -0.625814    1.895331
  C     -2.168949   -2.053565    1.937313
  H      4.786160   -2.980750    0.494294
  H      4.745679   -1.786453   -0.809164
  H      4.285844   -1.317264    0.836302
  H      2.299555   -2.841168    0.709433
  H      2.776107   -3.286199   -0.961970
  H      0.787231   -0.003310   -3.216432
  H      2.002146    0.993588   -2.405821
  H      2.565945    0.927979    2.061837
  H      3.736549    1.889774    1.095436
  H      2.615774    3.289450    2.863928
  H      2.209302    3.856374    1.235158
  H      1.041786    2.902326    2.155550
  H     -5.303425    0.009761   -0.915997
  H     -3.817656   -0.091596   -1.910462
  H     -4.176832    1.397427   -0.989435
  H     -1.508097   -2.534631    1.215685
  H     -3.206096   -2.302381    1.718538
  H     -1.903665   -2.341446    2.951312

 Total Charge           Charge          ....    0
 Multiplicity           Mult            ....    1
 Number of Electrons    NEL             ....  174
 Basis Dimension        Dim             ....  316

ORBITAL ENERGIES
----------------

  NO   OCC          E(Eh)            E(eV)
   0   2.0000     -88.037303     -2395.6168
   1   2.0000     -87.974156     -2393.8985
   2   2.0000     -76.420546     -2079.5088
   3   2.0000     -18.814119      -511.9582
   4   2.0000     -18.812229      -511.9068
   5   2.0000     -18.783020      -511.1120
   6   2.0000     -18.780555      -511.0449
   7   2.0000     -18.743066      -510.0247
   8   2.0000     -18.742978      -510.0224
   9   2.0000     -10.019311      -272.6393
  10   2.0000     -10.018315      -272.6122
  11   2.0000      -9.954526      -270.8764
  12   2.0000      -9.953950      -270.8607
  13   2.0000      -9.947920      -270.6967
  14   2.0000      -9.943780      -270.5840
  15   2.0000      -9.935656      -270.3630
  16   2.0000      -9.921995      -269.9912
  17   2.0000      -9.893268      -269.2095
  18   2.0000      -9.885133      -268.9881
  19   2.0000      -7.681985      -209.0374
  20   2.0000      -7.619467      -207.3362
  21   2.0000      -6.416538      -174.6029
  22   2.0000      -5.709760      -155.3705
  23   2.0000      -5.706662      -155.2862
  24   2.0000      -5.698973      -155.0769
  25   2.0000      -5.648681      -153.7084
  26   2.0000      -5.640118      -153.4754
  27   2.0000      -5.639209      -153.4507
  28   2.0000      -4.639287      -126.2414
  29   2.0000      -4.638615      -126.2231
  30   2.0000      -4.636886      -126.1761
  31   2.0000      -1.024744       -27.8847
  32   2.0000      -1.016277       -27.6543
  33   2.0000      -0.977210       -26.5912
  34   2.0000      -0.931728       -25.3536
  35   2.0000      -0.924579       -25.1591
  36   2.0000      -0.921692       -25.0805
  37   2.0000      -0.770089       -20.9552
  38   2.0000      -0.713175       -19.4065
  39   2.0000      -0.708980       -19.2923
  40   2.0000      -0.689899       -18.7731
  41   2.0000      -0.660326       -17.9684
  42   2.0000      -0.628143       -17.0926
  43   2.0000      -0.622033       -16.9264
  44   2.0000      -0.613791       -16.7021
  45   2.0000      -0.602000       -16.3812
  46   2.0000      -0.570254       -15.5174
  47   2.0000      -0.511593       -13.9212
  48   2.0000      -0.507863       -13.8196
  49   2.0000      -0.502142       -13.6640
  50   2.0000      -0.485380       -13.2079
  51   2.0000      -0.468404       -12.7459
  52   2.0000      -0.465965       -12.6795
  53   2.0000      -0.446949       -12.1621
  54   2.0000      -0.434891       -11.8340
  55   2.0000      -0.433456       -11.7950
  56   2.0000      -0.424638       -11.5550
  57   2.0000      -0.419929       -11.4268
  58   2.0000      -0.410939       -11.1822
  59   2.0000      -0.406531       -11.0623
  60   2.0000      -0.402796       -10.9606
  61   2.0000      -0.401843       -10.9347
  62   2.0000      -0.392651       -10.6846
  63   2.0000      -0.387426       -10.5424
  64   2.0000      -0.381298       -10.3756
  65   2.0000      -0.374059       -10.1787
  66   2.0000      -0.364516        -9.9190
  67   2.0000      -0.355338        -9.6692
  68   2.0000      -0.347210        -9.4481
  69   2.0000      -0.343821        -9.3559
  70   2.0000      -0.336168        -9.1476
  71   2.0000      -0.332108        -9.0371
  72   2.0000      -0.327807        -8.9201
  73   2.0000      -0.312892        -8.5142
  74   2.0000      -0.303948        -8.2709
  75   2.0000      -0.299899        -8.1607
  76   2.0000      -0.292920        -7.9708
  77   2.0000      -0.288815        -7.8590
  78   2.0000      -0.271943        -7.4000
  79   2.0000      -0.267290        -7.2733
  80   2.0000      -0.261313        -7.1107
  81   2.0000      -0.251963        -6.8563
  82   2.0000      -0.233623        -6.3572
  83   2.0000      -0.229036        -6.2324
  84   2.0000      -0.218144        -5.9360
  85   2.0000      -0.195727        -5.3260
  86   2.0000      -0.188322        -5.1245
  87   0.0000      -0.041673        -1.1340
  88   0.0000      -0.028455        -0.7743
  89   0.0000      -0.024398        -0.6639
  90   0.0000       0.007341         0.1998
  91   0.0000       0.026679         0.7260

MULLIKEN ATOMIC CHARGES
-----------------------
   0 C :   -0.313052
   1 C :   -0.004521
   2 O :   -0.236968
   3 C :    0.116387
   4 O :   -0.197541
   5 C :   -0.109196
   6 C :   -0.290737
   7 H :    0.150266
   8 C :    0.236490
   9 O :   -0.190885
  10 O :   -0.232643
  11 C :   -0.020312
  12 C :   -0.303617
  13 S :   -0.102750
  14 P :    0.625328
  15 S :   -0.330912
  16 O :   -0.397053
  17 C :   -0.098384
  18 O :   -0.352545
  19 C :   -0.101786
  20 H :    0.115807
  21 H :    0.128635
  22 H :    0.116961
  23 H :    0.109315
  24 H :    0.110406
  25 H :    0.133704
  26 H :    0.143431
  27 H :    0.113984
  28 H :    0.103757
  29 H :    0.111773
  30 H :    0.113130
  31 H :    0.144107
  32 H :    0.120487
  33 H :    0.108494
  34 H :    0.113793
  35 H :    0.115339
  36 H :    0.122317
  37 H :    0.128992
Sum of atomic charges:    0.0000000

LOEWDIN ATOMIC CHARGES
----------------------
   0 C :   -0.356169
   1 C :   -0.107334
   2 O :   -0.047906
   3 C :    0.033332
   4 O :   -0.160843
   5 C :   -0.248085
   6 C :   -0.270814
   7 H :    0.144563
   8 C :    0.009180
   9 O :   -0.161719
  10 O :   -0.046514
  11 C :   -0.107955
  12 C :   -0.356733
  13 S :    0.089467
  14 P :    0.591524
  15 S :   -0.324946
  16 O :   -0.268618
  17 C :   -0.220680
  18 O :   -0.230850
  19 C :   -0.207940
  20 H :    0.132553
  21 H :    0.131328
  22 H :    0.123783
  23 H :    0.121088
  24 H :    0.122169
  25 H :    0.148767
  26 H :    0.157885
  27 H :    0.121058
  28 H :    0.116970
  29 H :    0.130607
  30 H :    0.125331
  31 H :    0.136083
  32 H :    0.119890
  33 H :    0.104475
  34 H :    0.108554
  35 H :    0.108480
  36 H :    0.114864
  37 H :    0.125155

  Mayer bond orders larger than 0.100000
B(  0-C ,  1-C ) :   1.1762 B(  0-C , 20-H ) :   0.9433 B(  0-C , 21-H ) :   0.9447
B(  0-C , 22-H ) :   0.9472 B(  1-C ,  2-O ) :   0.9065 B(  1-C , 23-H ) :   0.9347
B(  1-C , 24-H ) :   0.9146 B(  2-O ,  3-C ) :   1.2138 B(  3-C ,  4-O ) :   2.0568
B(  3-C ,  5-C ) :   1.0077 B(  5-C ,  6-C ) :   1.0604 B(  5-C , 25-H ) :   0.8998
B(  5-C , 26-H ) :   0.8785 B(  6-C ,  7-H ) :   0.8479 B(  6-C ,  8-C ) :   0.8731
B(  6-C , 13-S ) :   1.0346 B(  8-C ,  9-O ) :   1.9930 B(  8-C , 10-O ) :   1.2561
B( 10-O , 11-C ) :   0.9021 B( 11-C , 12-C ) :   1.1782 B( 11-C , 27-H ) :   0.9109
B( 11-C , 28-H ) :   0.9357 B( 12-C , 29-H ) :   0.9424 B( 12-C , 30-H ) :   0.9483
B( 12-C , 31-H ) :   0.9354 B( 13-S , 14-P ) :   0.9427 B( 13-S , 15-S ) :   0.1109
B( 14-P , 15-S ) :   1.6096 B( 14-P , 16-O ) :   1.0466 B( 14-P , 18-O ) :   1.1319
B( 16-O , 17-C ) :   0.9409 B( 17-C , 32-H ) :   0.9588 B( 17-C , 33-H ) :   0.9453
B( 17-C , 34-H ) :   0.9335 B( 18-O , 19-C ) :   0.9242 B( 19-C , 35-H ) :   0.9391
B( 19-C , 36-H ) :   0.9473 B( 19-C , 37-H ) :   0.9600

Dispersion correction           -0.052843847
FINAL SINGLE POINT ENERGY     -1979.016000213159

DIPOLE MOMENT
-------------

Method             : SCF
Type of density    : Electron Density
Multiplicity       :   1
Irrep              :   0
Energy             : -1979.1457405570845367 Eh
Relativity type    :
Basis              : AO
                                X                 Y                 Z
Electronic contribution:    -14.161140454       2.170911752      -3.779633177
Nuclear contribution   :     14.898149393      -2.805889686       3.904280215
                        -----------------------------------------
Total Dipole Moment    :      0.737008938      -0.634977934       0.124647037
                        -----------------------------------------
Magnitude (a.u.)       :      0.980773183
Magnitude (Debye)      :      2.492927314

Rotational constants in cm-1:             0.013788             0.007234             0.006184
Rotational constants in MHz :           413.342866           216.857833           185.379596

                             ****ORCA TERMINATED NORMALLY****
TOTAL RUN TIME: 0 days 0 hours 0 minutes 51 seconds 138 msec
