                         Program Version 6.0.0  -   RELEASE  -
|  1> ! r2scan-3c def2/J RI DEFGRID2 scfconv6 printgap
|  2> %output
|  3>     printlevel normal
|  4> end
|  5> * xyz 0 1
|  6> C 3.9650050896 -1.873461077 -2.1649484053
|  7> C 4.4865850176 -1.5597678331 -0.7780511543
|  8> O 3.4285895516 -1.2719319935 0.1555662216
|  9> P 2.4886375499 0.0018218823 0.0197126554
| 10> S 3.3535561544 1.6582181675 -0.5480491187
| 11> O 1.8648139074 0.1165936269 1.463306334
| 12> C 1.3007616138 -1.0165046788 2.1682143695
| 13> C 2.2573078609 -1.4967931001 3.2397299895
| 14> S 0.8851331331 -0.6887586617 -1.2197333951
| 15> C 0.2382828711 0.951161108 -1.6140583884
| 16> S -0.4699789001 1.7892729693 -0.1675729681
| 17> P -2.2139928486 0.6017767443 -0.05854501
| 18> S -3.0478886603 0.1624841342 -1.7803978783
| 19> O -2.9657953123 1.5572628074 0.9569550872
| 20> C -4.1383520695 1.1577105314 1.7001943681
| 21> C -5.3941747999 1.2299992789 0.8540729008
| 22> O -1.8494908672 -0.6704241214 0.8323520771
| 23> C -1.9790326121 -2.0321135903 0.377152416
| 24> C -3.324301492 -2.5992333881 0.7842824295
| 25> H 3.2048276147 -2.6492211332 -2.1194611217
| 26> H 3.5295374072 -0.9804079755 -2.6105080877
| 27> H 4.7875651813 -2.2096419485 -2.7879629343
| 28> H 5.1618970905 -0.6994971381 -0.8067407506
| 29> H 4.9947756315 -2.4179113385 -0.3359890036
| 30> H 0.3677150534 -0.6443457129 2.5975419223
| 31> H 1.0871305976 -1.809526491 1.4462095682
| 32> H 1.7910029264 -2.3013920188 3.799609965
| 33> H 3.1759398454 -1.858739626 2.7855428954
| 34> H 2.4980696189 -0.6805098463 3.9150856067
| 35> H -0.5317533715 0.8179389762 -2.375087393
| 36> H 1.0509395448 1.5818416141 -1.9742642103
| 37> H -3.9818050206 0.1487265248 2.0902575172
| 38> H -4.1759653488 1.8697032276 2.5267166872
| 39> H -5.3342440528 0.5324918479 0.0207929272
| 40> H -6.2544773423 0.9793065103 1.4666426021
| 41> H -5.5181842437 2.2324246579 0.4528786425
| 42> H -1.8594249263 -2.0614471276 -0.7096883972
| 43> H -1.1566884738 -2.5686304193 0.8512609804
| 44> H -4.1232165411 -2.0521759035 0.287169071
| 45> H -3.3751669291 -3.6411114949 0.4853185182
| 46> H -3.4567636614 -2.5288690109 1.8605459822
| 47> *
| 48>
| 49>                          ****END OF INPUT****

CARTESIAN COORDINATES (ANGSTROEM)
---------------------------------
  C      3.965005   -1.873461   -2.164948
  C      4.486585   -1.559768   -0.778051
  O      3.428590   -1.271932    0.155566
  P      2.488638    0.001822    0.019713
  S      3.353556    1.658218   -0.548049
  O      1.864814    0.116594    1.463306
  C      1.300762   -1.016505    2.168214
  C      2.257308   -1.496793    3.239730
  S      0.885133   -0.688759   -1.219733
  C      0.238283    0.951161   -1.614058
  S     -0.469979    1.789273   -0.167573
  P     -2.213993    0.601777   -0.058545
  S     -3.047889    0.162484   -1.780398
  O     -2.965795    1.557263    0.956955
  C     -4.138352    1.157711    1.700194
  C     -5.394175    1.229999    0.854073
  O     -1.849491   -0.670424    0.832352
  C     -1.979033   -2.032114    0.377152
  C     -3.324301   -2.599233    0.784282
  H      3.204828   -2.649221   -2.119461
  H      3.529537   -0.980408   -2.610508
  H      4.787565   -2.209642   -2.787963
  H      5.161897   -0.699497   -0.806741
  H      4.994776   -2.417911   -0.335989
  H      0.367715   -0.644346    2.597542
  H      1.087131   -1.809526    1.446210
  H      1.791003   -2.301392    3.799610
  H      3.175940   -1.858740    2.785543
  H      2.498070   -0.680510    3.915086
  H     -0.531753    0.817939   -2.375087
  H      1.050940    1.581842   -1.974264
  H     -3.981805    0.148727    2.090258
  H     -4.175965    1.869703    2.526717
  H     -5.334244    0.532492    0.020793
  H     -6.254477    0.979307    1.466643
  H     -5.518184    2.232425    0.452879
  H     -1.859425   -2.061447   -0.709688
  H     -1.156688   -2.568630    0.851261
  H     -4.123217   -2.052176    0.287169
  H     -3.375167   -3.641111    0.485319
  H     -3.456764   -2.528869    1.860546

 Total Charge           Charge          ....    0
 Multiplicity           Mult            ....    1
 Number of Electrons    NEL             ....  202
 Basis Dimension        Dim             ....  539

ORBITAL ENERGIES
----------------

  NO   OCC          E(Eh)            E(eV)
   0   2.0000     -88.572936     -2410.1921
   1   2.0000     -88.570338     -2410.1214
   2   2.0000     -88.522358     -2408.8158
   3   2.0000     -88.521542     -2408.7936
   4   2.0000     -76.915478     -2092.9766
   5   2.0000     -76.914831     -2092.9590
   6   2.0000     -18.997523      -516.9489
   7   2.0000     -18.995370      -516.8903
   8   2.0000     -18.994633      -516.8702
   9   2.0000     -18.989040      -516.7180
  10   2.0000     -10.105973      -274.9975
  11   2.0000     -10.103166      -274.9211
  12   2.0000     -10.102141      -274.8932
  13   2.0000     -10.101393      -274.8729
  14   2.0000     -10.099924      -274.8329
  15   2.0000     -10.035856      -273.0895
  16   2.0000     -10.032706      -273.0038
  17   2.0000     -10.031114      -272.9605
  18   2.0000     -10.030518      -272.9443
  19   2.0000      -7.867442      -214.0840
  20   2.0000      -7.864340      -213.9996
  21   2.0000      -7.817271      -212.7188
  22   2.0000      -7.816274      -212.6916
  23   2.0000      -6.593783      -179.4260
  24   2.0000      -6.593316      -179.4132
  25   2.0000      -5.814188      -158.2121
  26   2.0000      -5.811336      -158.1345
  27   2.0000      -5.811322      -158.1341
  28   2.0000      -5.808315      -158.0523
  29   2.0000      -5.804637      -157.9522
  30   2.0000      -5.801279      -157.8608
  31   2.0000      -5.764860      -156.8698
  32   2.0000      -5.763988      -156.8461
  33   2.0000      -5.757775      -156.6770
  34   2.0000      -5.757084      -156.6582
  35   2.0000      -5.756460      -156.6412
  36   2.0000      -5.756306      -156.6370
  37   2.0000      -4.739588      -128.9707
  38   2.0000      -4.739206      -128.9603
  39   2.0000      -4.738391      -128.9382
  40   2.0000      -4.738167      -128.9321
  41   2.0000      -4.737556      -128.9155
  42   2.0000      -4.736771      -128.8941
  43   2.0000      -1.053467       -28.6663
  44   2.0000      -1.052096       -28.6290
  45   2.0000      -1.012852       -27.5611
  46   2.0000      -1.011757       -27.5313
  47   2.0000      -0.799990       -21.7688
  48   2.0000      -0.761721       -20.7275
  49   2.0000      -0.751966       -20.4620
  50   2.0000      -0.737110       -20.0578
  51   2.0000      -0.736592       -20.0437
  52   2.0000      -0.710884       -19.3441
  53   2.0000      -0.687850       -18.7173
  54   2.0000      -0.668596       -18.1934
  55   2.0000      -0.631630       -17.1875
  56   2.0000      -0.624365       -16.9898
  57   2.0000      -0.614764       -16.7286
  58   2.0000      -0.608856       -16.5678
  59   2.0000      -0.588748       -16.0207
  60   2.0000      -0.531808       -14.4712
  61   2.0000      -0.523642       -14.2490
  62   2.0000      -0.499689       -13.5972
  63   2.0000      -0.496671       -13.5151
  64   2.0000      -0.478395       -13.0178
  65   2.0000      -0.469766       -12.7830
  66   2.0000      -0.457902       -12.4601
  67   2.0000      -0.457108       -12.4385
  68   2.0000      -0.446482       -12.1494
  69   2.0000      -0.436635       -11.8814
  70   2.0000      -0.428353       -11.6561
  71   2.0000      -0.415998       -11.3199
  72   2.0000      -0.411319       -11.1926
  73   2.0000      -0.399834       -10.8800
  74   2.0000      -0.394563       -10.7366
  75   2.0000      -0.389927       -10.6105
  76   2.0000      -0.383797       -10.4437
  77   2.0000      -0.377807       -10.2806
  78   2.0000      -0.372322       -10.1314
  79   2.0000      -0.370603       -10.0846
  80   2.0000      -0.368522       -10.0280
  81   2.0000      -0.361419        -9.8347
  82   2.0000      -0.359777        -9.7900
  83   2.0000      -0.356739        -9.7074
  84   2.0000      -0.352500        -9.5920
  85   2.0000      -0.339096        -9.2273
  86   2.0000      -0.324835        -8.8392
  87   2.0000      -0.317030        -8.6268
  88   2.0000      -0.311953        -8.4887
  89   2.0000      -0.310440        -8.4475
  90   2.0000      -0.309379        -8.4186
  91   2.0000      -0.296581        -8.0704
  92   2.0000      -0.287237        -7.8161
  93   2.0000      -0.281606        -7.6629
  94   2.0000      -0.273361        -7.4385
  95   2.0000      -0.244135        -6.6433
  96   2.0000      -0.230022        -6.2592
  97   2.0000      -0.227090        -6.1794
  98   2.0000      -0.218934        -5.9575
  99   2.0000      -0.215675        -5.8688
 100   2.0000      -0.210581        -5.7302
 101   0.0000      -0.046703        -1.2708
 102   0.0000      -0.023506        -0.6396
 103   0.0000      -0.001986        -0.0540
 104   0.0000       0.000433         0.0118
 105   0.0000       0.013605         0.3702

MULLIKEN ATOMIC CHARGES
-----------------------
   0 C :   -0.442159
   1 C :   -0.168025
   2 O :   -0.292171
   3 P :    0.644328
   4 S :   -0.435281
   5 O :   -0.259924
   6 C :   -0.082018
   7 C :   -0.486928
   8 S :   -0.175465
   9 C :   -0.237338
  10 S :   -0.098002
  11 P :    0.671302
  12 S :   -0.479663
  13 O :   -0.305058
  14 C :   -0.164083
  15 C :   -0.422496
  16 O :   -0.277905
  17 C :   -0.097888
  18 C :   -0.493223
  19 H :    0.152622
  20 H :    0.180702
  21 H :    0.148514
  22 H :    0.175103
  23 H :    0.147679
  24 H :    0.171513
  25 H :    0.142888
  26 H :    0.144198
  27 H :    0.164650
  28 H :    0.160303
  29 H :    0.212741
  30 H :    0.219819
  31 H :    0.156303
  32 H :    0.152612
  33 H :    0.166886
  34 H :    0.145319
  35 H :    0.158823
  36 H :    0.178165
  37 H :    0.146520
  38 H :    0.173820
  39 H :    0.149489
  40 H :    0.153329
Sum of atomic charges:   -0.0000000

LOEWDIN ATOMIC CHARGES
----------------------
   0 C :   -0.408548
   1 C :    0.022685
   2 O :   -0.672873
   3 P :    0.382249
   4 S :   -0.095441
   5 O :   -0.652476
   6 C :    0.018842
   7 C :   -0.391059
   8 S :    0.133538
   9 C :   -0.424888
  10 S :    0.198047
  11 P :    0.385266
  12 S :   -0.134764
  13 O :   -0.664315
  14 C :    0.030535
  15 C :   -0.401353
  16 O :   -0.680686
  17 C :    0.000112
  18 C :   -0.401347
  19 H :    0.159751
  20 H :    0.167054
  21 H :    0.159744
  22 H :    0.180959
  23 H :    0.179145
  24 H :    0.185937
  25 H :    0.172939
  26 H :    0.157909
  27 H :    0.164342
  28 H :    0.163062
  29 H :    0.191859
  30 H :    0.191651
  31 H :    0.173979
  32 H :    0.181823
  33 H :    0.165703
  34 H :    0.157948
  35 H :    0.163528
  36 H :    0.183544
  37 H :    0.174715
  38 H :    0.163685
  39 H :    0.161526
  40 H :    0.155673

  Mayer bond orders larger than 0.100000
B(  0-C ,  1-C ) :   0.9186 B(  0-C , 19-H ) :   0.9672 B(  0-C , 20-H ) :   0.9631
B(  0-C , 21-H ) :   0.9560 B(  1-C ,  2-O ) :   0.8186 B(  1-C , 22-H ) :   0.9680
B(  1-C , 23-H ) :   0.9613 B(  2-O ,  3-P ) :   1.0335 B(  3-P ,  4-S ) :   1.8459
B(  3-P ,  5-O ) :   1.1405 B(  3-P ,  8-S ) :   1.0086 B(  5-O ,  6-C ) :   0.7312
B(  6-C ,  7-C ) :   0.9432 B(  6-C , 24-H ) :   0.9520 B(  6-C , 25-H ) :   0.9675
B(  7-C , 26-H ) :   0.9659 B(  7-C , 27-H ) :   0.9715 B(  7-C , 28-H ) :   0.9728
B(  8-S ,  9-C ) :   0.8996 B(  9-C , 10-S ) :   0.9088 B(  9-C , 29-H ) :   0.9036
B(  9-C , 30-H ) :   0.9068 B( 10-S , 11-P ) :   1.1129 B( 11-P , 12-S ) :   1.7568
B( 11-P , 13-O ) :   1.1589 B( 11-P , 16-O ) :   1.0358 B( 13-O , 14-C ) :   0.7900
B( 14-C , 15-C ) :   0.9457 B( 14-C , 31-H ) :   0.9682 B( 14-C , 32-H ) :   0.9601
B( 15-C , 33-H ) :   0.9539 B( 15-C , 34-H ) :   0.9662 B( 15-C , 35-H ) :   0.9690
B( 16-O , 17-C ) :   0.7492 B( 17-C , 18-C ) :   0.9225 B( 17-C , 36-H ) :   0.9519
B( 17-C , 37-H ) :   0.9606 B( 18-C , 38-H ) :   0.9691 B( 18-C , 39-H ) :   0.9612
B( 18-C , 40-H ) :   0.9788

Dispersion correction           -0.021652571
FINAL SINGLE POINT ENERGY     -2932.461486591948

DIPOLE MOMENT
-------------

Method             : SCF
Type of density    : Electron Density
Multiplicity       :   1
Irrep              :   0
Energy             : -2932.4863740020746263 Eh
Relativity type    :
Basis              : AO
                                X                 Y                 Z
Electronic contribution:      7.483099748      18.310789432      -9.282614317
Nuclear contribution   :     -7.875531431     -20.274106152      10.386787266
                        -----------------------------------------
Total Dipole Moment    :     -0.392431682      -1.963316720       1.104172949
                        -----------------------------------------
Magnitude (a.u.)       :      2.286441137
Magnitude (Debye)      :      5.811671508

Rotational constants in cm-1:             0.013475             0.004660             0.004466
Rotational constants in MHz :           403.977542           139.700165           133.896328

                             ****ORCA TERMINATED NORMALLY****
TOTAL RUN TIME: 0 days 0 hours 1 minutes 23 seconds 936 msec
