                         Program Version 6.0.0  -   RELEASE  -
|  1> ! r2scan-3c def2/J RI DEFGRID2 scfconv6 printgap
|  2> %output
|  3>     printlevel normal
|  4> end
|  5> %cpcm
|  6>     smd true
|  7>     smdsolvent "water"
|  8> end
|  9> * xyz 0 1
| 10> C 3.9650050896 -1.873461077 -2.1649484053
| 11> C 4.4865850176 -1.5597678331 -0.7780511543
| 12> O 3.4285895516 -1.2719319935 0.1555662216
| 13> P 2.4886375499 0.0018218823 0.0197126554
| 14> S 3.3535561544 1.6582181675 -0.5480491187
| 15> O 1.8648139074 0.1165936269 1.463306334
| 16> C 1.3007616138 -1.0165046788 2.1682143695
| 17> C 2.2573078609 -1.4967931001 3.2397299895
| 18> S 0.8851331331 -0.6887586617 -1.2197333951
| 19> C 0.2382828711 0.951161108 -1.6140583884
| 20> S -0.4699789001 1.7892729693 -0.1675729681
| 21> P -2.2139928486 0.6017767443 -0.05854501
| 22> S -3.0478886603 0.1624841342 -1.7803978783
| 23> O -2.9657953123 1.5572628074 0.9569550872
| 24> C -4.1383520695 1.1577105314 1.7001943681
| 25> C -5.3941747999 1.2299992789 0.8540729008
| 26> O -1.8494908672 -0.6704241214 0.8323520771
| 27> C -1.9790326121 -2.0321135903 0.377152416
| 28> C -3.324301492 -2.5992333881 0.7842824295
| 29> H 3.2048276147 -2.6492211332 -2.1194611217
| 30> H 3.5295374072 -0.9804079755 -2.6105080877
| 31> H 4.7875651813 -2.2096419485 -2.7879629343
| 32> H 5.1618970905 -0.6994971381 -0.8067407506
| 33> H 4.9947756315 -2.4179113385 -0.3359890036
| 34> H 0.3677150534 -0.6443457129 2.5975419223
| 35> H 1.0871305976 -1.809526491 1.4462095682
| 36> H 1.7910029264 -2.3013920188 3.799609965
| 37> H 3.1759398454 -1.858739626 2.7855428954
| 38> H 2.4980696189 -0.6805098463 3.9150856067
| 39> H -0.5317533715 0.8179389762 -2.375087393
| 40> H 1.0509395448 1.5818416141 -1.9742642103
| 41> H -3.9818050206 0.1487265248 2.0902575172
| 42> H -4.1759653488 1.8697032276 2.5267166872
| 43> H -5.3342440528 0.5324918479 0.0207929272
| 44> H -6.2544773423 0.9793065103 1.4666426021
| 45> H -5.5181842437 2.2324246579 0.4528786425
| 46> H -1.8594249263 -2.0614471276 -0.7096883972
| 47> H -1.1566884738 -2.5686304193 0.8512609804
| 48> H -4.1232165411 -2.0521759035 0.287169071
| 49> H -3.3751669291 -3.6411114949 0.4853185182
| 50> H -3.4567636614 -2.5288690109 1.8605459822
| 51> *
| 52>
| 53>                          ****END OF INPUT****

CARTESIAN COORDINATES (ANGSTROEM)
---------------------------------
  C      3.965005   -1.873461   -2.164948
  C      4.486585   -1.559768   -0.778051
  O      3.428590   -1.271932    0.155566
  P      2.488638    0.001822    0.019713
  S      3.353556    1.658218   -0.548049
  O      1.864814    0.116594    1.463306
  C      1.300762   -1.016505    2.168214
  C      2.257308   -1.496793    3.239730
  S      0.885133   -0.688759   -1.219733
  C      0.238283    0.951161   -1.614058
  S     -0.469979    1.789273   -0.167573
  P     -2.213993    0.601777   -0.058545
  S     -3.047889    0.162484   -1.780398
  O     -2.965795    1.557263    0.956955
  C     -4.138352    1.157711    1.700194
  C     -5.394175    1.229999    0.854073
  O     -1.849491   -0.670424    0.832352
  C     -1.979033   -2.032114    0.377152
  C     -3.324301   -2.599233    0.784282
  H      3.204828   -2.649221   -2.119461
  H      3.529537   -0.980408   -2.610508
  H      4.787565   -2.209642   -2.787963
  H      5.161897   -0.699497   -0.806741
  H      4.994776   -2.417911   -0.335989
  H      0.367715   -0.644346    2.597542
  H      1.087131   -1.809526    1.446210
  H      1.791003   -2.301392    3.799610
  H      3.175940   -1.858740    2.785543
  H      2.498070   -0.680510    3.915086
  H     -0.531753    0.817939   -2.375087
  H      1.050940    1.581842   -1.974264
  H     -3.981805    0.148727    2.090258
  H     -4.175965    1.869703    2.526717
  H     -5.334244    0.532492    0.020793
  H     -6.254477    0.979307    1.466643
  H     -5.518184    2.232425    0.452879
  H     -1.859425   -2.061447   -0.709688
  H     -1.156688   -2.568630    0.851261
  H     -4.123217   -2.052176    0.287169
  H     -3.375167   -3.641111    0.485319
  H     -3.456764   -2.528869    1.860546

 Total Charge           Charge          ....    0
 Multiplicity           Mult            ....    1
 Number of Electrons    NEL             ....  202
 Basis Dimension        Dim             ....  539

ORBITAL ENERGIES
----------------

  NO   OCC          E(Eh)            E(eV)
   0   2.0000     -88.578039     -2410.3310
   1   2.0000     -88.576055     -2410.2770
   2   2.0000     -88.531792     -2409.0725
   3   2.0000     -88.528749     -2408.9897
   4   2.0000     -76.920728     -2093.1194
   5   2.0000     -76.919876     -2093.0962
   6   2.0000     -18.997237      -516.9411
   7   2.0000     -18.995799      -516.9020
   8   2.0000     -18.993827      -516.8483
   9   2.0000     -18.993273      -516.8332
  10   2.0000     -10.102302      -274.8976
  11   2.0000     -10.091908      -274.6148
  12   2.0000     -10.091632      -274.6073
  13   2.0000     -10.091343      -274.5994
  14   2.0000     -10.087460      -274.4937
  15   2.0000     -10.018862      -272.6271
  16   2.0000     -10.018778      -272.6248
  17   2.0000     -10.017552      -272.5914
  18   2.0000     -10.017238      -272.5829
  19   2.0000      -7.872230      -214.2143
  20   2.0000      -7.870499      -214.1672
  21   2.0000      -7.826899      -212.9808
  22   2.0000      -7.823946      -212.9004
  23   2.0000      -6.599249      -179.5747
  24   2.0000      -6.598167      -179.5452
  25   2.0000      -5.819092      -158.3456
  26   2.0000      -5.817285      -158.2964
  27   2.0000      -5.816131      -158.2650
  28   2.0000      -5.814435      -158.2188
  29   2.0000      -5.809359      -158.0807
  30   2.0000      -5.807614      -158.0332
  31   2.0000      -5.774488      -157.1318
  32   2.0000      -5.771485      -157.0501
  33   2.0000      -5.767068      -156.9299
  34   2.0000      -5.767001      -156.9281
  35   2.0000      -5.764363      -156.8563
  36   2.0000      -5.763842      -156.8421
  37   2.0000      -4.745068      -129.1199
  38   2.0000      -4.744063      -129.0925
  39   2.0000      -4.743865      -129.0871
  40   2.0000      -4.742851      -129.0595
  41   2.0000      -4.742803      -129.0582
  42   2.0000      -4.742057      -129.0379
  43   2.0000      -1.054860       -28.7042
  44   2.0000      -1.051437       -28.6111
  45   2.0000      -1.013011       -27.5654
  46   2.0000      -1.011110       -27.5137
  47   2.0000      -0.803839       -21.8736
  48   2.0000      -0.757063       -20.6007
  49   2.0000      -0.744465       -20.2579
  50   2.0000      -0.726667       -19.7736
  51   2.0000      -0.723095       -19.6764
  52   2.0000      -0.709093       -19.2954
  53   2.0000      -0.690582       -18.7917
  54   2.0000      -0.675138       -18.3714
  55   2.0000      -0.629041       -17.1171
  56   2.0000      -0.618192       -16.8219
  57   2.0000      -0.604284       -16.4434
  58   2.0000      -0.601352       -16.3636
  59   2.0000      -0.587489       -15.9864
  60   2.0000      -0.526063       -14.3149
  61   2.0000      -0.517459       -14.0808
  62   2.0000      -0.491860       -13.3842
  63   2.0000      -0.491476       -13.3737
  64   2.0000      -0.477389       -12.9904
  65   2.0000      -0.464239       -12.6326
  66   2.0000      -0.452611       -12.3162
  67   2.0000      -0.448072       -12.1927
  68   2.0000      -0.438103       -11.9214
  69   2.0000      -0.433302       -11.7908
  70   2.0000      -0.423935       -11.5359
  71   2.0000      -0.408562       -11.1175
  72   2.0000      -0.403481       -10.9793
  73   2.0000      -0.397160       -10.8073
  74   2.0000      -0.390967       -10.6387
  75   2.0000      -0.389738       -10.6053
  76   2.0000      -0.380495       -10.3538
  77   2.0000      -0.371063       -10.0971
  78   2.0000      -0.363934        -9.9031
  79   2.0000      -0.361128        -9.8268
  80   2.0000      -0.356771        -9.7082
  81   2.0000      -0.352501        -9.5920
  82   2.0000      -0.350265        -9.5312
  83   2.0000      -0.347480        -9.4554
  84   2.0000      -0.345514        -9.4019
  85   2.0000      -0.335088        -9.1182
  86   2.0000      -0.321867        -8.7584
  87   2.0000      -0.310423        -8.4470
  88   2.0000      -0.305634        -8.3167
  89   2.0000      -0.304804        -8.2941
  90   2.0000      -0.300546        -8.1783
  91   2.0000      -0.292169        -7.9503
  92   2.0000      -0.286653        -7.8002
  93   2.0000      -0.279905        -7.6166
  94   2.0000      -0.274976        -7.4825
  95   2.0000      -0.249125        -6.7790
  96   2.0000      -0.238600        -6.4926
  97   2.0000      -0.235811        -6.4167
  98   2.0000      -0.226955        -6.1758
  99   2.0000      -0.224731        -6.1152
 100   2.0000      -0.218243        -5.9387
 101   0.0000      -0.052925        -1.4402
 102   0.0000      -0.030772        -0.8374
 103   0.0000      -0.006913        -0.1881
 104   0.0000      -0.002975        -0.0809
 105   0.0000       0.012851         0.3497

MULLIKEN ATOMIC CHARGES
-----------------------
   0 C :   -0.480492
   1 C :   -0.160357
   2 O :   -0.307816
   3 P :    0.660953
   4 S :   -0.494338
   5 O :   -0.293861
   6 C :   -0.074839
   7 C :   -0.530621
   8 S :   -0.163927
   9 C :   -0.245646
  10 S :   -0.142609
  11 P :    0.698391
  12 S :   -0.519715
  13 O :   -0.339383
  14 C :   -0.145194
  15 C :   -0.476690
  16 O :   -0.293749
  17 C :   -0.096092
  18 C :   -0.516120
  19 H :    0.168670
  20 H :    0.174144
  21 H :    0.173033
  22 H :    0.179726
  23 H :    0.176507
  24 H :    0.181718
  25 H :    0.170884
  26 H :    0.171448
  27 H :    0.169906
  28 H :    0.168375
  29 H :    0.231366
  30 H :    0.235820
  31 H :    0.177974
  32 H :    0.175506
  33 H :    0.165861
  34 H :    0.170657
  35 H :    0.168243
  36 H :    0.171775
  37 H :    0.180584
  38 H :    0.170471
  39 H :    0.169887
  40 H :    0.169554
Sum of atomic charges:   -0.0000000

LOEWDIN ATOMIC CHARGES
----------------------
   0 C :   -0.411197
   1 C :    0.029015
   2 O :   -0.674725
   3 P :    0.385051
   4 S :   -0.139699
   5 O :   -0.677057
   6 C :    0.025397
   7 C :   -0.393482
   8 S :    0.146134
   9 C :   -0.421094
  10 S :    0.167316
  11 P :    0.387476
  12 S :   -0.161195
  13 O :   -0.681692
  14 C :    0.038123
  15 C :   -0.405901
  16 O :   -0.682676
  17 C :    0.006979
  18 C :   -0.402126
  19 H :    0.163840
  20 H :    0.161862
  21 H :    0.168678
  22 H :    0.181949
  23 H :    0.191666
  24 H :    0.190782
  25 H :    0.183592
  26 H :    0.169154
  27 H :    0.164574
  28 H :    0.164200
  29 H :    0.196921
  30 H :    0.196100
  31 H :    0.184141
  32 H :    0.191473
  33 H :    0.162386
  34 H :    0.168258
  35 H :    0.163113
  36 H :    0.181651
  37 H :    0.187809
  38 H :    0.162080
  39 H :    0.168245
  40 H :    0.162879

  Mayer bond orders larger than 0.100000
B(  0-C ,  1-C ) :   0.9056 B(  0-C , 19-H ) :   0.9644 B(  0-C , 20-H ) :   0.9652
B(  0-C , 21-H ) :   0.9508 B(  1-C ,  2-O ) :   0.8061 B(  1-C , 22-H ) :   0.9671
B(  1-C , 23-H ) :   0.9502 B(  2-O ,  3-P ) :   1.0490 B(  3-P ,  4-S ) :   1.8173
B(  3-P ,  5-O ) :   1.1469 B(  3-P ,  8-S ) :   1.0191 B(  5-O ,  6-C ) :   0.7180
B(  6-C ,  7-C ) :   0.9380 B(  6-C , 24-H ) :   0.9442 B(  6-C , 25-H ) :   0.9540
B(  7-C , 26-H ) :   0.9586 B(  7-C , 27-H ) :   0.9702 B(  7-C , 28-H ) :   0.9715
B(  8-S ,  9-C ) :   0.8938 B(  9-C , 10-S ) :   0.8950 B(  9-C , 29-H ) :   0.9012
B(  9-C , 30-H ) :   0.9017 B( 10-S , 11-P ) :   1.1119 B( 11-P , 12-S ) :   1.7342
B( 11-P , 13-O ) :   1.1680 B( 11-P , 16-O ) :   1.0511 B( 13-O , 14-C ) :   0.7831
B( 14-C , 15-C ) :   0.9271 B( 14-C , 31-H ) :   0.9582 B( 14-C , 32-H ) :   0.9523
B( 15-C , 33-H ) :   0.9586 B( 15-C , 34-H ) :   0.9595 B( 15-C , 35-H ) :   0.9708
B( 16-O , 17-C ) :   0.7334 B( 17-C , 18-C ) :   0.9276 B( 17-C , 36-H ) :   0.9501
B( 17-C , 37-H ) :   0.9499 B( 18-C , 38-H ) :   0.9681 B( 18-C , 39-H ) :   0.9581
B( 18-C , 40-H ) :   0.9721

Dispersion correction           -0.021652571
FINAL SINGLE POINT ENERGY     -2932.472406265143

DIPOLE MOMENT
-------------

Method             : SCF
Type of density    : Electron Density
Multiplicity       :   1
Irrep              :   0
Energy             : -2932.4972936752697024 Eh
Relativity type    :
Basis              : AO
                                X                 Y                 Z
Electronic contribution:      7.301564771      17.256524119      -8.961510384
Nuclear contribution   :     -7.875531431     -20.274106152      10.386787266
                        -----------------------------------------
Total Dipole Moment    :     -0.573966660      -3.017582033       1.425276882
                        -----------------------------------------
Magnitude (a.u.)       :      3.386244711
Magnitude (Debye)      :      8.607150034

Rotational constants in cm-1:             0.013475             0.004660             0.004466
Rotational constants in MHz :           403.977542           139.700165           133.896328

                             ****ORCA TERMINATED NORMALLY****
TOTAL RUN TIME: 0 days 0 hours 1 minutes 49 seconds 252 msec
