                         Program Version 6.0.0  -   RELEASE  -
|  1> ! pbe def2-sv(p) def2/J RI DEFGRID1 loosescf d4 GCP(DFT/SV(P)) printgap
|  2> %output
|  3>     printlevel normal
|  4> end
|  5> * xyz 0 1
|  6> C 0.6145735014 1.7001441318 -0.0497534606
|  7> C 1.4023256005 0.4020870119 -0.2878031187
|  8> H 1.5857133784 0.2780024464 -1.3669911084
|  9> C 0.5561380698 -0.7886342167 0.2010461373
| 10> H 0.4075542769 -0.6915927838 1.2819031965
| 11> C -0.8076310154 -0.7458794789 -0.5150929972
| 12> H -0.6535589632 -0.8548236752 -1.594742415
| 13> C -1.4769305196 0.620326502 -0.2586546334
| 14> H -2.3795935233 0.7029602949 -0.8806261714
| 15> O -0.6550495599 1.6780329814 -0.684414581
| 16> O -1.7837417452 0.6932700532 1.0975264567
| 17> O -1.6511115543 -1.7991007319 -0.1443152892
| 18> O 1.2012173488 -2.0218162611 0.0355597189
| 19> O 2.6127541572 0.4028127614 0.4273416572
| 20> H 1.1284121274 2.5600561156 -0.4801466804
| 21> H 0.4989644768 1.8408755305 1.0318040061
| 22> H -2.3463637741 1.4615547043 1.2769252636
| 23> H -1.8547687907 -1.7200469011 0.8002264795
| 24> H 1.3487506597 -2.1953514206 -0.9053111392
| 25> H 3.2073003118 1.0775334516 0.0694035798
| 26> *
| 27>
| 28>                          ****END OF INPUT****

CARTESIAN COORDINATES (ANGSTROEM)
---------------------------------
  C      0.614574    1.700144   -0.049753
  C      1.402326    0.402087   -0.287803
  H      1.585713    0.278002   -1.366991
  C      0.556138   -0.788634    0.201046
  H      0.407554   -0.691593    1.281903
  C     -0.807631   -0.745879   -0.515093
  H     -0.653559   -0.854824   -1.594742
  C     -1.476931    0.620327   -0.258655
  H     -2.379594    0.702960   -0.880626
  O     -0.655050    1.678033   -0.684415
  O     -1.783742    0.693270    1.097526
  O     -1.651112   -1.799101   -0.144315
  O      1.201217   -2.021816    0.035560
  O      2.612754    0.402813    0.427342
  H      1.128412    2.560056   -0.480147
  H      0.498964    1.840876    1.031804
  H     -2.346364    1.461555    1.276925
  H     -1.854769   -1.720047    0.800226
  H      1.348751   -2.195351   -0.905311
  H      3.207300    1.077533    0.069404

 Total Charge           Charge          ....    0
 Multiplicity           Mult            ....    1
 Number of Electrons    NEL             ....   80
 Basis Dimension        Dim             ....  160

ORBITAL ENERGIES
----------------

  NO   OCC          E(Eh)            E(eV)
   0   2.0000     -18.776099      -510.9236
   1   2.0000     -18.770109      -510.7606
   2   2.0000     -18.753372      -510.3052
   3   2.0000     -18.743770      -510.0439
   4   2.0000     -18.740075      -509.9434
   5   2.0000      -9.986284      -271.7406
   6   2.0000      -9.942638      -270.5529
   7   2.0000      -9.939466      -270.4666
   8   2.0000      -9.935514      -270.3591
   9   2.0000      -9.934848      -270.3410
  10   2.0000      -0.986290       -26.8383
  11   2.0000      -0.937661       -25.5150
  12   2.0000      -0.929021       -25.2800
  13   2.0000      -0.916772       -24.9466
  14   2.0000      -0.908021       -24.7085
  15   2.0000      -0.697526       -18.9806
  16   2.0000      -0.678933       -18.4747
  17   2.0000      -0.585166       -15.9232
  18   2.0000      -0.574153       -15.6235
  19   2.0000      -0.546470       -14.8702
  20   2.0000      -0.497969       -13.5504
  21   2.0000      -0.484342       -13.1796
  22   2.0000      -0.470919       -12.8143
  23   2.0000      -0.447878       -12.1874
  24   2.0000      -0.419451       -11.4138
  25   2.0000      -0.411373       -11.1940
  26   2.0000      -0.408139       -11.1060
  27   2.0000      -0.372158       -10.1269
  28   2.0000      -0.365651        -9.9499
  29   2.0000      -0.344269        -9.3680
  30   2.0000      -0.338576        -9.2131
  31   2.0000      -0.307201        -8.3594
  32   2.0000      -0.302353        -8.2274
  33   2.0000      -0.275555        -7.4982
  34   2.0000      -0.264820        -7.2061
  35   2.0000      -0.260913        -7.0998
  36   2.0000      -0.247424        -6.7328
  37   2.0000      -0.226408        -6.1609
  38   2.0000      -0.212362        -5.7787
  39   2.0000      -0.198846        -5.4109
  40   0.0000       0.012786         0.3479
  41   0.0000       0.019154         0.5212
  42   0.0000       0.038473         1.0469
  43   0.0000       0.045819         1.2468
  44   0.0000       0.072887         1.9833

MULLIKEN ATOMIC CHARGES
-----------------------
   0 C :    0.072438
   1 C :   -0.016755
   2 H :    0.041665
   3 C :    0.069393
   4 H :    0.069666
   5 C :    0.064133
   6 H :    0.059812
   7 C :    0.142874
   8 H :    0.069929
   9 O :   -0.312868
  10 O :   -0.407883
  11 O :   -0.413486
  12 O :   -0.397670
  13 O :   -0.398013
  14 H :    0.082347
  15 H :    0.068983
  16 H :    0.312931
  17 H :    0.301053
  18 H :    0.291817
  19 H :    0.299633
Sum of atomic charges:    0.0000000

LOEWDIN ATOMIC CHARGES
----------------------
   0 C :   -0.133281
   1 C :   -0.088832
   2 H :    0.092759
   3 C :   -0.075782
   4 H :    0.120255
   5 C :   -0.089358
   6 H :    0.113450
   7 C :   -0.013127
   8 H :    0.099944
   9 O :   -0.159434
  10 O :   -0.307555
  11 O :   -0.308147
  12 O :   -0.303061
  13 O :   -0.312002
  14 H :    0.110708
  15 H :    0.105016
  16 H :    0.295053
  17 H :    0.284173
  18 H :    0.282409
  19 H :    0.286813

  Mayer bond orders larger than 0.100000
B(  0-C ,  1-C ) :   1.0449 B(  0-C ,  9-O ) :   0.9990 B(  0-C , 14-H ) :   0.9257
B(  0-C , 15-H ) :   0.8896 B(  1-C ,  2-H ) :   0.8755 B(  1-C ,  3-C ) :   0.9951
B(  1-C , 13-O ) :   1.0902 B(  3-C ,  4-H ) :   0.8751 B(  3-C ,  5-C ) :   0.9725
B(  3-C , 12-O ) :   1.0844 B(  5-C ,  6-H ) :   0.8768 B(  5-C ,  7-C ) :   0.9789
B(  5-C , 11-O ) :   1.0690 B(  7-C ,  8-H ) :   0.9027 B(  7-C ,  9-O ) :   1.0574
B(  7-C , 10-O ) :   1.0884 B( 10-O , 16-H ) :   0.8388 B( 11-O , 17-H ) :   0.8426
B( 12-O , 18-H ) :   0.8516 B( 13-O , 19-H ) :   0.8496

Dispersion correction           -0.019138848
FINAL SINGLE POINT ENERGY      -571.413300674173

DIPOLE MOMENT
-------------

Method             : SCF
Type of density    : Electron Density
Multiplicity       :   1
Irrep              :   0
Energy             :  -571.5207017395750881 Eh
Relativity type    :
Basis              : AO
                                X                 Y                 Z
Electronic contribution:     -0.978421714      -1.143792852       0.373774358
Nuclear contribution   :      0.880053287       2.291609883      -0.709257421
                        -----------------------------------------
Total Dipole Moment    :     -0.098368427       1.147817031      -0.335483063
                        -----------------------------------------
Magnitude (a.u.)       :      1.199878815
Magnitude (Debye)      :      3.049849571

Rotational constants in cm-1:             0.056615             0.044589             0.028959
Rotational constants in MHz :          1697.287108          1336.739725           868.163143

                             ****ORCA TERMINATED NORMALLY****
TOTAL RUN TIME: 0 days 0 hours 0 minutes 11 seconds 187 msec
