                         Program Version 6.0.0  -   RELEASE  -
|  1> ! pbe def2-sv(p) def2/J RI DEFGRID1 loosescf d4 GCP(DFT/SV(P)) printgap
|  2> %output
|  3>     printlevel normal
|  4> end
|  5> * xyz 0 1
|  6> C 5.1521066174 -1.5114204854 -1.5587541318
|  7> C 3.7037830519 -1.7099966991 -1.9617496797
|  8> O 2.8463502467 -1.7278573704 -0.8018226516
|  9> P 2.0937117084 -0.4300927542 -0.2712609645
| 10> S 3.2048309966 1.1585803003 0.0413851135
| 11> O 1.3545080609 -1.0249333622 0.9897467741
| 12> C 1.8548326692 -0.9277651044 2.3423544233
| 13> C 0.8100152696 -0.2718062162 3.2233560512
| 14> S 0.5227683835 -0.2175300782 -1.6677891097
| 15> C 0.0712373022 1.4832432678 -1.2321605408
| 16> S -0.5400175276 1.6236030737 0.4628460426
| 17> P -2.2602676072 0.4059046092 0.2080618306
| 18> S -3.1570859632 0.5571866219 -1.5343899066
| 19> O -3.1027374182 0.7232635492 1.5125419667
| 20> C -3.4180460292 2.0390838389 2.0045874905
| 21> C -4.1167844427 2.9001248163 0.9724056222
| 22> O -1.8220818194 -1.0679523904 0.5901784472
| 23> C -2.0676883064 -2.2266096778 -0.2348463371
| 24> C -0.9715716586 -3.2433131515 0.0081813721
| 25> H 5.283430531 -0.5383955986 -1.0905335994
| 26> H 5.4523298904 -2.2826121131 -0.8549885273
| 27> H 5.7796139664 -1.5662613599 -2.4424199797
| 28> H 3.5509428413 -2.6833704423 -2.4314372239
| 29> H 3.37335186 -0.92124662 -2.6435007682
| 30> H 2.0589320282 -1.9522127055 2.6592105031
| 31> H 2.7857961271 -0.3519120857 2.3398572794
| 32> H 1.1166304148 -0.3532835511 4.2611022828
| 33> H 0.7017241157 0.7786294691 2.963750178
| 34> H -0.149976331 -0.764712891 3.0892746479
| 35> H -0.7081291136 1.7837240562 -1.9324146709
| 36> H 0.9475666898 2.1270518277 -1.3027903971
| 37> H -4.0630706551 1.8420895318 2.8627532459
| 38> H -2.4905584997 2.5118466511 2.3397048932
| 39> H -4.9975316914 2.3912603108 0.5877680903
| 40> H -4.4142971248 3.8389085574 1.4283716612
| 41> H -3.4473471013 3.1073353758 0.138741608
| 42> H -3.0441663238 -2.6258024636 0.0503551604
| 43> H -2.1039243854 -1.9185241126 -1.2852884626
| 44> H -1.180831503 -4.1318473676 -0.5785813094
| 45> H -0.005138179 -2.8413159162 -0.2859811369
| 46> H -0.9347866711 -3.5052164746 1.0615605207
| 47> *
| 48>
| 49>                          ****END OF INPUT****

CARTESIAN COORDINATES (ANGSTROEM)
---------------------------------
  C      5.152107   -1.511420   -1.558754
  C      3.703783   -1.709997   -1.961750
  O      2.846350   -1.727857   -0.801823
  P      2.093712   -0.430093   -0.271261
  S      3.204831    1.158580    0.041385
  O      1.354508   -1.024933    0.989747
  C      1.854833   -0.927765    2.342354
  C      0.810015   -0.271806    3.223356
  S      0.522768   -0.217530   -1.667789
  C      0.071237    1.483243   -1.232161
  S     -0.540018    1.623603    0.462846
  P     -2.260268    0.405905    0.208062
  S     -3.157086    0.557187   -1.534390
  O     -3.102737    0.723264    1.512542
  C     -3.418046    2.039084    2.004587
  C     -4.116784    2.900125    0.972406
  O     -1.822082   -1.067952    0.590178
  C     -2.067688   -2.226610   -0.234846
  C     -0.971572   -3.243313    0.008181
  H      5.283431   -0.538396   -1.090534
  H      5.452330   -2.282612   -0.854989
  H      5.779614   -1.566261   -2.442420
  H      3.550943   -2.683370   -2.431437
  H      3.373352   -0.921247   -2.643501
  H      2.058932   -1.952213    2.659211
  H      2.785796   -0.351912    2.339857
  H      1.116630   -0.353284    4.261102
  H      0.701724    0.778629    2.963750
  H     -0.149976   -0.764713    3.089275
  H     -0.708129    1.783724   -1.932415
  H      0.947567    2.127052   -1.302790
  H     -4.063071    1.842090    2.862753
  H     -2.490558    2.511847    2.339705
  H     -4.997532    2.391260    0.587768
  H     -4.414297    3.838909    1.428372
  H     -3.447347    3.107335    0.138742
  H     -3.044166   -2.625802    0.050355
  H     -2.103924   -1.918524   -1.285288
  H     -1.180832   -4.131847   -0.578581
  H     -0.005138   -2.841316   -0.285981
  H     -0.934787   -3.505216    1.061561

 Total Charge           Charge          ....    0
 Multiplicity           Mult            ....    1
 Number of Electrons    NEL             ....  202
 Basis Dimension        Dim             ....  334

ORBITAL ENERGIES
----------------

  NO   OCC          E(Eh)            E(eV)
   0   2.0000     -88.047298     -2395.8888
   1   2.0000     -88.044880     -2395.8230
   2   2.0000     -87.991201     -2394.3623
   3   2.0000     -87.985875     -2394.2174
   4   2.0000     -76.429845     -2079.7618
   5   2.0000     -76.426895     -2079.6815
   6   2.0000     -18.796047      -511.4665
   7   2.0000     -18.793100      -511.3862
   8   2.0000     -18.790578      -511.3176
   9   2.0000     -18.785137      -511.1696
  10   2.0000      -9.957979      -270.9704
  11   2.0000      -9.956760      -270.9372
  12   2.0000      -9.956477      -270.9295
  13   2.0000      -9.951380      -270.7908
  14   2.0000      -9.944039      -270.5911
  15   2.0000      -9.883001      -268.9301
  16   2.0000      -9.882869      -268.9266
  17   2.0000      -9.879708      -268.8405
  18   2.0000      -9.876952      -268.7655
  19   2.0000      -7.692156      -209.3142
  20   2.0000      -7.689559      -209.2435
  21   2.0000      -7.636126      -207.7896
  22   2.0000      -7.630872      -207.6466
  23   2.0000      -6.427138      -174.8913
  24   2.0000      -6.423888      -174.8029
  25   2.0000      -5.719970      -155.6483
  26   2.0000      -5.717343      -155.5768
  27   2.0000      -5.716666      -155.5584
  28   2.0000      -5.714061      -155.4875
  29   2.0000      -5.709209      -155.3555
  30   2.0000      -5.706650      -155.2858
  31   2.0000      -5.664931      -154.1506
  32   2.0000      -5.659737      -154.0093
  33   2.0000      -5.656789      -153.9290
  34   2.0000      -5.656372      -153.9177
  35   2.0000      -5.651490      -153.7849
  36   2.0000      -5.651097      -153.7742
  37   2.0000      -4.649609      -126.5223
  38   2.0000      -4.648966      -126.5048
  39   2.0000      -4.647666      -126.4694
  40   2.0000      -4.646240      -126.4306
  41   2.0000      -4.645880      -126.4208
  42   2.0000      -4.644393      -126.3804
  43   2.0000      -0.988375       -26.8951
  44   2.0000      -0.985021       -26.8038
  45   2.0000      -0.946328       -25.7509
  46   2.0000      -0.941218       -25.6119
  47   2.0000      -0.768676       -20.9167
  48   2.0000      -0.722948       -19.6724
  49   2.0000      -0.710387       -19.3306
  50   2.0000      -0.686282       -18.6747
  51   2.0000      -0.683677       -18.6038
  52   2.0000      -0.674113       -18.3436
  53   2.0000      -0.650709       -17.7067
  54   2.0000      -0.640786       -17.4367
  55   2.0000      -0.599098       -16.3023
  56   2.0000      -0.591840       -16.1048
  57   2.0000      -0.575444       -15.6586
  58   2.0000      -0.566536       -15.4162
  59   2.0000      -0.557348       -15.1662
  60   2.0000      -0.507298       -13.8043
  61   2.0000      -0.498926       -13.5765
  62   2.0000      -0.479729       -13.0541
  63   2.0000      -0.470288       -12.7972
  64   2.0000      -0.460430       -12.5289
  65   2.0000      -0.442371       -12.0375
  66   2.0000      -0.438426       -11.9302
  67   2.0000      -0.430589       -11.7169
  68   2.0000      -0.424349       -11.5471
  69   2.0000      -0.416641       -11.3374
  70   2.0000      -0.409576       -11.1451
  71   2.0000      -0.401620       -10.9286
  72   2.0000      -0.395304       -10.7568
  73   2.0000      -0.385922       -10.5015
  74   2.0000      -0.382675       -10.4131
  75   2.0000      -0.376568       -10.2469
  76   2.0000      -0.363888        -9.9019
  77   2.0000      -0.352706        -9.5976
  78   2.0000      -0.350170        -9.5286
  79   2.0000      -0.348507        -9.4834
  80   2.0000      -0.346469        -9.4279
  81   2.0000      -0.343927        -9.3587
  82   2.0000      -0.340034        -9.2528
  83   2.0000      -0.335654        -9.1336
  84   2.0000      -0.329147        -8.9566
  85   2.0000      -0.323776        -8.8104
  86   2.0000      -0.308958        -8.4072
  87   2.0000      -0.300475        -8.1763
  88   2.0000      -0.296678        -8.0730
  89   2.0000      -0.290867        -7.9149
  90   2.0000      -0.283054        -7.7023
  91   2.0000      -0.279412        -7.6032
  92   2.0000      -0.271965        -7.4005
  93   2.0000      -0.267349        -7.2749
  94   2.0000      -0.254468        -6.9244
  95   2.0000      -0.234714        -6.3869
  96   2.0000      -0.221402        -6.0247
  97   2.0000      -0.213801        -5.8178
  98   2.0000      -0.208070        -5.6619
  99   2.0000      -0.200549        -5.4572
 100   2.0000      -0.199162        -5.4195
 101   0.0000      -0.049314        -1.3419
 102   0.0000      -0.026356        -0.7172
 103   0.0000      -0.005714        -0.1555
 104   0.0000      -0.002121        -0.0577
 105   0.0000       0.004752         0.1293

MULLIKEN ATOMIC CHARGES
-----------------------
   0 C :   -0.291175
   1 C :   -0.009321
   2 O :   -0.377468
   3 P :    0.612975
   4 S :   -0.329169
   5 O :   -0.358357
   6 C :   -0.004325
   7 C :   -0.296889
   8 S :   -0.079329
   9 C :   -0.354798
  10 S :   -0.099106
  11 P :    0.616317
  12 S :   -0.334802
  13 O :   -0.365725
  14 C :   -0.013871
  15 C :   -0.306902
  16 O :   -0.360137
  17 C :   -0.006290
  18 C :   -0.288323
  19 H :    0.129055
  20 H :    0.112274
  21 H :    0.108435
  22 H :    0.107774
  23 H :    0.102469
  24 H :    0.103111
  25 H :    0.106108
  26 H :    0.104846
  27 H :    0.125299
  28 H :    0.124782
  29 H :    0.192937
  30 H :    0.191978
  31 H :    0.109900
  32 H :    0.114678
  33 H :    0.126013
  34 H :    0.110911
  35 H :    0.124215
  36 H :    0.101124
  37 H :    0.113183
  38 H :    0.103314
  39 H :    0.125731
  40 H :    0.108558
Sum of atomic charges:    0.0000000

LOEWDIN ATOMIC CHARGES
----------------------
   0 C :   -0.362603
   1 C :   -0.115988
   2 O :   -0.249069
   3 P :    0.566447
   4 S :   -0.321666
   5 O :   -0.229816
   6 C :   -0.111714
   7 C :   -0.360230
   8 S :    0.097245
   9 C :   -0.481675
  10 S :    0.090800
  11 P :    0.571566
  12 S :   -0.318349
  13 O :   -0.240432
  14 C :   -0.115279
  15 C :   -0.368556
  16 O :   -0.236727
  17 C :   -0.118413
  18 C :   -0.355201
  19 H :    0.124806
  20 H :    0.125374
  21 H :    0.129168
  22 H :    0.119128
  23 H :    0.107674
  24 H :    0.115668
  25 H :    0.107182
  26 H :    0.126770
  27 H :    0.120659
  28 H :    0.127253
  29 H :    0.130547
  30 H :    0.131080
  31 H :    0.121763
  32 H :    0.108043
  33 H :    0.130080
  34 H :    0.129738
  35 H :    0.120803
  36 H :    0.112108
  37 H :    0.103897
  38 H :    0.127060
  39 H :    0.117613
  40 H :    0.123246

  Mayer bond orders larger than 0.100000
B(  0-C ,  1-C ) :   1.1677 B(  0-C , 19-H ) :   0.9327 B(  0-C , 20-H ) :   0.9476
B(  0-C , 21-H ) :   0.9396 B(  1-C ,  2-O ) :   0.9033 B(  1-C , 22-H ) :   0.9356
B(  1-C , 23-H ) :   0.9153 B(  2-O ,  3-P ) :   1.0975 B(  3-P ,  4-S ) :   1.5972
B(  3-P ,  5-O ) :   1.1309 B(  3-P ,  8-S ) :   0.9636 B(  4-S ,  8-S ) :   0.1068
B(  5-O ,  6-C ) :   0.8962 B(  6-C ,  7-C ) :   1.1690 B(  6-C , 24-H ) :   0.9342
B(  6-C , 25-H ) :   0.9056 B(  7-C , 26-H ) :   0.9391 B(  7-C , 27-H ) :   0.9422
B(  7-C , 28-H ) :   0.9443 B(  8-S ,  9-C ) :   1.0014 B(  9-C , 10-S ) :   1.0127
B(  9-C , 29-H ) :   0.8788 B(  9-C , 30-H ) :   0.8817 B( 10-S , 11-P ) :   0.9347
B( 10-S , 12-S ) :   0.1087 B( 11-P , 12-S ) :   1.6005 B( 11-P , 13-O ) :   1.1269
B( 11-P , 16-O ) :   1.1292 B( 13-O , 14-C ) :   0.9159 B( 14-C , 15-C ) :   1.1640
B( 14-C , 31-H ) :   0.9339 B( 14-C , 32-H ) :   0.9253 B( 15-C , 33-H ) :   0.9434
B( 15-C , 34-H ) :   0.9356 B( 15-C , 35-H ) :   0.9336 B( 16-O , 17-C ) :   0.8959
B( 17-C , 18-C ) :   1.1632 B( 17-C , 36-H ) :   0.9347 B( 17-C , 37-H ) :   0.9044
B( 18-C , 38-H ) :   0.9400 B( 18-C , 39-H ) :   0.9379 B( 18-C , 40-H ) :   0.9487

Dispersion correction           -0.067392059
FINAL SINGLE POINT ENERGY     -2929.524812493180

DIPOLE MOMENT
-------------

Method             : SCF
Type of density    : Electron Density
Multiplicity       :   1
Irrep              :   0
Energy             : -2929.6424787799928708 Eh
Relativity type    :
Basis              : AO
                                X                 Y                 Z
Electronic contribution:     -3.176317272       7.158845431      -7.963498471
Nuclear contribution   :      3.430723029      -7.672418760       8.550600845
                        -----------------------------------------
Total Dipole Moment    :      0.254405757      -0.513573329       0.587102375
                        -----------------------------------------
Magnitude (a.u.)       :      0.820468800
Magnitude (Debye)      :      2.085465954

Rotational constants in cm-1:             0.013219             0.005153             0.004960
Rotational constants in MHz :           396.300172           154.492276           148.699447

                             ****ORCA TERMINATED NORMALLY****
TOTAL RUN TIME: 0 days 0 hours 0 minutes 21 seconds 777 msec
