                         Program Version 6.0.1  -  RELEASE   -
|  1> ! pbe def2-sv(p) def2/J RI DEFGRID1 loosescf d4 GCP(DFT/SV(P)) printgap
|  2> %output
|  3>     printlevel normal
|  4> end
|  5> * xyz 0 1
|  6> C 3.0711125514 -3.9599287014 0.2739047767
|  7> C 2.8614738485 -2.4919514909 0.5847967498
|  8> O 2.3867778598 -1.8484861362 -0.6137776552
|  9> C 2.1593840322 -0.5572445549 -0.5778062847
| 10> O 2.3139526419 0.1479935769 0.4001609477
| 11> C 1.7027897085 -0.0136839323 -1.9187452526
| 12> C 0.4279621738 0.8197431839 -1.7591856998
| 13> H 0.2938276242 1.4632407387 -2.6318107164
| 14> C 0.4811949353 1.6775727327 -0.5101428314
| 15> O -0.2921909095 1.5161357081 0.4180316873
| 16> O 1.3874516052 2.604604895 -0.5880286849
| 17> C 1.5986802912 3.4605608254 0.5565272814
| 18> C 0.6127488005 4.6164565306 0.5649198964
| 19> S -1.0726711904 -0.2119256661 -1.6992084699
| 20> P -1.5687312912 -0.5482364537 0.3496392114
| 21> S -0.3470497964 -1.1138797033 1.7726225667
| 22> O -2.7416609454 0.4766436042 0.7397983034
| 23> C -2.6812929174 1.4861928215 1.7439028148
| 24> O -2.4674125779 -1.8487286939 0.0746361965
| 25> C -3.6129257318 -1.8838846506 -0.7918499958
| 26> H 3.4388210841 -4.4625303232 1.1619580296
| 27> H 2.1303316051 -4.4108497581 -0.0273808308
| 28> H 3.7919499134 -4.0716752271 -0.5304850616
| 29> H 3.7892620585 -1.9990310488 0.8913331663
| 30> H 2.1155688021 -2.3408561785 1.3726584799
| 31> H 1.5346634748 -0.8349629725 -2.6135702735
| 32> H 2.4984660699 0.6341856884 -2.2928365661
| 33> H 1.5111736443 2.850208708 1.4593971795
| 34> H 2.6241114644 3.8092971401 0.4372076934
| 35> H 0.6861676995 5.177848308 -0.3622500903
| 36> H -0.4033354009 4.2460880632 0.6786831217
| 37> H 0.8410389104 5.2709523672 1.3993622404
| 38> H -1.8723308589 1.2776990026 2.4450107721
| 39> H -3.6415857277 1.4625405941 2.2554374757
| 40> H -2.5192557178 2.4532891293 1.271154553
| 41> H -4.093514429 -2.8370822627 -0.58554567
| 42> H -3.2933067908 -1.8329808783 -1.8323442858
| 43> H -4.2836597265 -1.0576821222 -0.5631070901
| 44> *
| 45>
| 46>                          ****END OF INPUT****

CARTESIAN COORDINATES (ANGSTROEM)
---------------------------------
  C      3.071113   -3.959929    0.273905
  C      2.861474   -2.491951    0.584797
  O      2.386778   -1.848486   -0.613778
  C      2.159384   -0.557245   -0.577806
  O      2.313953    0.147994    0.400161
  C      1.702790   -0.013684   -1.918745
  C      0.427962    0.819743   -1.759186
  H      0.293828    1.463241   -2.631811
  C      0.481195    1.677573   -0.510143
  O     -0.292191    1.516136    0.418032
  O      1.387452    2.604605   -0.588029
  C      1.598680    3.460561    0.556527
  C      0.612749    4.616457    0.564920
  S     -1.072671   -0.211926   -1.699208
  P     -1.568731   -0.548236    0.349639
  S     -0.347050   -1.113880    1.772623
  O     -2.741661    0.476644    0.739798
  C     -2.681293    1.486193    1.743903
  O     -2.467413   -1.848729    0.074636
  C     -3.612926   -1.883885   -0.791850
  H      3.438821   -4.462530    1.161958
  H      2.130332   -4.410850   -0.027381
  H      3.791950   -4.071675   -0.530485
  H      3.789262   -1.999031    0.891333
  H      2.115569   -2.340856    1.372658
  H      1.534663   -0.834963   -2.613570
  H      2.498466    0.634186   -2.292837
  H      1.511174    2.850209    1.459397
  H      2.624111    3.809297    0.437208
  H      0.686168    5.177848   -0.362250
  H     -0.403335    4.246088    0.678683
  H      0.841039    5.270952    1.399362
  H     -1.872331    1.277699    2.445011
  H     -3.641586    1.462541    2.255437
  H     -2.519256    2.453289    1.271155
  H     -4.093514   -2.837082   -0.585546
  H     -3.293307   -1.832981   -1.832344
  H     -4.283660   -1.057682   -0.563107

 Total Charge           Charge          ....    0
 Multiplicity           Mult            ....    1
 Number of Electrons    NEL             ....  174
 Basis Dimension        Dim             ....  316

ORBITAL ENERGIES
----------------

  NO   OCC          E(Eh)            E(eV)
   0   2.0000     -88.030822     -2395.4404
   1   2.0000     -87.957962     -2393.4578
   2   2.0000     -76.412587     -2079.2922
   3   2.0000     -18.819052      -512.0924
   4   2.0000     -18.802616      -511.6452
   5   2.0000     -18.772019      -510.8126
   6   2.0000     -18.765081      -510.6238
   7   2.0000     -18.761830      -510.5354
   8   2.0000     -18.736948      -509.8583
   9   2.0000     -10.029970      -272.9294
  10   2.0000     -10.008472      -272.3444
  11   2.0000      -9.955212      -270.8951
  12   2.0000      -9.954462      -270.8747
  13   2.0000      -9.936687      -270.3910
  14   2.0000      -9.931023      -270.2369
  15   2.0000      -9.929072      -270.1838
  16   2.0000      -9.915068      -269.8027
  17   2.0000      -9.894565      -269.2448
  18   2.0000      -9.880100      -268.8512
  19   2.0000      -7.675940      -208.8729
  20   2.0000      -7.603211      -206.8939
  21   2.0000      -6.407502      -174.3570
  22   2.0000      -5.704217      -155.2196
  23   2.0000      -5.700144      -155.1088
  24   2.0000      -5.692775      -154.9083
  25   2.0000      -5.632680      -153.2730
  26   2.0000      -5.624070      -153.0387
  27   2.0000      -5.622503      -152.9961
  28   2.0000      -4.630544      -126.0035
  29   2.0000      -4.629373      -125.9716
  30   2.0000      -4.628028      -125.9350
  31   2.0000      -1.031074       -28.0570
  32   2.0000      -1.008434       -27.4409
  33   2.0000      -0.961916       -26.1751
  34   2.0000      -0.937787       -25.5185
  35   2.0000      -0.916821       -24.9480
  36   2.0000      -0.913774       -24.8650
  37   2.0000      -0.766444       -20.8560
  38   2.0000      -0.713550       -19.4167
  39   2.0000      -0.705183       -19.1890
  40   2.0000      -0.684118       -18.6158
  41   2.0000      -0.652919       -17.7668
  42   2.0000      -0.626348       -17.0438
  43   2.0000      -0.621871       -16.9220
  44   2.0000      -0.597646       -16.2628
  45   2.0000      -0.589056       -16.0290
  46   2.0000      -0.561302       -15.2738
  47   2.0000      -0.512373       -13.9424
  48   2.0000      -0.504628       -13.7316
  49   2.0000      -0.499630       -13.5956
  50   2.0000      -0.487334       -13.2610
  51   2.0000      -0.464723       -12.6458
  52   2.0000      -0.457268       -12.4429
  53   2.0000      -0.446247       -12.1430
  54   2.0000      -0.434914       -11.8346
  55   2.0000      -0.429673       -11.6920
  56   2.0000      -0.423711       -11.5298
  57   2.0000      -0.414096       -11.2681
  58   2.0000      -0.410536       -11.1713
  59   2.0000      -0.406989       -11.0747
  60   2.0000      -0.401543       -10.9265
  61   2.0000      -0.393939       -10.7196
  62   2.0000      -0.385725       -10.4961
  63   2.0000      -0.382171       -10.3994
  64   2.0000      -0.369048       -10.0423
  65   2.0000      -0.361829        -9.8459
  66   2.0000      -0.358977        -9.7683
  67   2.0000      -0.350403        -9.5349
  68   2.0000      -0.347576        -9.4580
  69   2.0000      -0.344356        -9.3704
  70   2.0000      -0.334901        -9.1131
  71   2.0000      -0.327066        -8.8999
  72   2.0000      -0.310960        -8.4617
  73   2.0000      -0.306948        -8.3525
  74   2.0000      -0.297278        -8.0893
  75   2.0000      -0.296024        -8.0552
  76   2.0000      -0.285904        -7.7798
  77   2.0000      -0.281932        -7.6718
  78   2.0000      -0.276064        -7.5121
  79   2.0000      -0.256235        -6.9725
  80   2.0000      -0.254817        -6.9339
  81   2.0000      -0.246233        -6.7003
  82   2.0000      -0.240132        -6.5343
  83   2.0000      -0.222753        -6.0614
  84   2.0000      -0.211077        -5.7437
  85   2.0000      -0.179653        -4.8886
  86   2.0000      -0.167725        -4.5640
  87   0.0000      -0.042214        -1.1487
  88   0.0000      -0.031613        -0.8602
  89   0.0000      -0.025116        -0.6835
  90   0.0000      -0.000252        -0.0068
  91   0.0000       0.035564         0.9678

MULLIKEN ATOMIC CHARGES
-----------------------
   0 C :   -0.273964
   1 C :   -0.040135
   2 O :   -0.216167
   3 C :    0.099289
   4 O :   -0.206275
   5 C :   -0.027692
   6 C :   -0.281492
   7 H :    0.145892
   8 C :    0.227767
   9 O :   -0.207250
  10 O :   -0.217713
  11 C :   -0.005827
  12 C :   -0.318846
  13 S :   -0.131834
  14 P :    0.649240
  15 S :   -0.325075
  16 O :   -0.403418
  17 C :   -0.089456
  18 O :   -0.381739
  19 C :   -0.115404
  20 H :    0.110231
  21 H :    0.122691
  22 H :    0.107672
  23 H :    0.097266
  24 H :    0.135388
  25 H :    0.117138
  26 H :    0.122903
  27 H :    0.129811
  28 H :    0.107541
  29 H :    0.114364
  30 H :    0.134679
  31 H :    0.118517
  32 H :    0.119619
  33 H :    0.112826
  34 H :    0.110112
  35 H :    0.123664
  36 H :    0.119130
  37 H :    0.116545
Sum of atomic charges:    0.0000000

LOEWDIN ATOMIC CHARGES
----------------------
   0 C :   -0.350291
   1 C :   -0.111074
   2 O :   -0.044062
   3 C :    0.026947
   4 O :   -0.157257
   5 C :   -0.246624
   6 C :   -0.257550
   7 H :    0.147303
   8 C :    0.030591
   9 O :   -0.146945
  10 O :   -0.033007
  11 C :   -0.101975
  12 C :   -0.357369
  13 S :    0.085650
  14 P :    0.579961
  15 S :   -0.318964
  16 O :   -0.261530
  17 C :   -0.210925
  18 O :   -0.264176
  19 C :   -0.218128
  20 H :    0.130647
  21 H :    0.130474
  22 H :    0.122603
  23 H :    0.113321
  24 H :    0.118992
  25 H :    0.137019
  26 H :    0.147647
  27 H :    0.130966
  28 H :    0.121704
  29 H :    0.125385
  30 H :    0.128874
  31 H :    0.133872
  32 H :    0.111275
  33 H :    0.114131
  34 H :    0.106220
  35 H :    0.121786
  36 H :    0.104045
  37 H :    0.110463

  Mayer bond orders larger than 0.100000
B(  0-C ,  1-C ) :   1.1561 B(  0-C , 20-H ) :   0.9441 B(  0-C , 21-H ) :   0.9485
B(  0-C , 22-H ) :   0.9508 B(  1-C ,  2-O ) :   0.8949 B(  1-C , 23-H ) :   0.9302
B(  1-C , 24-H ) :   0.9117 B(  2-O ,  3-C ) :   1.2718 B(  2-O ,  4-O ) :   0.1016
B(  3-C ,  4-O ) :   1.9617 B(  3-C ,  5-C ) :   1.0066 B(  4-O ,  8-C ) :   0.1092
B(  5-C ,  6-C ) :   1.0232 B(  5-C , 25-H ) :   0.9036 B(  5-C , 26-H ) :   0.8754
B(  6-C ,  7-H ) :   0.8779 B(  6-C ,  8-C ) :   0.9136 B(  6-C , 13-S ) :   1.0475
B(  8-C ,  9-O ) :   1.8732 B(  8-C , 10-O ) :   1.2769 B(  9-O , 14-P ) :   0.1537
B( 10-O , 11-C ) :   0.8956 B( 11-C , 12-C ) :   1.1712 B( 11-C , 27-H ) :   0.9166
B( 11-C , 28-H ) :   0.9378 B( 12-C , 29-H ) :   0.9463 B( 12-C , 30-H ) :   0.9420
B( 12-C , 31-H ) :   0.9432 B( 13-S , 14-P ) :   0.9223 B( 13-S , 15-S ) :   0.1101
B( 14-P , 15-S ) :   1.5972 B( 14-P , 16-O ) :   1.0637 B( 14-P , 18-O ) :   1.0718
B( 16-O , 17-C ) :   0.9344 B( 17-C , 32-H ) :   0.9340 B( 17-C , 33-H ) :   0.9531
B( 17-C , 34-H ) :   0.9533 B( 18-O , 19-C ) :   0.9392 B( 19-C , 35-H ) :   0.9608
B( 19-C , 36-H ) :   0.9415 B( 19-C , 37-H ) :   0.9428

Dispersion correction           -0.053324473
FINAL SINGLE POINT ENERGY     -1979.002377175431

DIPOLE MOMENT
-------------

Method             : SCF
Type of density    : Electron Density
Multiplicity       :   1
Irrep              :   0
Energy             : -1979.1330427508250978 Eh
Relativity type    :
Basis              : AO
                                X                 Y                 Z
Electronic contribution:     -5.889924955      -3.832591170      -2.486196968
Nuclear contribution   :      6.281538251       5.044820261       1.505215426
                        -----------------------------------------
Total Dipole Moment    :      0.391613296       1.212229091      -0.980981542
                        -----------------------------------------
Magnitude (a.u.)       :      1.607851090
Magnitude (Debye)      :      4.086832686

Rotational constants in cm-1:             0.010271             0.009803             0.006608
Rotational constants in MHz :           307.913246           293.898921           198.100990

                             ****ORCA TERMINATED NORMALLY****
TOTAL RUN TIME: 0 days 0 hours 0 minutes 44 seconds 641 msec
