                         Program Version 6.0.1  -  RELEASE   -
|  1> ! pbe def2-sv(p) def2/J RI DEFGRID1 loosescf d4 GCP(DFT/SV(P)) printgap
|  2> %output
|  3>     printlevel normal
|  4> end
|  5> * xyz 0 1
|  6> C 5.1102380742 -3.0810640186 0.3066583942
|  7> C 4.3584301875 -1.7825127522 0.5196679549
|  8> O 3.1249668001 -1.8556675328 -0.2255078355
|  9> C 2.3665153131 -0.7862856782 -0.2681179129
| 10> O 2.6456640832 0.2712298982 0.2630879476
| 11> C 1.0864986796 -1.0249728916 -1.0322601892
| 12> C 0.4373959447 0.30212941 -1.4066246269
| 13> H 0.885332274 0.7387562852 -2.3002045945
| 14> C 0.4945587377 1.3137825145 -0.2767555554
| 15> O -0.0599675642 1.1194676254 0.7893989091
| 16> O 1.0563084345 2.4310564276 -0.6499227491
| 17> C 1.2010642531 3.5035773981 0.3051496507
| 18> C 2.6543361783 3.6141959633 0.7336701899
| 19> S -1.3385993623 0.109840968 -1.7886762775
| 20> P -2.2074831472 -0.2727703864 0.0973971936
| 21> S -1.4577521986 -1.5806352459 1.3646279477
| 22> O -2.682748851 1.1504465244 0.6268030837
| 23> C -2.7926877183 1.4533579453 2.0239330185
| 24> O -3.6433014774 -0.768557756 -0.4257964107
| 25> C -3.8392419193 -2.0799692565 -0.9634010749
| 26> H 6.0397265004 -3.0522813657 0.8652599957
| 27> H 4.5097972814 -3.9174210517 0.6513067585
| 28> H 5.3287260291 -3.2168764006 -0.7481042201
| 29> H 4.9248072222 -0.9167463019 0.1626165618
| 30> H 4.1116394451 -1.6228509678 1.5738332296
| 31> H 0.435770005 -1.5908527767 -0.3544333323
| 32> H 1.2722513281 -1.639662665 -1.9111721898
| 33> H 0.868573268 4.4002426389 -0.220669855
| 34> H 0.5496232883 3.2988005906 1.1589526076
| 35> H 3.2798749929 3.8402077417 -0.1245875779
| 36> H 2.7533956088 4.4019533558 1.4728943495
| 37> H 2.9810604588 2.6702024038 1.1634930465
| 38> H -1.8843419248 1.1451005144 2.5432478226
| 39> H -3.6567838913 0.943857903 2.4487560733
| 40> H -2.9151091721 2.5321704583 2.07719393
| 41> H -4.9146408048 -2.2378552478 -0.9676345336
| 42> H -3.3471815491 -2.8197878123 -0.3289373842
| 43> H -3.4395408523 -2.1299143452 -1.975728175
| 44> *
| 45>
| 46>                          ****END OF INPUT****

CARTESIAN COORDINATES (ANGSTROEM)
---------------------------------
  C      5.110238   -3.081064    0.306658
  C      4.358430   -1.782513    0.519668
  O      3.124967   -1.855668   -0.225508
  C      2.366515   -0.786286   -0.268118
  O      2.645664    0.271230    0.263088
  C      1.086499   -1.024973   -1.032260
  C      0.437396    0.302129   -1.406625
  H      0.885332    0.738756   -2.300205
  C      0.494559    1.313783   -0.276756
  O     -0.059968    1.119468    0.789399
  O      1.056308    2.431056   -0.649923
  C      1.201064    3.503577    0.305150
  C      2.654336    3.614196    0.733670
  S     -1.338599    0.109841   -1.788676
  P     -2.207483   -0.272770    0.097397
  S     -1.457752   -1.580635    1.364628
  O     -2.682749    1.150447    0.626803
  C     -2.792688    1.453358    2.023933
  O     -3.643301   -0.768558   -0.425796
  C     -3.839242   -2.079969   -0.963401
  H      6.039727   -3.052281    0.865260
  H      4.509797   -3.917421    0.651307
  H      5.328726   -3.216876   -0.748104
  H      4.924807   -0.916746    0.162617
  H      4.111639   -1.622851    1.573833
  H      0.435770   -1.590853   -0.354433
  H      1.272251   -1.639663   -1.911172
  H      0.868573    4.400243   -0.220670
  H      0.549623    3.298801    1.158953
  H      3.279875    3.840208   -0.124588
  H      2.753396    4.401953    1.472894
  H      2.981060    2.670202    1.163493
  H     -1.884342    1.145101    2.543248
  H     -3.656784    0.943858    2.448756
  H     -2.915109    2.532170    2.077194
  H     -4.914641   -2.237855   -0.967635
  H     -3.347182   -2.819788   -0.328937
  H     -3.439541   -2.129914   -1.975728

 Total Charge           Charge          ....    0
 Multiplicity           Mult            ....    1
 Number of Electrons    NEL             ....  174
 Basis Dimension        Dim             ....  316

ORBITAL ENERGIES
----------------

  NO   OCC          E(Eh)            E(eV)
   0   2.0000     -88.038979     -2395.6624
   1   2.0000     -87.971630     -2393.8298
   2   2.0000     -76.417862     -2079.4357
   3   2.0000     -18.810280      -511.8538
   4   2.0000     -18.803228      -511.6619
   5   2.0000     -18.777337      -510.9573
   6   2.0000     -18.776127      -510.9244
   7   2.0000     -18.750187      -510.2185
   8   2.0000     -18.733961      -509.7770
   9   2.0000     -10.017663      -272.5945
  10   2.0000     -10.015614      -272.5387
  11   2.0000      -9.954727      -270.8819
  12   2.0000      -9.946171      -270.6491
  13   2.0000      -9.944542      -270.6047
  14   2.0000      -9.932103      -270.2663
  15   2.0000      -9.931584      -270.2521
  16   2.0000      -9.907137      -269.5869
  17   2.0000      -9.893834      -269.2249
  18   2.0000      -9.880524      -268.8627
  19   2.0000      -7.683966      -209.0913
  20   2.0000      -7.616738      -207.2620
  21   2.0000      -6.413940      -174.5322
  22   2.0000      -5.711937      -155.4297
  23   2.0000      -5.708396      -155.3334
  24   2.0000      -5.700903      -155.1295
  25   2.0000      -5.645830      -153.6308
  26   2.0000      -5.637714      -153.4100
  27   2.0000      -5.636331      -153.3724
  28   2.0000      -4.636273      -126.1594
  29   2.0000      -4.635891      -126.1490
  30   2.0000      -4.634769      -126.1185
  31   2.0000      -1.020867       -27.7792
  32   2.0000      -1.011828       -27.5332
  33   2.0000      -0.970225       -26.4012
  34   2.0000      -0.927977       -25.2515
  35   2.0000      -0.926083       -25.2000
  36   2.0000      -0.914960       -24.8973
  37   2.0000      -0.762912       -20.7599
  38   2.0000      -0.719533       -19.5795
  39   2.0000      -0.703039       -19.1307
  40   2.0000      -0.687350       -18.7037
  41   2.0000      -0.655995       -17.8505
  42   2.0000      -0.622386       -16.9360
  43   2.0000      -0.616011       -16.7625
  44   2.0000      -0.611749       -16.6465
  45   2.0000      -0.591898       -16.1064
  46   2.0000      -0.556456       -15.1419
  47   2.0000      -0.517446       -14.0804
  48   2.0000      -0.504960       -13.7407
  49   2.0000      -0.495272       -13.4770
  50   2.0000      -0.480677       -13.0799
  51   2.0000      -0.459990       -12.5170
  52   2.0000      -0.456978       -12.4350
  53   2.0000      -0.445749       -12.1295
  54   2.0000      -0.441142       -12.0041
  55   2.0000      -0.430784       -11.7222
  56   2.0000      -0.425709       -11.5841
  57   2.0000      -0.414976       -11.2921
  58   2.0000      -0.407974       -11.1015
  59   2.0000      -0.404467       -11.0061
  60   2.0000      -0.400155       -10.8888
  61   2.0000      -0.392606       -10.6834
  62   2.0000      -0.382637       -10.4121
  63   2.0000      -0.381417       -10.3789
  64   2.0000      -0.374116       -10.1802
  65   2.0000      -0.366133        -9.9630
  66   2.0000      -0.362762        -9.8713
  67   2.0000      -0.356036        -9.6882
  68   2.0000      -0.346129        -9.4186
  69   2.0000      -0.340446        -9.2640
  70   2.0000      -0.331598        -9.0233
  71   2.0000      -0.326781        -8.8922
  72   2.0000      -0.318615        -8.6700
  73   2.0000      -0.310209        -8.4412
  74   2.0000      -0.299501        -8.1498
  75   2.0000      -0.292873        -7.9695
  76   2.0000      -0.288258        -7.8439
  77   2.0000      -0.277277        -7.5451
  78   2.0000      -0.272083        -7.4038
  79   2.0000      -0.264388        -7.1944
  80   2.0000      -0.252157        -6.8615
  81   2.0000      -0.245286        -6.6746
  82   2.0000      -0.237117        -6.4523
  83   2.0000      -0.234249        -6.3742
  84   2.0000      -0.220663        -6.0045
  85   2.0000      -0.191874        -5.2212
  86   2.0000      -0.180684        -4.9167
  87   0.0000      -0.046503        -1.2654
  88   0.0000      -0.028922        -0.7870
  89   0.0000      -0.013921        -0.3788
  90   0.0000       0.017330         0.4716
  91   0.0000       0.034391         0.9358

MULLIKEN ATOMIC CHARGES
-----------------------
   0 C :   -0.273055
   1 C :   -0.032981
   2 O :   -0.224816
   3 C :    0.133137
   4 O :   -0.209883
   5 C :   -0.064633
   6 C :   -0.299340
   7 H :    0.128194
   8 C :    0.207351
   9 O :   -0.206328
  10 O :   -0.216096
  11 C :   -0.021745
  12 C :   -0.295960
  13 S :   -0.078254
  14 P :    0.619028
  15 S :   -0.333316
  16 O :   -0.371567
  17 C :   -0.095019
  18 O :   -0.379440
  19 C :   -0.099902
  20 H :    0.113621
  21 H :    0.120962
  22 H :    0.115925
  23 H :    0.108098
  24 H :    0.113345
  25 H :    0.146218
  26 H :    0.115987
  27 H :    0.104188
  28 H :    0.112185
  29 H :    0.108728
  30 H :    0.107253
  31 H :    0.137681
  32 H :    0.138870
  33 H :    0.113975
  34 H :    0.115418
  35 H :    0.120769
  36 H :    0.112688
  37 H :    0.108716
Sum of atomic charges:   -0.0000000

LOEWDIN ATOMIC CHARGES
----------------------
   0 C :   -0.350181
   1 C :   -0.105084
   2 O :   -0.054270
   3 C :    0.047252
   4 O :   -0.154217
   5 C :   -0.265090
   6 C :   -0.256829
   7 H :    0.139601
   8 C :    0.012683
   9 O :   -0.172548
  10 O :   -0.040219
  11 C :   -0.106935
  12 C :   -0.354978
  13 S :    0.119072
  14 P :    0.584166
  15 S :   -0.320566
  16 O :   -0.245084
  17 C :   -0.207913
  18 O :   -0.263782
  19 C :   -0.220933
  20 H :    0.131915
  21 H :    0.129680
  22 H :    0.127259
  23 H :    0.117291
  24 H :    0.120565
  25 H :    0.143000
  26 H :    0.142011
  27 H :    0.117480
  28 H :    0.120459
  29 H :    0.123445
  30 H :    0.127271
  31 H :    0.134739
  32 H :    0.118163
  33 H :    0.111702
  34 H :    0.118309
  35 H :    0.120130
  36 H :    0.106179
  37 H :    0.106257

  Mayer bond orders larger than 0.100000
B(  0-C ,  1-C ) :   1.1544 B(  0-C , 20-H ) :   0.9434 B(  0-C , 21-H ) :   0.9486
B(  0-C , 22-H ) :   0.9505 B(  1-C ,  2-O ) :   0.8999 B(  1-C , 23-H ) :   0.9301
B(  1-C , 24-H ) :   0.9333 B(  2-O ,  3-C ) :   1.2556 B(  3-C ,  4-O ) :   1.9464
B(  3-C ,  5-C ) :   1.0255 B(  4-O ,  8-C ) :   0.1174 B(  5-C ,  6-C ) :   1.0076
B(  5-C , 25-H ) :   0.8282 B(  5-C , 26-H ) :   0.9008 B(  6-C ,  7-H ) :   0.8838
B(  6-C ,  8-C ) :   0.8957 B(  6-C , 13-S ) :   1.0137 B(  8-C ,  9-O ) :   1.9373
B(  8-C , 10-O ) :   1.2679 B(  9-O , 14-P ) :   0.1043 B( 10-O , 11-C ) :   0.9076
B( 11-C , 12-C ) :   1.1772 B( 11-C , 27-H ) :   0.9369 B( 11-C , 28-H ) :   0.9070
B( 12-C , 29-H ) :   0.9504 B( 12-C , 30-H ) :   0.9438 B( 12-C , 31-H ) :   0.9369
B( 13-S , 14-P ) :   0.9643 B( 13-S , 15-S ) :   0.1182 B( 14-P , 15-S ) :   1.5686
B( 14-P , 16-O ) :   1.1173 B( 14-P , 18-O ) :   1.0790 B( 15-S , 25-H ) :   0.1130
B( 16-O , 17-C ) :   0.9195 B( 17-C , 32-H ) :   0.9362 B( 17-C , 33-H ) :   0.9525
B( 17-C , 34-H ) :   0.9597 B( 18-O , 19-C ) :   0.9396 B( 19-C , 35-H ) :   0.9597
B( 19-C , 36-H ) :   0.9284 B( 19-C , 37-H ) :   0.9490

Dispersion correction           -0.051087327
FINAL SINGLE POINT ENERGY     -1979.013843575080

DIPOLE MOMENT
-------------

Method             : SCF
Type of density    : Electron Density
Multiplicity       :   1
Irrep              :   0
Energy             : -1979.1460618955502468 Eh
Relativity type    :
Basis              : AO
                                X                 Y                 Z
Electronic contribution:    -17.619641840      -0.927780041      -5.191687855
Nuclear contribution   :     18.743362803       1.096981518       4.796283620
                        -----------------------------------------
Total Dipole Moment    :      1.123720964       0.169201477      -0.395404235
                        -----------------------------------------
Magnitude (a.u.)       :      1.203213386
Magnitude (Debye)      :      3.058325378

Rotational constants in cm-1:             0.012579             0.006841             0.005385
Rotational constants in MHz :           377.112374           205.080841           161.448660

                             ****ORCA TERMINATED NORMALLY****
TOTAL RUN TIME: 0 days 0 hours 0 minutes 28 seconds 178 msec
