                         Program Version 6.0.0  -   RELEASE  -
|  1> ! pbe def2-sv(p) def2/J RI DEFGRID1 loosescf d4 GCP(DFT/SV(P)) printgap
|  2> %output
|  3>     printlevel normal
|  4> end
|  5> * xyz 0 1
|  6> C -1.677748464 1.1770209538 -0.0001033602
|  7> C -2.3076781229 -0.0600013822 3.66333e-05
|  8> C -1.5194861075 -1.1984371433 -4.6044e-05
|  9> N -0.1935499932 -1.1626340658 -7.5934e-06
| 10> C 0.3837032106 0.0186138983 -8.99643e-05
| 11> C -0.2934331143 1.2294122837 -0.0001087864
| 12> Cl 2.1194116783 0.0094841156 2.61156e-05
| 13> H -2.2527054777 2.0896377623 0.0003779978
| 14> H -3.3817739687 -0.1391170522 0.0006535063
| 15> H -1.9481113413 -2.1899124095 0.0005593845
| 16> H 0.2463159273 2.1607374022 0.0013081792
| 17> *
| 18>
| 19>                          ****END OF INPUT****

CARTESIAN COORDINATES (ANGSTROEM)
---------------------------------
  C     -1.677748    1.177021   -0.000103
  C     -2.307678   -0.060001    0.000037
  C     -1.519486   -1.198437   -0.000046
  N     -0.193550   -1.162634   -0.000008
  C      0.383703    0.018614   -0.000090
  C     -0.293433    1.229412   -0.000109
  Cl     2.119412    0.009484    0.000026
  H     -2.252705    2.089638    0.000378
  H     -3.381774   -0.139117    0.000654
  H     -1.948111   -2.189912    0.000559
  H      0.246316    2.160737    0.001308

 Total Charge           Charge          ....    0
 Multiplicity           Mult            ....    1
 Number of Electrons    NEL             ....   58
 Basis Dimension        Dim             ....  110

ORBITAL ENERGIES
----------------

  NO   OCC          E(Eh)            E(eV)
   0   2.0000    -100.635293     -2738.4255
   1   2.0000     -13.997201      -380.8832
   2   2.0000      -9.982066      -271.6258
   3   2.0000      -9.938608      -270.4433
   4   2.0000      -9.927047      -270.1287
   5   2.0000      -9.918186      -269.8876
   6   2.0000      -9.914916      -269.7986
   7   2.0000      -9.171970      -249.5820
   8   2.0000      -7.003035      -190.5623
   9   2.0000      -6.992276      -190.2695
  10   2.0000      -6.991203      -190.2403
  11   2.0000      -0.886735       -24.1293
  12   2.0000      -0.780969       -21.2513
  13   2.0000      -0.742696       -20.2098
  14   2.0000      -0.680533       -18.5183
  15   2.0000      -0.587512       -15.9870
  16   2.0000      -0.565780       -15.3956
  17   2.0000      -0.485634       -13.2148
  18   2.0000      -0.456220       -12.4144
  19   2.0000      -0.428182       -11.6514
  20   2.0000      -0.398528       -10.8445
  21   2.0000      -0.390630       -10.6296
  22   2.0000      -0.373854       -10.1731
  23   2.0000      -0.342597        -9.3226
  24   2.0000      -0.304622        -8.2892
  25   2.0000      -0.275796        -7.5048
  26   2.0000      -0.267744        -7.2857
  27   2.0000      -0.233119        -6.3435
  28   2.0000      -0.226585        -6.1657
  29   0.0000      -0.069052        -1.8790
  30   0.0000      -0.057080        -1.5532
  31   0.0000       0.018814         0.5120
  32   0.0000       0.051801         1.4096
  33   0.0000       0.078167         2.1270

MULLIKEN ATOMIC CHARGES
-----------------------
   0 C :   -0.011979
   1 C :   -0.076112
   2 C :   -0.047045
   3 N :   -0.031758
   4 C :   -0.014038
   5 C :   -0.036935
   6 Cl:   -0.074573
   7 H :    0.076378
   8 H :    0.071470
   9 H :    0.079182
  10 H :    0.065409
Sum of atomic charges:   -0.0000000

LOEWDIN ATOMIC CHARGES
----------------------
   0 C :   -0.090758
   1 C :   -0.147046
   2 C :   -0.068738
   3 N :   -0.076583
   4 C :   -0.111309
   5 C :   -0.151105
   6 Cl:    0.124687
   7 H :    0.133107
   8 H :    0.132290
   9 H :    0.120227
  10 H :    0.135228

  Mayer bond orders larger than 0.100000
B(  0-C ,  1-C ) :   1.4051 B(  0-C ,  5-C ) :   1.4234 B(  0-C ,  7-H ) :   0.9538
B(  1-C ,  2-C ) :   1.3862 B(  1-C ,  8-H ) :   0.9493 B(  2-C ,  3-N ) :   1.5179
B(  2-C ,  9-H ) :   0.9521 B(  3-N ,  4-C ) :   1.5499 B(  4-C ,  5-C ) :   1.3525
B(  4-C ,  6-Cl) :   1.0349 B(  5-C , 10-H ) :   0.9431

Dispersion correction           -0.012056467
FINAL SINGLE POINT ENERGY      -707.030313456963

DIPOLE MOMENT
-------------

Method             : SCF
Type of density    : Electron Density
Multiplicity       :   1
Irrep              :   0
Energy             :  -707.0569400877332100 Eh
Relativity type    :
Basis              : AO
                                X                 Y                 Z
Electronic contribution:      8.770296218      -1.139524518      -0.002075207
Nuclear contribution   :     -9.728437926       1.783427704       0.002684741
                        -----------------------------------------
Total Dipole Moment    :     -0.958141708       0.643903186       0.000609534
                        -----------------------------------------
Magnitude (a.u.)       :      1.154403403
Magnitude (Debye)      :      2.934260261

Rotational constants in cm-1:             0.198348             0.054624             0.042829
Rotational constants in MHz :          5946.338273          1637.587268          1283.985180

                             ****ORCA TERMINATED NORMALLY****
TOTAL RUN TIME: 0 days 0 hours 0 minutes 6 seconds 53 msec
