                         Program Version 6.0.1  -  RELEASE   -
|  1> ! r2scan-3c def2/J RI DEFGRID2 scfconv6 printgap
|  2> %output
|  3>     printlevel normal
|  4> end
|  5> * xyz 0 1
|  6> C 3.6093682054 -4.412413277 -1.0257283788
|  7> C 2.1795854706 -3.9325295255 -1.2165590304
|  8> O 1.9233969614 -2.7448455525 -0.4404142826
|  9> C 2.2573920571 -1.578199613 -0.9534342975
| 10> O 2.7288971964 -1.4179068423 -2.0570982544
| 11> C 1.9396525276 -0.4428006491 -0.0006761739
| 12> C 1.063320489 0.5859130952 -0.7075461744
| 13> H 1.5326427052 0.8499931067 -1.6634949854
| 14> C 0.9223157217 1.8658495553 0.0982149787
| 15> O 1.8369303495 2.3302587658 0.7346492001
| 16> O -0.2715477673 2.4124798669 -0.030053194
| 17> C -0.5186352901 3.6654652025 0.64031629
| 18> C -0.1021027978 4.8348226491 -0.2347240375
| 19> S -0.5477934158 -0.1124756805 -1.1866324574
| 20> P -1.6192164703 0.0560776285 0.6500511355
| 21> S -0.6197016305 0.2715701185 2.3223438626
| 22> O -2.7330666337 1.1583861675 0.4648389317
| 23> C -3.6443150163 1.1507778057 -0.6535787311
| 24> O -2.5151245759 -1.2714188793 0.6011454561
| 25> C -1.9261550873 -2.5620214442 0.7903730308
| 26> H 3.8129165698 -4.5730768805 0.029455875
| 27> H 3.7494884723 -5.3440486257 -1.5637828523
| 28> H 4.3071362451 -3.6732396729 -1.4126432418
| 29> H 1.4629497197 -4.662498316 -0.8403259422
| 30> H 1.9835203726 -3.7074845773 -2.268703172
| 31> H 2.868664233 0.0511648927 0.2942503966
| 32> H 1.4511650788 -0.8346930551 0.8924527849
| 33> H -1.5919927028 3.6622006976 0.8325592372
| 34> H 0.0312433868 3.6606499776 1.5858277784
| 35> H 0.9729402791 4.8149208619 -0.3983924616
| 36> H -0.6102939759 4.786183435 -1.1938100942
| 37> H -0.3649914275 5.7613785212 0.2644565901
| 38> H -4.2284909401 2.0614045897 -0.5506157733
| 39> H -4.2841466925 0.2722636679 -0.6031220641
| 40> H -3.083775725 1.1531508444 -1.5882305094
| 41> H -1.273619567 -2.8012257221 -0.0498255741
| 42> H -2.7583789154 -3.2591802403 0.8402892165
| 43> H -1.3544682567 -2.5811614717 1.7195300548
| 44> *
| 45>
| 46>                          ****END OF INPUT****

CARTESIAN COORDINATES (ANGSTROEM)
---------------------------------
  C      3.609368   -4.412413   -1.025728
  C      2.179585   -3.932530   -1.216559
  O      1.923397   -2.744846   -0.440414
  C      2.257392   -1.578200   -0.953434
  O      2.728897   -1.417907   -2.057098
  C      1.939653   -0.442801   -0.000676
  C      1.063320    0.585913   -0.707546
  H      1.532643    0.849993   -1.663495
  C      0.922316    1.865850    0.098215
  O      1.836930    2.330259    0.734649
  O     -0.271548    2.412480   -0.030053
  C     -0.518635    3.665465    0.640316
  C     -0.102103    4.834823   -0.234724
  S     -0.547793   -0.112476   -1.186632
  P     -1.619216    0.056078    0.650051
  S     -0.619702    0.271570    2.322344
  O     -2.733067    1.158386    0.464839
  C     -3.644315    1.150778   -0.653579
  O     -2.515125   -1.271419    0.601145
  C     -1.926155   -2.562021    0.790373
  H      3.812917   -4.573077    0.029456
  H      3.749488   -5.344049   -1.563783
  H      4.307136   -3.673240   -1.412643
  H      1.462950   -4.662498   -0.840326
  H      1.983520   -3.707485   -2.268703
  H      2.868664    0.051165    0.294250
  H      1.451165   -0.834693    0.892453
  H     -1.591993    3.662201    0.832559
  H      0.031243    3.660650    1.585828
  H      0.972940    4.814921   -0.398392
  H     -0.610294    4.786183   -1.193810
  H     -0.364991    5.761379    0.264457
  H     -4.228491    2.061405   -0.550616
  H     -4.284147    0.272264   -0.603122
  H     -3.083776    1.153151   -1.588231
  H     -1.273620   -2.801226   -0.049826
  H     -2.758379   -3.259180    0.840289
  H     -1.354468   -2.581161    1.719530

 Total Charge           Charge          ....    0
 Multiplicity           Mult            ....    1
 Number of Electrons    NEL             ....  174
 Basis Dimension        Dim             ....  510

ORBITAL ENERGIES
----------------

  NO   OCC          E(Eh)            E(eV)
   0   2.0000     -88.577191     -2410.3079
   1   2.0000     -88.521656     -2408.7967
   2   2.0000     -76.917663     -2093.0360
   3   2.0000     -19.004951      -517.1510
   4   2.0000     -19.003853      -517.1211
   5   2.0000     -18.998535      -516.9764
   6   2.0000     -18.994222      -516.8591
   7   2.0000     -18.937471      -515.3148
   8   2.0000     -18.934914      -515.2452
   9   2.0000     -10.165910      -276.6285
  10   2.0000     -10.159401      -276.4513
  11   2.0000     -10.101688      -274.8809
  12   2.0000     -10.099958      -274.8338
  13   2.0000     -10.097019      -274.7539
  14   2.0000     -10.093448      -274.6567
  15   2.0000     -10.091370      -274.6001
  16   2.0000     -10.049051      -273.4486
  17   2.0000     -10.032543      -272.9994
  18   2.0000     -10.030355      -272.9398
  19   2.0000      -7.871556      -214.1959
  20   2.0000      -7.816356      -212.6939
  21   2.0000      -6.595854      -179.4823
  22   2.0000      -5.818535      -158.3304
  23   2.0000      -5.815308      -158.2426
  24   2.0000      -5.808647      -158.0613
  25   2.0000      -5.764295      -156.8544
  26   2.0000      -5.756528      -156.6431
  27   2.0000      -5.756190      -156.6339
  28   2.0000      -4.741613      -129.0258
  29   2.0000      -4.740924      -129.0071
  30   2.0000      -4.739291      -128.9627
  31   2.0000      -1.082704       -29.4619
  32   2.0000      -1.080566       -29.4037
  33   2.0000      -1.054588       -28.6968
  34   2.0000      -1.012668       -27.5561
  35   2.0000      -0.988378       -26.8951
  36   2.0000      -0.984819       -26.7983
  37   2.0000      -0.811382       -22.0788
  38   2.0000      -0.755878       -20.5685
  39   2.0000      -0.742017       -20.1913
  40   2.0000      -0.734566       -19.9886
  41   2.0000      -0.696915       -18.9640
  42   2.0000      -0.679306       -18.4849
  43   2.0000      -0.663978       -18.0678
  44   2.0000      -0.652866       -17.7654
  45   2.0000      -0.633755       -17.2454
  46   2.0000      -0.598082       -16.2746
  47   2.0000      -0.544966       -14.8293
  48   2.0000      -0.530109       -14.4250
  49   2.0000      -0.525239       -14.2925
  50   2.0000      -0.506443       -13.7810
  51   2.0000      -0.498421       -13.5627
  52   2.0000      -0.474885       -12.9223
  53   2.0000      -0.465793       -12.6749
  54   2.0000      -0.458245       -12.4695
  55   2.0000      -0.456757       -12.4290
  56   2.0000      -0.449283       -12.2256
  57   2.0000      -0.441223       -12.0063
  58   2.0000      -0.435381       -11.8473
  59   2.0000      -0.431650       -11.7458
  60   2.0000      -0.423701       -11.5295
  61   2.0000      -0.420375       -11.4390
  62   2.0000      -0.416749       -11.3403
  63   2.0000      -0.406827       -11.0703
  64   2.0000      -0.397141       -10.8068
  65   2.0000      -0.383658       -10.4399
  66   2.0000      -0.373836       -10.1726
  67   2.0000      -0.372249       -10.1294
  68   2.0000      -0.361292        -9.8313
  69   2.0000      -0.354953        -9.6588
  70   2.0000      -0.350028        -9.5248
  71   2.0000      -0.346562        -9.4304
  72   2.0000      -0.340002        -9.2519
  73   2.0000      -0.328866        -8.9489
  74   2.0000      -0.326260        -8.8780
  75   2.0000      -0.316204        -8.6044
  76   2.0000      -0.314513        -8.5583
  77   2.0000      -0.310957        -8.4616
  78   2.0000      -0.291749        -7.9389
  79   2.0000      -0.281742        -7.6666
  80   2.0000      -0.278634        -7.5820
  81   2.0000      -0.278204        -7.5703
  82   2.0000      -0.257195        -6.9986
  83   2.0000      -0.245510        -6.6807
  84   2.0000      -0.231410        -6.2970
  85   2.0000      -0.219222        -5.9653
  86   2.0000      -0.217335        -5.9140
  87   0.0000      -0.045008        -1.2247
  88   0.0000      -0.032156        -0.8750
  89   0.0000      -0.013299        -0.3619
  90   0.0000       0.000987         0.0269
  91   0.0000       0.011484         0.3125

MULLIKEN ATOMIC CHARGES
-----------------------
   0 C :   -0.469910
   1 C :   -0.139343
   2 O :   -0.166938
   3 C :    0.395788
   4 O :   -0.430804
   5 C :   -0.406710
   6 C :   -0.041442
   7 H :    0.219269
   8 C :    0.301481
   9 O :   -0.401731
  10 O :   -0.147093
  11 C :   -0.151843
  12 C :   -0.470495
  13 S :   -0.182732
  14 P :    0.783931
  15 S :   -0.430564
  16 O :   -0.317970
  17 C :   -0.293104
  18 O :   -0.359867
  19 C :   -0.302086
  20 H :    0.154070
  21 H :    0.148330
  22 H :    0.174988
  23 H :    0.147551
  24 H :    0.170127
  25 H :    0.207752
  26 H :    0.205526
  27 H :    0.163475
  28 H :    0.181117
  29 H :    0.171761
  30 H :    0.151821
  31 H :    0.150529
  32 H :    0.155733
  33 H :    0.170012
  34 H :    0.170187
  35 H :    0.161410
  36 H :    0.151396
  37 H :    0.176377
Sum of atomic charges:   -0.0000000

LOEWDIN ATOMIC CHARGES
----------------------
   0 C :   -0.388480
   1 C :    0.027859
   2 O :   -0.585345
   3 C :    0.346901
   4 O :   -0.436648
   5 C :   -0.206796
   6 C :   -0.188526
   7 H :    0.215913
   8 C :    0.339574
   9 O :   -0.415831
  10 O :   -0.633872
  11 C :    0.031904
  12 C :   -0.387320
  13 S :    0.209704
  14 P :    0.407940
  15 S :   -0.055695
  16 O :   -0.651985
  17 C :   -0.050871
  18 O :   -0.685103
  19 C :   -0.061145
  20 H :    0.158502
  21 H :    0.159804
  22 H :    0.166320
  23 H :    0.177852
  24 H :    0.188497
  25 H :    0.203110
  26 H :    0.197594
  27 H :    0.185019
  28 H :    0.194991
  29 H :    0.165223
  30 H :    0.157081
  31 H :    0.160398
  32 H :    0.179592
  33 H :    0.174678
  34 H :    0.174392
  35 H :    0.171131
  36 H :    0.176739
  37 H :    0.176897

  Mayer bond orders larger than 0.100000
B(  0-C ,  1-C ) :   0.9380 B(  0-C , 20-H ) :   0.9725 B(  0-C , 21-H ) :   0.9646
B(  0-C , 22-H ) :   0.9705 B(  1-C ,  2-O ) :   0.8110 B(  1-C , 23-H ) :   0.9610
B(  1-C , 24-H ) :   0.9680 B(  2-O ,  3-C ) :   1.0605 B(  3-C ,  4-O ) :   1.8307
B(  3-C ,  5-C ) :   0.9215 B(  5-C ,  6-C ) :   0.9262 B(  5-C , 25-H ) :   0.9337
B(  5-C , 26-H ) :   0.9594 B(  6-C ,  7-H ) :   0.8909 B(  6-C ,  8-C ) :   0.9425
B(  6-C , 13-S ) :   0.8430 B(  8-C ,  9-O ) :   1.8757 B(  8-C , 10-O ) :   1.1038
B( 10-O , 11-C ) :   0.7924 B( 11-C , 12-C ) :   0.9254 B( 11-C , 27-H ) :   0.9567
B( 11-C , 28-H ) :   0.9627 B( 12-C , 29-H ) :   0.9721 B( 12-C , 30-H ) :   0.9763
B( 12-C , 31-H ) :   0.9659 B( 13-S , 14-P ) :   1.0078 B( 14-P , 15-S ) :   1.7753
B( 14-P , 16-O ) :   1.1424 B( 14-P , 18-O ) :   1.0181 B( 16-O , 17-C ) :   0.8000
B( 17-C , 32-H ) :   0.9651 B( 17-C , 33-H ) :   0.9610 B( 17-C , 34-H ) :   0.9550
B( 18-O , 19-C ) :   0.8361 B( 19-C , 35-H ) :   0.9521 B( 19-C , 36-H ) :   0.9670
B( 19-C , 37-H ) :   0.9580

Dispersion correction           -0.017734710
FINAL SINGLE POINT ENERGY     -1981.455654575362

DIPOLE MOMENT
-------------

Method             : SCF
Type of density    : Electron Density
Multiplicity       :   1
Irrep              :   0
Energy             : -1981.4752738730990131 Eh
Relativity type    :
Basis              : AO
                                X                 Y                 Z
Electronic contribution:     -5.145931790       3.488210509       5.141172167
Nuclear contribution   :      3.955298466      -4.141316715      -5.947769339
                        -----------------------------------------
Total Dipole Moment    :     -1.190633325      -0.653106206      -0.806597172
                        -----------------------------------------
Magnitude (a.u.)       :      1.579479163
Magnitude (Debye)      :      4.014716978

Rotational constants in cm-1:             0.013704             0.007077             0.005627
Rotational constants in MHz :           410.844837           212.170015           168.705618

                             ****ORCA TERMINATED NORMALLY****
TOTAL RUN TIME: 0 days 0 hours 1 minutes 36 seconds 257 msec
