                         Program Version 6.0.1  -  RELEASE   -
|  1> ! r2scan-3c def2/J RI DEFGRID2 scfconv6 printgap
|  2> %output
|  3>     printlevel normal
|  4> end
|  5> %cpcm
|  6>     smd true
|  7>     smdsolvent "water"
|  8> end
|  9> * xyz 0 1
| 10> C 3.6093682054 -4.412413277 -1.0257283788
| 11> C 2.1795854706 -3.9325295255 -1.2165590304
| 12> O 1.9233969614 -2.7448455525 -0.4404142826
| 13> C 2.2573920571 -1.578199613 -0.9534342975
| 14> O 2.7288971964 -1.4179068423 -2.0570982544
| 15> C 1.9396525276 -0.4428006491 -0.0006761739
| 16> C 1.063320489 0.5859130952 -0.7075461744
| 17> H 1.5326427052 0.8499931067 -1.6634949854
| 18> C 0.9223157217 1.8658495553 0.0982149787
| 19> O 1.8369303495 2.3302587658 0.7346492001
| 20> O -0.2715477673 2.4124798669 -0.030053194
| 21> C -0.5186352901 3.6654652025 0.64031629
| 22> C -0.1021027978 4.8348226491 -0.2347240375
| 23> S -0.5477934158 -0.1124756805 -1.1866324574
| 24> P -1.6192164703 0.0560776285 0.6500511355
| 25> S -0.6197016305 0.2715701185 2.3223438626
| 26> O -2.7330666337 1.1583861675 0.4648389317
| 27> C -3.6443150163 1.1507778057 -0.6535787311
| 28> O -2.5151245759 -1.2714188793 0.6011454561
| 29> C -1.9261550873 -2.5620214442 0.7903730308
| 30> H 3.8129165698 -4.5730768805 0.029455875
| 31> H 3.7494884723 -5.3440486257 -1.5637828523
| 32> H 4.3071362451 -3.6732396729 -1.4126432418
| 33> H 1.4629497197 -4.662498316 -0.8403259422
| 34> H 1.9835203726 -3.7074845773 -2.268703172
| 35> H 2.868664233 0.0511648927 0.2942503966
| 36> H 1.4511650788 -0.8346930551 0.8924527849
| 37> H -1.5919927028 3.6622006976 0.8325592372
| 38> H 0.0312433868 3.6606499776 1.5858277784
| 39> H 0.9729402791 4.8149208619 -0.3983924616
| 40> H -0.6102939759 4.786183435 -1.1938100942
| 41> H -0.3649914275 5.7613785212 0.2644565901
| 42> H -4.2284909401 2.0614045897 -0.5506157733
| 43> H -4.2841466925 0.2722636679 -0.6031220641
| 44> H -3.083775725 1.1531508444 -1.5882305094
| 45> H -1.273619567 -2.8012257221 -0.0498255741
| 46> H -2.7583789154 -3.2591802403 0.8402892165
| 47> H -1.3544682567 -2.5811614717 1.7195300548
| 48> *
| 49>
| 50>                          ****END OF INPUT****

CARTESIAN COORDINATES (ANGSTROEM)
---------------------------------
  C      3.609368   -4.412413   -1.025728
  C      2.179585   -3.932530   -1.216559
  O      1.923397   -2.744846   -0.440414
  C      2.257392   -1.578200   -0.953434
  O      2.728897   -1.417907   -2.057098
  C      1.939653   -0.442801   -0.000676
  C      1.063320    0.585913   -0.707546
  H      1.532643    0.849993   -1.663495
  C      0.922316    1.865850    0.098215
  O      1.836930    2.330259    0.734649
  O     -0.271548    2.412480   -0.030053
  C     -0.518635    3.665465    0.640316
  C     -0.102103    4.834823   -0.234724
  S     -0.547793   -0.112476   -1.186632
  P     -1.619216    0.056078    0.650051
  S     -0.619702    0.271570    2.322344
  O     -2.733067    1.158386    0.464839
  C     -3.644315    1.150778   -0.653579
  O     -2.515125   -1.271419    0.601145
  C     -1.926155   -2.562021    0.790373
  H      3.812917   -4.573077    0.029456
  H      3.749488   -5.344049   -1.563783
  H      4.307136   -3.673240   -1.412643
  H      1.462950   -4.662498   -0.840326
  H      1.983520   -3.707485   -2.268703
  H      2.868664    0.051165    0.294250
  H      1.451165   -0.834693    0.892453
  H     -1.591993    3.662201    0.832559
  H      0.031243    3.660650    1.585828
  H      0.972940    4.814921   -0.398392
  H     -0.610294    4.786183   -1.193810
  H     -0.364991    5.761379    0.264457
  H     -4.228491    2.061405   -0.550616
  H     -4.284147    0.272264   -0.603122
  H     -3.083776    1.153151   -1.588231
  H     -1.273620   -2.801226   -0.049826
  H     -2.758379   -3.259180    0.840289
  H     -1.354468   -2.581161    1.719530

 Total Charge           Charge          ....    0
 Multiplicity           Mult            ....    1
 Number of Electrons    NEL             ....  174
 Basis Dimension        Dim             ....  510

ORBITAL ENERGIES
----------------

  NO   OCC          E(Eh)            E(eV)
   0   2.0000     -88.581147     -2410.4156
   1   2.0000     -88.531853     -2409.0742
   2   2.0000     -76.923258     -2093.1883
   3   2.0000     -19.011448      -517.3278
   4   2.0000     -19.009772      -517.2822
   5   2.0000     -18.999292      -516.9970
   6   2.0000     -18.995533      -516.8947
   7   2.0000     -18.953844      -515.7603
   8   2.0000     -18.949254      -515.6354
   9   2.0000     -10.179332      -276.9937
  10   2.0000     -10.170708      -276.7590
  11   2.0000     -10.102597      -274.9056
  12   2.0000     -10.087348      -274.4907
  13   2.0000     -10.086142      -274.4579
  14   2.0000     -10.085593      -274.4429
  15   2.0000     -10.082125      -274.3486
  16   2.0000     -10.052774      -273.5499
  17   2.0000     -10.020160      -272.6624
  18   2.0000     -10.019510      -272.6447
  19   2.0000      -7.875479      -214.3027
  20   2.0000      -7.826915      -212.9812
  21   2.0000      -6.601508      -179.6362
  22   2.0000      -5.822505      -158.4384
  23   2.0000      -5.819272      -158.3504
  24   2.0000      -5.812490      -158.1659
  25   2.0000      -5.774726      -157.1383
  26   2.0000      -5.767150      -156.9321
  27   2.0000      -5.766745      -156.9211
  28   2.0000      -4.747183      -129.1774
  29   2.0000      -4.746552      -129.1602
  30   2.0000      -4.745094      -129.1206
  31   2.0000      -1.092022       -29.7154
  32   2.0000      -1.086995       -29.5786
  33   2.0000      -1.055366       -28.7180
  34   2.0000      -1.012753       -27.5584
  35   2.0000      -1.002843       -27.2887
  36   2.0000      -0.996904       -27.1271
  37   2.0000      -0.815418       -22.1887
  38   2.0000      -0.752100       -20.4657
  39   2.0000      -0.739151       -20.1133
  40   2.0000      -0.731977       -19.9181
  41   2.0000      -0.696218       -18.9450
  42   2.0000      -0.671308       -18.2672
  43   2.0000      -0.663260       -18.0482
  44   2.0000      -0.654824       -17.8187
  45   2.0000      -0.629434       -17.1278
  46   2.0000      -0.596328       -16.2269
  47   2.0000      -0.543521       -14.7900
  48   2.0000      -0.528467       -14.3803
  49   2.0000      -0.524047       -14.2601
  50   2.0000      -0.509914       -13.8755
  51   2.0000      -0.494333       -13.4515
  52   2.0000      -0.477739       -12.9999
  53   2.0000      -0.469171       -12.7668
  54   2.0000      -0.464827       -12.6486
  55   2.0000      -0.458025       -12.4635
  56   2.0000      -0.450624       -12.2621
  57   2.0000      -0.448591       -12.2068
  58   2.0000      -0.433942       -11.8082
  59   2.0000      -0.428549       -11.6614
  60   2.0000      -0.424151       -11.5417
  61   2.0000      -0.414993       -11.2925
  62   2.0000      -0.411299       -11.1920
  63   2.0000      -0.406653       -11.0656
  64   2.0000      -0.394398       -10.7321
  65   2.0000      -0.380294       -10.3483
  66   2.0000      -0.375593       -10.2204
  67   2.0000      -0.366893        -9.9837
  68   2.0000      -0.360856        -9.8194
  69   2.0000      -0.351878        -9.5751
  70   2.0000      -0.349774        -9.5178
  71   2.0000      -0.347664        -9.4604
  72   2.0000      -0.336904        -9.1676
  73   2.0000      -0.327786        -8.9195
  74   2.0000      -0.323429        -8.8010
  75   2.0000      -0.316765        -8.6196
  76   2.0000      -0.310623        -8.4525
  77   2.0000      -0.307823        -8.3763
  78   2.0000      -0.292209        -7.9514
  79   2.0000      -0.285165        -7.7597
  80   2.0000      -0.284451        -7.7403
  81   2.0000      -0.282546        -7.6885
  82   2.0000      -0.268645        -7.3102
  83   2.0000      -0.260607        -7.0915
  84   2.0000      -0.240504        -6.5444
  85   2.0000      -0.230334        -6.2677
  86   2.0000      -0.227873        -6.2008
  87   0.0000      -0.052088        -1.4174
  88   0.0000      -0.041605        -1.1321
  89   0.0000      -0.022781        -0.6199
  90   0.0000      -0.001689        -0.0460
  91   0.0000       0.007704         0.2096

MULLIKEN ATOMIC CHARGES
-----------------------
   0 C :   -0.496388
   1 C :   -0.142368
   2 O :   -0.182171
   3 C :    0.417707
   4 O :   -0.494229
   5 C :   -0.416475
   6 C :   -0.039715
   7 H :    0.254858
   8 C :    0.317085
   9 O :   -0.468588
  10 O :   -0.157087
  11 C :   -0.146362
  12 C :   -0.500111
  13 S :   -0.180500
  14 P :    0.811548
  15 S :   -0.487303
  16 O :   -0.351639
  17 C :   -0.299552
  18 O :   -0.385296
  19 C :   -0.313463
  20 H :    0.166899
  21 H :    0.172210
  22 H :    0.171078
  23 H :    0.178055
  24 H :    0.175536
  25 H :    0.224861
  26 H :    0.209489
  27 H :    0.182903
  28 H :    0.179310
  29 H :    0.171022
  30 H :    0.168982
  31 H :    0.173688
  32 H :    0.184266
  33 H :    0.186244
  34 H :    0.180010
  35 H :    0.174950
  36 H :    0.180863
  37 H :    0.179679
Sum of atomic charges:    0.0000000

LOEWDIN ATOMIC CHARGES
----------------------
   0 C :   -0.391024
   1 C :    0.034826
   2 O :   -0.585943
   3 C :    0.356031
   4 O :   -0.482483
   5 C :   -0.206762
   6 C :   -0.187910
   7 H :    0.228592
   8 C :    0.347556
   9 O :   -0.465679
  10 O :   -0.632930
  11 C :    0.035480
  12 C :   -0.387649
  13 S :    0.218347
  14 P :    0.411397
  15 S :   -0.097723
  16 O :   -0.668498
  17 C :   -0.041845
  18 O :   -0.693700
  19 C :   -0.055867
  20 H :    0.162839
  21 H :    0.168757
  22 H :    0.163215
  23 H :    0.191086
  24 H :    0.190771
  25 H :    0.209151
  26 H :    0.198451
  27 H :    0.193299
  28 H :    0.193674
  29 H :    0.163893
  30 H :    0.163671
  31 H :    0.169225
  32 H :    0.191906
  33 H :    0.182125
  34 H :    0.179805
  35 H :    0.176619
  36 H :    0.189417
  37 H :    0.177880

  Mayer bond orders larger than 0.100000
B(  0-C ,  1-C ) :   0.9342 B(  0-C , 20-H ) :   0.9691 B(  0-C , 21-H ) :   0.9593
B(  0-C , 22-H ) :   0.9687 B(  1-C ,  2-O ) :   0.7927 B(  1-C , 23-H ) :   0.9506
B(  1-C , 24-H ) :   0.9627 B(  2-O ,  3-C ) :   1.0843 B(  3-C ,  4-O ) :   1.7844
B(  3-C ,  5-C ) :   0.9405 B(  5-C ,  6-C ) :   0.9029 B(  5-C , 25-H ) :   0.9268
B(  5-C , 26-H ) :   0.9537 B(  6-C ,  7-H ) :   0.8753 B(  6-C ,  8-C ) :   0.9557
B(  6-C , 13-S ) :   0.8262 B(  8-C ,  9-O ) :   1.8291 B(  8-C , 10-O ) :   1.1254
B( 10-O , 11-C ) :   0.7729 B( 11-C , 12-C ) :   0.9324 B( 11-C , 27-H ) :   0.9472
B( 11-C , 28-H ) :   0.9544 B( 12-C , 29-H ) :   0.9693 B( 12-C , 30-H ) :   0.9720
B( 12-C , 31-H ) :   0.9597 B( 13-S , 14-P ) :   1.0172 B( 14-P , 15-S ) :   1.7440
B( 14-P , 16-O ) :   1.1506 B( 14-P , 18-O ) :   1.0266 B( 16-O , 17-C ) :   0.7913
B( 17-C , 32-H ) :   0.9540 B( 17-C , 33-H ) :   0.9522 B( 17-C , 34-H ) :   0.9468
B( 18-O , 19-C ) :   0.8267 B( 19-C , 35-H ) :   0.9468 B( 19-C , 36-H ) :   0.9568
B( 19-C , 37-H ) :   0.9540

Dispersion correction           -0.017734710
FINAL SINGLE POINT ENERGY     -1981.469288505096

DIPOLE MOMENT
-------------

Method             : SCF
Type of density    : Electron Density
Multiplicity       :   1
Irrep              :   0
Energy             : -1981.4889078028327276 Eh
Relativity type    :
Basis              : AO
                                X                 Y                 Z
Electronic contribution:     -5.659639075       3.163912242       4.698082645
Nuclear contribution   :      3.955298466      -4.141316715      -5.947769339
                        -----------------------------------------
Total Dipole Moment    :     -1.704340609      -0.977404473      -1.249686694
                        -----------------------------------------
Magnitude (a.u.)       :      2.328478741
Magnitude (Debye)      :      5.918522607

Rotational constants in cm-1:             0.013704             0.007077             0.005627
Rotational constants in MHz :           410.844837           212.170015           168.705618

                             ****ORCA TERMINATED NORMALLY****
TOTAL RUN TIME: 0 days 0 hours 2 minutes 1 seconds 134 msec
