                         Program Version 6.0.0  -   RELEASE  -
|  1> ! pbe def2-sv(p) def2/J RI DEFGRID1 loosescf d4 GCP(DFT/SV(P)) printgap
|  2> %output
|  3>     printlevel normal
|  4> end
|  5> * xyz 0 1
|  6> C 5.6489667288 0.7383416184 -1.380945963
|  7> C 4.4614948018 1.1483435372 -0.5334279448
|  8> O 3.3764449025 0.2393052141 -0.8145547623
|  9> P 2.2167006661 -0.0339873398 0.2317537467
| 10> S 2.8121424043 -0.3644246107 2.0725588043
| 11> O 1.405293891 -1.1924399796 -0.4709532195
| 12> C 1.6156443873 -2.5845805902 -0.1629758683
| 13> C 2.9764114719 -3.0578539824 -0.6256436073
| 14> S 0.9188341067 1.6054729663 -0.0417878455
| 15> C -0.0288994651 1.3717458091 1.4874239121
| 16> S -0.9334439328 -0.2026013107 1.5448068809
| 17> P -2.0727877083 -0.0487822826 -0.2425172114
| 18> S -1.343391083 -0.5150101287 -1.9922509695
| 19> O -2.5648661578 1.4623763211 -0.0696458024
| 20> C -2.9638274742 2.2587031498 -1.202637356
| 21> C -4.3288115966 1.8410410234 -1.7097192946
| 22> O -3.2980375103 -1.0023957837 0.0759786963
| 23> C -4.1517480234 -0.8357186434 1.236783768
| 24> C -5.5471161593 -1.2899678161 0.8595792172
| 25> H 5.3733109422 0.7464653394 -2.4315014575
| 26> H 6.4616991382 1.43788307 -1.2155459219
| 27> H 5.9765075435 -0.2617550225 -1.1109948437
| 28> H 4.1258656102 2.1593108726 -0.7782530216
| 29> H 4.6941799145 1.0945984727 0.5356672757
| 30> H 1.4990516669 -2.7201550996 0.9177541515
| 31> H 0.8041691209 -3.0900906196 -0.6896515508
| 32> H 3.0636209944 -4.1263159573 -0.4554607162
| 33> H 3.1053682474 -2.8446543336 -1.6836160994
| 34> H 3.7543183848 -2.5426999631 -0.0627154651
| 35> H -0.7269058951 2.2012110681 1.5580390263
| 36> H 0.6530143789 1.3486078467 2.3381576456
| 37> H -2.9630155547 3.2817986062 -0.8243911434
| 38> H -2.2092933109 2.1511056744 -1.9879875652
| 39> H -4.6160202645 2.4791627602 -2.5393614644
| 40> H -4.2885342925 0.8082086052 -2.0554413694
| 41> H -5.0694692859 1.9245748115 -0.9184348434
| 42> H -3.7343054741 -1.4482705842 2.0389477503
| 43> H -4.1386099258 0.2141768265 1.5394460124
| 44> H -6.1924599938 -1.2156320545 1.7289037471
| 45> H -5.9447869574 -0.6695321685 0.0611635197
| 46> H -5.5203449013 -2.3206652986 0.5179276421
| 47> *
| 48>
| 49>                          ****END OF INPUT****

CARTESIAN COORDINATES (ANGSTROEM)
---------------------------------
  C      5.648967    0.738342   -1.380946
  C      4.461495    1.148344   -0.533428
  O      3.376445    0.239305   -0.814555
  P      2.216701   -0.033987    0.231754
  S      2.812142   -0.364425    2.072559
  O      1.405294   -1.192440   -0.470953
  C      1.615644   -2.584581   -0.162976
  C      2.976411   -3.057854   -0.625644
  S      0.918834    1.605473   -0.041788
  C     -0.028899    1.371746    1.487424
  S     -0.933444   -0.202601    1.544807
  P     -2.072788   -0.048782   -0.242517
  S     -1.343391   -0.515010   -1.992251
  O     -2.564866    1.462376   -0.069646
  C     -2.963827    2.258703   -1.202637
  C     -4.328812    1.841041   -1.709719
  O     -3.298038   -1.002396    0.075979
  C     -4.151748   -0.835719    1.236784
  C     -5.547116   -1.289968    0.859579
  H      5.373311    0.746465   -2.431501
  H      6.461699    1.437883   -1.215546
  H      5.976508   -0.261755   -1.110995
  H      4.125866    2.159311   -0.778253
  H      4.694180    1.094598    0.535667
  H      1.499052   -2.720155    0.917754
  H      0.804169   -3.090091   -0.689652
  H      3.063621   -4.126316   -0.455461
  H      3.105368   -2.844654   -1.683616
  H      3.754318   -2.542700   -0.062715
  H     -0.726906    2.201211    1.558039
  H      0.653014    1.348608    2.338158
  H     -2.963016    3.281799   -0.824391
  H     -2.209293    2.151106   -1.987988
  H     -4.616020    2.479163   -2.539361
  H     -4.288534    0.808209   -2.055441
  H     -5.069469    1.924575   -0.918435
  H     -3.734305   -1.448271    2.038948
  H     -4.138610    0.214177    1.539446
  H     -6.192460   -1.215632    1.728904
  H     -5.944787   -0.669532    0.061164
  H     -5.520345   -2.320665    0.517928

 Total Charge           Charge          ....    0
 Multiplicity           Mult            ....    1
 Number of Electrons    NEL             ....  202
 Basis Dimension        Dim             ....  334

ORBITAL ENERGIES
----------------

  NO   OCC          E(Eh)            E(eV)
   0   2.0000     -88.038946     -2395.6615
   1   2.0000     -88.038341     -2395.6450
   2   2.0000     -87.984343     -2394.1757
   3   2.0000     -87.976515     -2393.9627
   4   2.0000     -76.422213     -2079.5541
   5   2.0000     -76.421059     -2079.5227
   6   2.0000     -18.794929      -511.4360
   7   2.0000     -18.790705      -511.3211
   8   2.0000     -18.790583      -511.3178
   9   2.0000     -18.780972      -511.0562
  10   2.0000      -9.955777      -270.9105
  11   2.0000      -9.955017      -270.8898
  12   2.0000      -9.952268      -270.8150
  13   2.0000      -9.951194      -270.7857
  14   2.0000      -9.941176      -270.5131
  15   2.0000      -9.891021      -269.1484
  16   2.0000      -9.887116      -269.0421
  17   2.0000      -9.886708      -269.0310
  18   2.0000      -9.876375      -268.7498
  19   2.0000      -7.684317      -209.1009
  20   2.0000      -7.683289      -209.0729
  21   2.0000      -7.629342      -207.6049
  22   2.0000      -7.621890      -207.4022
  23   2.0000      -6.419842      -174.6928
  24   2.0000      -6.418698      -174.6617
  25   2.0000      -5.712158      -155.4357
  26   2.0000      -5.711376      -155.4144
  27   2.0000      -5.708927      -155.3478
  28   2.0000      -5.707691      -155.3142
  29   2.0000      -5.701145      -155.1361
  30   2.0000      -5.700164      -155.1094
  31   2.0000      -5.658048      -153.9633
  32   2.0000      -5.651002      -153.7716
  33   2.0000      -5.650057      -153.7459
  34   2.0000      -5.649628      -153.7342
  35   2.0000      -5.642341      -153.5359
  36   2.0000      -5.641962      -153.5256
  37   2.0000      -4.642191      -126.3204
  38   2.0000      -4.641887      -126.3122
  39   2.0000      -4.641593      -126.3042
  40   2.0000      -4.640506      -126.2746
  41   2.0000      -4.640215      -126.2667
  42   2.0000      -4.638832      -126.2290
  43   2.0000      -0.984566       -26.7914
  44   2.0000      -0.982184       -26.7266
  45   2.0000      -0.945257       -25.7218
  46   2.0000      -0.940595       -25.5949
  47   2.0000      -0.761937       -20.7334
  48   2.0000      -0.720534       -19.6067
  49   2.0000      -0.708168       -19.2702
  50   2.0000      -0.692764       -18.8511
  51   2.0000      -0.683080       -18.5875
  52   2.0000      -0.667954       -18.1760
  53   2.0000      -0.646726       -17.5983
  54   2.0000      -0.636449       -17.3187
  55   2.0000      -0.595104       -16.1936
  56   2.0000      -0.587271       -15.9805
  57   2.0000      -0.572102       -15.5677
  58   2.0000      -0.565142       -15.3783
  59   2.0000      -0.559047       -15.2124
  60   2.0000      -0.505738       -13.7618
  61   2.0000      -0.498556       -13.5664
  62   2.0000      -0.481997       -13.1158
  63   2.0000      -0.470365       -12.7993
  64   2.0000      -0.455180       -12.3861
  65   2.0000      -0.442700       -12.0465
  66   2.0000      -0.441585       -12.0161
  67   2.0000      -0.432028       -11.7561
  68   2.0000      -0.423756       -11.5310
  69   2.0000      -0.405348       -11.0301
  70   2.0000      -0.403263       -10.9734
  71   2.0000      -0.396119       -10.7789
  72   2.0000      -0.392346       -10.6763
  73   2.0000      -0.388665       -10.5761
  74   2.0000      -0.378235       -10.2923
  75   2.0000      -0.370104       -10.0710
  76   2.0000      -0.365366        -9.9421
  77   2.0000      -0.358325        -9.7505
  78   2.0000      -0.355348        -9.6695
  79   2.0000      -0.351721        -9.5708
  80   2.0000      -0.348013        -9.4699
  81   2.0000      -0.343998        -9.3607
  82   2.0000      -0.341907        -9.3038
  83   2.0000      -0.337773        -9.1913
  84   2.0000      -0.329304        -8.9608
  85   2.0000      -0.318616        -8.6700
  86   2.0000      -0.310455        -8.4479
  87   2.0000      -0.307184        -8.3589
  88   2.0000      -0.297248        -8.0885
  89   2.0000      -0.280938        -7.6447
  90   2.0000      -0.278360        -7.5746
  91   2.0000      -0.269433        -7.3317
  92   2.0000      -0.267568        -7.2809
  93   2.0000      -0.266199        -7.2436
  94   2.0000      -0.260017        -7.0754
  95   2.0000      -0.234146        -6.3714
  96   2.0000      -0.216217        -5.8836
  97   2.0000      -0.205584        -5.5942
  98   2.0000      -0.202023        -5.4973
  99   2.0000      -0.192412        -5.2358
 100   2.0000      -0.186930        -5.0866
 101   0.0000      -0.044974        -1.2238
 102   0.0000      -0.018241        -0.4964
 103   0.0000      -0.007246        -0.1972
 104   0.0000       0.008901         0.2422
 105   0.0000       0.022843         0.6216

MULLIKEN ATOMIC CHARGES
-----------------------
   0 C :   -0.283420
   1 C :   -0.010506
   2 O :   -0.372129
   3 P :    0.623321
   4 S :   -0.345437
   5 O :   -0.341667
   6 C :    0.001939
   7 C :   -0.311096
   8 S :   -0.088624
   9 C :   -0.348424
  10 S :   -0.099007
  11 P :    0.614132
  12 S :   -0.289849
  13 O :   -0.395254
  14 C :   -0.009177
  15 C :   -0.317893
  16 O :   -0.371153
  17 C :   -0.024075
  18 C :   -0.282746
  19 H :    0.119108
  20 H :    0.111345
  21 H :    0.120465
  22 H :    0.102462
  23 H :    0.105455
  24 H :    0.109217
  25 H :    0.107840
  26 H :    0.109815
  27 H :    0.118543
  28 H :    0.119834
  29 H :    0.184115
  30 H :    0.192024
  31 H :    0.100836
  32 H :    0.117815
  33 H :    0.114513
  34 H :    0.133336
  35 H :    0.113191
  36 H :    0.112745
  37 H :    0.105979
  38 H :    0.111057
  39 H :    0.118129
  40 H :    0.123241
Sum of atomic charges:   -0.0000000

LOEWDIN ATOMIC CHARGES
----------------------
   0 C :   -0.350492
   1 C :   -0.119909
   2 O :   -0.244149
   3 P :    0.573612
   4 S :   -0.330558
   5 O :   -0.224226
   6 C :   -0.115833
   7 C :   -0.365776
   8 S :    0.082723
   9 C :   -0.476501
  10 S :    0.078412
  11 P :    0.561192
  12 S :   -0.294925
  13 O :   -0.255745
  14 C :   -0.122210
  15 C :   -0.365858
  16 O :   -0.247266
  17 C :   -0.121423
  18 C :   -0.350978
  19 H :    0.128047
  20 H :    0.130546
  21 H :    0.128190
  22 H :    0.111158
  23 H :    0.107413
  24 H :    0.109332
  25 H :    0.119936
  26 H :    0.129319
  27 H :    0.126994
  28 H :    0.119469
  29 H :    0.131818
  30 H :    0.129977
  31 H :    0.115533
  32 H :    0.112415
  33 H :    0.132126
  34 H :    0.126580
  35 H :    0.121263
  36 H :    0.114680
  37 H :    0.107741
  38 H :    0.130160
  39 H :    0.126262
  40 H :    0.130949

  Mayer bond orders larger than 0.100000
B(  0-C ,  1-C ) :   1.1617 B(  0-C , 19-H ) :   0.9502 B(  0-C , 20-H ) :   0.9417
B(  0-C , 21-H ) :   0.9511 B(  1-C ,  2-O ) :   0.9037 B(  1-C , 22-H ) :   0.9307
B(  1-C , 23-H ) :   0.9065 B(  2-O ,  3-P ) :   1.1139 B(  3-P ,  4-S ) :   1.5894
B(  3-P ,  5-O ) :   1.1546 B(  3-P ,  8-S ) :   0.9556 B(  4-S ,  8-S ) :   0.1090
B(  5-O ,  6-C ) :   0.9025 B(  6-C ,  7-C ) :   1.1643 B(  6-C , 24-H ) :   0.9184
B(  6-C , 25-H ) :   0.9295 B(  7-C , 26-H ) :   0.9395 B(  7-C , 27-H ) :   0.9457
B(  7-C , 28-H ) :   0.9351 B(  8-S ,  9-C ) :   1.0113 B(  9-C , 10-S ) :   0.9995
B(  9-C , 29-H ) :   0.9026 B(  9-C , 30-H ) :   0.8815 B( 10-S , 11-P ) :   0.9532
B( 10-S , 12-S ) :   0.1062 B( 11-P , 12-S ) :   1.6718 B( 11-P , 13-O ) :   1.0511
B( 11-P , 16-O ) :   1.1169 B( 13-O , 14-C ) :   0.9038 B( 14-C , 15-C ) :   1.1631
B( 14-C , 31-H ) :   0.9335 B( 14-C , 32-H ) :   0.9103 B( 15-C , 33-H ) :   0.9389
B( 15-C , 34-H ) :   0.9330 B( 15-C , 35-H ) :   0.9441 B( 16-O , 17-C ) :   0.8956
B( 17-C , 18-C ) :   1.1623 B( 17-C , 36-H ) :   0.9312 B( 17-C , 37-H ) :   0.9165
B( 18-C , 38-H ) :   0.9409 B( 18-C , 39-H ) :   0.9482 B( 18-C , 40-H ) :   0.9484

Dispersion correction           -0.065100058
FINAL SINGLE POINT ENERGY     -2929.520742663451

DIPOLE MOMENT
-------------

Method             : SCF
Type of density    : Electron Density
Multiplicity       :   1
Irrep              :   0
Energy             : -2929.6393140717946153 Eh
Relativity type    :
Basis              : AO
                                X                 Y                 Z
Electronic contribution:      5.005796177       1.991584657       5.394775156
Nuclear contribution   :     -5.715001159      -1.255061707      -5.231381497
                        -----------------------------------------
Total Dipole Moment    :     -0.709204983       0.736522949       0.163393659
                        -----------------------------------------
Magnitude (a.u.)       :      1.035439641
Magnitude (Debye)      :      2.631878409

Rotational constants in cm-1:             0.014293             0.004535             0.004328
Rotational constants in MHz :           428.494860           135.950861           129.760471

                             ****ORCA TERMINATED NORMALLY****
TOTAL RUN TIME: 0 days 0 hours 0 minutes 20 seconds 690 msec
