                         Program Version 6.0.0  -   RELEASE  -
|  1> ! wb97x-v def2-tzvp def2/J RIJCOSX DEFGRID2 scfconv7 GCP(DFT/TZ) printgap
|  2> %output
|  3>     printlevel normal
|  4> end
|  5> * xyz 0 1
|  6> C 1.2158126021989175 0.5747534707103664 -2.011150605794392e-05
|  7> C 0.3043066045059306 -0.6214168131461261 -2.8525844287060415e-05
|  8> Br -1.570036446188843 0.04370285742829089 -1.5018561746943134e-05
|  9> Cl 2.9447968514806866 -0.04862618802851528 -3.3447616741122596e-05
| 10> H 1.1071792188432397 1.1847258223798485 -0.8968368648189868
| 11> H 1.1071923177861376 1.1847053395904492 0.8968117098070623
| 12> H 0.40696679674225233 -1.2287235824003946 0.8976851949498155
| 13> H 0.40695807995993766 -1.2287078253582342 -0.8977540052393587
| 14> *
| 15>
| 16>                          ****END OF INPUT****

CARTESIAN COORDINATES (ANGSTROEM)
---------------------------------
  C      1.215813    0.574753   -0.000020
  C      0.304307   -0.621417   -0.000029
  Br    -1.570036    0.043703   -0.000015
  Cl     2.944797   -0.048626   -0.000033
  H      1.107179    1.184726   -0.896837
  H      1.107192    1.184705    0.896812
  H      0.406967   -1.228724    0.897685
  H      0.406958   -1.228708   -0.897754

 Total Charge           Charge          ....    0
 Multiplicity           Mult            ....    1
 Number of Electrons    NEL             ....   68
 Basis Dimension        Dim             ....  171

ORBITAL ENERGIES
----------------

  NO   OCC          E(Eh)            E(eV)
   0   2.0000    -494.725595    -13462.1678
   1   2.0000    -107.142025     -2915.4827
   2   2.0000     -66.895223     -1820.3116
   3   2.0000     -60.952143     -1658.5921
   4   2.0000     -60.950486     -1658.5470
   5   2.0000     -60.950361     -1658.5436
   6   2.0000     -12.132462      -330.1411
   7   2.0000     -12.127988      -330.0193
   8   2.0000     -11.295135      -307.3562
   9   2.0000     -10.646973      -289.7189
  10   2.0000      -9.086507      -247.2564
  11   2.0000      -9.083847      -247.1840
  12   2.0000      -9.083813      -247.1831
  13   2.0000      -8.426778      -229.3043
  14   2.0000      -8.419984      -229.1194
  15   2.0000      -8.419907      -229.1173
  16   2.0000      -4.411865      -120.0530
  17   2.0000      -4.409233      -119.9813
  18   2.0000      -4.409176      -119.9798
  19   2.0000      -4.401708      -119.7766
  20   2.0000      -4.401681      -119.7758
  21   2.0000      -1.410440       -38.3800
  22   2.0000      -1.349462       -36.7207
  23   2.0000      -1.258674       -34.2503
  24   2.0000      -1.119375       -30.4598
  25   2.0000      -0.942206       -25.6387
  26   2.0000      -0.907939       -24.7063
  27   2.0000      -0.901408       -24.5286
  28   2.0000      -0.851558       -23.1721
  29   2.0000      -0.824453       -22.4345
  30   2.0000      -0.783458       -21.3190
  31   2.0000      -0.776364       -21.1259
  32   2.0000      -0.730681       -19.8828
  33   2.0000      -0.727290       -19.7906
  34   0.0000      -0.331646        -9.0245
  35   0.0000      -0.244582        -6.6554
  36   0.0000      -0.046476        -1.2647
  37   0.0000      -0.015712        -0.4275
  38   0.0000      -0.004630        -0.1260

MULLIKEN ATOMIC CHARGES
-----------------------
   0 C :   -0.127300
   1 C :   -0.174667
   2 Br:   -0.127282
   3 Cl:   -0.159129
   4 H :    0.145472
   5 H :    0.145473
   6 H :    0.148715
   7 H :    0.148718
Sum of atomic charges:    0.0000000

LOEWDIN ATOMIC CHARGES
----------------------
   0 C :   -0.483859
   1 C :   -0.457701
   2 Br:    0.204290
   3 Cl:    0.230321
   4 H :    0.125723
   5 H :    0.125723
   6 H :    0.127751
   7 H :    0.127751

  Mayer bond orders larger than 0.100000
B(  0-C ,  1-C ) :   1.0131 B(  0-C ,  3-Cl) :   1.0388 B(  0-C ,  4-H ) :   0.9624
B(  0-C ,  5-H ) :   0.9624 B(  1-C ,  2-Br) :   1.0284 B(  1-C ,  6-H ) :   0.9603
B(  1-C ,  7-H ) :   0.9603

FINAL SINGLE POINT ENERGY     -3112.689241014459

DIPOLE MOMENT
-------------

Method             : SCF
Type of density    : Electron Density
Multiplicity       :   1
Irrep              :   0
Energy             : -3112.6959528598586076 Eh
Relativity type    :
Basis              : AO
                                X                 Y                 Z
Electronic contribution:    -13.503027336       0.371788145       0.000052207
Nuclear contribution   :     13.479125501      -0.369445642      -0.000050728
                        -----------------------------------------
Total Dipole Moment    :     -0.023901835       0.002342503       0.000001479
                        -----------------------------------------
Magnitude (a.u.)       :      0.024016349
Magnitude (Debye)      :      0.061044709

Rotational constants in cm-1:             0.939795             0.031847             0.031173
Rotational constants in MHz :         28174.339776           954.752884           934.545954

                             ****ORCA TERMINATED NORMALLY****
TOTAL RUN TIME: 0 days 0 hours 0 minutes 51 seconds 803 msec
