                         Program Version 6.0.1  -  RELEASE   -
|  1> ! pbe def2-sv(p) def2/J RI DEFGRID1 loosescf d4 GCP(DFT/SV(P)) printgap
|  2> %output
|  3>     printlevel normal
|  4> end
|  5> * xyz 0 1
|  6> C 5.2688619085 0.059070416 -0.7755138094
|  7> C 4.8368070072 -1.2961550281 -1.3114489174
|  8> O 3.5747634491 -1.7015338922 -0.7456860447
|  9> C 2.4671865655 -1.2570866789 -1.3032854844
| 10> O 2.4226875537 -0.5324025998 -2.2720855742
| 11> C 1.2380618475 -1.8033277364 -0.5978145364
| 12> C 0.2123165943 -0.6902432527 -0.4316086732
| 13> H 0.0702425497 -0.1732410698 -1.3900959162
| 14> C 0.6302122517 0.3554696015 0.5833110276
| 15> O -0.1654070483 0.8755188544 1.3397578223
| 16> O 1.9053928687 0.629162672 0.5253506971
| 17> C 2.4358862441 1.6138996913 1.441493961
| 18> C 2.8229266244 0.9623531734 2.7584492458
| 19> S -1.4020374983 -1.3522201742 0.0940194284
| 20> P -2.4974978306 0.4697712294 0.1396312614
| 21> S -1.8693398348 1.9255820008 -1.0107066046
| 22> O -3.9483470434 -0.0694515736 -0.3018573292
| 23> C -4.207404573 -0.5113798507 -1.6362598382
| 24> O -2.8407797259 0.8856722044 1.6226330414
| 25> C -3.3977515757 -0.0431829932 2.5736882942
| 26> H 6.2409406139 0.3135685053 -1.1848742083
| 27> H 4.5497375946 0.8187981499 -1.073409268
| 28> H 5.3320008791 0.0319468685 0.3085789144
| 29> H 5.5311793923 -2.0828359311 -1.0164051594
| 30> H 4.7352232829 -1.2634976246 -2.3998987076
| 31> H 1.5250312393 -2.2318495639 0.3609697557
| 32> H 0.8070850453 -2.587232989 -1.2237126208
| 33> H 3.3036783199 2.0240415001 0.9250981465
| 34> H 1.6811107815 2.3907044119 1.591168188
| 35> H 3.2977311629 1.7016701009 3.3947529996
| 36> H 1.9381867788 0.579653637 3.2619910737
| 37> H 3.5139950288 0.142626779 2.581673466
| 38> H -3.7345265053 -1.4788946808 -1.8049225141
| 39> H -3.8286989707 0.2193635943 -2.3531513176
| 40> H -5.2884412402 -0.5934309813 -1.7138625881
| 41> H -3.4287446303 0.5024127194 3.5131639219
| 42> H -2.7551523795 -0.9197565157 2.658266576
| 43> H -4.3971659426 -0.3390331559 2.259716779
| 44> *
| 45>
| 46>                          ****END OF INPUT****

CARTESIAN COORDINATES (ANGSTROEM)
---------------------------------
  C      5.268862    0.059070   -0.775514
  C      4.836807   -1.296155   -1.311449
  O      3.574763   -1.701534   -0.745686
  C      2.467187   -1.257087   -1.303285
  O      2.422688   -0.532403   -2.272086
  C      1.238062   -1.803328   -0.597815
  C      0.212317   -0.690243   -0.431609
  H      0.070243   -0.173241   -1.390096
  C      0.630212    0.355470    0.583311
  O     -0.165407    0.875519    1.339758
  O      1.905393    0.629163    0.525351
  C      2.435886    1.613900    1.441494
  C      2.822927    0.962353    2.758449
  S     -1.402037   -1.352220    0.094019
  P     -2.497498    0.469771    0.139631
  S     -1.869340    1.925582   -1.010707
  O     -3.948347   -0.069452   -0.301857
  C     -4.207405   -0.511380   -1.636260
  O     -2.840780    0.885672    1.622633
  C     -3.397752   -0.043183    2.573688
  H      6.240941    0.313569   -1.184874
  H      4.549738    0.818798   -1.073409
  H      5.332001    0.031947    0.308579
  H      5.531179   -2.082836   -1.016405
  H      4.735223   -1.263498   -2.399899
  H      1.525031   -2.231850    0.360970
  H      0.807085   -2.587233   -1.223713
  H      3.303678    2.024042    0.925098
  H      1.681111    2.390704    1.591168
  H      3.297731    1.701670    3.394753
  H      1.938187    0.579654    3.261991
  H      3.513995    0.142627    2.581673
  H     -3.734527   -1.478895   -1.804923
  H     -3.828699    0.219364   -2.353151
  H     -5.288441   -0.593431   -1.713863
  H     -3.428745    0.502413    3.513164
  H     -2.755152   -0.919757    2.658267
  H     -4.397166   -0.339033    2.259717

 Total Charge           Charge          ....    0
 Multiplicity           Mult            ....    1
 Number of Electrons    NEL             ....  174
 Basis Dimension        Dim             ....  316

ORBITAL ENERGIES
----------------

  NO   OCC          E(Eh)            E(eV)
   0   2.0000     -88.036200     -2395.5868
   1   2.0000     -87.970028     -2393.7862
   2   2.0000     -76.416565     -2079.4005
   3   2.0000     -18.820921      -512.1433
   4   2.0000     -18.807280      -511.7721
   5   2.0000     -18.780575      -511.0454
   6   2.0000     -18.778291      -510.9833
   7   2.0000     -18.747161      -510.1362
   8   2.0000     -18.743113      -510.0260
   9   2.0000     -10.021256      -272.6922
  10   2.0000     -10.015963      -272.5482
  11   2.0000      -9.957466      -270.9564
  12   2.0000      -9.953984      -270.8617
  13   2.0000      -9.945574      -270.6328
  14   2.0000      -9.941883      -270.5324
  15   2.0000      -9.933724      -270.3104
  16   2.0000      -9.918063      -269.8842
  17   2.0000      -9.895573      -269.2722
  18   2.0000      -9.893631      -269.2194
  19   2.0000      -7.681055      -209.0121
  20   2.0000      -7.615283      -207.2224
  21   2.0000      -6.412786      -174.5008
  22   2.0000      -5.708776      -155.3437
  23   2.0000      -5.705690      -155.2597
  24   2.0000      -5.698122      -155.0538
  25   2.0000      -5.644572      -153.5966
  26   2.0000      -5.635890      -153.3604
  27   2.0000      -5.635051      -153.3375
  28   2.0000      -4.635551      -126.1398
  29   2.0000      -4.634841      -126.1204
  30   2.0000      -4.633073      -126.0723
  31   2.0000      -1.028577       -27.9890
  32   2.0000      -1.015008       -27.6198
  33   2.0000      -0.975054       -26.5326
  34   2.0000      -0.930870       -25.3303
  35   2.0000      -0.927363       -25.2348
  36   2.0000      -0.920425       -25.0460
  37   2.0000      -0.766590       -20.8600
  38   2.0000      -0.715580       -19.4719
  39   2.0000      -0.713577       -19.4174
  40   2.0000      -0.689348       -18.7581
  41   2.0000      -0.658856       -17.9284
  42   2.0000      -0.627435       -17.0734
  43   2.0000      -0.624696       -16.9988
  44   2.0000      -0.610553       -16.6140
  45   2.0000      -0.600910       -16.3516
  46   2.0000      -0.569205       -15.4889
  47   2.0000      -0.512967       -13.9585
  48   2.0000      -0.503836       -13.7101
  49   2.0000      -0.502180       -13.6650
  50   2.0000      -0.476190       -12.9578
  51   2.0000      -0.472876       -12.8676
  52   2.0000      -0.464338       -12.6353
  53   2.0000      -0.448713       -12.2101
  54   2.0000      -0.440061       -11.9747
  55   2.0000      -0.430931       -11.7262
  56   2.0000      -0.425046       -11.5661
  57   2.0000      -0.421990       -11.4829
  58   2.0000      -0.417068       -11.3490
  59   2.0000      -0.405902       -11.0452
  60   2.0000      -0.403480       -10.9792
  61   2.0000      -0.399537       -10.8720
  62   2.0000      -0.392483       -10.6800
  63   2.0000      -0.388837       -10.5808
  64   2.0000      -0.378866       -10.3095
  65   2.0000      -0.369601       -10.0574
  66   2.0000      -0.363081        -9.8799
  67   2.0000      -0.357212        -9.7202
  68   2.0000      -0.352803        -9.6003
  69   2.0000      -0.346078        -9.4173
  70   2.0000      -0.336549        -9.1580
  71   2.0000      -0.330456        -8.9922
  72   2.0000      -0.328397        -8.9361
  73   2.0000      -0.313143        -8.5211
  74   2.0000      -0.305870        -8.3232
  75   2.0000      -0.299576        -8.1519
  76   2.0000      -0.291035        -7.9195
  77   2.0000      -0.287053        -7.8111
  78   2.0000      -0.275278        -7.4907
  79   2.0000      -0.264412        -7.1950
  80   2.0000      -0.261669        -7.1204
  81   2.0000      -0.250080        -6.8050
  82   2.0000      -0.235911        -6.4195
  83   2.0000      -0.229040        -6.2325
  84   2.0000      -0.219048        -5.9606
  85   2.0000      -0.191557        -5.2125
  86   2.0000      -0.184274        -5.0144
  87   0.0000      -0.043822        -1.1925
  88   0.0000      -0.029562        -0.8044
  89   0.0000      -0.020472        -0.5571
  90   0.0000       0.012543         0.3413
  91   0.0000       0.024886         0.6772

MULLIKEN ATOMIC CHARGES
-----------------------
   0 C :   -0.322768
   1 C :   -0.012800
   2 O :   -0.229858
   3 C :    0.119432
   4 O :   -0.200946
   5 C :   -0.065398
   6 C :   -0.327802
   7 H :    0.174942
   8 C :    0.221744
   9 O :   -0.182489
  10 O :   -0.222922
  11 C :   -0.012639
  12 C :   -0.314984
  13 S :   -0.109124
  14 P :    0.624593
  15 S :   -0.325233
  16 O :   -0.396958
  17 C :   -0.098010
  18 O :   -0.353176
  19 C :   -0.101759
  20 H :    0.115275
  21 H :    0.140960
  22 H :    0.117092
  23 H :    0.104322
  24 H :    0.110057
  25 H :    0.105772
  26 H :    0.128116
  27 H :    0.111775
  28 H :    0.125397
  29 H :    0.118626
  30 H :    0.128857
  31 H :    0.119940
  32 H :    0.108301
  33 H :    0.115594
  34 H :    0.119931
  35 H :    0.129404
  36 H :    0.114578
  37 H :    0.122161
Sum of atomic charges:   -0.0000000

LOEWDIN ATOMIC CHARGES
----------------------
   0 C :   -0.357794
   1 C :   -0.109127
   2 O :   -0.057308
   3 C :    0.029924
   4 O :   -0.165511
   5 C :   -0.247105
   6 C :   -0.272804
   7 H :    0.151706
   8 C :    0.021703
   9 O :   -0.154417
  10 O :   -0.033860
  11 C :   -0.105259
  12 C :   -0.355969
  13 S :    0.087258
  14 P :    0.586244
  15 S :   -0.321553
  16 O :   -0.268239
  17 C :   -0.219952
  18 O :   -0.231362
  19 C :   -0.208180
  20 H :    0.132092
  21 H :    0.132689
  22 H :    0.122389
  23 H :    0.118407
  24 H :    0.121321
  25 H :    0.134011
  26 H :    0.149799
  27 H :    0.119746
  28 H :    0.128826
  29 H :    0.133790
  30 H :    0.131745
  31 H :    0.124455
  32 H :    0.104681
  33 H :    0.109623
  34 H :    0.119618
  35 H :    0.125405
  36 H :    0.108325
  37 H :    0.114683

  Mayer bond orders larger than 0.100000
B(  0-C ,  1-C ) :   1.1753 B(  0-C , 20-H ) :   0.9409 B(  0-C , 21-H ) :   0.9379
B(  0-C , 22-H ) :   0.9442 B(  1-C ,  2-O ) :   0.9173 B(  1-C , 23-H ) :   0.9376
B(  1-C , 24-H ) :   0.9146 B(  2-O ,  3-C ) :   1.2387 B(  3-C ,  4-O ) :   2.0391
B(  3-C ,  5-C ) :   1.0060 B(  5-C ,  6-C ) :   1.0488 B(  5-C , 25-H ) :   0.9064
B(  5-C , 26-H ) :   0.8788 B(  6-C ,  7-H ) :   0.8304 B(  6-C ,  8-C ) :   0.8979
B(  6-C , 13-S ) :   1.0319 B(  8-C ,  9-O ) :   2.0031 B(  8-C , 10-O ) :   1.2622
B( 10-O , 11-C ) :   0.8989 B( 11-C , 12-C ) :   1.1760 B( 11-C , 27-H ) :   0.9297
B( 11-C , 28-H ) :   0.9136 B( 12-C , 29-H ) :   0.9433 B( 12-C , 30-H ) :   0.9442
B( 12-C , 31-H ) :   0.9457 B( 13-S , 14-P ) :   0.9337 B( 13-S , 15-S ) :   0.1125
B( 14-P , 15-S ) :   1.6277 B( 14-P , 16-O ) :   1.0475 B( 14-P , 18-O ) :   1.1315
B( 16-O , 17-C ) :   0.9401 B( 17-C , 32-H ) :   0.9463 B( 17-C , 33-H ) :   0.9330
B( 17-C , 34-H ) :   0.9590 B( 18-O , 19-C ) :   0.9235 B( 19-C , 35-H ) :   0.9601
B( 19-C , 36-H ) :   0.9393 B( 19-C , 37-H ) :   0.9471

Dispersion correction           -0.051217567
FINAL SINGLE POINT ENERGY     -1979.015723322278

DIPOLE MOMENT
-------------

Method             : SCF
Type of density    : Electron Density
Multiplicity       :   1
Irrep              :   0
Energy             : -1979.1473098617193500 Eh
Relativity type    :
Basis              : AO
                                X                 Y                 Z
Electronic contribution:    -18.998509147       1.943312387      -5.224845181
Nuclear contribution   :     20.253169774      -3.197955473       6.185367057
                        -----------------------------------------
Total Dipole Moment    :      1.254660627      -1.254643086       0.960521875
                        -----------------------------------------
Magnitude (a.u.)       :      2.017648343
Magnitude (Debye)      :      5.128454522

Rotational constants in cm-1:             0.017607             0.005668             0.005097
Rotational constants in MHz :           527.832774           169.926982           152.805226

                             ****ORCA TERMINATED NORMALLY****
TOTAL RUN TIME: 0 days 0 hours 0 minutes 36 seconds 745 msec
