                         Program Version 6.0.1  -  RELEASE   -
|  1> ! pbe def2-sv(p) def2/J RI DEFGRID1 loosescf d4 GCP(DFT/SV(P)) printgap
|  2> %output
|  3>     printlevel normal
|  4> end
|  5> * xyz 0 1
|  6> C 3.5202443989 -3.0047596399 0.4258806085
|  7> C 2.9810132614 -1.6614351352 0.8891903992
|  8> O 2.7420476733 -0.7861717429 -0.2304249172
|  9> C 1.6216226913 -0.9097961067 -0.9085500731
| 10> O 0.734821893 -1.6988629214 -0.644036597
| 11> C 1.5477800396 0.0746114643 -2.0570363638
| 12> C 0.3121509152 0.9688991965 -1.9150385104
| 13> H 0.2384959805 1.6288920811 -2.7833267914
| 14> C 0.3602327167 1.8119363107 -0.6552902111
| 15> O -0.5760467871 1.8571128665 0.1241953672
| 16> O 1.4831957486 2.4518639613 -0.5228596535
| 17> C 1.7147174736 3.2208399815 0.6801402877
| 18> C 2.3295297214 2.339888264 1.7546333713
| 19> S -1.2573176917 0.0341517269 -1.8937254312
| 20> P -1.5850041363 -0.3782961503 0.1611993241
| 21> S -0.455739842 -0.4674324715 1.7803489605
| 22> O -2.9683314529 0.3750500205 0.4833485061
| 23> C -3.1199644387 1.5224442172 1.3143910971
| 24> O -2.1910407553 -1.8130504364 -0.2171154806
| 25> C -2.7047245197 -2.7060714751 0.771002054
| 26> H 3.7574315978 -3.6111936655 1.2935699518
| 27> H 2.7723339587 -3.522436347 -0.170856363
| 28> H 4.4169313589 -2.8624401159 -0.1710297765
| 29> H 3.7103209563 -1.126918232 1.4975110533
| 30> H 2.0472291962 -1.7817903637 1.4463839738
| 31> H 1.4581670112 -0.4903070214 -2.9853752687
| 32> H 2.4495468763 0.6859219845 -2.0655723659
| 33> H 2.4007053773 4.0070584171 0.3657447557
| 34> H 0.7659299832 3.6453911355 1.0165298668
| 35> H 1.6378373527 1.5475706986 2.0388021433
| 36> H 3.2468648186 1.8879652018 1.3877602657
| 37> H 2.5489521788 2.9410621014 2.6303526325
| 38> H -3.0004169357 2.424892089 0.7178669002
| 39> H -2.3745709811 1.5079722769 2.1116748614
| 40> H -4.1240385192 1.4602923334 1.7278487023
| 41> H -2.7786108352 -3.6745193702 0.2826889027
| 42> H -3.6846853815 -2.366162227 1.1071158487
| 43> H -2.0208774332 -2.7611265708 1.621282108
| 44> *
| 45>
| 46>                          ****END OF INPUT****

CARTESIAN COORDINATES (ANGSTROEM)
---------------------------------
  C      3.520244   -3.004760    0.425881
  C      2.981013   -1.661435    0.889190
  O      2.742048   -0.786172   -0.230425
  C      1.621623   -0.909796   -0.908550
  O      0.734822   -1.698863   -0.644037
  C      1.547780    0.074611   -2.057036
  C      0.312151    0.968899   -1.915039
  H      0.238496    1.628892   -2.783327
  C      0.360233    1.811936   -0.655290
  O     -0.576047    1.857113    0.124195
  O      1.483196    2.451864   -0.522860
  C      1.714717    3.220840    0.680140
  C      2.329530    2.339888    1.754633
  S     -1.257318    0.034152   -1.893725
  P     -1.585004   -0.378296    0.161199
  S     -0.455740   -0.467432    1.780349
  O     -2.968331    0.375050    0.483349
  C     -3.119964    1.522444    1.314391
  O     -2.191041   -1.813050   -0.217115
  C     -2.704725   -2.706071    0.771002
  H      3.757432   -3.611194    1.293570
  H      2.772334   -3.522436   -0.170856
  H      4.416931   -2.862440   -0.171030
  H      3.710321   -1.126918    1.497511
  H      2.047229   -1.781790    1.446384
  H      1.458167   -0.490307   -2.985375
  H      2.449547    0.685922   -2.065572
  H      2.400705    4.007058    0.365745
  H      0.765930    3.645391    1.016530
  H      1.637837    1.547571    2.038802
  H      3.246865    1.887965    1.387760
  H      2.548952    2.941062    2.630353
  H     -3.000417    2.424892    0.717867
  H     -2.374571    1.507972    2.111675
  H     -4.124039    1.460292    1.727849
  H     -2.778611   -3.674519    0.282689
  H     -3.684685   -2.366162    1.107116
  H     -2.020877   -2.761127    1.621282

 Total Charge           Charge          ....    0
 Multiplicity           Mult            ....    1
 Number of Electrons    NEL             ....  174
 Basis Dimension        Dim             ....  316

ORBITAL ENERGIES
----------------

  NO   OCC          E(Eh)            E(eV)
   0   2.0000     -88.024656     -2395.2727
   1   2.0000     -87.965009     -2393.6496
   2   2.0000     -76.412297     -2079.2843
   3   2.0000     -18.826664      -512.2996
   4   2.0000     -18.802648      -511.6461
   5   2.0000     -18.767005      -510.6762
   6   2.0000     -18.764762      -510.6151
   7   2.0000     -18.760996      -510.5126
   8   2.0000     -18.733770      -509.7718
   9   2.0000     -10.033090      -273.0143
  10   2.0000     -10.008064      -272.3333
  11   2.0000      -9.960656      -271.0432
  12   2.0000      -9.955114      -270.8924
  13   2.0000      -9.940527      -270.4955
  14   2.0000      -9.921649      -269.9818
  15   2.0000      -9.921463      -269.9767
  16   2.0000      -9.914075      -269.7757
  17   2.0000      -9.888103      -269.0690
  18   2.0000      -9.882746      -268.9232
  19   2.0000      -7.670019      -208.7118
  20   2.0000      -7.609758      -207.0721
  21   2.0000      -6.406949      -174.3419
  22   2.0000      -5.698543      -155.0652
  23   2.0000      -5.694989      -154.9685
  24   2.0000      -5.685748      -154.7171
  25   2.0000      -5.638941      -153.4434
  26   2.0000      -5.630442      -153.2121
  27   2.0000      -5.629507      -153.1867
  28   2.0000      -4.629700      -125.9806
  29   2.0000      -4.629190      -125.9667
  30   2.0000      -4.627459      -125.9196
  31   2.0000      -1.037868       -28.2418
  32   2.0000      -1.008486       -27.4423
  33   2.0000      -0.957956       -26.0673
  34   2.0000      -0.943164       -25.6648
  35   2.0000      -0.913995       -24.8711
  36   2.0000      -0.911587       -24.8055
  37   2.0000      -0.766688       -20.8626
  38   2.0000      -0.714579       -19.4447
  39   2.0000      -0.706453       -19.2236
  40   2.0000      -0.681786       -18.5523
  41   2.0000      -0.647098       -17.6084
  42   2.0000      -0.623678       -16.9711
  43   2.0000      -0.611407       -16.6372
  44   2.0000      -0.608653       -16.5623
  45   2.0000      -0.593838       -16.1592
  46   2.0000      -0.567241       -15.4354
  47   2.0000      -0.511999       -13.9322
  48   2.0000      -0.502295       -13.6682
  49   2.0000      -0.495806       -13.4916
  50   2.0000      -0.482244       -13.1225
  51   2.0000      -0.461257       -12.5514
  52   2.0000      -0.455694       -12.4001
  53   2.0000      -0.452088       -12.3019
  54   2.0000      -0.437571       -11.9069
  55   2.0000      -0.427981       -11.6459
  56   2.0000      -0.419958       -11.4276
  57   2.0000      -0.416605       -11.3364
  58   2.0000      -0.403662       -10.9842
  59   2.0000      -0.399212       -10.8631
  60   2.0000      -0.391140       -10.6435
  61   2.0000      -0.386734       -10.5236
  62   2.0000      -0.383755       -10.4425
  63   2.0000      -0.381079       -10.3697
  64   2.0000      -0.378563       -10.3012
  65   2.0000      -0.367484        -9.9998
  66   2.0000      -0.361211        -9.8291
  67   2.0000      -0.355195        -9.6653
  68   2.0000      -0.350561        -9.5393
  69   2.0000      -0.339960        -9.2508
  70   2.0000      -0.335831        -9.1384
  71   2.0000      -0.328984        -8.9521
  72   2.0000      -0.319982        -8.7071
  73   2.0000      -0.309964        -8.4345
  74   2.0000      -0.296271        -8.0620
  75   2.0000      -0.290131        -7.8949
  76   2.0000      -0.283479        -7.7139
  77   2.0000      -0.281327        -7.6553
  78   2.0000      -0.267541        -7.2802
  79   2.0000      -0.257845        -7.0163
  80   2.0000      -0.254307        -6.9200
  81   2.0000      -0.247529        -6.7356
  82   2.0000      -0.241399        -6.5688
  83   2.0000      -0.223597        -6.0844
  84   2.0000      -0.192500        -5.2382
  85   2.0000      -0.180979        -4.9247
  86   2.0000      -0.173674        -4.7259
  87   0.0000      -0.050941        -1.3862
  88   0.0000      -0.045066        -1.2263
  89   0.0000      -0.028119        -0.7651
  90   0.0000       0.011453         0.3116
  91   0.0000       0.034945         0.9509

MULLIKEN ATOMIC CHARGES
-----------------------
   0 C :   -0.305126
   1 C :   -0.029258
   2 O :   -0.227401
   3 C :    0.088687
   4 O :   -0.188540
   5 C :   -0.016682
   6 C :   -0.337025
   7 H :    0.154741
   8 C :    0.224405
   9 O :   -0.194176
  10 O :   -0.213723
  11 C :   -0.012056
  12 C :   -0.327512
  13 S :   -0.050985
  14 P :    0.659775
  15 S :   -0.351566
  16 O :   -0.392914
  17 C :   -0.083631
  18 O :   -0.385788
  19 C :   -0.091289
  20 H :    0.112696
  21 H :    0.129476
  22 H :    0.107757
  23 H :    0.097440
  24 H :    0.133793
  25 H :    0.124910
  26 H :    0.112149
  27 H :    0.107922
  28 H :    0.115472
  29 H :    0.152962
  30 H :    0.118328
  31 H :    0.112562
  32 H :    0.104702
  33 H :    0.108205
  34 H :    0.109587
  35 H :    0.116452
  36 H :    0.103770
  37 H :    0.111882
Sum of atomic charges:   -0.0000000

LOEWDIN ATOMIC CHARGES
----------------------
   0 C :   -0.356756
   1 C :   -0.115977
   2 O :   -0.051318
   3 C :    0.020479
   4 O :   -0.162386
   5 C :   -0.249135
   6 C :   -0.264018
   7 H :    0.152190
   8 C :    0.023200
   9 O :   -0.149544
  10 O :   -0.030906
  11 C :   -0.103251
  12 C :   -0.362874
  13 S :    0.129798
  14 P :    0.604917
  15 S :   -0.321482
  16 O :   -0.262634
  17 C :   -0.215464
  18 O :   -0.258706
  19 C :   -0.214766
  20 H :    0.130999
  21 H :    0.131239
  22 H :    0.121563
  23 H :    0.114759
  24 H :    0.120955
  25 H :    0.147389
  26 H :    0.136564
  27 H :    0.120425
  28 H :    0.123146
  29 H :    0.129700
  30 H :    0.125324
  31 H :    0.131574
  32 H :    0.107253
  33 H :    0.103257
  34 H :    0.112837
  35 H :    0.117967
  36 H :    0.107524
  37 H :    0.106157

  Mayer bond orders larger than 0.100000
B(  0-C ,  1-C ) :   1.1692 B(  0-C , 20-H ) :   0.9446 B(  0-C , 21-H ) :   0.9451
B(  0-C , 22-H ) :   0.9481 B(  1-C ,  2-O ) :   0.9076 B(  1-C , 23-H ) :   0.9366
B(  1-C , 24-H ) :   0.9029 B(  2-O ,  3-C ) :   1.2406 B(  3-C ,  4-O ) :   1.9876
B(  3-C ,  5-C ) :   0.9973 B(  5-C ,  6-C ) :   1.0095 B(  5-C , 25-H ) :   0.8890
B(  5-C , 26-H ) :   0.8863 B(  6-C ,  7-H ) :   0.8731 B(  6-C ,  8-C ) :   0.9007
B(  6-C , 13-S ) :   1.0685 B(  8-C ,  9-O ) :   1.9104 B(  8-C , 10-O ) :   1.2877
B(  9-O , 14-P ) :   0.1303 B( 10-O , 11-C ) :   0.8911 B( 11-C , 12-C ) :   1.1792
B( 11-C , 27-H ) :   0.9363 B( 11-C , 28-H ) :   0.9144 B( 12-C , 29-H ) :   0.9227
B( 12-C , 30-H ) :   0.9439 B( 12-C , 31-H ) :   0.9391 B( 13-S , 14-P ) :   0.9129
B( 13-S , 15-S ) :   0.1154 B( 14-P , 15-S ) :   1.4896 B( 14-P , 16-O ) :   1.0807
B( 14-P , 18-O ) :   1.0853 B( 16-O , 17-C ) :   0.9434 B( 17-C , 32-H ) :   0.9524
B( 17-C , 33-H ) :   0.9293 B( 17-C , 34-H ) :   0.9565 B( 18-O , 19-C ) :   0.9440
B( 19-C , 35-H ) :   0.9602 B( 19-C , 36-H ) :   0.9515 B( 19-C , 37-H ) :   0.9309

Dispersion correction           -0.056327021
FINAL SINGLE POINT ENERGY     -1978.996578121572

DIPOLE MOMENT
-------------

Method             : SCF
Type of density    : Electron Density
Multiplicity       :   1
Irrep              :   0
Energy             : -1979.1251818238115447 Eh
Relativity type    :
Basis              : AO
                                X                 Y                 Z
Electronic contribution:    -12.861053625       1.078268257     -10.268438198
Nuclear contribution   :     14.089185301      -0.075173234      10.228928740
                        -----------------------------------------
Total Dipole Moment    :      1.228131676       1.003095022      -0.039509458
                        -----------------------------------------
Magnitude (a.u.)       :      1.586211851
Magnitude (Debye)      :      4.031830110

Rotational constants in cm-1:             0.012194             0.009477             0.007644
Rotational constants in MHz :           365.574304           284.124048           229.172815

                             ****ORCA TERMINATED NORMALLY****
TOTAL RUN TIME: 0 days 0 hours 1 minutes 35 seconds 537 msec
