                         Program Version 6.0.0  -   RELEASE  -
|  1> ! pbe def2-sv(p) def2/J RI DEFGRID1 loosescf d4 GCP(DFT/SV(P)) printgap
|  2> %output
|  3>     printlevel normal
|  4> end
|  5> * xyz 0 1
|  6> C 4.2288591499 -2.0772469099 0.1918792078
|  7> C 4.7039237351 -0.6526462337 0.3877512161
|  8> O 3.6143339571 0.2590083808 0.6284519955
|  9> P 2.5178531278 0.584704962 -0.4718348234
| 10> S 3.1471677061 0.7705930378 -2.3110890242
| 11> O 1.8594779593 1.9140701306 0.058303023
| 12> C 1.4402149269 2.0946325207 1.4342663653
| 13> C 2.4781306779 2.8820554294 2.2051413909
| 14> S 1.0161305093 -0.9036431103 -0.1684544888
| 15> C 0.099955718 -0.4752054933 -1.6854591756
| 16> S -1.4626726023 -1.3698655233 -1.7809089701
| 17> P -2.4398477649 -0.3571844698 -0.1933034797
| 18> S -1.8978737795 1.4966284555 0.1610002239
| 19> O -2.3733336979 -1.3242715799 1.0645043153
| 20> C -1.4846187587 -1.1819063352 2.1872940148
| 21> C -2.2208266349 -1.6269147138 3.4356237627
| 22> O -3.908513661 -0.5848485324 -0.7261569503
| 23> C -5.0304532337 0.2031413098 -0.2719658108
| 24> C -5.2930721889 0.0306393624 1.209390725
| 25> H 3.5858285323 -2.3797342132 1.0145332892
| 26> H 3.6704672162 -2.1594483626 -0.7394015295
| 27> H 5.0888086142 -2.7375224083 0.1437798197
| 28> H 5.2541229873 -0.3055700752 -0.4918253301
| 29> H 5.3249484527 -0.5540292265 1.2791487263
| 30> H 0.4919000711 2.6325477633 1.365315427
| 31> H 1.2719955651 1.1117526369 1.883332051
| 32> H 2.6654504491 3.8310586411 1.710495121
| 33> H 2.1079317546 3.0674443178 3.2084184646
| 34> H 3.4088713702 2.3238284458 2.2605765146
| 35> H 0.6919199568 -0.7608374172 -2.5532914617
| 36> H -0.0921563905 0.600227774 -1.6818389787
| 37> H -0.6071677277 -1.8055480248 1.9977807171
| 38> H -1.1735803628 -0.1337541203 2.2572708574
| 39> H -2.5756254197 -2.6456089723 3.3104295644
| 40> H -1.5413038075 -1.5846939567 4.2803945388
| 41> H -3.0710968642 -0.9785844403 3.6279154926
| 42> H -4.8321724363 1.2530679171 -0.5095678828
| 43> H -5.8615028417 -0.1619849711 -0.8769051037
| 44> H -4.4714464761 0.45966578 1.7817876052
| 45> H -6.2120837594 0.5448630841 1.4732492855
| 46> H -5.3840204453 -1.0245463491 1.4536176393
| 47> *
| 48>
| 49>                          ****END OF INPUT****

CARTESIAN COORDINATES (ANGSTROEM)
---------------------------------
  C      4.228859   -2.077247    0.191879
  C      4.703924   -0.652646    0.387751
  O      3.614334    0.259008    0.628452
  P      2.517853    0.584705   -0.471835
  S      3.147168    0.770593   -2.311089
  O      1.859478    1.914070    0.058303
  C      1.440215    2.094633    1.434266
  C      2.478131    2.882055    2.205141
  S      1.016131   -0.903643   -0.168454
  C      0.099956   -0.475205   -1.685459
  S     -1.462673   -1.369866   -1.780909
  P     -2.439848   -0.357184   -0.193303
  S     -1.897874    1.496628    0.161000
  O     -2.373334   -1.324272    1.064504
  C     -1.484619   -1.181906    2.187294
  C     -2.220827   -1.626915    3.435624
  O     -3.908514   -0.584849   -0.726157
  C     -5.030453    0.203141   -0.271966
  C     -5.293072    0.030639    1.209391
  H      3.585829   -2.379734    1.014533
  H      3.670467   -2.159448   -0.739402
  H      5.088809   -2.737522    0.143780
  H      5.254123   -0.305570   -0.491825
  H      5.324948   -0.554029    1.279149
  H      0.491900    2.632548    1.365315
  H      1.271996    1.111753    1.883332
  H      2.665450    3.831059    1.710495
  H      2.107932    3.067444    3.208418
  H      3.408871    2.323828    2.260577
  H      0.691920   -0.760837   -2.553291
  H     -0.092156    0.600228   -1.681839
  H     -0.607168   -1.805548    1.997781
  H     -1.173580   -0.133754    2.257271
  H     -2.575625   -2.645609    3.310430
  H     -1.541304   -1.584694    4.280395
  H     -3.071097   -0.978584    3.627915
  H     -4.832172    1.253068   -0.509568
  H     -5.861503   -0.161985   -0.876905
  H     -4.471446    0.459666    1.781788
  H     -6.212084    0.544863    1.473249
  H     -5.384020   -1.024546    1.453618

 Total Charge           Charge          ....    0
 Multiplicity           Mult            ....    1
 Number of Electrons    NEL             ....  202
 Basis Dimension        Dim             ....  334

ORBITAL ENERGIES
----------------

  NO   OCC          E(Eh)            E(eV)
   0   2.0000     -88.044506     -2395.8128
   1   2.0000     -88.039755     -2395.6835
   2   2.0000     -87.993982     -2394.4380
   3   2.0000     -87.984487     -2394.1796
   4   2.0000     -76.430121     -2079.7693
   5   2.0000     -76.425723     -2079.6497
   6   2.0000     -18.798025      -511.5203
   7   2.0000     -18.794821      -511.4331
   8   2.0000     -18.793510      -511.3974
   9   2.0000     -18.789626      -511.2917
  10   2.0000      -9.958363      -270.9808
  11   2.0000      -9.957157      -270.9480
  12   2.0000      -9.953953      -270.8608
  13   2.0000      -9.950766      -270.7741
  14   2.0000      -9.950378      -270.7635
  15   2.0000      -9.891084      -269.1501
  16   2.0000      -9.890033      -269.1215
  17   2.0000      -9.887037      -269.0399
  18   2.0000      -9.883711      -268.9495
  19   2.0000      -7.689980      -209.2550
  20   2.0000      -7.684288      -209.1001
  21   2.0000      -7.638632      -207.8577
  22   2.0000      -7.629889      -207.6198
  23   2.0000      -6.427805      -174.9095
  24   2.0000      -6.423247      -174.7854
  25   2.0000      -5.717901      -155.5920
  26   2.0000      -5.714728      -155.5057
  27   2.0000      -5.712039      -155.4325
  28   2.0000      -5.709095      -155.3524
  29   2.0000      -5.706628      -155.2852
  30   2.0000      -5.701229      -155.1383
  31   2.0000      -5.667350      -154.2164
  32   2.0000      -5.659496      -154.0027
  33   2.0000      -5.658891      -153.9862
  34   2.0000      -5.658769      -153.9829
  35   2.0000      -5.650405      -153.7553
  36   2.0000      -5.650028      -153.7451
  37   2.0000      -4.650144      -126.5369
  38   2.0000      -4.649540      -126.5204
  39   2.0000      -4.648482      -126.4916
  40   2.0000      -4.646228      -126.4303
  41   2.0000      -4.644938      -126.3952
  42   2.0000      -4.643407      -126.3535
  43   2.0000      -0.989941       -26.9377
  44   2.0000      -0.989776       -26.9332
  45   2.0000      -0.948590       -25.8125
  46   2.0000      -0.946384       -25.7524
  47   2.0000      -0.763156       -20.7665
  48   2.0000      -0.725017       -19.7287
  49   2.0000      -0.711438       -19.3592
  50   2.0000      -0.693405       -18.8685
  51   2.0000      -0.691881       -18.8270
  52   2.0000      -0.675356       -18.3774
  53   2.0000      -0.653329       -17.7780
  54   2.0000      -0.637880       -17.3576
  55   2.0000      -0.605412       -16.4741
  56   2.0000      -0.594864       -16.1871
  57   2.0000      -0.573299       -15.6003
  58   2.0000      -0.571679       -15.5562
  59   2.0000      -0.557365       -15.1667
  60   2.0000      -0.505268       -13.7491
  61   2.0000      -0.499533       -13.5930
  62   2.0000      -0.481263       -13.0958
  63   2.0000      -0.476121       -12.9559
  64   2.0000      -0.453699       -12.3458
  65   2.0000      -0.451431       -12.2841
  66   2.0000      -0.439390       -11.9564
  67   2.0000      -0.435484       -11.8501
  68   2.0000      -0.430381       -11.7113
  69   2.0000      -0.426520       -11.6062
  70   2.0000      -0.409696       -11.1484
  71   2.0000      -0.399299       -10.8655
  72   2.0000      -0.394043       -10.7224
  73   2.0000      -0.389969       -10.6116
  74   2.0000      -0.379231       -10.3194
  75   2.0000      -0.375833       -10.2269
  76   2.0000      -0.367108        -9.9895
  77   2.0000      -0.361619        -9.8401
  78   2.0000      -0.357343        -9.7238
  79   2.0000      -0.354898        -9.6573
  80   2.0000      -0.352208        -9.5841
  81   2.0000      -0.347665        -9.4604
  82   2.0000      -0.344598        -9.3770
  83   2.0000      -0.339570        -9.2402
  84   2.0000      -0.338224        -9.2035
  85   2.0000      -0.319483        -8.6936
  86   2.0000      -0.316348        -8.6083
  87   2.0000      -0.300074        -8.1654
  88   2.0000      -0.296936        -8.0800
  89   2.0000      -0.294329        -8.0091
  90   2.0000      -0.289647        -7.8817
  91   2.0000      -0.279634        -7.6092
  92   2.0000      -0.269756        -7.3404
  93   2.0000      -0.266291        -7.2461
  94   2.0000      -0.262455        -7.1418
  95   2.0000      -0.229759        -6.2521
  96   2.0000      -0.221539        -6.0284
  97   2.0000      -0.213785        -5.8174
  98   2.0000      -0.208270        -5.6673
  99   2.0000      -0.205590        -5.5944
 100   2.0000      -0.196927        -5.3587
 101   0.0000      -0.046787        -1.2731
 102   0.0000      -0.032386        -0.8813
 103   0.0000      -0.005597        -0.1523
 104   0.0000       0.007802         0.2123
 105   0.0000       0.010203         0.2776

MULLIKEN ATOMIC CHARGES
-----------------------
   0 C :   -0.319233
   1 C :   -0.001404
   2 O :   -0.381158
   3 P :    0.597470
   4 S :   -0.316030
   5 O :   -0.352087
   6 C :   -0.025391
   7 C :   -0.279496
   8 S :   -0.118147
   9 C :   -0.358375
  10 S :   -0.071530
  11 P :    0.628767
  12 S :   -0.335097
  13 O :   -0.373113
  14 C :   -0.029344
  15 C :   -0.280689
  16 O :   -0.374277
  17 C :    0.003126
  18 C :   -0.323253
  19 H :    0.115143
  20 H :    0.132907
  21 H :    0.115613
  22 H :    0.115250
  23 H :    0.105472
  24 H :    0.125306
  25 H :    0.100507
  26 H :    0.120176
  27 H :    0.106833
  28 H :    0.115627
  29 H :    0.190183
  30 H :    0.204396
  31 H :    0.112314
  32 H :    0.113663
  33 H :    0.118469
  34 H :    0.109416
  35 H :    0.118164
  36 H :    0.114885
  37 H :    0.110061
  38 H :    0.127397
  39 H :    0.115113
  40 H :    0.122365
Sum of atomic charges:    0.0000000

LOEWDIN ATOMIC CHARGES
----------------------
   0 C :   -0.371060
   1 C :   -0.115522
   2 O :   -0.246740
   3 P :    0.573494
   4 S :   -0.310280
   5 O :   -0.232564
   6 C :   -0.117356
   7 C :   -0.358096
   8 S :    0.059729
   9 C :   -0.482098
  10 S :    0.096975
  11 P :    0.572262
  12 S :   -0.308353
  13 O :   -0.244221
  14 C :   -0.124295
  15 C :   -0.351892
  16 O :   -0.243267
  17 C :   -0.110415
  18 C :   -0.367736
  19 H :    0.122563
  20 H :    0.123453
  21 H :    0.132433
  22 H :    0.114699
  23 H :    0.118641
  24 H :    0.117981
  25 H :    0.101324
  26 H :    0.129156
  27 H :    0.128393
  28 H :    0.124096
  29 H :    0.133181
  30 H :    0.124674
  31 H :    0.106569
  32 H :    0.104244
  33 H :    0.127805
  34 H :    0.129809
  35 H :    0.125336
  36 H :    0.114477
  37 H :    0.121797
  38 H :    0.120741
  39 H :    0.132108
  40 H :    0.127954

  Mayer bond orders larger than 0.100000
B(  0-C ,  1-C ) :   1.1663 B(  0-C , 19-H ) :   0.9441 B(  0-C , 20-H ) :   0.9334
B(  0-C , 21-H ) :   0.9369 B(  1-C ,  2-O ) :   0.9031 B(  1-C , 22-H ) :   0.9188
B(  1-C , 23-H ) :   0.9340 B(  2-O ,  3-P ) :   1.0824 B(  3-P ,  4-S ) :   1.6357
B(  3-P ,  5-O ) :   1.1439 B(  3-P ,  8-S ) :   0.9468 B(  4-S ,  8-S ) :   0.1101
B(  5-O ,  6-C ) :   0.8880 B(  6-C ,  7-C ) :   1.1591 B(  6-C , 24-H ) :   0.9267
B(  6-C , 25-H ) :   0.9106 B(  7-C , 26-H ) :   0.9467 B(  7-C , 27-H ) :   0.9408
B(  7-C , 28-H ) :   0.9432 B(  8-S ,  9-C ) :   0.9638 B(  9-C , 10-S ) :   1.0191
B(  9-C , 29-H ) :   0.8926 B(  9-C , 30-H ) :   0.8681 B( 10-S , 11-P ) :   0.9441
B( 10-S , 12-S ) :   0.1100 B( 11-P , 12-S ) :   1.5933 B( 11-P , 13-O ) :   1.1072
B( 11-P , 16-O ) :   1.1409 B( 13-O , 14-C ) :   0.9029 B( 14-C , 15-C ) :   1.1553
B( 14-C , 31-H ) :   0.9242 B( 14-C , 32-H ) :   0.9037 B( 15-C , 33-H ) :   0.9490
B( 15-C , 34-H ) :   0.9416 B( 15-C , 35-H ) :   0.9484 B( 16-O , 17-C ) :   0.9060
B( 17-C , 18-C ) :   1.1630 B( 17-C , 36-H ) :   0.9220 B( 17-C , 37-H ) :   0.9352
B( 18-C , 38-H ) :   0.9313 B( 18-C , 39-H ) :   0.9363 B( 18-C , 40-H ) :   0.9446

Dispersion correction           -0.063830750
FINAL SINGLE POINT ENERGY     -2929.519431728615

DIPOLE MOMENT
-------------

Method             : SCF
Type of density    : Electron Density
Multiplicity       :   1
Irrep              :   0
Energy             : -2929.6403986601330871 Eh
Relativity type    :
Basis              : AO
                                X                 Y                 Z
Electronic contribution:      1.809323436       0.915089089     -23.418801551
Nuclear contribution   :     -2.225088063      -1.519588305      25.303766212
                        -----------------------------------------
Total Dipole Moment    :     -0.415764626      -0.604499216       1.884964661
                        -----------------------------------------
Magnitude (a.u.)       :      2.022713845
Magnitude (Debye)      :      5.141330006

Rotational constants in cm-1:             0.012799             0.004506             0.004294
Rotational constants in MHz :           383.707594           135.086491           128.733595

                             ****ORCA TERMINATED NORMALLY****
TOTAL RUN TIME: 0 days 0 hours 0 minutes 20 seconds 645 msec
