                         Program Version 6.0.1  -  RELEASE   -
|  1> ! pbe def2-sv(p) def2/J RI DEFGRID1 loosescf d4 GCP(DFT/SV(P)) printgap
|  2> %output
|  3>     printlevel normal
|  4> end
|  5> * xyz 0 1
|  6> C 2.1457472503 -2.928508943 0.4405969156
|  7> C 3.2056937231 -2.098031569 -0.26602164
|  8> O 2.6199018696 -0.8967099633 -0.8033786746
|  9> C 2.0754378983 -0.9463965881 -2.0105020288
| 10> O 2.1357494169 -1.9010174794 -2.7485775894
| 11> C 1.3659597194 0.3524576017 -2.3451468842
| 12> C 0.3490411519 0.6877266838 -1.256584609
| 13> H -0.1906417232 1.6056165432 -1.5085310591
| 14> C 1.004861169 0.8832617917 0.1001172167
| 15> O 0.6514687097 0.2763551955 1.0910457335
| 16> O 1.943045019 1.7877394927 0.0554082863
| 17> C 2.5973912352 2.1559742109 1.2877003296
| 18> C 1.8571524448 3.3040020694 1.9539032227
| 19> S -0.8732950194 -0.6628203075 -1.1005779573
| 20> P -1.9389487577 0.0641146721 0.593099952
| 21> S -1.8936157838 1.9925633495 0.9229386177
| 22> O -3.4191452021 -0.4546023292 0.2337008828
| 23> C -4.1749867757 0.1300517523 -0.8295280053
| 24> O -1.6713139816 -0.8384007054 1.8606083453
| 25> C -1.788390077 -2.2733921969 1.8243568325
| 26> H 1.6307281597 -2.3170459014 1.1792470561
| 27> H 1.4193418192 -3.295515586 -0.2819319455
| 28> H 2.6138428559 -3.7727036115 0.9352364361
| 29> H 3.6627378721 -2.6592154675 -1.0856843283
| 30> H 3.9680310865 -1.7468859298 0.4296516447
| 31> H 0.8687305752 0.234754977 -3.3071259815
| 32> H 2.0986216318 1.1594633196 -2.3969301997
| 33> H 2.6300175456 1.2799535899 1.9404145701
| 34> H 3.603026392 2.4486786419 0.9860707046
| 35> H 2.3679653302 3.5801244517 2.8701980893
| 36> H 1.8179463702 4.1624616119 1.2895320693
| 37> H 0.8375412663 3.005762348 2.1930192783
| 38> H -5.1876932202 -0.2465916008 -0.7115991438
| 39> H -3.7607207129 -0.1746737965 -1.7906285457
| 40> H -4.1607994 1.2180388111 -0.7443847647
| 41> H -1.4080436663 -2.6123672289 2.7844555265
| 42> H -1.1883338062 -2.6781901408 1.0090090097
| 43> H -2.8318960654 -2.5552468335 1.6955448302
| 44> *
| 45>
| 46>                          ****END OF INPUT****

CARTESIAN COORDINATES (ANGSTROEM)
---------------------------------
  C      2.145747   -2.928509    0.440597
  C      3.205694   -2.098032   -0.266022
  O      2.619902   -0.896710   -0.803379
  C      2.075438   -0.946397   -2.010502
  O      2.135749   -1.901017   -2.748578
  C      1.365960    0.352458   -2.345147
  C      0.349041    0.687727   -1.256585
  H     -0.190642    1.605617   -1.508531
  C      1.004861    0.883262    0.100117
  O      0.651469    0.276355    1.091046
  O      1.943045    1.787739    0.055408
  C      2.597391    2.155974    1.287700
  C      1.857152    3.304002    1.953903
  S     -0.873295   -0.662820   -1.100578
  P     -1.938949    0.064115    0.593100
  S     -1.893616    1.992563    0.922939
  O     -3.419145   -0.454602    0.233701
  C     -4.174987    0.130052   -0.829528
  O     -1.671314   -0.838401    1.860608
  C     -1.788390   -2.273392    1.824357
  H      1.630728   -2.317046    1.179247
  H      1.419342   -3.295516   -0.281932
  H      2.613843   -3.772704    0.935236
  H      3.662738   -2.659215   -1.085684
  H      3.968031   -1.746886    0.429652
  H      0.868731    0.234755   -3.307126
  H      2.098622    1.159463   -2.396930
  H      2.630018    1.279954    1.940415
  H      3.603026    2.448679    0.986071
  H      2.367965    3.580124    2.870198
  H      1.817946    4.162462    1.289532
  H      0.837541    3.005762    2.193019
  H     -5.187693   -0.246592   -0.711599
  H     -3.760721   -0.174674   -1.790629
  H     -4.160799    1.218039   -0.744385
  H     -1.408044   -2.612367    2.784456
  H     -1.188334   -2.678190    1.009009
  H     -2.831896   -2.555247    1.695545

 Total Charge           Charge          ....    0
 Multiplicity           Mult            ....    1
 Number of Electrons    NEL             ....  174
 Basis Dimension        Dim             ....  316

ORBITAL ENERGIES
----------------

  NO   OCC          E(Eh)            E(eV)
   0   2.0000     -88.040380     -2395.7005
   1   2.0000     -87.977825     -2393.9983
   2   2.0000     -76.423238     -2079.5820
   3   2.0000     -18.813102      -511.9305
   4   2.0000     -18.807838      -511.7873
   5   2.0000     -18.785886      -511.1899
   6   2.0000     -18.784202      -511.1441
   7   2.0000     -18.743416      -510.0343
   8   2.0000     -18.743215      -510.0288
   9   2.0000     -10.020289      -272.6659
  10   2.0000     -10.015775      -272.5431
  11   2.0000      -9.951853      -270.8037
  12   2.0000      -9.951146      -270.7844
  13   2.0000      -9.950522      -270.7675
  14   2.0000      -9.945705      -270.6364
  15   2.0000      -9.938176      -270.4315
  16   2.0000      -9.919885      -269.9338
  17   2.0000      -9.884593      -268.9735
  18   2.0000      -9.883416      -268.9414
  19   2.0000      -7.684828      -209.1148
  20   2.0000      -7.623088      -207.4348
  21   2.0000      -6.419404      -174.6809
  22   2.0000      -5.712623      -155.4484
  23   2.0000      -5.709417      -155.3611
  24   2.0000      -5.701908      -155.1568
  25   2.0000      -5.652248      -153.8055
  26   2.0000      -5.643736      -153.5739
  27   2.0000      -5.642881      -153.5506
  28   2.0000      -4.642185      -126.3203
  29   2.0000      -4.641437      -126.2999
  30   2.0000      -4.639730      -126.2535
  31   2.0000      -1.023539       -27.8519
  32   2.0000      -1.013640       -27.5826
  33   2.0000      -0.980367       -26.6771
  34   2.0000      -0.934875       -25.4392
  35   2.0000      -0.925042       -25.1717
  36   2.0000      -0.920606       -25.0510
  37   2.0000      -0.770746       -20.9731
  38   2.0000      -0.711591       -19.3634
  39   2.0000      -0.708229       -19.2719
  40   2.0000      -0.690087       -18.7782
  41   2.0000      -0.658541       -17.9198
  42   2.0000      -0.630864       -17.1667
  43   2.0000      -0.621518       -16.9124
  44   2.0000      -0.616805       -16.7841
  45   2.0000      -0.596990       -16.2449
  46   2.0000      -0.567503       -15.4425
  47   2.0000      -0.512742       -13.9524
  48   2.0000      -0.504487       -13.7278
  49   2.0000      -0.501504       -13.6466
  50   2.0000      -0.481554       -13.1038
  51   2.0000      -0.469875       -12.7859
  52   2.0000      -0.468473       -12.7478
  53   2.0000      -0.447076       -12.1656
  54   2.0000      -0.439717       -11.9653
  55   2.0000      -0.430393       -11.7116
  56   2.0000      -0.426118       -11.5953
  57   2.0000      -0.421011       -11.4563
  58   2.0000      -0.410228       -11.1629
  59   2.0000      -0.406404       -11.0588
  60   2.0000      -0.402351       -10.9485
  61   2.0000      -0.398232       -10.8365
  62   2.0000      -0.394022       -10.7219
  63   2.0000      -0.386864       -10.5271
  64   2.0000      -0.376674       -10.2498
  65   2.0000      -0.373333       -10.1589
  66   2.0000      -0.357153        -9.7186
  67   2.0000      -0.355803        -9.6819
  68   2.0000      -0.346599        -9.4314
  69   2.0000      -0.342657        -9.3242
  70   2.0000      -0.334573        -9.1042
  71   2.0000      -0.332250        -9.0410
  72   2.0000      -0.325671        -8.8620
  73   2.0000      -0.315877        -8.5954
  74   2.0000      -0.302363        -8.2277
  75   2.0000      -0.296352        -8.0641
  76   2.0000      -0.294292        -8.0081
  77   2.0000      -0.290956        -7.9173
  78   2.0000      -0.271723        -7.3940
  79   2.0000      -0.265217        -7.2169
  80   2.0000      -0.260666        -7.0931
  81   2.0000      -0.255087        -6.9413
  82   2.0000      -0.235789        -6.4161
  83   2.0000      -0.227243        -6.1836
  84   2.0000      -0.220660        -6.0045
  85   2.0000      -0.199050        -5.4164
  86   2.0000      -0.192413        -5.2358
  87   0.0000      -0.042402        -1.1538
  88   0.0000      -0.036080        -0.9818
  89   0.0000      -0.019273        -0.5245
  90   0.0000       0.003194         0.0869
  91   0.0000       0.023185         0.6309

MULLIKEN ATOMIC CHARGES
-----------------------
   0 C :   -0.327916
   1 C :   -0.008887
   2 O :   -0.241791
   3 C :    0.099713
   4 O :   -0.185780
   5 C :   -0.058375
   6 C :   -0.330945
   7 H :    0.153152
   8 C :    0.240455
   9 O :   -0.194266
  10 O :   -0.226106
  11 C :   -0.010741
  12 C :   -0.308916
  13 S :   -0.095728
  14 P :    0.624066
  15 S :   -0.325712
  16 O :   -0.395795
  17 C :   -0.099850
  18 O :   -0.353231
  19 C :   -0.108989
  20 H :    0.139470
  21 H :    0.128344
  22 H :    0.109311
  23 H :    0.110234
  24 H :    0.101900
  25 H :    0.120991
  26 H :    0.137345
  27 H :    0.110757
  28 H :    0.102489
  29 H :    0.110962
  30 H :    0.112977
  31 H :    0.144471
  32 H :    0.121910
  33 H :    0.111258
  34 H :    0.114975
  35 H :    0.129943
  36 H :    0.124091
  37 H :    0.124214
Sum of atomic charges:    0.0000000

LOEWDIN ATOMIC CHARGES
----------------------
   0 C :   -0.361814
   1 C :   -0.108417
   2 O :   -0.054914
   3 C :    0.025628
   4 O :   -0.153420
   5 C :   -0.242619
   6 C :   -0.263747
   7 H :    0.143641
   8 C :    0.006327
   9 O :   -0.165307
  10 O :   -0.039865
  11 C :   -0.105744
  12 C :   -0.357483
  13 S :    0.095609
  14 P :    0.590230
  15 S :   -0.318019
  16 O :   -0.266492
  17 C :   -0.220019
  18 O :   -0.230080
  19 C :   -0.207858
  20 H :    0.130970
  21 H :    0.127992
  22 H :    0.128257
  23 H :    0.120554
  24 H :    0.117288
  25 H :    0.142064
  26 H :    0.151693
  27 H :    0.121097
  28 H :    0.117462
  29 H :    0.129960
  30 H :    0.125120
  31 H :    0.133885
  32 H :    0.120705
  33 H :    0.106022
  34 H :    0.109140
  35 H :    0.125712
  36 H :    0.110547
  37 H :    0.115895

  Mayer bond orders larger than 0.100000
B(  0-C ,  1-C ) :   1.1760 B(  0-C , 20-H ) :   0.9376 B(  0-C , 21-H ) :   0.9411
B(  0-C , 22-H ) :   0.9413 B(  1-C ,  2-O ) :   0.9069 B(  1-C , 23-H ) :   0.9136
B(  1-C , 24-H ) :   0.9369 B(  2-O ,  3-C ) :   1.1968 B(  3-C ,  4-O ) :   2.0775
B(  3-C ,  5-C ) :   0.9991 B(  5-C ,  6-C ) :   1.0555 B(  5-C , 25-H ) :   0.9055
B(  5-C , 26-H ) :   0.8817 B(  6-C ,  7-H ) :   0.8604 B(  6-C ,  8-C ) :   0.8687
B(  6-C , 13-S ) :   1.0356 B(  8-C ,  9-O ) :   1.9696 B(  8-C , 10-O ) :   1.2563
B( 10-O , 11-C ) :   0.9007 B( 11-C , 12-C ) :   1.1796 B( 11-C , 27-H ) :   0.9117
B( 11-C , 28-H ) :   0.9367 B( 12-C , 29-H ) :   0.9422 B( 12-C , 30-H ) :   0.9489
B( 12-C , 31-H ) :   0.9341 B( 13-S , 14-P ) :   0.9410 B( 13-S , 15-S ) :   0.1093
B( 14-P , 15-S ) :   1.6125 B( 14-P , 16-O ) :   1.0506 B( 14-P , 18-O ) :   1.1349
B( 16-O , 17-C ) :   0.9388 B( 17-C , 32-H ) :   0.9587 B( 17-C , 33-H ) :   0.9456
B( 17-C , 34-H ) :   0.9338 B( 18-O , 19-C ) :   0.9215 B( 19-C , 35-H ) :   0.9596
B( 19-C , 36-H ) :   0.9354 B( 19-C , 37-H ) :   0.9472

Dispersion correction           -0.054259070
FINAL SINGLE POINT ENERGY     -1979.017677504184

DIPOLE MOMENT
-------------

Method             : SCF
Type of density    : Electron Density
Multiplicity       :   1
Irrep              :   0
Energy             : -1979.1468719430863530 Eh
Relativity type    :
Basis              : AO
                                X                 Y                 Z
Electronic contribution:     -9.390127527       3.004462190      -4.535855553
Nuclear contribution   :     10.092931605      -3.281411934       4.616993239
                        -----------------------------------------
Total Dipole Moment    :      0.702804078      -0.276949744       0.081137686
                        -----------------------------------------
Magnitude (a.u.)       :      0.759748680
Magnitude (Debye)      :      1.931127676

Rotational constants in cm-1:             0.012508             0.008299             0.006743
Rotational constants in MHz :           374.981414           248.803949           202.160820

                             ****ORCA TERMINATED NORMALLY****
TOTAL RUN TIME: 0 days 0 hours 0 minutes 45 seconds 417 msec
