                         Program Version 6.0.1  -  RELEASE   -
|  1> ! pbe def2-sv(p) def2/J RI DEFGRID1 loosescf d4 GCP(DFT/SV(P)) printgap
|  2> %output
|  3>     printlevel normal
|  4> end
|  5> * xyz 0 1
|  6> C 4.6291548477 -3.2345930692 -2.018004124
|  7> C 3.632125321 -3.5911737969 -0.9268473381
|  8> O 3.2732759884 -2.4287377829 -0.1545430633
|  9> C 2.2919851691 -1.6636898399 -0.5906353981
| 10> O 1.63942396 -1.8772512759 -1.5872419743
| 11> C 2.0871910144 -0.4708161093 0.3257923106
| 12> C 0.7187811648 0.1475959113 0.0923407108
| 13> H 0.5484227228 0.258901881 -0.987197919
| 14> C 0.5262241459 1.5107667604 0.7253356229
| 15> O -0.5096898755 1.8298378144 1.2744165647
| 16> O 1.5633786946 2.2881073563 0.5825970646
| 17> C 1.456471737 3.6429662314 1.0761254275
| 18> C 2.7440792433 4.3655249975 0.7370224324
| 19> S -0.6023233754 -0.9415990006 0.72715553
| 20> P -2.2628622492 0.1955941145 0.0487778822
| 21> S -1.9754096382 1.4295616961 -1.442846308
| 22> O -3.2860712406 -0.9895672795 -0.3286967622
| 23> C -3.057366408 -1.8284183196 -1.4626247457
| 24> O -3.0470262401 0.8179831335 1.2676005368
| 25> C -3.3848627864 0.055576752 2.4427309364
| 26> H 4.1731807219 -2.5540817901 -2.7335327945
| 27> H 5.5050800763 -2.7598528246 -1.5847713686
| 28> H 4.9315090213 -4.1383322477 -2.5366583324
| 29> H 4.0665637551 -4.2767408785 -0.1994002824
| 30> H 2.7220096415 -4.0173792278 -1.3579936734
| 31> H 2.8567242112 0.2697995039 0.0967779314
| 32> H 2.2094843343 -0.7944852856 1.3591985291
| 33> H 0.585983019 4.1082314813 0.6035474575
| 34> H 1.2815924572 3.5992503827 2.1550291137
| 35> H 2.8994930254 4.3643418461 -0.337583451
| 36> H 2.6787257611 5.3903450353 1.0865988965
| 37> H 3.5859395954 3.8763642919 1.2170096892
| 38> H -2.9034619826 -1.2183798512 -2.3543996125
| 39> H -3.9535409071 -2.4345692359 -1.5649547365
| 40> H -2.1829158944 -2.4580373825 -1.2937976707
| 41> H -2.4831366011 -0.3779854957 2.8754318961
| 42> H -4.0931354081 -0.7293671367 2.1833214541
| 43> H -3.8303341787 0.7749199321 3.124821382
| 44> *
| 45>
| 46>                          ****END OF INPUT****

CARTESIAN COORDINATES (ANGSTROEM)
---------------------------------
  C      4.629155   -3.234593   -2.018004
  C      3.632125   -3.591174   -0.926847
  O      3.273276   -2.428738   -0.154543
  C      2.291985   -1.663690   -0.590635
  O      1.639424   -1.877251   -1.587242
  C      2.087191   -0.470816    0.325792
  C      0.718781    0.147596    0.092341
  H      0.548423    0.258902   -0.987198
  C      0.526224    1.510767    0.725336
  O     -0.509690    1.829838    1.274417
  O      1.563379    2.288107    0.582597
  C      1.456472    3.642966    1.076125
  C      2.744079    4.365525    0.737022
  S     -0.602323   -0.941599    0.727156
  P     -2.262862    0.195594    0.048778
  S     -1.975410    1.429562   -1.442846
  O     -3.286071   -0.989567   -0.328697
  C     -3.057366   -1.828418   -1.462625
  O     -3.047026    0.817983    1.267601
  C     -3.384863    0.055577    2.442731
  H      4.173181   -2.554082   -2.733533
  H      5.505080   -2.759853   -1.584771
  H      4.931509   -4.138332   -2.536658
  H      4.066564   -4.276741   -0.199400
  H      2.722010   -4.017379   -1.357994
  H      2.856724    0.269800    0.096778
  H      2.209484   -0.794485    1.359199
  H      0.585983    4.108231    0.603547
  H      1.281592    3.599250    2.155029
  H      2.899493    4.364342   -0.337583
  H      2.678726    5.390345    1.086599
  H      3.585940    3.876364    1.217010
  H     -2.903462   -1.218380   -2.354400
  H     -3.953541   -2.434569   -1.564955
  H     -2.182916   -2.458037   -1.293798
  H     -2.483137   -0.377985    2.875432
  H     -4.093135   -0.729367    2.183321
  H     -3.830334    0.774920    3.124821

 Total Charge           Charge          ....    0
 Multiplicity           Mult            ....    1
 Number of Electrons    NEL             ....  174
 Basis Dimension        Dim             ....  316

ORBITAL ENERGIES
----------------

  NO   OCC          E(Eh)            E(eV)
   0   2.0000     -88.032019     -2395.4730
   1   2.0000     -87.968702     -2393.7501
   2   2.0000     -76.413941     -2079.3291
   3   2.0000     -18.816862      -512.0328
   4   2.0000     -18.808078      -511.7938
   5   2.0000     -18.778380      -510.9857
   6   2.0000     -18.775193      -510.8990
   7   2.0000     -18.746320      -510.1133
   8   2.0000     -18.741376      -509.9788
   9   2.0000     -10.016734      -272.5692
  10   2.0000     -10.016423      -272.5607
  11   2.0000      -9.955192      -270.8945
  12   2.0000      -9.953387      -270.8454
  13   2.0000      -9.941587      -270.5243
  14   2.0000      -9.939504      -270.4677
  15   2.0000      -9.929109      -270.1848
  16   2.0000      -9.918481      -269.8956
  17   2.0000      -9.894780      -269.2506
  18   2.0000      -9.892157      -269.1793
  19   2.0000      -7.676862      -208.8980
  20   2.0000      -7.614038      -207.1885
  21   2.0000      -6.410297      -174.4330
  22   2.0000      -5.704593      -155.2299
  23   2.0000      -5.701620      -155.1490
  24   2.0000      -5.693790      -154.9359
  25   2.0000      -5.643265      -153.5610
  26   2.0000      -5.634657      -153.3268
  27   2.0000      -5.633823      -153.3041
  28   2.0000      -4.633011      -126.0707
  29   2.0000      -4.632342      -126.0524
  30   2.0000      -4.630624      -126.0057
  31   2.0000      -1.024325       -27.8733
  32   2.0000      -1.016597       -27.6630
  33   2.0000      -0.972069       -26.4514
  34   2.0000      -0.927233       -25.2313
  35   2.0000      -0.923106       -25.1190
  36   2.0000      -0.922522       -25.1031
  37   2.0000      -0.763412       -20.7735
  38   2.0000      -0.717096       -19.5132
  39   2.0000      -0.712416       -19.3858
  40   2.0000      -0.687506       -18.7080
  41   2.0000      -0.656625       -17.8677
  42   2.0000      -0.625042       -17.0083
  43   2.0000      -0.620125       -16.8745
  44   2.0000      -0.608217       -16.5504
  45   2.0000      -0.597164       -16.2496
  46   2.0000      -0.560750       -15.2588
  47   2.0000      -0.517495       -14.0817
  48   2.0000      -0.504828       -13.7371
  49   2.0000      -0.499162       -13.5829
  50   2.0000      -0.478443       -13.0191
  51   2.0000      -0.463445       -12.6110
  52   2.0000      -0.461428       -12.5561
  53   2.0000      -0.451203       -12.2778
  54   2.0000      -0.448668       -12.2089
  55   2.0000      -0.430215       -11.7068
  56   2.0000      -0.419160       -11.4059
  57   2.0000      -0.416047       -11.3212
  58   2.0000      -0.412621       -11.2280
  59   2.0000      -0.405523       -11.0348
  60   2.0000      -0.399420       -10.8688
  61   2.0000      -0.393834       -10.7168
  62   2.0000      -0.389594       -10.6014
  63   2.0000      -0.387597       -10.5470
  64   2.0000      -0.375501       -10.2179
  65   2.0000      -0.366757        -9.9800
  66   2.0000      -0.364561        -9.9202
  67   2.0000      -0.359093        -9.7714
  68   2.0000      -0.349105        -9.4996
  69   2.0000      -0.343133        -9.3371
  70   2.0000      -0.334609        -9.1052
  71   2.0000      -0.328310        -8.9338
  72   2.0000      -0.322756        -8.7826
  73   2.0000      -0.311733        -8.4827
  74   2.0000      -0.308147        -8.3851
  75   2.0000      -0.300677        -8.1818
  76   2.0000      -0.288710        -7.8562
  77   2.0000      -0.283945        -7.7265
  78   2.0000      -0.270774        -7.3681
  79   2.0000      -0.266990        -7.2652
  80   2.0000      -0.259397        -7.0586
  81   2.0000      -0.246605        -6.7105
  82   2.0000      -0.233100        -6.3430
  83   2.0000      -0.229212        -6.2372
  84   2.0000      -0.212307        -5.7772
  85   2.0000      -0.190870        -5.1938
  86   2.0000      -0.183477        -4.9927
  87   0.0000      -0.039423        -1.0728
  88   0.0000      -0.028249        -0.7687
  89   0.0000      -0.021109        -0.5744
  90   0.0000       0.013423         0.3653
  91   0.0000       0.031200         0.8490

MULLIKEN ATOMIC CHARGES
-----------------------
   0 C :   -0.306136
   1 C :   -0.012306
   2 O :   -0.230994
   3 C :    0.135775
   4 O :   -0.194361
   5 C :   -0.127922
   6 C :   -0.303991
   7 H :    0.165673
   8 C :    0.224917
   9 O :   -0.184972
  10 O :   -0.229090
  11 C :   -0.028794
  12 C :   -0.274797
  13 S :   -0.109222
  14 P :    0.627877
  15 S :   -0.331772
  16 O :   -0.396095
  17 C :   -0.099983
  18 O :   -0.352839
  19 C :   -0.101557
  20 H :    0.128494
  21 H :    0.114477
  22 H :    0.115662
  23 H :    0.104882
  24 H :    0.112516
  25 H :    0.138944
  26 H :    0.116754
  27 H :    0.123372
  28 H :    0.109127
  29 H :    0.121062
  30 H :    0.115701
  31 H :    0.114454
  32 H :    0.116226
  33 H :    0.117263
  34 H :    0.115300
  35 H :    0.116462
  36 H :    0.120637
  37 H :    0.129257
Sum of atomic charges:   -0.0000000

LOEWDIN ATOMIC CHARGES
----------------------
   0 C :   -0.356075
   1 C :   -0.110033
   2 O :   -0.060583
   3 C :    0.031258
   4 O :   -0.157635
   5 C :   -0.255344
   6 C :   -0.270137
   7 H :    0.149043
   8 C :    0.012726
   9 O :   -0.155854
  10 O :   -0.047181
  11 C :   -0.102288
  12 C :   -0.350811
  13 S :    0.092929
  14 P :    0.588996
  15 S :   -0.322730
  16 O :   -0.268709
  17 C :   -0.220467
  18 O :   -0.230958
  19 C :   -0.207968
  20 H :    0.131219
  21 H :    0.124981
  22 H :    0.132052
  23 H :    0.118881
  24 H :    0.121794
  25 H :    0.154606
  26 H :    0.139553
  27 H :    0.125995
  28 H :    0.119180
  29 H :    0.129557
  30 H :    0.133455
  31 H :    0.126096
  32 H :    0.110396
  33 H :    0.118180
  34 H :    0.107407
  35 H :    0.108921
  36 H :    0.114083
  37 H :    0.125465

  Mayer bond orders larger than 0.100000
B(  0-C ,  1-C ) :   1.1744 B(  0-C , 20-H ) :   0.9460 B(  0-C , 21-H ) :   0.9489
B(  0-C , 22-H ) :   0.9440 B(  1-C ,  2-O ) :   0.9131 B(  1-C , 23-H ) :   0.9371
B(  1-C , 24-H ) :   0.9146 B(  2-O ,  3-C ) :   1.2409 B(  3-C ,  4-O ) :   2.0411
B(  3-C ,  5-C ) :   0.9949 B(  5-C ,  6-C ) :   1.0890 B(  5-C , 25-H ) :   0.8707
B(  5-C , 26-H ) :   0.9007 B(  6-C ,  7-H ) :   0.8259 B(  6-C ,  8-C ) :   0.9030
B(  6-C , 13-S ) :   1.0246 B(  8-C ,  9-O ) :   2.0162 B(  8-C , 10-O ) :   1.2612
B( 10-O , 11-C ) :   0.8913 B( 11-C , 12-C ) :   1.1530 B( 11-C , 27-H ) :   0.9295
B( 11-C , 28-H ) :   0.9323 B( 12-C , 29-H ) :   0.9493 B( 12-C , 30-H ) :   0.9426
B( 12-C , 31-H ) :   0.9498 B( 13-S , 14-P ) :   0.9417 B( 13-S , 15-S ) :   0.1122
B( 14-P , 15-S ) :   1.6205 B( 14-P , 16-O ) :   1.0528 B( 14-P , 18-O ) :   1.1361
B( 16-O , 17-C ) :   0.9394 B( 17-C , 32-H ) :   0.9361 B( 17-C , 33-H ) :   0.9588
B( 17-C , 34-H ) :   0.9433 B( 18-O , 19-C ) :   0.9231 B( 19-C , 35-H ) :   0.9389
B( 19-C , 36-H ) :   0.9474 B( 19-C , 37-H ) :   0.9604

Dispersion correction           -0.049033219
FINAL SINGLE POINT ENERGY     -1979.016690675260

DIPOLE MOMENT
-------------

Method             : SCF
Type of density    : Electron Density
Multiplicity       :   1
Irrep              :   0
Energy             : -1979.1481173418637809 Eh
Relativity type    :
Basis              : AO
                                X                 Y                 Z
Electronic contribution:    -17.884580227       2.444498355       1.175188565
Nuclear contribution   :     19.539355509      -3.118550106      -0.240438837
                        -----------------------------------------
Total Dipole Moment    :      1.654775282      -0.674051751       0.934749728
                        -----------------------------------------
Magnitude (a.u.)       :      2.016527721
Magnitude (Debye)      :      5.125606129

Rotational constants in cm-1:             0.010628             0.006751             0.004847
Rotational constants in MHz :           318.610636           202.394535           145.305387

                             ****ORCA TERMINATED NORMALLY****
TOTAL RUN TIME: 0 days 0 hours 0 minutes 39 seconds 203 msec
