                         Program Version 6.0.0  -   RELEASE  -
|  1> ! pbe def2-sv(p) def2/J RI DEFGRID1 loosescf d4 GCP(DFT/SV(P)) printgap
|  2> %output
|  3>     printlevel normal
|  4> end
|  5> * xyz 0 1
|  6> C 2.9668092929 0.6630634876 -2.4289863541
|  7> C 2.1715486928 -0.6171031287 -2.2869191953
|  8> O 1.351188548 -0.6265176541 -1.0985345568
|  9> P 1.8901661824 -0.4461538739 0.374862057
| 10> S 2.4435307518 1.3152137766 1.0518894885
| 11> O 3.0516051286 -1.5327509959 0.4017472273
| 12> C 3.9810518535 -1.6441822298 1.4973491153
| 13> C 5.2937657227 -2.1729721498 0.9545740579
| 14> S 0.3512088892 -1.3537493099 1.4906397644
| 15> C -0.5008910392 0.116631143 2.1525083105
| 16> S -2.2204207431 0.2260923661 1.6236212419
| 17> P -1.8837160276 0.608998145 -0.4457582198
| 18> S -0.5286684605 1.9510538286 -0.8803084533
| 19> O -3.3590545937 0.8531813106 -0.9820488674
| 20> C -4.3230929667 1.7440368952 -0.3886205691
| 21> C -3.7970758305 3.153419495 -0.2188633411
| 22> O -1.5146503401 -0.7669092998 -1.1189894865
| 23> C -2.327001075 -1.962486705 -1.0023458095
| 24> C -3.1699004357 -2.1559785155 -2.2457911878
| 25> H 3.4860565977 0.6654093599 -3.3820743668
| 26> H 2.3012370852 1.5234520308 -2.3775023011
| 27> H 3.6956221628 0.7455193107 -1.6232805576
| 28> H 2.8282388267 -1.4894042288 -2.2522726238
| 29> H 1.4433757262 -0.7244338086 -3.0929279738
| 30> H 4.1046130561 -0.6553171025 1.952246424
| 31> H 3.5479887559 -2.3276370321 2.2315417071
| 32> H 5.7125105234 -1.4739698571 0.2355863583
| 33> H 5.9911009101 -2.2990040336 1.7761216521
| 34> H 5.135486305 -3.1302806686 0.4663305947
| 35> H 0.0494350758 1.0079900928 1.8359619712
| 36> H -0.5236406201 0.0345099931 3.2361120285
| 37> H -5.1622328078 1.7143794943 -1.0859130586
| 38> H -4.6236716169 1.325067657 0.5755311656
| 39> H -4.5906382199 3.7922010202 0.1550527508
| 40> H -2.9695349846 3.1641349433 0.4892841649
| 41> H -3.4374185123 3.5421881035 -1.1687659597
| 42> H -1.6056979272 -2.7723382647 -0.8738699753
| 43> H -2.9511667101 -1.8841208793 -0.1075476981
| 44> H -3.7318208725 -3.0799223697 -2.15181127
| 45> H -3.8596739943 -1.3246910578 -2.3650576277
| 46> H -2.5332523327 -2.210030902 -3.1244620018
| 47> *
| 48>
| 49>                          ****END OF INPUT****

CARTESIAN COORDINATES (ANGSTROEM)
---------------------------------
  C      2.966809    0.663063   -2.428986
  C      2.171549   -0.617103   -2.286919
  O      1.351189   -0.626518   -1.098535
  P      1.890166   -0.446154    0.374862
  S      2.443531    1.315214    1.051889
  O      3.051605   -1.532751    0.401747
  C      3.981052   -1.644182    1.497349
  C      5.293766   -2.172972    0.954574
  S      0.351209   -1.353749    1.490640
  C     -0.500891    0.116631    2.152508
  S     -2.220421    0.226092    1.623621
  P     -1.883716    0.608998   -0.445758
  S     -0.528668    1.951054   -0.880308
  O     -3.359055    0.853181   -0.982049
  C     -4.323093    1.744037   -0.388621
  C     -3.797076    3.153419   -0.218863
  O     -1.514650   -0.766909   -1.118989
  C     -2.327001   -1.962487   -1.002346
  C     -3.169900   -2.155979   -2.245791
  H      3.486057    0.665409   -3.382074
  H      2.301237    1.523452   -2.377502
  H      3.695622    0.745519   -1.623281
  H      2.828239   -1.489404   -2.252273
  H      1.443376   -0.724434   -3.092928
  H      4.104613   -0.655317    1.952246
  H      3.547989   -2.327637    2.231542
  H      5.712511   -1.473970    0.235586
  H      5.991101   -2.299004    1.776122
  H      5.135486   -3.130281    0.466331
  H      0.049435    1.007990    1.835962
  H     -0.523641    0.034510    3.236112
  H     -5.162233    1.714379   -1.085913
  H     -4.623672    1.325068    0.575531
  H     -4.590638    3.792201    0.155053
  H     -2.969535    3.164135    0.489284
  H     -3.437419    3.542188   -1.168766
  H     -1.605698   -2.772338   -0.873870
  H     -2.951167   -1.884121   -0.107548
  H     -3.731821   -3.079922   -2.151811
  H     -3.859674   -1.324691   -2.365058
  H     -2.533252   -2.210031   -3.124462

 Total Charge           Charge          ....    0
 Multiplicity           Mult            ....    1
 Number of Electrons    NEL             ....  202
 Basis Dimension        Dim             ....  334

ORBITAL ENERGIES
----------------

  NO   OCC          E(Eh)            E(eV)
   0   2.0000     -88.042617     -2395.7614
   1   2.0000     -88.037681     -2395.6271
   2   2.0000     -87.977942     -2394.0015
   3   2.0000     -87.974066     -2393.8960
   4   2.0000     -76.420777     -2079.5151
   5   2.0000     -76.420223     -2079.5000
   6   2.0000     -18.792678      -511.3748
   7   2.0000     -18.790230      -511.3081
   8   2.0000     -18.783824      -511.1338
   9   2.0000     -18.778664      -510.9934
  10   2.0000      -9.958104      -270.9738
  11   2.0000      -9.952188      -270.8128
  12   2.0000      -9.949113      -270.7291
  13   2.0000      -9.948298      -270.7070
  14   2.0000      -9.946144      -270.6483
  15   2.0000      -9.886805      -269.0336
  16   2.0000      -9.883442      -268.9421
  17   2.0000      -9.880832      -268.8711
  18   2.0000      -9.872859      -268.6542
  19   2.0000      -7.687645      -209.1915
  20   2.0000      -7.683004      -209.0652
  21   2.0000      -7.622920      -207.4302
  22   2.0000      -7.619195      -207.3288
  23   2.0000      -6.417933      -174.6408
  24   2.0000      -6.417490      -174.6288
  25   2.0000      -5.715366      -155.5230
  26   2.0000      -5.711939      -155.4298
  27   2.0000      -5.710840      -155.3999
  28   2.0000      -5.707514      -155.3094
  29   2.0000      -5.705017      -155.2414
  30   2.0000      -5.699945      -155.1034
  31   2.0000      -5.651824      -153.7939
  32   2.0000      -5.648283      -153.6976
  33   2.0000      -5.643708      -153.5731
  34   2.0000      -5.642914      -153.5515
  35   2.0000      -5.639753      -153.4655
  36   2.0000      -5.639200      -153.4504
  37   2.0000      -4.640790      -126.2823
  38   2.0000      -4.640303      -126.2691
  39   2.0000      -4.640084      -126.2631
  40   2.0000      -4.639025      -126.2343
  41   2.0000      -4.637976      -126.2058
  42   2.0000      -4.637806      -126.2011
  43   2.0000      -0.984830       -26.7986
  44   2.0000      -0.981368       -26.7044
  45   2.0000      -0.940900       -25.6032
  46   2.0000      -0.936240       -25.4764
  47   2.0000      -0.760090       -20.6831
  48   2.0000      -0.717812       -19.5327
  49   2.0000      -0.707606       -19.2549
  50   2.0000      -0.688560       -18.7367
  51   2.0000      -0.684493       -18.6260
  52   2.0000      -0.670919       -18.2566
  53   2.0000      -0.646580       -17.5943
  54   2.0000      -0.629442       -17.1280
  55   2.0000      -0.589920       -16.0525
  56   2.0000      -0.584648       -15.9091
  57   2.0000      -0.570795       -15.5321
  58   2.0000      -0.567682       -15.4474
  59   2.0000      -0.563124       -15.3234
  60   2.0000      -0.502834       -13.6828
  61   2.0000      -0.495780       -13.4909
  62   2.0000      -0.471444       -12.8287
  63   2.0000      -0.465977       -12.6799
  64   2.0000      -0.450077       -12.2472
  65   2.0000      -0.444753       -12.1023
  66   2.0000      -0.434670       -11.8280
  67   2.0000      -0.434304       -11.8180
  68   2.0000      -0.429017       -11.6742
  69   2.0000      -0.408431       -11.1140
  70   2.0000      -0.406584       -11.0637
  71   2.0000      -0.403073       -10.9682
  72   2.0000      -0.394035       -10.7222
  73   2.0000      -0.383061       -10.4236
  74   2.0000      -0.380766       -10.3612
  75   2.0000      -0.365421        -9.9436
  76   2.0000      -0.356657        -9.7051
  77   2.0000      -0.353402        -9.6166
  78   2.0000      -0.351735        -9.5712
  79   2.0000      -0.344571        -9.3762
  80   2.0000      -0.341773        -9.3001
  81   2.0000      -0.338701        -9.2165
  82   2.0000      -0.336241        -9.1496
  83   2.0000      -0.335136        -9.1195
  84   2.0000      -0.328165        -8.9298
  85   2.0000      -0.317373        -8.6362
  86   2.0000      -0.311889        -8.4869
  87   2.0000      -0.295944        -8.0530
  88   2.0000      -0.294683        -8.0187
  89   2.0000      -0.287376        -7.8199
  90   2.0000      -0.276362        -7.5202
  91   2.0000      -0.271638        -7.3916
  92   2.0000      -0.267987        -7.2923
  93   2.0000      -0.259758        -7.0684
  94   2.0000      -0.253535        -6.8990
  95   2.0000      -0.235099        -6.3974
  96   2.0000      -0.220411        -5.9977
  97   2.0000      -0.208896        -5.6844
  98   2.0000      -0.193829        -5.2743
  99   2.0000      -0.186507        -5.0751
 100   2.0000      -0.178187        -4.8487
 101   0.0000      -0.036719        -0.9992
 102   0.0000      -0.027946        -0.7604
 103   0.0000      -0.009343        -0.2542
 104   0.0000       0.014761         0.4017
 105   0.0000       0.021361         0.5813

MULLIKEN ATOMIC CHARGES
-----------------------
   0 C :   -0.323498
   1 C :    0.008864
   2 O :   -0.348852
   3 P :    0.629281
   4 S :   -0.314570
   5 O :   -0.389416
   6 C :   -0.005979
   7 C :   -0.285207
   8 S :   -0.104839
   9 C :   -0.348761
  10 S :   -0.121489
  11 P :    0.581594
  12 S :   -0.286416
  13 O :   -0.380394
  14 C :   -0.014238
  15 C :   -0.307134
  16 O :   -0.339084
  17 C :   -0.007616
  18 C :   -0.283879
  19 H :    0.105211
  20 H :    0.137715
  21 H :    0.122520
  22 H :    0.102006
  23 H :    0.105744
  24 H :    0.104958
  25 H :    0.099048
  26 H :    0.117863
  27 H :    0.111733
  28 H :    0.114503
  29 H :    0.209442
  30 H :    0.180740
  31 H :    0.108247
  32 H :    0.113426
  33 H :    0.109729
  34 H :    0.128488
  35 H :    0.126847
  36 H :    0.107100
  37 H :    0.095144
  38 H :    0.106767
  39 H :    0.118419
  40 H :    0.115982
Sum of atomic charges:   -0.0000000

LOEWDIN ATOMIC CHARGES
----------------------
   0 C :   -0.369680
   1 C :   -0.107110
   2 O :   -0.227774
   3 P :    0.570519
   4 S :   -0.303345
   5 O :   -0.252551
   6 C :   -0.122703
   7 C :   -0.351610
   8 S :    0.071554
   9 C :   -0.479242
  10 S :    0.060946
  11 P :    0.559487
  12 S :   -0.291580
  13 O :   -0.248031
  14 C :   -0.115510
  15 C :   -0.369561
  16 O :   -0.225997
  17 C :   -0.118206
  18 C :   -0.358417
  19 H :    0.126753
  20 H :    0.132492
  21 H :    0.118626
  22 H :    0.109230
  23 H :    0.120852
  24 H :    0.105639
  25 H :    0.110692
  26 H :    0.126787
  27 H :    0.130743
  28 H :    0.125283
  29 H :    0.126363
  30 H :    0.136713
  31 H :    0.120500
  32 H :    0.107354
  33 H :    0.129314
  34 H :    0.122537
  35 H :    0.130647
  36 H :    0.117620
  37 H :    0.100615
  38 H :    0.127926
  39 H :    0.125320
  40 H :    0.126807

  Mayer bond orders larger than 0.100000
B(  0-C ,  1-C ) :   1.1669 B(  0-C , 19-H ) :   0.9357 B(  0-C , 20-H ) :   0.9403
B(  0-C , 21-H ) :   0.9347 B(  1-C ,  2-O ) :   0.9056 B(  1-C , 22-H ) :   0.9314
B(  1-C , 23-H ) :   0.9324 B(  2-O ,  3-P ) :   1.1500 B(  3-P ,  4-S ) :   1.6082
B(  3-P ,  5-O ) :   1.0782 B(  3-P ,  8-S ) :   0.9603 B(  4-S ,  8-S ) :   0.1217
B(  5-O ,  6-C ) :   0.9064 B(  6-C ,  7-C ) :   1.1598 B(  6-C , 24-H ) :   0.9006
B(  6-C , 25-H ) :   0.9313 B(  7-C , 26-H ) :   0.9511 B(  7-C , 27-H ) :   0.9423
B(  7-C , 28-H ) :   0.9509 B(  8-S ,  9-C ) :   0.9977 B(  9-C , 10-S ) :   1.0013
B(  9-C , 29-H ) :   0.8438 B(  9-C , 30-H ) :   0.9120 B( 10-S , 11-P ) :   0.9329
B( 10-S , 12-S ) :   0.1072 B( 11-P , 12-S ) :   1.6724 B( 11-P , 13-O ) :   1.0723
B( 11-P , 16-O ) :   1.1402 B( 13-O , 14-C ) :   0.9148 B( 14-C , 15-C ) :   1.1671
B( 14-C , 31-H ) :   0.9334 B( 14-C , 32-H ) :   0.9260 B( 15-C , 33-H ) :   0.9345
B( 15-C , 34-H ) :   0.9316 B( 15-C , 35-H ) :   0.9427 B( 16-O , 17-C ) :   0.8933
B( 17-C , 18-C ) :   1.1630 B( 17-C , 36-H ) :   0.9322 B( 17-C , 37-H ) :   0.9111
B( 18-C , 38-H ) :   0.9409 B( 18-C , 39-H ) :   0.9431 B( 18-C , 40-H ) :   0.9478

Dispersion correction           -0.066956236
FINAL SINGLE POINT ENERGY     -2929.513427238443

DIPOLE MOMENT
-------------

Method             : SCF
Type of density    : Electron Density
Multiplicity       :   1
Irrep              :   0
Energy             : -2929.6316653457583925 Eh
Relativity type    :
Basis              : AO
                                X                 Y                 Z
Electronic contribution:     -2.766739479       4.471207042      10.000281462
Nuclear contribution   :      2.150224855      -5.732324402     -10.066346411
                        -----------------------------------------
Total Dipole Moment    :     -0.616514624      -1.261117359      -0.066064949
                        -----------------------------------------
Magnitude (a.u.)       :      1.405301339
Magnitude (Debye)      :      3.571992133

Rotational constants in cm-1:             0.013220             0.005019             0.004986
Rotational constants in MHz :           396.318159           150.461418           149.482616

                             ****ORCA TERMINATED NORMALLY****
TOTAL RUN TIME: 0 days 0 hours 0 minutes 21 seconds 251 msec
