                         Program Version 6.0.0  -   RELEASE  -
|  1> ! pbe def2-sv(p) def2/J RI DEFGRID1 loosescf d4 GCP(DFT/SV(P)) printgap
|  2> %output
|  3>     printlevel normal
|  4> end
|  5> * xyz 0 1
|  6> C 3.0398145817 -1.8391450642 0.0778670324
|  7> C 1.7251718801 -1.1569839962 0.0450231069
|  8> C 1.5157826545 0.1752650773 -0.0777465603
|  9> C 0.1915639736 0.759254957 -0.0980352962
| 10> O 0.043353761 1.9680140764 -0.230395753
| 11> N -0.8878327334 -0.1213521372 0.0426416081
| 12> C -0.6951227634 -1.4859731161 0.1309278057
| 13> O -1.5688877072 -2.3305812572 0.1989365549
| 14> N 0.6091046013 -1.9252189286 0.1424263834
| 15> C -2.2588718892 0.5028439102 0.0702537167
| 16> C -3.400174254 -0.4957921806 0.2672919753
| 17> C -2.3127806025 1.4822722996 1.2491324724
| 18> C -2.4926158898 1.2077799771 -1.2704091385
| 19> Cl 2.812279515 1.313441123 -0.2281692296
| 20> H 3.837873858 -1.11235661 -0.0244936887
| 21> H 3.1025592327 -2.562079919 -0.7320780043
| 22> H 3.155778271 -2.3719876794 1.0188691987
| 23> H 0.704830439 -2.9336818927 0.2185910079
| 24> H -3.299521266 -1.0467002594 1.1970407107
| 25> H -4.325914222 0.0725377063 0.3021369595
| 26> H -3.4635358572 -1.2064552344 -0.5501141392
| 27> H -1.5957882614 2.2885107604 1.1337451303
| 28> H -2.1073420928 0.9557049465 2.1785627342
| 29> H -3.3065616147 1.9148311374 1.3060046737
| 30> H -2.4115394856 0.4912683171 -2.0848896769
| 31> H -3.49052061 1.6344852434 -1.2792870963
| 32> H -1.7757219382 2.0069176887 -1.4295770186
| 33> *
| 34>
| 35>                          ****END OF INPUT****

CARTESIAN COORDINATES (ANGSTROEM)
---------------------------------
  C      3.039815   -1.839145    0.077867
  C      1.725172   -1.156984    0.045023
  C      1.515783    0.175265   -0.077747
  C      0.191564    0.759255   -0.098035
  O      0.043354    1.968014   -0.230396
  N     -0.887833   -0.121352    0.042642
  C     -0.695123   -1.485973    0.130928
  O     -1.568888   -2.330581    0.198937
  N      0.609105   -1.925219    0.142426
  C     -2.258872    0.502844    0.070254
  C     -3.400174   -0.495792    0.267292
  C     -2.312781    1.482272    1.249132
  C     -2.492616    1.207780   -1.270409
  Cl     2.812280    1.313441   -0.228169
  H      3.837874   -1.112357   -0.024494
  H      3.102559   -2.562080   -0.732078
  H      3.155778   -2.371988    1.018869
  H      0.704830   -2.933682    0.218591
  H     -3.299521   -1.046700    1.197041
  H     -4.325914    0.072538    0.302137
  H     -3.463536   -1.206455   -0.550114
  H     -1.595788    2.288511    1.133745
  H     -2.107342    0.955705    2.178563
  H     -3.306562    1.914831    1.306005
  H     -2.411539    0.491268   -2.084890
  H     -3.490521    1.634485   -1.279287
  H     -1.775722    2.006918   -1.429577

 Total Charge           Charge          ....    0
 Multiplicity           Mult            ....    1
 Number of Electrons    NEL             ....  114
 Basis Dimension        Dim             ....  226

ORBITAL ENERGIES
----------------

  NO   OCC          E(Eh)            E(eV)
   0   2.0000    -100.645797     -2738.7114
   1   2.0000     -18.728460      -509.6273
   2   2.0000     -18.728309      -509.6232
   3   2.0000     -14.062572      -382.6620
   4   2.0000     -14.059371      -382.5749
   5   2.0000     -10.030687      -272.9489
   6   2.0000     -10.000964      -272.1401
   7   2.0000      -9.975581      -271.4494
   8   2.0000      -9.953654      -270.8527
   9   2.0000      -9.950069      -270.7552
  10   2.0000      -9.917921      -269.8803
  11   2.0000      -9.869271      -268.5565
  12   2.0000      -9.869141      -268.5530
  13   2.0000      -9.868520      -268.5361
  14   2.0000      -9.180881      -249.8245
  15   2.0000      -7.012689      -190.8250
  16   2.0000      -7.000645      -190.4972
  17   2.0000      -7.000181      -190.4846
  18   2.0000      -0.983893       -26.7731
  19   2.0000      -0.945600       -25.7311
  20   2.0000      -0.892960       -24.2987
  21   2.0000      -0.858993       -23.3744
  22   2.0000      -0.799750       -21.7623
  23   2.0000      -0.736192       -20.0328
  24   2.0000      -0.717310       -19.5190
  25   2.0000      -0.664741       -18.0885
  26   2.0000      -0.619099       -16.8465
  27   2.0000      -0.616973       -16.7887
  28   2.0000      -0.599575       -16.3153
  29   2.0000      -0.589198       -16.0329
  30   2.0000      -0.536922       -14.6104
  31   2.0000      -0.525227       -14.2922
  32   2.0000      -0.488799       -13.3009
  33   2.0000      -0.450397       -12.2559
  34   2.0000      -0.431199       -11.7335
  35   2.0000      -0.414080       -11.2677
  36   2.0000      -0.412308       -11.2195
  37   2.0000      -0.400310       -10.8930
  38   2.0000      -0.389279       -10.5928
  39   2.0000      -0.388127       -10.5615
  40   2.0000      -0.378810       -10.3079
  41   2.0000      -0.378383       -10.2963
  42   2.0000      -0.374986       -10.2039
  43   2.0000      -0.360465        -9.8088
  44   2.0000      -0.343698        -9.3525
  45   2.0000      -0.341115        -9.2822
  46   2.0000      -0.331728        -9.0268
  47   2.0000      -0.324515        -8.8305
  48   2.0000      -0.311464        -8.4754
  49   2.0000      -0.298607        -8.1255
  50   2.0000      -0.289678        -7.8825
  51   2.0000      -0.288160        -7.8412
  52   2.0000      -0.270744        -7.3673
  53   2.0000      -0.237393        -6.4598
  54   2.0000      -0.230075        -6.2607
  55   2.0000      -0.209172        -5.6919
  56   2.0000      -0.202945        -5.5224
  57   0.0000      -0.071678        -1.9505
  58   0.0000      -0.022779        -0.6199
  59   0.0000       0.001542         0.0420
  60   0.0000       0.023200         0.6313
  61   0.0000       0.044707         1.2165

MULLIKEN ATOMIC CHARGES
-----------------------
   0 C :   -0.200366
   1 C :    0.017188
   2 C :   -0.131388
   3 C :    0.190536
   4 O :   -0.180626
   5 N :   -0.234826
   6 C :    0.183848
   7 O :   -0.210246
   8 N :   -0.209832
   9 C :   -0.183144
  10 C :   -0.163993
  11 C :   -0.217751
  12 C :   -0.215223
  13 Cl:   -0.042510
  14 H :    0.124464
  15 H :    0.129778
  16 H :    0.131069
  17 H :    0.245943
  18 H :    0.103645
  19 H :    0.091546
  20 H :    0.109111
  21 H :    0.140193
  22 H :    0.094052
  23 H :    0.097213
  24 H :    0.095818
  25 H :    0.096499
  26 H :    0.139004
Sum of atomic charges:    0.0000000

LOEWDIN ATOMIC CHARGES
----------------------
   0 C :   -0.333786
   1 C :   -0.015103
   2 C :   -0.218343
   3 C :    0.026520
   4 O :   -0.170154
   5 N :   -0.005148
   6 C :    0.043517
   7 O :   -0.186897
   8 N :   -0.089694
   9 C :   -0.017018
  10 C :   -0.323108
  11 C :   -0.332202
  12 C :   -0.331684
  13 Cl:    0.161109
  14 H :    0.138972
  15 H :    0.143529
  16 H :    0.144288
  17 H :    0.253855
  18 H :    0.121842
  19 H :    0.117986
  20 H :    0.123286
  21 H :    0.131942
  22 H :    0.118446
  23 H :    0.123533
  24 H :    0.119198
  25 H :    0.123380
  26 H :    0.131732

  Mayer bond orders larger than 0.100000
B(  0-C ,  1-C ) :   1.1646 B(  0-C , 14-H ) :   0.9090 B(  0-C , 15-H ) :   0.9187
B(  0-C , 16-H ) :   0.9185 B(  1-C ,  2-C ) :   1.6117 B(  1-C ,  8-N ) :   1.1767
B(  2-C ,  3-C ) :   1.0326 B(  2-C , 13-Cl) :   1.0587 B(  3-C ,  4-O ) :   2.0567
B(  3-C ,  5-N ) :   1.0348 B(  5-N ,  6-C ) :   1.0771 B(  5-N ,  9-C ) :   0.8563
B(  6-C ,  7-O ) :   2.0329 B(  6-C ,  8-N ) :   1.0877 B(  8-N , 17-H ) :   0.8382
B(  9-C , 10-C ) :   1.1328 B(  9-C , 11-C ) :   1.0845 B(  9-C , 12-C ) :   1.0836
B( 10-C , 18-H ) :   0.9320 B( 10-C , 19-H ) :   0.9238 B( 10-C , 20-H ) :   0.9305
B( 11-C , 21-H ) :   0.9192 B( 11-C , 22-H ) :   0.9430 B( 11-C , 23-H ) :   0.9435
B( 12-C , 24-H ) :   0.9431 B( 12-C , 25-H ) :   0.9439 B( 12-C , 26-H ) :   0.9203

Dispersion correction           -0.034334058
FINAL SINGLE POINT ENERGY     -1069.338719805054

DIPOLE MOMENT
-------------

Method             : SCF
Type of density    : Electron Density
Multiplicity       :   1
Irrep              :   0
Energy             : -1069.4275633535492034 Eh
Relativity type    :
Basis              : AO
                                X                 Y                 Z
Electronic contribution:     18.600014810       2.337867663      -1.341755296
Nuclear contribution   :    -17.848280555      -3.532966510       1.483746991
                        -----------------------------------------
Total Dipole Moment    :      0.751734255      -1.195098847       0.141991695
                        -----------------------------------------
Magnitude (a.u.)       :      1.418988120
Magnitude (Debye)      :      3.606781166

Rotational constants in cm-1:             0.033364             0.016338             0.011867
Rotational constants in MHz :          1000.215031           489.808320           355.750957

                             ****ORCA TERMINATED NORMALLY****
TOTAL RUN TIME: 0 days 0 hours 0 minutes 14 seconds 233 msec
