                         Program Version 6.0.0  -   RELEASE  -
|  1> ! pbe def2-sv(p) def2/J RI DEFGRID1 loosescf d4 GCP(DFT/SV(P)) printgap
|  2> %output
|  3>     printlevel normal
|  4> end
|  5> * xyz 0 1
|  6> C 1.6909266227 -3.0238665601 -1.1976987138
|  7> C 2.0042869354 -1.7093744035 -1.8854195545
|  8> O 2.8831033485 -0.892328645 -1.0899796989
|  9> P 2.3839149408 0.2120353465 -0.0600632773
| 10> S 1.0955123571 1.5093276261 -0.7811134196
| 11> O 3.7354475911 0.9150949051 0.3295362581
| 12> C 5.0159784212 0.2463295936 0.4646719595
| 13> C 5.012388393 -0.797790809 1.5600050073
| 14> S 1.73659098 -0.8333161472 1.6834853697
| 15> C 0.0030451063 -0.3510762218 1.7491620207
| 16> S -0.9782893253 -0.9918254977 0.3511114153
| 17> P -2.2222919869 0.691871923 -0.0363754701
| 18> S -2.0438688846 2.1864533669 1.2170094352
| 19> O -3.681491843 0.051978996 -0.0479813452
| 20> C -4.3121039196 -0.3967644038 1.1657667201
| 21> C -5.7962871744 -0.5406557691 0.8953665073
| 22> O -2.0741480344 1.1424333077 -1.5315132833
| 23> C -1.7795436532 0.3210515559 -2.6865268948
| 24> C -2.601472843 -0.9470193854 -2.7474269271
| 25> H 1.1446333938 -3.658973871 -1.8871614124
| 26> H 2.612339383 -3.5200898057 -0.9068769772
| 27> H 1.0788587001 -2.8615955459 -0.3134657485
| 28> H 1.0908775961 -1.1453195605 -2.0977263238
| 29> H 2.5547819617 -1.8696049741 -2.814376273
| 30> H 5.2699935543 -0.1961491103 -0.4999351092
| 31> H 5.6991637959 1.0664655761 0.690268274
| 32> H 4.7042219524 -0.3581237581 2.5050288927
| 33> H 4.3257261755 -1.6051670966 1.3116363003
| 34> H 6.0136968216 -1.2040645873 1.6641381129
| 35> H -0.0915680372 0.737777139 1.7538224294
| 36> H -0.382215478 -0.7794661498 2.6715048648
| 37> H -3.8641673337 -1.353842793 1.448247507
| 38> H -4.1176864317 0.3393824094 1.9537083212
| 39> H -5.9607664479 -1.2587777332 0.0976047096
| 40> H -6.2910703237 -0.8841339465 1.7977651885
| 41> H -6.2145802347 0.417310982 0.5993117416
| 42> H -1.9971989672 0.9870769627 -3.523125388
| 43> H -0.7071151639 0.1076316228 -2.6675002705
| 44> H -2.3629385815 -1.5952759018 -1.9051447923
| 45> H -3.6609182923 -0.706265853 -2.7195016561
| 46> H -2.373381141 -1.4694333277 -3.6713901879
| 47> *
| 48>
| 49>                          ****END OF INPUT****

CARTESIAN COORDINATES (ANGSTROEM)
---------------------------------
  C      1.690927   -3.023867   -1.197699
  C      2.004287   -1.709374   -1.885420
  O      2.883103   -0.892329   -1.089980
  P      2.383915    0.212035   -0.060063
  S      1.095512    1.509328   -0.781113
  O      3.735448    0.915095    0.329536
  C      5.015978    0.246330    0.464672
  C      5.012388   -0.797791    1.560005
  S      1.736591   -0.833316    1.683485
  C      0.003045   -0.351076    1.749162
  S     -0.978289   -0.991825    0.351111
  P     -2.222292    0.691872   -0.036375
  S     -2.043869    2.186453    1.217009
  O     -3.681492    0.051979   -0.047981
  C     -4.312104   -0.396764    1.165767
  C     -5.796287   -0.540656    0.895367
  O     -2.074148    1.142433   -1.531513
  C     -1.779544    0.321052   -2.686527
  C     -2.601473   -0.947019   -2.747427
  H      1.144633   -3.658974   -1.887161
  H      2.612339   -3.520090   -0.906877
  H      1.078859   -2.861596   -0.313466
  H      1.090878   -1.145320   -2.097726
  H      2.554782   -1.869605   -2.814376
  H      5.269994   -0.196149   -0.499935
  H      5.699164    1.066466    0.690268
  H      4.704222   -0.358124    2.505029
  H      4.325726   -1.605167    1.311636
  H      6.013697   -1.204065    1.664138
  H     -0.091568    0.737777    1.753822
  H     -0.382215   -0.779466    2.671505
  H     -3.864167   -1.353843    1.448248
  H     -4.117686    0.339382    1.953708
  H     -5.960766   -1.258778    0.097605
  H     -6.291070   -0.884134    1.797765
  H     -6.214580    0.417311    0.599312
  H     -1.997199    0.987077   -3.523125
  H     -0.707115    0.107632   -2.667500
  H     -2.362939   -1.595276   -1.905145
  H     -3.660918   -0.706266   -2.719502
  H     -2.373381   -1.469433   -3.671390

 Total Charge           Charge          ....    0
 Multiplicity           Mult            ....    1
 Number of Electrons    NEL             ....  202
 Basis Dimension        Dim             ....  334

ORBITAL ENERGIES
----------------

  NO   OCC          E(Eh)            E(eV)
   0   2.0000     -88.045451     -2395.8385
   1   2.0000     -88.041451     -2395.7297
   2   2.0000     -87.980329     -2394.0665
   3   2.0000     -87.976196     -2393.9540
   4   2.0000     -76.425640     -2079.6474
   5   2.0000     -76.421453     -2079.5334
   6   2.0000     -18.793826      -511.4060
   7   2.0000     -18.791735      -511.3491
   8   2.0000     -18.787844      -511.2432
   9   2.0000     -18.783306      -511.1197
  10   2.0000      -9.959590      -271.0142
  11   2.0000      -9.957808      -270.9657
  12   2.0000      -9.955037      -270.8903
  13   2.0000      -9.951487      -270.7937
  14   2.0000      -9.946862      -270.6679
  15   2.0000      -9.894101      -269.2322
  16   2.0000      -9.890641      -269.1380
  17   2.0000      -9.887419      -269.0503
  18   2.0000      -9.884969      -268.9837
  19   2.0000      -7.690112      -209.2586
  20   2.0000      -7.685570      -209.1350
  21   2.0000      -7.625013      -207.4871
  22   2.0000      -7.621436      -207.3898
  23   2.0000      -6.423088      -174.7811
  24   2.0000      -6.418388      -174.6532
  25   2.0000      -5.718112      -155.5977
  26   2.0000      -5.714389      -155.4964
  27   2.0000      -5.713446      -155.4708
  28   2.0000      -5.710154      -155.3812
  29   2.0000      -5.707269      -155.3027
  30   2.0000      -5.702649      -155.1770
  31   2.0000      -5.654219      -153.8591
  32   2.0000      -5.650496      -153.7578
  33   2.0000      -5.645423      -153.6198
  34   2.0000      -5.645148      -153.6123
  35   2.0000      -5.641971      -153.5258
  36   2.0000      -5.641478      -153.5124
  37   2.0000      -4.646017      -126.4245
  38   2.0000      -4.644728      -126.3895
  39   2.0000      -4.643314      -126.3510
  40   2.0000      -4.641104      -126.2909
  41   2.0000      -4.640272      -126.2682
  42   2.0000      -4.638672      -126.2247
  43   2.0000      -0.989822       -26.9344
  44   2.0000      -0.981897       -26.7188
  45   2.0000      -0.945205       -25.7203
  46   2.0000      -0.939259       -25.5585
  47   2.0000      -0.760374       -20.6908
  48   2.0000      -0.721071       -19.6213
  49   2.0000      -0.713432       -19.4135
  50   2.0000      -0.695386       -18.9224
  51   2.0000      -0.690520       -18.7900
  52   2.0000      -0.677012       -18.4224
  53   2.0000      -0.648080       -17.6352
  54   2.0000      -0.631162       -17.1748
  55   2.0000      -0.598073       -16.2744
  56   2.0000      -0.592142       -16.1130
  57   2.0000      -0.581582       -15.8257
  58   2.0000      -0.565098       -15.3771
  59   2.0000      -0.561744       -15.2858
  60   2.0000      -0.502145       -13.6641
  61   2.0000      -0.499037       -13.5795
  62   2.0000      -0.477356       -12.9895
  63   2.0000      -0.472326       -12.8526
  64   2.0000      -0.454711       -12.3733
  65   2.0000      -0.450272       -12.2525
  66   2.0000      -0.445401       -12.1200
  67   2.0000      -0.433309       -11.7909
  68   2.0000      -0.431550       -11.7431
  69   2.0000      -0.420159       -11.4331
  70   2.0000      -0.413535       -11.2529
  71   2.0000      -0.406324       -11.0566
  72   2.0000      -0.397632       -10.8201
  73   2.0000      -0.385066       -10.4782
  74   2.0000      -0.378997       -10.3130
  75   2.0000      -0.369152       -10.0451
  76   2.0000      -0.362505        -9.8643
  77   2.0000      -0.360868        -9.8197
  78   2.0000      -0.357364        -9.7244
  79   2.0000      -0.353691        -9.6244
  80   2.0000      -0.352465        -9.5911
  81   2.0000      -0.347348        -9.4518
  82   2.0000      -0.346359        -9.4249
  83   2.0000      -0.338860        -9.2208
  84   2.0000      -0.333823        -9.0838
  85   2.0000      -0.316724        -8.6185
  86   2.0000      -0.309039        -8.4094
  87   2.0000      -0.300179        -8.1683
  88   2.0000      -0.296698        -8.0736
  89   2.0000      -0.293891        -7.9972
  90   2.0000      -0.285501        -7.7689
  91   2.0000      -0.278549        -7.5797
  92   2.0000      -0.272010        -7.4018
  93   2.0000      -0.260258        -7.0820
  94   2.0000      -0.254478        -6.9247
  95   2.0000      -0.239114        -6.5066
  96   2.0000      -0.218199        -5.9375
  97   2.0000      -0.205968        -5.6047
  98   2.0000      -0.196201        -5.3389
  99   2.0000      -0.189709        -5.1622
 100   2.0000      -0.184050        -5.0082
 101   0.0000      -0.044509        -1.2112
 102   0.0000      -0.033220        -0.9040
 103   0.0000      -0.010998        -0.2993
 104   0.0000       0.000519         0.0141
 105   0.0000       0.010379         0.2824

MULLIKEN ATOMIC CHARGES
-----------------------
   0 C :   -0.303021
   1 C :   -0.029991
   2 O :   -0.384659
   3 P :    0.610455
   4 S :   -0.296599
   5 O :   -0.357257
   6 C :    0.005755
   7 C :   -0.337684
   8 S :   -0.140006
   9 C :   -0.301656
  10 S :   -0.158992
  11 P :    0.613809
  12 S :   -0.298895
  13 O :   -0.377550
  14 C :   -0.006179
  15 C :   -0.279880
  16 O :   -0.353101
  17 C :   -0.021847
  18 C :   -0.324219
  19 H :    0.107412
  20 H :    0.113093
  21 H :    0.132428
  22 H :    0.127705
  23 H :    0.105581
  24 H :    0.111861
  25 H :    0.114028
  26 H :    0.132120
  27 H :    0.131957
  28 H :    0.119063
  29 H :    0.209113
  30 H :    0.175015
  31 H :    0.092867
  32 H :    0.100764
  33 H :    0.112229
  34 H :    0.109694
  35 H :    0.121750
  36 H :    0.110030
  37 H :    0.146872
  38 H :    0.126448
  39 H :    0.128079
  40 H :    0.113412
Sum of atomic charges:    0.0000000

LOEWDIN ATOMIC CHARGES
----------------------
   0 C :   -0.365231
   1 C :   -0.117125
   2 O :   -0.249305
   3 P :    0.564759
   4 S :   -0.289788
   5 O :   -0.234961
   6 C :   -0.108261
   7 C :   -0.372454
   8 S :    0.077267
   9 C :   -0.479800
  10 S :    0.051810
  11 P :    0.573286
  12 S :   -0.297338
  13 O :   -0.250754
  14 C :   -0.124938
  15 C :   -0.350440
  16 O :   -0.223822
  17 C :   -0.111458
  18 C :   -0.369422
  19 H :    0.129301
  20 H :    0.124464
  21 H :    0.112511
  22 H :    0.105736
  23 H :    0.119124
  24 H :    0.115413
  25 H :    0.124460
  26 H :    0.130163
  27 H :    0.117095
  28 H :    0.134446
  29 H :    0.126221
  30 H :    0.134786
  31 H :    0.103753
  32 H :    0.106099
  33 H :    0.124437
  34 H :    0.129618
  35 H :    0.129460
  36 H :    0.125166
  37 H :    0.108816
  38 H :    0.114622
  39 H :    0.130694
  40 H :    0.131589

  Mayer bond orders larger than 0.100000
B(  0-C ,  1-C ) :   1.1709 B(  0-C , 19-H ) :   0.9391 B(  0-C , 20-H ) :   0.9455
B(  0-C , 21-H ) :   0.9270 B(  1-C ,  2-O ) :   0.9075 B(  1-C , 22-H ) :   0.8930
B(  1-C , 23-H ) :   0.9342 B(  2-O ,  3-P ) :   1.0651 B(  3-P ,  4-S ) :   1.6613
B(  3-P ,  5-O ) :   1.1460 B(  3-P ,  8-S ) :   0.9325 B(  4-S ,  8-S ) :   0.1127
B(  5-O ,  6-C ) :   0.8991 B(  6-C ,  7-C ) :   1.1698 B(  6-C , 24-H ) :   0.9267
B(  6-C , 25-H ) :   0.9333 B(  7-C , 26-H ) :   0.9417 B(  7-C , 27-H ) :   0.9303
B(  7-C , 28-H ) :   0.9350 B(  8-S ,  9-C ) :   1.0106 B(  9-C , 10-S ) :   0.9812
B(  9-C , 29-H ) :   0.8458 B(  9-C , 30-H ) :   0.9087 B( 10-S , 11-P ) :   0.9295
B( 10-S , 12-S ) :   0.1145 B( 11-P , 12-S ) :   1.6380 B( 11-P , 13-O ) :   1.0764
B( 11-P , 16-O ) :   1.1540 B( 12-S , 29-H ) :   0.1034 B( 13-O , 14-C ) :   0.9122
B( 14-C , 15-C ) :   1.1600 B( 14-C , 31-H ) :   0.9243 B( 14-C , 32-H ) :   0.9068
B( 15-C , 33-H ) :   0.9517 B( 15-C , 34-H ) :   0.9424 B( 15-C , 35-H ) :   0.9510
B( 16-O , 17-C ) :   0.8969 B( 17-C , 18-C ) :   1.1669 B( 17-C , 36-H ) :   0.9296
B( 17-C , 37-H ) :   0.9037 B( 18-C , 38-H ) :   0.9357 B( 18-C , 39-H ) :   0.9394
B( 18-C , 40-H ) :   0.9344

Dispersion correction           -0.066506493
FINAL SINGLE POINT ENERGY     -2929.510323441924

DIPOLE MOMENT
-------------

Method             : SCF
Type of density    : Electron Density
Multiplicity       :   1
Irrep              :   0
Energy             : -2929.6293193144679208 Eh
Relativity type    :
Basis              : AO
                                X                 Y                 Z
Electronic contribution:      3.961811101      18.141423251       5.661862026
Nuclear contribution   :     -3.437231400     -20.367724089      -6.130470769
                        -----------------------------------------
Total Dipole Moment    :      0.524579701      -2.226300838      -0.468608743
                        -----------------------------------------
Magnitude (a.u.)       :      2.334779098
Magnitude (Debye)      :      5.934536842

Rotational constants in cm-1:             0.014132             0.004729             0.004499
Rotational constants in MHz :           423.677819           141.776309           134.887842

                             ****ORCA TERMINATED NORMALLY****
TOTAL RUN TIME: 0 days 0 hours 0 minutes 21 seconds 416 msec
