                         Program Version 6.0.0  -   RELEASE  -
|  1> ! r2scan-3c def2/J RI DEFGRID2 scfconv6 printgap
|  2> %output
|  3>     printlevel normal
|  4> end
|  5> * xyz 0 1
|  6> C -0.6911538614 -2.0722251456 -1.23194e-05
|  7> C 0.6911728991 -2.0722199698 4.6786e-06
|  8> C 1.3856176267 -0.8716899363 7.04433e-05
|  9> C 0.6966528901 0.3391315489 7.29256e-05
| 10> C -0.6966565884 0.3391292658 6.60405e-05
| 11> C -1.3856149617 -0.8716973375 8.79615e-05
| 12> Cl -3.1080807129 -0.8664373098 -2.5087e-05
| 13> Cl -1.5536054733 1.8341801782 -2.97125e-05
| 14> Cl 1.5535929107 1.8341762211 4.249e-06
| 15> Cl 3.1080863045 -0.8664226536 -4.33058e-05
| 16> H -1.2377275496 -3.0003047484 -0.0001676889
| 17> H 1.2377582013 -3.000292009 1.65025e-05
| 18> *
| 19>
| 20>                          ****END OF INPUT****

CARTESIAN COORDINATES (ANGSTROEM)
---------------------------------
  C     -0.691154   -2.072225   -0.000012
  C      0.691173   -2.072220    0.000005
  C      1.385618   -0.871690    0.000070
  C      0.696653    0.339132    0.000073
  C     -0.696657    0.339129    0.000066
  C     -1.385615   -0.871697    0.000088
  Cl    -3.108081   -0.866437   -0.000025
  Cl    -1.553605    1.834180   -0.000030
  Cl     1.553593    1.834176    0.000004
  Cl     3.108086   -0.866423   -0.000043
  H     -1.237728   -3.000305   -0.000168
  H      1.237758   -3.000292    0.000017

 Total Charge           Charge          ....    0
 Multiplicity           Mult            ....    1
 Number of Electrons    NEL             ....  106
 Basis Dimension        Dim             ....  232

ORBITAL ENERGIES
----------------

  NO   OCC          E(Eh)            E(eV)
   0   2.0000    -101.241694     -2754.9265
   1   2.0000    -101.241689     -2754.9264
   2   2.0000    -101.240320     -2754.8892
   3   2.0000    -101.240319     -2754.8891
   4   2.0000     -10.136691      -275.8334
   5   2.0000     -10.136268      -275.8219
   6   2.0000     -10.131290      -275.6864
   7   2.0000     -10.131284      -275.6862
   8   2.0000     -10.077914      -274.2340
   9   2.0000     -10.077438      -274.2210
  10   2.0000      -9.397322      -255.7141
  11   2.0000      -9.397316      -255.7140
  12   2.0000      -9.396147      -255.6822
  13   2.0000      -9.396145      -255.6821
  14   2.0000      -7.144043      -194.3993
  15   2.0000      -7.144042      -194.3993
  16   2.0000      -7.142657      -194.3616
  17   2.0000      -7.142657      -194.3616
  18   2.0000      -7.133636      -194.1161
  19   2.0000      -7.133636      -194.1161
  20   2.0000      -7.132568      -194.0870
  21   2.0000      -7.132567      -194.0870
  22   2.0000      -7.132405      -194.0826
  23   2.0000      -7.132405      -194.0826
  24   2.0000      -7.131638      -194.0617
  25   2.0000      -7.131637      -194.0617
  26   2.0000      -0.924170       -25.1480
  27   2.0000      -0.878225       -23.8977
  28   2.0000      -0.855352       -23.2753
  29   2.0000      -0.825517       -22.4635
  30   2.0000      -0.807729       -21.9794
  31   2.0000      -0.729401       -19.8480
  32   2.0000      -0.708032       -19.2665
  33   2.0000      -0.611440       -16.6381
  34   2.0000      -0.595062       -16.1925
  35   2.0000      -0.511218       -13.9109
  36   2.0000      -0.503244       -13.6940
  37   2.0000      -0.465187       -12.6584
  38   2.0000      -0.439782       -11.9671
  39   2.0000      -0.439781       -11.9670
  40   2.0000      -0.431872       -11.7518
  41   2.0000      -0.390764       -10.6332
  42   2.0000      -0.387220       -10.5368
  43   2.0000      -0.373793       -10.1714
  44   2.0000      -0.351508        -9.5650
  45   2.0000      -0.323272        -8.7967
  46   2.0000      -0.321351        -8.7444
  47   2.0000      -0.316952        -8.6247
  48   2.0000      -0.306396        -8.3375
  49   2.0000      -0.300420        -8.1748
  50   2.0000      -0.281457        -7.6588
  51   2.0000      -0.251190        -6.8352
  52   2.0000      -0.239512        -6.5175
  53   0.0000      -0.072876        -1.9831
  54   0.0000      -0.070664        -1.9229
  55   0.0000      -0.057415        -1.5623
  56   0.0000      -0.000456        -0.0124
  57   0.0000       0.032735         0.8908

MULLIKEN ATOMIC CHARGES
-----------------------
   0 C :   -0.204261
   1 C :   -0.204254
   2 C :    0.139923
   3 C :    0.056266
   4 C :    0.056263
   5 C :    0.139920
   6 Cl:   -0.093761
   7 Cl:   -0.067745
   8 Cl:   -0.067742
   9 Cl:   -0.093766
  10 H :    0.169578
  11 H :    0.169578
Sum of atomic charges:    0.0000000

LOEWDIN ATOMIC CHARGES
----------------------
   0 C :   -0.158384
   1 C :   -0.158384
   2 C :   -0.182843
   3 C :   -0.191702
   4 C :   -0.191698
   5 C :   -0.182843
   6 Cl:    0.165926
   7 Cl:    0.181912
   8 Cl:    0.181917
   9 Cl:    0.165923
  10 H :    0.185088
  11 H :    0.185088

  Mayer bond orders larger than 0.100000
B(  0-C ,  1-C ) :   1.3500 B(  0-C ,  5-C ) :   1.3465 B(  0-C , 10-H ) :   0.9411
B(  1-C ,  2-C ) :   1.3465 B(  1-C , 11-H ) :   0.9411 B(  2-C ,  3-C ) :   1.2200
B(  2-C ,  9-Cl) :   1.0623 B(  3-C ,  4-C ) :   1.0994 B(  3-C ,  8-Cl) :   1.2324
B(  4-C ,  5-C ) :   1.2200 B(  4-C ,  7-Cl) :   1.2324 B(  5-C ,  6-Cl) :   1.0623

Dispersion correction           -0.006480740
FINAL SINGLE POINT ENERGY     -2070.490646687397

DIPOLE MOMENT
-------------

Method             : SCF
Type of density    : Electron Density
Multiplicity       :   1
Irrep              :   0
Energy             : -2070.4917218974096613 Eh
Relativity type    :
Basis              : AO
                                X                 Y                 Z
Electronic contribution:     -0.000036005       7.484442058      -0.000030890
Nuclear contribution   :      0.000038113      -8.227482146      -0.000015864
                        -----------------------------------------
Total Dipole Moment    :      0.000002108      -0.743040088      -0.000046754
                        -----------------------------------------
Magnitude (a.u.)       :      0.743040089
Magnitude (Debye)      :      1.888657813

Rotational constants in cm-1:             0.038835             0.018157             0.012372
Rotational constants in MHz :          1164.231843           544.324936           370.909783

                             ****ORCA TERMINATED NORMALLY****
TOTAL RUN TIME: 0 days 0 hours 0 minutes 27 seconds 690 msec
