                         Program Version 6.0.0  -   RELEASE  -
|  1> ! r2scan-3c def2/J RI DEFGRID2 scfconv6 printgap
|  2> %output
|  3>     printlevel normal
|  4> end
|  5> %cpcm
|  6>     smd true
|  7>     smdsolvent "water"
|  8> end
|  9> * xyz 0 1
| 10> C -0.6911538614 -2.0722251456 -1.23194e-05
| 11> C 0.6911728991 -2.0722199698 4.6786e-06
| 12> C 1.3856176267 -0.8716899363 7.04433e-05
| 13> C 0.6966528901 0.3391315489 7.29256e-05
| 14> C -0.6966565884 0.3391292658 6.60405e-05
| 15> C -1.3856149617 -0.8716973375 8.79615e-05
| 16> Cl -3.1080807129 -0.8664373098 -2.5087e-05
| 17> Cl -1.5536054733 1.8341801782 -2.97125e-05
| 18> Cl 1.5535929107 1.8341762211 4.249e-06
| 19> Cl 3.1080863045 -0.8664226536 -4.33058e-05
| 20> H -1.2377275496 -3.0003047484 -0.0001676889
| 21> H 1.2377582013 -3.000292009 1.65025e-05
| 22> *
| 23>
| 24>                          ****END OF INPUT****

CARTESIAN COORDINATES (ANGSTROEM)
---------------------------------
  C     -0.691154   -2.072225   -0.000012
  C      0.691173   -2.072220    0.000005
  C      1.385618   -0.871690    0.000070
  C      0.696653    0.339132    0.000073
  C     -0.696657    0.339129    0.000066
  C     -1.385615   -0.871697    0.000088
  Cl    -3.108081   -0.866437   -0.000025
  Cl    -1.553605    1.834180   -0.000030
  Cl     1.553593    1.834176    0.000004
  Cl     3.108086   -0.866423   -0.000043
  H     -1.237728   -3.000305   -0.000168
  H      1.237758   -3.000292    0.000017

 Total Charge           Charge          ....    0
 Multiplicity           Mult            ....    1
 Number of Electrons    NEL             ....  106
 Basis Dimension        Dim             ....  232

ORBITAL ENERGIES
----------------

  NO   OCC          E(Eh)            E(eV)
   0   2.0000    -101.241424     -2754.9192
   1   2.0000    -101.241419     -2754.9191
   2   2.0000    -101.237487     -2754.8121
   3   2.0000    -101.237485     -2754.8120
   4   2.0000     -10.131861      -275.7020
   5   2.0000     -10.131438      -275.6904
   6   2.0000     -10.124679      -275.5065
   7   2.0000     -10.124672      -275.5063
   8   2.0000     -10.066135      -273.9134
   9   2.0000     -10.065658      -273.9005
  10   2.0000      -9.397180      -255.7103
  11   2.0000      -9.397174      -255.7101
  12   2.0000      -9.393423      -255.6080
  13   2.0000      -9.393421      -255.6080
  14   2.0000      -7.143777      -194.3920
  15   2.0000      -7.143777      -194.3920
  16   2.0000      -7.139829      -194.2846
  17   2.0000      -7.139829      -194.2846
  18   2.0000      -7.133505      -194.1125
  19   2.0000      -7.133505      -194.1125
  20   2.0000      -7.132512      -194.0855
  21   2.0000      -7.132512      -194.0855
  22   2.0000      -7.129730      -194.0098
  23   2.0000      -7.129729      -194.0098
  24   2.0000      -7.128949      -193.9886
  25   2.0000      -7.128949      -193.9886
  26   2.0000      -0.919735       -25.0272
  27   2.0000      -0.874842       -23.8057
  28   2.0000      -0.852063       -23.1858
  29   2.0000      -0.824392       -22.4328
  30   2.0000      -0.801925       -21.8215
  31   2.0000      -0.722518       -19.6607
  32   2.0000      -0.701976       -19.1017
  33   2.0000      -0.603549       -16.4234
  34   2.0000      -0.588911       -16.0251
  35   2.0000      -0.504389       -13.7251
  36   2.0000      -0.496091       -13.4993
  37   2.0000      -0.459797       -12.5117
  38   2.0000      -0.435390       -11.8476
  39   2.0000      -0.432081       -11.7575
  40   2.0000      -0.426823       -11.6144
  41   2.0000      -0.383663       -10.4400
  42   2.0000      -0.376532       -10.2460
  43   2.0000      -0.370619       -10.0851
  44   2.0000      -0.348583        -9.4854
  45   2.0000      -0.323282        -8.7970
  46   2.0000      -0.321140        -8.7387
  47   2.0000      -0.314506        -8.5582
  48   2.0000      -0.302030        -8.2187
  49   2.0000      -0.298222        -8.1150
  50   2.0000      -0.281314        -7.6550
  51   2.0000      -0.246468        -6.7067
  52   2.0000      -0.234814        -6.3896
  53   0.0000      -0.065236        -1.7752
  54   0.0000      -0.064125        -1.7449
  55   0.0000      -0.054125        -1.4728
  56   0.0000       0.003442         0.0937
  57   0.0000       0.037416         1.0182

MULLIKEN ATOMIC CHARGES
-----------------------
   0 C :   -0.215018
   1 C :   -0.215013
   2 C :    0.138145
   3 C :    0.066030
   4 C :    0.065999
   5 C :    0.138160
   6 Cl:   -0.109666
   7 Cl:   -0.088363
   8 Cl:   -0.088359
   9 Cl:   -0.109667
  10 H :    0.208876
  11 H :    0.208876
Sum of atomic charges:    0.0000000

LOEWDIN ATOMIC CHARGES
----------------------
   0 C :   -0.145797
   1 C :   -0.145797
   2 C :   -0.183348
   3 C :   -0.193082
   4 C :   -0.193079
   5 C :   -0.183349
   6 Cl:    0.154925
   7 Cl:    0.167485
   8 Cl:    0.167491
   9 Cl:    0.154923
  10 H :    0.199814
  11 H :    0.199814

  Mayer bond orders larger than 0.100000
B(  0-C ,  1-C ) :   1.3727 B(  0-C ,  5-C ) :   1.3242 B(  0-C , 10-H ) :   0.9366
B(  1-C ,  2-C ) :   1.3242 B(  1-C , 11-H ) :   0.9366 B(  2-C ,  3-C ) :   1.2104
B(  2-C ,  9-Cl) :   1.0541 B(  3-C ,  4-C ) :   1.1059 B(  3-C ,  8-Cl) :   1.2084
B(  4-C ,  5-C ) :   1.2104 B(  4-C ,  7-Cl) :   1.2084 B(  5-C ,  6-Cl) :   1.0541

Dispersion correction           -0.006480740
FINAL SINGLE POINT ENERGY     -2070.491281619830

DIPOLE MOMENT
-------------

Method             : SCF
Type of density    : Electron Density
Multiplicity       :   1
Irrep              :   0
Energy             : -2070.4923568298427199 Eh
Relativity type    :
Basis              : AO
                                X                 Y                 Z
Electronic contribution:     -0.000033442       7.026160149      -0.000039522
Nuclear contribution   :      0.000038113      -8.227482146      -0.000015864
                        -----------------------------------------
Total Dipole Moment    :      0.000004671      -1.201321997      -0.000055386
                        -----------------------------------------
Magnitude (a.u.)       :      1.201321998
Magnitude (Debye)      :      3.053517853

Rotational constants in cm-1:             0.038835             0.018157             0.012372
Rotational constants in MHz :          1164.231843           544.324936           370.909783

                             ****ORCA TERMINATED NORMALLY****
TOTAL RUN TIME: 0 days 0 hours 0 minutes 31 seconds 422 msec
