                         Program Version 6.0.0  -   RELEASE  -
|  1> ! pbe def2-sv(p) def2/J RI DEFGRID1 loosescf d4 GCP(DFT/SV(P)) printgap
|  2> %output
|  3>     printlevel normal
|  4> end
|  5> * xyz 0 1
|  6> C 3.752605902 1.4328361045 -2.0370623362
|  7> C 2.7321234137 0.316054784 -2.1402634742
|  8> O 2.8252525957 -0.5625452949 -1.0002788024
|  9> P 1.9249794897 -0.4612211996 0.3016077631
| 10> S 1.5189006918 1.3555069821 0.9266233456
| 11> O 2.7161930525 -1.343983332 1.3509870432
| 12> C 3.6704696732 -0.7780118664 2.2724187758
| 13> C 4.9352655518 -0.3390581835 1.5657112531
| 14> S 0.4180949939 -1.8852518417 -0.1410381218
| 15> C -0.5354966948 -1.8336568708 1.398925689
| 16> S -1.3963482799 -0.2555893131 1.7108836544
| 17> P -2.0882054118 0.2069776938 -0.231567265
| 18> S -0.9202420425 0.872867108 -1.6703135358
| 19> O -3.2849747641 1.2056842611 0.0796672178
| 20> C -3.1048960371 2.6300107175 0.1391842439
| 21> C -2.2534787883 3.0423443678 1.322744258
| 22> O -2.829636885 -1.1558803319 -0.5356241095
| 23> C -3.1836104684 -1.5644117203 -1.8734388193
| 24> C -4.308836401 -0.7207774204 -2.4341309239
| 25> H 4.7504168368 1.0193388721 -1.9182160463
| 26> H 3.714836677 2.0307702746 -2.9418069492
| 27> H 3.5244195846 2.0702246205 -1.1851720314
| 28> H 2.9289508995 -0.3276696998 -2.9993136501
| 29> H 1.7190777541 0.7201971109 -2.2155738085
| 30> H 3.1995860159 0.068452947 2.7829599078
| 31> H 3.860382712 -1.5849082484 2.9814196208
| 32> H 5.6659575443 -0.0162784592 2.3006689102
| 33> H 5.3434443944 -1.1604314265 0.9826996465
| 34> H 4.7133370025 0.4914300389 0.8974001601
| 35> H 0.123796141 -1.9938910435 2.2496913255
| 36> H -1.2730453788 -2.628868401 1.3172352008
| 37> H -2.6450374122 2.9618778578 -0.7978027981
| 38> H -4.1204245486 3.0205057566 0.2153999674
| 39> H -2.2225475717 4.1251034049 1.3883265586
| 40> H -2.661555228 2.6336835955 2.2438887004
| 41> H -1.2343859568 2.6720474484 1.199878823
| 42> H -2.2917079569 -1.4942276639 -2.5045181787
| 43> H -3.47565109 -2.6088412392 -1.7585585946
| 44> H -4.6136265092 -1.1194282815 -3.3965887408
| 45> H -5.155824105 -0.724684457 -1.7532095732
| 46> H -3.9695214596 0.3058162292 -2.566992357
| 47> *
| 48>
| 49>                          ****END OF INPUT****

CARTESIAN COORDINATES (ANGSTROEM)
---------------------------------
  C      3.752606    1.432836   -2.037062
  C      2.732123    0.316055   -2.140263
  O      2.825253   -0.562545   -1.000279
  P      1.924979   -0.461221    0.301608
  S      1.518901    1.355507    0.926623
  O      2.716193   -1.343983    1.350987
  C      3.670470   -0.778012    2.272419
  C      4.935266   -0.339058    1.565711
  S      0.418095   -1.885252   -0.141038
  C     -0.535497   -1.833657    1.398926
  S     -1.396348   -0.255589    1.710884
  P     -2.088205    0.206978   -0.231567
  S     -0.920242    0.872867   -1.670314
  O     -3.284975    1.205684    0.079667
  C     -3.104896    2.630011    0.139184
  C     -2.253479    3.042344    1.322744
  O     -2.829637   -1.155880   -0.535624
  C     -3.183610   -1.564412   -1.873439
  C     -4.308836   -0.720777   -2.434131
  H      4.750417    1.019339   -1.918216
  H      3.714837    2.030770   -2.941807
  H      3.524420    2.070225   -1.185172
  H      2.928951   -0.327670   -2.999314
  H      1.719078    0.720197   -2.215574
  H      3.199586    0.068453    2.782960
  H      3.860383   -1.584908    2.981420
  H      5.665958   -0.016278    2.300669
  H      5.343444   -1.160431    0.982700
  H      4.713337    0.491430    0.897400
  H      0.123796   -1.993891    2.249691
  H     -1.273045   -2.628868    1.317235
  H     -2.645037    2.961878   -0.797803
  H     -4.120425    3.020506    0.215400
  H     -2.222548    4.125103    1.388327
  H     -2.661555    2.633684    2.243889
  H     -1.234386    2.672047    1.199879
  H     -2.291708   -1.494228   -2.504518
  H     -3.475651   -2.608841   -1.758559
  H     -4.613627   -1.119428   -3.396589
  H     -5.155824   -0.724684   -1.753210
  H     -3.969521    0.305816   -2.566992

 Total Charge           Charge          ....    0
 Multiplicity           Mult            ....    1
 Number of Electrons    NEL             ....  202
 Basis Dimension        Dim             ....  334

ORBITAL ENERGIES
----------------

  NO   OCC          E(Eh)            E(eV)
   0   2.0000     -88.038167     -2395.6403
   1   2.0000     -88.033943     -2395.5254
   2   2.0000     -87.981352     -2394.0943
   3   2.0000     -87.979391     -2394.0410
   4   2.0000     -76.422895     -2079.5727
   5   2.0000     -76.422376     -2079.5586
   6   2.0000     -18.788982      -511.2742
   7   2.0000     -18.788467      -511.2602
   8   2.0000     -18.787292      -511.2282
   9   2.0000     -18.787151      -511.2244
  10   2.0000      -9.957084      -270.9460
  11   2.0000      -9.948515      -270.7129
  12   2.0000      -9.948379      -270.7092
  13   2.0000      -9.946339      -270.6536
  14   2.0000      -9.946153      -270.6486
  15   2.0000      -9.882112      -268.9059
  16   2.0000      -9.880874      -268.8722
  17   2.0000      -9.877263      -268.7740
  18   2.0000      -9.877163      -268.7713
  19   2.0000      -7.683253      -209.0719
  20   2.0000      -7.679246      -208.9629
  21   2.0000      -7.625959      -207.5129
  22   2.0000      -7.623995      -207.4595
  23   2.0000      -6.420107      -174.7000
  24   2.0000      -6.419546      -174.6847
  25   2.0000      -5.711292      -155.4122
  26   2.0000      -5.707881      -155.3193
  27   2.0000      -5.707434      -155.3072
  28   2.0000      -5.703858      -155.2099
  29   2.0000      -5.699870      -155.1013
  30   2.0000      -5.695727      -154.9886
  31   2.0000      -5.654850      -153.8763
  32   2.0000      -5.652882      -153.8227
  33   2.0000      -5.646501      -153.6491
  34   2.0000      -5.646267      -153.6427
  35   2.0000      -5.644646      -153.5986
  36   2.0000      -5.644203      -153.5866
  37   2.0000      -4.642644      -126.3328
  38   2.0000      -4.642210      -126.3210
  39   2.0000      -4.641894      -126.3124
  40   2.0000      -4.641385      -126.2985
  41   2.0000      -4.640627      -126.2779
  42   2.0000      -4.639922      -126.2587
  43   2.0000      -0.983040       -26.7499
  44   2.0000      -0.982298       -26.7297
  45   2.0000      -0.943432       -25.6721
  46   2.0000      -0.942202       -25.6386
  47   2.0000      -0.759935       -20.6789
  48   2.0000      -0.716606       -19.4998
  49   2.0000      -0.703569       -19.1451
  50   2.0000      -0.683134       -18.5890
  51   2.0000      -0.682369       -18.5682
  52   2.0000      -0.664508       -18.0822
  53   2.0000      -0.650565       -17.7028
  54   2.0000      -0.634979       -17.2787
  55   2.0000      -0.597721       -16.2648
  56   2.0000      -0.589024       -16.0282
  57   2.0000      -0.569018       -15.4838
  58   2.0000      -0.565487       -15.3877
  59   2.0000      -0.561005       -15.2657
  60   2.0000      -0.498377       -13.5615
  61   2.0000      -0.487192       -13.2572
  62   2.0000      -0.473297       -12.8791
  63   2.0000      -0.468579       -12.7507
  64   2.0000      -0.452803       -12.3214
  65   2.0000      -0.439062       -11.9475
  66   2.0000      -0.434499       -11.8233
  67   2.0000      -0.431123       -11.7314
  68   2.0000      -0.421868       -11.4796
  69   2.0000      -0.412011       -11.2114
  70   2.0000      -0.401961       -10.9379
  71   2.0000      -0.393588       -10.7101
  72   2.0000      -0.390175       -10.6172
  73   2.0000      -0.388533       -10.5725
  74   2.0000      -0.380797       -10.3620
  75   2.0000      -0.372673       -10.1409
  76   2.0000      -0.367440        -9.9985
  77   2.0000      -0.353796        -9.6273
  78   2.0000      -0.350391        -9.5346
  79   2.0000      -0.347973        -9.4688
  80   2.0000      -0.344317        -9.3693
  81   2.0000      -0.343257        -9.3405
  82   2.0000      -0.337391        -9.1809
  83   2.0000      -0.333440        -9.0734
  84   2.0000      -0.327399        -8.9090
  85   2.0000      -0.318912        -8.6781
  86   2.0000      -0.304856        -8.2955
  87   2.0000      -0.292166        -7.9502
  88   2.0000      -0.290804        -7.9132
  89   2.0000      -0.279717        -7.6115
  90   2.0000      -0.279280        -7.5996
  91   2.0000      -0.272263        -7.4087
  92   2.0000      -0.266976        -7.2648
  93   2.0000      -0.258883        -7.0446
  94   2.0000      -0.257259        -7.0004
  95   2.0000      -0.245651        -6.6845
  96   2.0000      -0.220418        -5.9979
  97   2.0000      -0.210869        -5.7380
  98   2.0000      -0.186323        -5.0701
  99   2.0000      -0.184538        -5.0215
 100   2.0000      -0.181166        -4.9298
 101   0.0000      -0.048362        -1.3160
 102   0.0000      -0.028550        -0.7769
 103   0.0000      -0.008994        -0.2448
 104   0.0000       0.004916         0.1338
 105   0.0000       0.024380         0.6634

MULLIKEN ATOMIC CHARGES
-----------------------
   0 C :   -0.300407
   1 C :   -0.020461
   2 O :   -0.378603
   3 P :    0.623610
   4 S :   -0.307592
   5 O :   -0.372216
   6 C :   -0.005249
   7 C :   -0.314312
   8 S :   -0.094667
   9 C :   -0.319455
  10 S :   -0.092768
  11 P :    0.625278
  12 S :   -0.331981
  13 O :   -0.369991
  14 C :   -0.001282
  15 C :   -0.341430
  16 O :   -0.372940
  17 C :   -0.002609
  18 C :   -0.304127
  19 H :    0.112534
  20 H :    0.108493
  21 H :    0.129517
  22 H :    0.102904
  23 H :    0.134142
  24 H :    0.109318
  25 H :    0.101729
  26 H :    0.110627
  27 H :    0.117372
  28 H :    0.129651
  29 H :    0.179038
  30 H :    0.187047
  31 H :    0.109375
  32 H :    0.102565
  33 H :    0.112598
  34 H :    0.118788
  35 H :    0.154102
  36 H :    0.111738
  37 H :    0.100692
  38 H :    0.110221
  39 H :    0.116332
  40 H :    0.122416
Sum of atomic charges:    0.0000000

LOEWDIN ATOMIC CHARGES
----------------------
   0 C :   -0.362729
   1 C :   -0.115855
   2 O :   -0.245341
   3 P :    0.569144
   4 S :   -0.304043
   5 O :   -0.244826
   6 C :   -0.120839
   7 C :   -0.364692
   8 S :    0.089744
   9 C :   -0.469098
  10 S :    0.086150
  11 P :    0.572934
  12 S :   -0.316293
  13 O :   -0.243514
  14 C :   -0.121211
  15 C :   -0.373820
  16 O :   -0.242925
  17 C :   -0.118520
  18 C :   -0.364168
  19 H :    0.122488
  20 H :    0.129351
  21 H :    0.124087
  22 H :    0.117497
  23 H :    0.109477
  24 H :    0.108504
  25 H :    0.116673
  26 H :    0.129883
  27 H :    0.126632
  28 H :    0.124405
  29 H :    0.132506
  30 H :    0.135474
  31 H :    0.108856
  32 H :    0.117374
  33 H :    0.131570
  34 H :    0.123889
  35 H :    0.125231
  36 H :    0.110431
  37 H :    0.116538
  38 H :    0.129487
  39 H :    0.126434
  40 H :    0.123115

  Mayer bond orders larger than 0.100000
B(  0-C ,  1-C ) :   1.1705 B(  0-C , 19-H ) :   0.9439 B(  0-C , 20-H ) :   0.9389
B(  0-C , 21-H ) :   0.9324 B(  1-C ,  2-O ) :   0.8928 B(  1-C , 22-H ) :   0.9355
B(  1-C , 23-H ) :   0.9048 B(  2-O ,  3-P ) :   1.1212 B(  3-P ,  4-S ) :   1.6257
B(  3-P ,  5-O ) :   1.1100 B(  3-P ,  8-S ) :   0.9404 B(  4-S ,  8-S ) :   0.1195
B(  5-O ,  6-C ) :   0.9087 B(  6-C ,  7-C ) :   1.1653 B(  6-C , 24-H ) :   0.9114
B(  6-C , 25-H ) :   0.9341 B(  7-C , 26-H ) :   0.9385 B(  7-C , 27-H ) :   0.9465
B(  7-C , 28-H ) :   0.9335 B(  8-S ,  9-C ) :   1.0129 B(  9-C , 10-S ) :   0.9854
B(  9-C , 29-H ) :   0.9055 B(  9-C , 30-H ) :   0.9084 B( 10-S , 11-P ) :   0.9760
B( 10-S , 12-S ) :   0.1162 B( 11-P , 12-S ) :   1.5766 B( 11-P , 13-O ) :   1.1086
B( 11-P , 16-O ) :   1.1155 B( 13-O , 14-C ) :   0.9080 B( 14-C , 15-C ) :   1.1652
B( 14-C , 31-H ) :   0.9125 B( 14-C , 32-H ) :   0.9327 B( 15-C , 33-H ) :   0.9376
B( 15-C , 34-H ) :   0.9432 B( 15-C , 35-H ) :   0.9255 B( 16-O , 17-C ) :   0.9034
B( 17-C , 18-C ) :   1.1660 B( 17-C , 36-H ) :   0.9140 B( 17-C , 37-H ) :   0.9345
B( 18-C , 38-H ) :   0.9394 B( 18-C , 39-H ) :   0.9462 B( 18-C , 40-H ) :   0.9361

Dispersion correction           -0.068403017
FINAL SINGLE POINT ENERGY     -2929.513761269873

DIPOLE MOMENT
-------------

Method             : SCF
Type of density    : Electron Density
Multiplicity       :   1
Irrep              :   0
Energy             : -2929.6291986972769337 Eh
Relativity type    :
Basis              : AO
                                X                 Y                 Z
Electronic contribution:     -5.644717473      -8.526907775       5.212318707
Nuclear contribution   :      5.665616947       8.134274818      -5.227532940
                        -----------------------------------------
Total Dipole Moment    :      0.020899474      -0.392632957      -0.015214233
                        -----------------------------------------
Magnitude (a.u.)       :      0.393483036
Magnitude (Debye)      :      1.000154394

Rotational constants in cm-1:             0.012677             0.005245             0.005210
Rotational constants in MHz :           380.038847           157.245042           156.206094

                             ****ORCA TERMINATED NORMALLY****
TOTAL RUN TIME: 0 days 0 hours 0 minutes 21 seconds 285 msec
