                         Program Version 6.0.0  -   RELEASE  -
|  1> ! r2scan-3c def2/J RI DEFGRID2 scfconv6 printgap
|  2> %output
|  3>     printlevel normal
|  4> end
|  5> * xyz 0 1
|  6> C 3.8597050646 -1.9436668236 -2.4059272239
|  7> C 4.4858813791 -1.7019290425 -1.0482686148
|  8> O 3.5065558172 -1.3896110789 -0.0391513509
|  9> P 2.6215359063 -0.0695696233 -0.0731274928
| 10> S 3.5183701665 1.5676184032 -0.6497768369
| 11> O 2.1221365972 0.0215059534 1.4185062175
| 12> C 1.5349808612 -1.1008591155 2.1249433547
| 13> C 0.600724827 -0.5523074348 3.1830530936
| 14> S 0.9100511077 -0.6414265406 -1.21923399
| 15> C 0.2784211805 1.0353841282 -1.4540900138
| 16> S -0.4011012416 1.7427695793 0.0717848298
| 17> P -2.1787720831 0.5973986327 0.0600881496
| 18> S -3.0520787027 0.4233132726 -1.6903816215
| 19> O -2.8833597764 1.4196454427 1.2156514766
| 20> C -4.0446684382 0.9420625496 1.9305769871
| 21> C -5.3177209772 1.1285245261 1.1291151594
| 22> O -1.8382349005 -0.7953880085 0.75558811
| 23> C -1.9907221208 -2.0772560615 0.1181648985
| 24> C -3.3153143314 -2.7016207941 0.5091639675
| 25> H 4.6214592487 -2.2998098299 -3.0919952872
| 26> H 3.0650094951 -2.6817621305 -2.3321533891
| 27> H 3.4431575517 -1.0156846524 -2.7947848264
| 28> H 5.2033961613 -0.8775143447 -1.0969688976
| 29> H 4.9738043525 -2.5985882354 -0.6635175779
| 30> H 1.0037245439 -1.7284528829 1.4032380183
| 31> H 2.3533768325 -1.6729689301 2.565752683
| 32> H 0.1878688398 -1.3757609041 3.756767378
| 33> H 1.1431787549 0.1158941222 3.8456106064
| 34> H -0.2101009551 0.0043760213 2.7184795805
| 35> H -0.5037102071 0.9827382934 -2.2129161332
| 36> H 1.0960260545 1.6843746024 -1.7689610472
| 37> H -3.8912743447 -0.1086995155 2.1891304801
| 38> H -4.0557550656 1.54713044 2.8388952477
| 39> H -5.4406858884 2.1738511963 0.8580608199
| 40> H -5.2829924374 0.5395594869 0.2144364077
| 41> H -6.1671599909 0.8098281506 1.7250392856
| 42> H -1.9267394225 -1.9513078971 -0.9665793572
| 43> H -1.1461537248 -2.6733797899 0.4658436261
| 44> H -3.3842628385 -3.6920038564 0.071229817
| 45> H -3.3930314676 -2.7817583387 1.5899650254
| 46> H -4.1365712231 -2.0938346831 0.1341263131
| 47> *
| 48>
| 49>                          ****END OF INPUT****

CARTESIAN COORDINATES (ANGSTROEM)
---------------------------------
  C      3.859705   -1.943667   -2.405927
  C      4.485881   -1.701929   -1.048269
  O      3.506556   -1.389611   -0.039151
  P      2.621536   -0.069570   -0.073127
  S      3.518370    1.567618   -0.649777
  O      2.122137    0.021506    1.418506
  C      1.534981   -1.100859    2.124943
  C      0.600725   -0.552307    3.183053
  S      0.910051   -0.641427   -1.219234
  C      0.278421    1.035384   -1.454090
  S     -0.401101    1.742770    0.071785
  P     -2.178772    0.597399    0.060088
  S     -3.052079    0.423313   -1.690382
  O     -2.883360    1.419645    1.215651
  C     -4.044668    0.942063    1.930577
  C     -5.317721    1.128525    1.129115
  O     -1.838235   -0.795388    0.755588
  C     -1.990722   -2.077256    0.118165
  C     -3.315314   -2.701621    0.509164
  H      4.621459   -2.299810   -3.091995
  H      3.065009   -2.681762   -2.332153
  H      3.443158   -1.015685   -2.794785
  H      5.203396   -0.877514   -1.096969
  H      4.973804   -2.598588   -0.663518
  H      1.003725   -1.728453    1.403238
  H      2.353377   -1.672969    2.565753
  H      0.187869   -1.375761    3.756767
  H      1.143179    0.115894    3.845611
  H     -0.210101    0.004376    2.718480
  H     -0.503710    0.982738   -2.212916
  H      1.096026    1.684375   -1.768961
  H     -3.891274   -0.108700    2.189130
  H     -4.055755    1.547130    2.838895
  H     -5.440686    2.173851    0.858061
  H     -5.282992    0.539559    0.214436
  H     -6.167160    0.809828    1.725039
  H     -1.926739   -1.951308   -0.966579
  H     -1.146154   -2.673380    0.465844
  H     -3.384263   -3.692004    0.071230
  H     -3.393031   -2.781758    1.589965
  H     -4.136571   -2.093835    0.134126

 Total Charge           Charge          ....    0
 Multiplicity           Mult            ....    1
 Number of Electrons    NEL             ....  202
 Basis Dimension        Dim             ....  539

ORBITAL ENERGIES
----------------

  NO   OCC          E(Eh)            E(eV)
   0   2.0000     -88.574182     -2410.2260
   1   2.0000     -88.572194     -2410.1719
   2   2.0000     -88.523936     -2408.8588
   3   2.0000     -88.521300     -2408.7870
   4   2.0000     -76.917565     -2093.0333
   5   2.0000     -76.914355     -2092.9460
   6   2.0000     -18.997688      -516.9534
   7   2.0000     -18.997234      -516.9410
   8   2.0000     -18.996233      -516.9138
   9   2.0000     -18.989259      -516.7240
  10   2.0000     -10.107783      -275.0468
  11   2.0000     -10.102833      -274.9121
  12   2.0000     -10.102274      -274.8968
  13   2.0000     -10.101361      -274.8720
  14   2.0000     -10.100617      -274.8518
  15   2.0000     -10.037244      -273.1273
  16   2.0000     -10.032042      -272.9857
  17   2.0000     -10.030834      -272.9529
  18   2.0000     -10.028981      -272.9025
  19   2.0000      -7.868703      -214.1183
  20   2.0000      -7.866230      -214.0510
  21   2.0000      -7.818784      -212.7599
  22   2.0000      -7.816010      -212.6844
  23   2.0000      -6.595876      -179.4829
  24   2.0000      -6.592873      -179.4012
  25   2.0000      -5.815427      -158.2458
  26   2.0000      -5.813177      -158.1846
  27   2.0000      -5.812560      -158.1678
  28   2.0000      -5.810225      -158.1043
  29   2.0000      -5.805947      -157.9879
  30   2.0000      -5.803177      -157.9125
  31   2.0000      -5.766395      -156.9116
  32   2.0000      -5.763699      -156.8382
  33   2.0000      -5.759298      -156.7185
  34   2.0000      -5.758579      -156.6989
  35   2.0000      -5.756235      -156.6351
  36   2.0000      -5.756035      -156.6297
  37   2.0000      -4.741708      -129.0284
  38   2.0000      -4.740483      -128.9951
  39   2.0000      -4.739614      -128.9714
  40   2.0000      -4.738744      -128.9478
  41   2.0000      -4.737733      -128.9203
  42   2.0000      -4.736342      -128.8824
  43   2.0000      -1.054978       -28.7074
  44   2.0000      -1.052426       -28.6380
  45   2.0000      -1.015522       -27.6338
  46   2.0000      -1.010636       -27.5008
  47   2.0000      -0.801291       -21.8042
  48   2.0000      -0.763304       -20.7705
  49   2.0000      -0.752791       -20.4845
  50   2.0000      -0.738377       -20.0922
  51   2.0000      -0.734927       -19.9984
  52   2.0000      -0.712203       -19.3800
  53   2.0000      -0.687643       -18.7117
  54   2.0000      -0.668994       -18.2043
  55   2.0000      -0.632557       -17.2128
  56   2.0000      -0.624086       -16.9822
  57   2.0000      -0.616136       -16.7659
  58   2.0000      -0.604948       -16.4615
  59   2.0000      -0.589200       -16.0329
  60   2.0000      -0.534064       -14.5326
  61   2.0000      -0.526602       -14.3296
  62   2.0000      -0.501799       -13.6547
  63   2.0000      -0.495509       -13.4835
  64   2.0000      -0.480831       -13.0841
  65   2.0000      -0.467273       -12.7151
  66   2.0000      -0.460251       -12.5241
  67   2.0000      -0.457716       -12.4551
  68   2.0000      -0.450379       -12.2554
  69   2.0000      -0.436746       -11.8845
  70   2.0000      -0.429640       -11.6911
  71   2.0000      -0.415947       -11.3185
  72   2.0000      -0.408684       -11.1209
  73   2.0000      -0.400677       -10.9030
  74   2.0000      -0.395372       -10.7586
  75   2.0000      -0.389473       -10.5981
  76   2.0000      -0.382552       -10.4098
  77   2.0000      -0.378562       -10.3012
  78   2.0000      -0.372387       -10.1332
  79   2.0000      -0.371775       -10.1165
  80   2.0000      -0.368388       -10.0243
  81   2.0000      -0.361292        -9.8313
  82   2.0000      -0.358902        -9.7662
  83   2.0000      -0.355012        -9.6604
  84   2.0000      -0.352112        -9.5815
  85   2.0000      -0.337742        -9.1904
  86   2.0000      -0.323639        -8.8067
  87   2.0000      -0.318991        -8.6802
  88   2.0000      -0.314118        -8.5476
  89   2.0000      -0.311962        -8.4889
  90   2.0000      -0.311446        -8.4749
  91   2.0000      -0.298345        -8.1184
  92   2.0000      -0.288195        -7.8422
  93   2.0000      -0.281374        -7.6566
  94   2.0000      -0.272988        -7.4284
  95   2.0000      -0.246361        -6.7038
  96   2.0000      -0.232046        -6.3143
  97   2.0000      -0.227404        -6.1880
  98   2.0000      -0.219521        -5.9735
  99   2.0000      -0.216087        -5.8800
 100   2.0000      -0.211635        -5.7589
 101   0.0000      -0.047854        -1.3022
 102   0.0000      -0.024553        -0.6681
 103   0.0000      -0.003054        -0.0831
 104   0.0000      -0.001298        -0.0353
 105   0.0000       0.013313         0.3623

MULLIKEN ATOMIC CHARGES
-----------------------
   0 C :   -0.446347
   1 C :   -0.164546
   2 O :   -0.289955
   3 P :    0.646631
   4 S :   -0.439028
   5 O :   -0.262002
   6 C :   -0.094283
   7 C :   -0.456268
   8 S :   -0.174632
   9 C :   -0.236877
  10 S :   -0.099980
  11 P :    0.669134
  12 S :   -0.475585
  13 O :   -0.309406
  14 C :   -0.165844
  15 C :   -0.422492
  16 O :   -0.273300
  17 C :   -0.102648
  18 C :   -0.494332
  19 H :    0.148552
  20 H :    0.152504
  21 H :    0.181323
  22 H :    0.174104
  23 H :    0.148021
  24 H :    0.141586
  25 H :    0.154781
  26 H :    0.140872
  27 H :    0.154959
  28 H :    0.173756
  29 H :    0.213511
  30 H :    0.221212
  31 H :    0.157526
  32 H :    0.152970
  33 H :    0.159252
  34 H :    0.166960
  35 H :    0.146022
  36 H :    0.177096
  37 H :    0.150628
  38 H :    0.150244
  39 H :    0.154392
  40 H :    0.171488
Sum of atomic charges:    0.0000000

LOEWDIN ATOMIC CHARGES
----------------------
   0 C :   -0.408721
   1 C :    0.023361
   2 O :   -0.665578
   3 P :    0.379071
   4 S :   -0.099495
   5 O :   -0.653445
   6 C :    0.024716
   7 C :   -0.390005
   8 S :    0.135649
   9 C :   -0.424749
  10 S :    0.193369
  11 P :    0.383045
  12 S :   -0.132610
  13 O :   -0.663882
  14 C :    0.030388
  15 C :   -0.401155
  16 O :   -0.684792
  17 C :    0.000552
  18 C :   -0.399644
  19 H :    0.159801
  20 H :    0.159411
  21 H :    0.167167
  22 H :    0.180511
  23 H :    0.179558
  24 H :    0.173138
  25 H :    0.174088
  26 H :    0.158498
  27 H :    0.161916
  28 H :    0.170187
  29 H :    0.192278
  30 H :    0.193407
  31 H :    0.174450
  32 H :    0.182043
  33 H :    0.163732
  34 H :    0.165791
  35 H :    0.158263
  36 H :    0.183501
  37 H :    0.175064
  38 H :    0.161766
  39 H :    0.156282
  40 H :    0.163074

  Mayer bond orders larger than 0.100000
B(  0-C ,  1-C ) :   0.9185 B(  0-C , 19-H ) :   0.9559 B(  0-C , 20-H ) :   0.9679
B(  0-C , 21-H ) :   0.9627 B(  1-C ,  2-O ) :   0.8190 B(  1-C , 22-H ) :   0.9686
B(  1-C , 23-H ) :   0.9614 B(  2-O ,  3-P ) :   1.0369 B(  3-P ,  4-S ) :   1.8437
B(  3-P ,  5-O ) :   1.1614 B(  3-P ,  8-S ) :   0.9969 B(  5-O ,  6-C ) :   0.7397
B(  6-C ,  7-C ) :   0.9515 B(  6-C , 24-H ) :   0.9526 B(  6-C , 25-H ) :   0.9478
B(  7-C , 26-H ) :   0.9671 B(  7-C , 27-H ) :   0.9704 B(  7-C , 28-H ) :   0.9615
B(  8-S ,  9-C ) :   0.9032 B(  9-C , 10-S ) :   0.9081 B(  9-C , 29-H ) :   0.9034
B(  9-C , 30-H ) :   0.9025 B( 10-S , 11-P ) :   1.1022 B( 11-P , 12-S ) :   1.7756
B( 11-P , 13-O ) :   1.1423 B( 11-P , 16-O ) :   1.0213 B( 13-O , 14-C ) :   0.7909
B( 14-C , 15-C ) :   0.9467 B( 14-C , 31-H ) :   0.9682 B( 14-C , 32-H ) :   0.9590
B( 15-C , 33-H ) :   0.9686 B( 15-C , 34-H ) :   0.9535 B( 15-C , 35-H ) :   0.9663
B( 16-O , 17-C ) :   0.7408 B( 17-C , 18-C ) :   0.9220 B( 17-C , 36-H ) :   0.9478
B( 17-C , 37-H ) :   0.9612 B( 18-C , 38-H ) :   0.9618 B( 18-C , 39-H ) :   0.9799
B( 18-C , 40-H ) :   0.9694

Dispersion correction           -0.021882837
FINAL SINGLE POINT ENERGY     -2932.463086511662

DIPOLE MOMENT
-------------

Method             : SCF
Type of density    : Electron Density
Multiplicity       :   1
Irrep              :   0
Energy             : -2932.4877806567724292 Eh
Relativity type    :
Basis              : AO
                                X                 Y                 Z
Electronic contribution:     11.489261207      17.004552577      -8.044214935
Nuclear contribution   :    -12.088241183     -19.048290509       9.026733022
                        -----------------------------------------
Total Dipole Moment    :     -0.598979976      -2.043737932       0.982518087
                        -----------------------------------------
Magnitude (a.u.)       :      2.345417561
Magnitude (Debye)      :      5.961577666

Rotational constants in cm-1:             0.013872             0.004594             0.004563
Rotational constants in MHz :           415.874920           137.730665           136.797240

                             ****ORCA TERMINATED NORMALLY****
TOTAL RUN TIME: 0 days 0 hours 1 minutes 25 seconds 61 msec
