                         Program Version 6.0.0  -   RELEASE  -
|  1> ! r2scan-3c def2/J RI DEFGRID2 scfconv6 printgap
|  2> %output
|  3>     printlevel normal
|  4> end
|  5> %cpcm
|  6>     smd true
|  7>     smdsolvent "water"
|  8> end
|  9> * xyz 0 1
| 10> C 3.8597050646 -1.9436668236 -2.4059272239
| 11> C 4.4858813791 -1.7019290425 -1.0482686148
| 12> O 3.5065558172 -1.3896110789 -0.0391513509
| 13> P 2.6215359063 -0.0695696233 -0.0731274928
| 14> S 3.5183701665 1.5676184032 -0.6497768369
| 15> O 2.1221365972 0.0215059534 1.4185062175
| 16> C 1.5349808612 -1.1008591155 2.1249433547
| 17> C 0.600724827 -0.5523074348 3.1830530936
| 18> S 0.9100511077 -0.6414265406 -1.21923399
| 19> C 0.2784211805 1.0353841282 -1.4540900138
| 20> S -0.4011012416 1.7427695793 0.0717848298
| 21> P -2.1787720831 0.5973986327 0.0600881496
| 22> S -3.0520787027 0.4233132726 -1.6903816215
| 23> O -2.8833597764 1.4196454427 1.2156514766
| 24> C -4.0446684382 0.9420625496 1.9305769871
| 25> C -5.3177209772 1.1285245261 1.1291151594
| 26> O -1.8382349005 -0.7953880085 0.75558811
| 27> C -1.9907221208 -2.0772560615 0.1181648985
| 28> C -3.3153143314 -2.7016207941 0.5091639675
| 29> H 4.6214592487 -2.2998098299 -3.0919952872
| 30> H 3.0650094951 -2.6817621305 -2.3321533891
| 31> H 3.4431575517 -1.0156846524 -2.7947848264
| 32> H 5.2033961613 -0.8775143447 -1.0969688976
| 33> H 4.9738043525 -2.5985882354 -0.6635175779
| 34> H 1.0037245439 -1.7284528829 1.4032380183
| 35> H 2.3533768325 -1.6729689301 2.565752683
| 36> H 0.1878688398 -1.3757609041 3.756767378
| 37> H 1.1431787549 0.1158941222 3.8456106064
| 38> H -0.2101009551 0.0043760213 2.7184795805
| 39> H -0.5037102071 0.9827382934 -2.2129161332
| 40> H 1.0960260545 1.6843746024 -1.7689610472
| 41> H -3.8912743447 -0.1086995155 2.1891304801
| 42> H -4.0557550656 1.54713044 2.8388952477
| 43> H -5.4406858884 2.1738511963 0.8580608199
| 44> H -5.2829924374 0.5395594869 0.2144364077
| 45> H -6.1671599909 0.8098281506 1.7250392856
| 46> H -1.9267394225 -1.9513078971 -0.9665793572
| 47> H -1.1461537248 -2.6733797899 0.4658436261
| 48> H -3.3842628385 -3.6920038564 0.071229817
| 49> H -3.3930314676 -2.7817583387 1.5899650254
| 50> H -4.1365712231 -2.0938346831 0.1341263131
| 51> *
| 52>
| 53>                          ****END OF INPUT****

CARTESIAN COORDINATES (ANGSTROEM)
---------------------------------
  C      3.859705   -1.943667   -2.405927
  C      4.485881   -1.701929   -1.048269
  O      3.506556   -1.389611   -0.039151
  P      2.621536   -0.069570   -0.073127
  S      3.518370    1.567618   -0.649777
  O      2.122137    0.021506    1.418506
  C      1.534981   -1.100859    2.124943
  C      0.600725   -0.552307    3.183053
  S      0.910051   -0.641427   -1.219234
  C      0.278421    1.035384   -1.454090
  S     -0.401101    1.742770    0.071785
  P     -2.178772    0.597399    0.060088
  S     -3.052079    0.423313   -1.690382
  O     -2.883360    1.419645    1.215651
  C     -4.044668    0.942063    1.930577
  C     -5.317721    1.128525    1.129115
  O     -1.838235   -0.795388    0.755588
  C     -1.990722   -2.077256    0.118165
  C     -3.315314   -2.701621    0.509164
  H      4.621459   -2.299810   -3.091995
  H      3.065009   -2.681762   -2.332153
  H      3.443158   -1.015685   -2.794785
  H      5.203396   -0.877514   -1.096969
  H      4.973804   -2.598588   -0.663518
  H      1.003725   -1.728453    1.403238
  H      2.353377   -1.672969    2.565753
  H      0.187869   -1.375761    3.756767
  H      1.143179    0.115894    3.845611
  H     -0.210101    0.004376    2.718480
  H     -0.503710    0.982738   -2.212916
  H      1.096026    1.684375   -1.768961
  H     -3.891274   -0.108700    2.189130
  H     -4.055755    1.547130    2.838895
  H     -5.440686    2.173851    0.858061
  H     -5.282992    0.539559    0.214436
  H     -6.167160    0.809828    1.725039
  H     -1.926739   -1.951308   -0.966579
  H     -1.146154   -2.673380    0.465844
  H     -3.384263   -3.692004    0.071230
  H     -3.393031   -2.781758    1.589965
  H     -4.136571   -2.093835    0.134126

 Total Charge           Charge          ....    0
 Multiplicity           Mult            ....    1
 Number of Electrons    NEL             ....  202
 Basis Dimension        Dim             ....  539

ORBITAL ENERGIES
----------------

  NO   OCC          E(Eh)            E(eV)
   0   2.0000     -88.578381     -2410.3403
   1   2.0000     -88.577088     -2410.3051
   2   2.0000     -88.531937     -2409.0765
   3   2.0000     -88.529225     -2409.0027
   4   2.0000     -76.920705     -2093.1188
   5   2.0000     -76.920586     -2093.1155
   6   2.0000     -18.997294      -516.9426
   7   2.0000     -18.996586      -516.9234
   8   2.0000     -18.994589      -516.8690
   9   2.0000     -18.993986      -516.8526
  10   2.0000     -10.102489      -274.9027
  11   2.0000     -10.091985      -274.6169
  12   2.0000     -10.091941      -274.6157
  13   2.0000     -10.091346      -274.5995
  14   2.0000     -10.088054      -274.5099
  15   2.0000     -10.018924      -272.6288
  16   2.0000     -10.018876      -272.6275
  17   2.0000     -10.017744      -272.5967
  18   2.0000     -10.017606      -272.5929
  19   2.0000      -7.872597      -214.2243
  20   2.0000      -7.871533      -214.1953
  21   2.0000      -7.827018      -212.9840
  22   2.0000      -7.824371      -212.9120
  23   2.0000      -6.599270      -179.5753
  24   2.0000      -6.598863      -179.5642
  25   2.0000      -5.819435      -158.3549
  26   2.0000      -5.818307      -158.3242
  27   2.0000      -5.816532      -158.2759
  28   2.0000      -5.815425      -158.2458
  29   2.0000      -5.809709      -158.0902
  30   2.0000      -5.808695      -158.0626
  31   2.0000      -5.774582      -157.1344
  32   2.0000      -5.771924      -157.0620
  33   2.0000      -5.767219      -156.9340
  34   2.0000      -5.767121      -156.9313
  35   2.0000      -5.764800      -156.8682
  36   2.0000      -5.764253      -156.8533
  37   2.0000      -4.745091      -129.1205
  38   2.0000      -4.744587      -129.1068
  39   2.0000      -4.744079      -129.0929
  40   2.0000      -4.743502      -129.0772
  41   2.0000      -4.742877      -129.0603
  42   2.0000      -4.742723      -129.0561
  43   2.0000      -1.054896       -28.7052
  44   2.0000      -1.052543       -28.6412
  45   2.0000      -1.012712       -27.5573
  46   2.0000      -1.012175       -27.5427
  47   2.0000      -0.804440       -21.8899
  48   2.0000      -0.758350       -20.6357
  49   2.0000      -0.745629       -20.2896
  50   2.0000      -0.725815       -19.7504
  51   2.0000      -0.723678       -19.6923
  52   2.0000      -0.710075       -19.3221
  53   2.0000      -0.690454       -18.7882
  54   2.0000      -0.675155       -18.3719
  55   2.0000      -0.629046       -17.1172
  56   2.0000      -0.617524       -16.8037
  57   2.0000      -0.604091       -16.4381
  58   2.0000      -0.599786       -16.3210
  59   2.0000      -0.587304       -15.9813
  60   2.0000      -0.528713       -14.3870
  61   2.0000      -0.519855       -14.1460
  62   2.0000      -0.492583       -13.4039
  63   2.0000      -0.491274       -13.3682
  64   2.0000      -0.479761       -13.0549
  65   2.0000      -0.460616       -12.5340
  66   2.0000      -0.452998       -12.3267
  67   2.0000      -0.449336       -12.2270
  68   2.0000      -0.445409       -12.1202
  69   2.0000      -0.432261       -11.7624
  70   2.0000      -0.424372       -11.5478
  71   2.0000      -0.407136       -11.0787
  72   2.0000      -0.403656       -10.9840
  73   2.0000      -0.396031       -10.7766
  74   2.0000      -0.391600       -10.6560
  75   2.0000      -0.387783       -10.5521
  76   2.0000      -0.381335       -10.3767
  77   2.0000      -0.373916       -10.1748
  78   2.0000      -0.361181        -9.8282
  79   2.0000      -0.359832        -9.7915
  80   2.0000      -0.356600        -9.7036
  81   2.0000      -0.352192        -9.5836
  82   2.0000      -0.351718        -9.5707
  83   2.0000      -0.347121        -9.4456
  84   2.0000      -0.345206        -9.3935
  85   2.0000      -0.332567        -9.0496
  86   2.0000      -0.319515        -8.6944
  87   2.0000      -0.316506        -8.6126
  88   2.0000      -0.307752        -8.3743
  89   2.0000      -0.305888        -8.3236
  90   2.0000      -0.301342        -8.1999
  91   2.0000      -0.292461        -7.9583
  92   2.0000      -0.286796        -7.8041
  93   2.0000      -0.280281        -7.6268
  94   2.0000      -0.273584        -7.4446
  95   2.0000      -0.250422        -6.8143
  96   2.0000      -0.239839        -6.5263
  97   2.0000      -0.235519        -6.4088
  98   2.0000      -0.227481        -6.1901
  99   2.0000      -0.225492        -6.1360
 100   2.0000      -0.218180        -5.9370
 101   0.0000      -0.053475        -1.4551
 102   0.0000      -0.030941        -0.8420
 103   0.0000      -0.007802        -0.2123
 104   0.0000      -0.004212        -0.1146
 105   0.0000       0.013318         0.3624

MULLIKEN ATOMIC CHARGES
-----------------------
   0 C :   -0.484259
   1 C :   -0.157571
   2 O :   -0.308352
   3 P :    0.660851
   4 S :   -0.497625
   5 O :   -0.292492
   6 C :   -0.096548
   7 C :   -0.502428
   8 S :   -0.160951
   9 C :   -0.246301
  10 S :   -0.141178
  11 P :    0.700201
  12 S :   -0.518123
  13 O :   -0.343290
  14 C :   -0.146571
  15 C :   -0.476698
  16 O :   -0.286331
  17 C :   -0.100873
  18 C :   -0.517921
  19 H :    0.173239
  20 H :    0.169281
  21 H :    0.174630
  22 H :    0.179519
  23 H :    0.176074
  24 H :    0.167770
  25 H :    0.176984
  26 H :    0.172543
  27 H :    0.166744
  28 H :    0.168910
  29 H :    0.232343
  30 H :    0.235161
  31 H :    0.178350
  32 H :    0.176051
  33 H :    0.168461
  34 H :    0.165718
  35 H :    0.171092
  36 H :    0.171697
  37 H :    0.181733
  38 H :    0.170240
  39 H :    0.170034
  40 H :    0.169888
Sum of atomic charges:   -0.0000000

LOEWDIN ATOMIC CHARGES
----------------------
   0 C :   -0.411162
   1 C :    0.029417
   2 O :   -0.670488
   3 P :    0.381431
   4 S :   -0.143706
   5 O :   -0.676656
   6 C :    0.030599
   7 C :   -0.394341
   8 S :    0.149319
   9 C :   -0.421742
  10 S :    0.165227
  11 P :    0.386601
  12 S :   -0.161069
  13 O :   -0.679886
  14 C :    0.038207
  15 C :   -0.405767
  16 O :   -0.684842
  17 C :    0.007313
  18 C :   -0.400566
  19 H :    0.168849
  20 H :    0.163860
  21 H :    0.162059
  22 H :    0.181843
  23 H :    0.191739
  24 H :    0.182386
  25 H :    0.184048
  26 H :    0.170711
  27 H :    0.163982
  28 H :    0.165860
  29 H :    0.197363
  30 H :    0.196947
  31 H :    0.184338
  32 H :    0.191742
  33 H :    0.163182
  34 H :    0.162439
  35 H :    0.168421
  36 H :    0.181718
  37 H :    0.187005
  38 H :    0.168316
  39 H :    0.163180
  40 H :    0.162123

  Mayer bond orders larger than 0.100000
B(  0-C ,  1-C ) :   0.9062 B(  0-C , 19-H ) :   0.9507 B(  0-C , 20-H ) :   0.9647
B(  0-C , 21-H ) :   0.9646 B(  1-C ,  2-O ) :   0.8062 B(  1-C , 22-H ) :   0.9672
B(  1-C , 23-H ) :   0.9502 B(  2-O ,  3-P ) :   1.0501 B(  3-P ,  4-S ) :   1.8162
B(  3-P ,  5-O ) :   1.1672 B(  3-P ,  8-S ) :   1.0115 B(  5-O ,  6-C ) :   0.7265
B(  6-C ,  7-C ) :   0.9361 B(  6-C , 24-H ) :   0.9449 B(  6-C , 25-H ) :   0.9369
B(  7-C , 26-H ) :   0.9603 B(  7-C , 27-H ) :   0.9694 B(  7-C , 28-H ) :   0.9642
B(  8-S ,  9-C ) :   0.8968 B(  9-C , 10-S ) :   0.8940 B(  9-C , 29-H ) :   0.9007
B(  9-C , 30-H ) :   0.8987 B( 10-S , 11-P ) :   1.1005 B( 11-P , 12-S ) :   1.7505
B( 11-P , 13-O ) :   1.1528 B( 11-P , 16-O ) :   1.0380 B( 13-O , 14-C ) :   0.7839
B( 14-C , 15-C ) :   0.9280 B( 14-C , 31-H ) :   0.9585 B( 14-C , 32-H ) :   0.9514
B( 15-C , 33-H ) :   0.9705 B( 15-C , 34-H ) :   0.9581 B( 15-C , 35-H ) :   0.9595
B( 16-O , 17-C ) :   0.7249 B( 17-C , 18-C ) :   0.9280 B( 17-C , 36-H ) :   0.9464
B( 17-C , 37-H ) :   0.9505 B( 18-C , 38-H ) :   0.9586 B( 18-C , 39-H ) :   0.9733
B( 18-C , 40-H ) :   0.9679

Dispersion correction           -0.021882837
FINAL SINGLE POINT ENERGY     -2932.473689844931

DIPOLE MOMENT
-------------

Method             : SCF
Type of density    : Electron Density
Multiplicity       :   1
Irrep              :   0
Energy             : -2932.4983839900405655 Eh
Relativity type    :
Basis              : AO
                                X                 Y                 Z
Electronic contribution:     11.285085029      15.921601069      -7.761038867
Nuclear contribution   :    -12.088241183     -19.048290509       9.026733022
                        -----------------------------------------
Total Dipole Moment    :     -0.803156154      -3.126689440       1.265694156
                        -----------------------------------------
Magnitude (a.u.)       :      3.467452719
Magnitude (Debye)      :      8.813564386

Rotational constants in cm-1:             0.013872             0.004594             0.004563
Rotational constants in MHz :           415.874920           137.730665           136.797240

                             ****ORCA TERMINATED NORMALLY****
TOTAL RUN TIME: 0 days 0 hours 1 minutes 57 seconds 921 msec
