                         Program Version 6.0.0  -   RELEASE  -
|  1> ! pbe def2-sv(p) def2/J RI DEFGRID1 loosescf d4 GCP(DFT/SV(P)) printgap
|  2> %output
|  3>     printlevel normal
|  4> end
|  5> * xyz 0 1
|  6> C 0.6450242616 1.6941090082 -0.0963067262
|  7> C 1.4321995752 0.3820106836 -0.2723307837
|  8> H 1.6758138061 0.2224231897 -1.3297949474
|  9> C 0.5773421931 -0.8087090299 0.1810929886
| 10> H 0.4788153943 -0.7697668153 1.2778190166
| 11> C -0.8116341061 -0.7501128815 -0.4830534927
| 12> H -0.6808929493 -0.9202087501 -1.5575147297
| 13> C -1.4732878415 0.6264609584 -0.2701994647
| 14> H -2.3718351884 0.7038569655 -0.8928973325
| 15> O -0.6409447276 1.6658455179 -0.6976240196
| 16> O -1.9260869747 0.7605024572 1.0447200415
| 17> O -1.637446399 -1.7805034813 -0.0020287397
| 18> O 1.24077147 -1.9947469619 -0.1847242536
| 19> O 2.5929124674 0.411540063 0.523991796
| 20> H 1.1583161703 2.5197987929 -0.5895811191
| 21> H 0.5786928164 1.9159617382 0.9770914452
| 22> H -1.1820957308 0.886326748 1.6529081698
| 23> H -2.1105084645 -1.4583705171 0.7835098881
| 24> H 0.6351094695 -2.7383781851 -0.0414376037
| 25> H 3.2995739335 0.8880342336 0.0681181898
| 26> *
| 27>
| 28>                          ****END OF INPUT****

CARTESIAN COORDINATES (ANGSTROEM)
---------------------------------
  C      0.645024    1.694109   -0.096307
  C      1.432200    0.382011   -0.272331
  H      1.675814    0.222423   -1.329795
  C      0.577342   -0.808709    0.181093
  H      0.478815   -0.769767    1.277819
  C     -0.811634   -0.750113   -0.483053
  H     -0.680893   -0.920209   -1.557515
  C     -1.473288    0.626461   -0.270199
  H     -2.371835    0.703857   -0.892897
  O     -0.640945    1.665846   -0.697624
  O     -1.926087    0.760502    1.044720
  O     -1.637446   -1.780503   -0.002029
  O      1.240771   -1.994747   -0.184724
  O      2.592912    0.411540    0.523992
  H      1.158316    2.519799   -0.589581
  H      0.578693    1.915962    0.977091
  H     -1.182096    0.886327    1.652908
  H     -2.110508   -1.458371    0.783510
  H      0.635109   -2.738378   -0.041438
  H      3.299574    0.888034    0.068118

 Total Charge           Charge          ....    0
 Multiplicity           Mult            ....    1
 Number of Electrons    NEL             ....   80
 Basis Dimension        Dim             ....  160

ORBITAL ENERGIES
----------------

  NO   OCC          E(Eh)            E(eV)
   0   2.0000     -18.778795      -510.9970
   1   2.0000     -18.777242      -510.9547
   2   2.0000     -18.758710      -510.4504
   3   2.0000     -18.756623      -510.3937
   4   2.0000     -18.744946      -510.0759
   5   2.0000      -9.991763      -271.8897
   6   2.0000      -9.949801      -270.7478
   7   2.0000      -9.946008      -270.6447
   8   2.0000      -9.943885      -270.5869
   9   2.0000      -9.942414      -270.5468
  10   2.0000      -0.992176       -26.9985
  11   2.0000      -0.942815       -25.6553
  12   2.0000      -0.938329       -25.5332
  13   2.0000      -0.922038       -25.0899
  14   2.0000      -0.912528       -24.8312
  15   2.0000      -0.704752       -19.1773
  16   2.0000      -0.685694       -18.6587
  17   2.0000      -0.592970       -16.1355
  18   2.0000      -0.588283       -16.0080
  19   2.0000      -0.530661       -14.4400
  20   2.0000      -0.504568       -13.7300
  21   2.0000      -0.495972       -13.4961
  22   2.0000      -0.471857       -12.8399
  23   2.0000      -0.463649       -12.6165
  24   2.0000      -0.440442       -11.9850
  25   2.0000      -0.416858       -11.3433
  26   2.0000      -0.409155       -11.1337
  27   2.0000      -0.382900       -10.4192
  28   2.0000      -0.360782        -9.8174
  29   2.0000      -0.354729        -9.6527
  30   2.0000      -0.331219        -9.0129
  31   2.0000      -0.317146        -8.6300
  32   2.0000      -0.303166        -8.2496
  33   2.0000      -0.298704        -8.1282
  34   2.0000      -0.279980        -7.6187
  35   2.0000      -0.255336        -6.9481
  36   2.0000      -0.250466        -6.8155
  37   2.0000      -0.236136        -6.4256
  38   2.0000      -0.223980        -6.0948
  39   2.0000      -0.202528        -5.5111
  40   0.0000       0.002795         0.0760
  41   0.0000       0.015858         0.4315
  42   0.0000       0.033259         0.9050
  43   0.0000       0.049278         1.3409
  44   0.0000       0.073467         1.9991

MULLIKEN ATOMIC CHARGES
-----------------------
   0 C :    0.040926
   1 C :    0.017927
   2 H :    0.070273
   3 C :    0.052288
   4 H :    0.034923
   5 C :    0.034969
   6 H :    0.076604
   7 C :    0.166977
   8 H :    0.083337
   9 O :   -0.296559
  10 O :   -0.411999
  11 O :   -0.424649
  12 O :   -0.411682
  13 O :   -0.402933
  14 H :    0.095648
  15 H :    0.058117
  16 H :    0.308513
  17 H :    0.299761
  18 H :    0.303196
  19 H :    0.304364
Sum of atomic charges:   -0.0000000

LOEWDIN ATOMIC CHARGES
----------------------
   0 C :   -0.132622
   1 C :   -0.076611
   2 H :    0.110514
   3 C :   -0.074032
   4 H :    0.094233
   5 C :   -0.101078
   6 H :    0.120659
   7 C :   -0.008127
   8 H :    0.115763
   9 O :   -0.145774
  10 O :   -0.304326
  11 O :   -0.319882
  12 O :   -0.318714
  13 O :   -0.312997
  14 H :    0.119641
  15 H :    0.094296
  16 H :    0.283883
  17 H :    0.278341
  18 H :    0.285414
  19 H :    0.291420

  Mayer bond orders larger than 0.100000
B(  0-C ,  1-C ) :   1.0282 B(  0-C ,  9-O ) :   1.0014 B(  0-C , 14-H ) :   0.9281
B(  0-C , 15-H ) :   0.8900 B(  1-C ,  2-H ) :   0.8810 B(  1-C ,  3-C ) :   1.0076
B(  1-C , 13-O ) :   1.0887 B(  3-C ,  4-H ) :   0.8780 B(  3-C ,  5-C ) :   0.9683
B(  3-C , 12-O ) :   1.1019 B(  5-C ,  6-H ) :   0.8740 B(  5-C ,  7-C ) :   0.9790
B(  5-C , 11-O ) :   1.0615 B(  7-C ,  8-H ) :   0.9015 B(  7-C ,  9-O ) :   1.0713
B(  7-C , 10-O ) :   1.0596 B( 10-O , 16-H ) :   0.8329 B( 11-O , 17-H ) :   0.8250
B( 12-O , 18-H ) :   0.8354 B( 13-O , 19-H ) :   0.8492

Dispersion correction           -0.019132944
FINAL SINGLE POINT ENERGY      -571.413409365028

DIPOLE MOMENT
-------------

Method             : SCF
Type of density    : Electron Density
Multiplicity       :   1
Irrep              :   0
Energy             :  -571.5219116728901554 Eh
Relativity type    :
Basis              : AO
                                X                 Y                 Z
Electronic contribution:     -1.054082125      -0.689824733      -0.164917223
Nuclear contribution   :      1.383926739       1.158523447       0.336828588
                        -----------------------------------------
Total Dipole Moment    :      0.329844614       0.468698714       0.171911365
                        -----------------------------------------
Magnitude (a.u.)       :      0.598355640
Magnitude (Debye)      :      1.520899169

Rotational constants in cm-1:             0.056900             0.043965             0.028741
Rotational constants in MHz :          1705.806841          1318.042300           861.624322

                             ****ORCA TERMINATED NORMALLY****
TOTAL RUN TIME: 0 days 0 hours 0 minutes 11 seconds 687 msec
