                         Program Version 6.0.0  -   RELEASE  -
|  1> ! pbe def2-sv(p) def2/J RI DEFGRID1 loosescf d4 GCP(DFT/SV(P)) printgap
|  2> %output
|  3>     printlevel normal
|  4> end
|  5> * xyz 0 1
|  6> C 2.3287238643 -1.2687505634 3.1970111374
|  7> C 1.7171082493 0.0515867746 2.7773740349
|  8> O 1.2588539016 0.0388805597 1.4086213215
|  9> P 2.1697943475 -0.2032305183 0.1359509873
| 10> S 2.7782065715 -2.0282384461 -0.2654676597
| 11> O 3.3394534981 0.8447295525 0.3805644682
| 12> C 4.572441458 0.8006101634 -0.3592601482
| 13> C 4.3809074273 1.2224787669 -1.8012695611
| 14> S 0.9195923704 0.6696841798 -1.332777267
| 15> C 0.008251223 -0.8386248694 -1.7562129462
| 16> S -0.9286132217 -1.5137060811 -0.3614433351
| 17> P -2.2068712999 0.1606786488 -0.1048316245
| 18> S -2.7763718481 1.0703594336 -1.749410644
| 19> O -1.4292775149 1.0784969763 0.9251754281
| 20> C -1.3420217646 2.5085173918 0.7990699224
| 21> C -2.5704416591 3.1696016673 1.38888831
| 22> O -3.3326711197 -0.3954161905 0.8645287784
| 23> C -4.0804571516 -1.6102565967 0.6727280427
| 24> C -4.7414443832 -1.6873099794 -0.6881576593
| 25> H 1.6323183115 -2.083418525 3.0107456377
| 26> H 3.2402535787 -1.4594530997 2.6321740378
| 27> H 2.56788467 -1.2346689611 4.2553354158
| 28> H 2.4324039734 0.8695522226 2.8911983563
| 29> H 0.8082178404 0.2680412819 3.3423267093
| 30> H 5.2271767208 1.486834625 0.1794229259
| 31> H 4.97107051 -0.2176468048 -0.306227747
| 32> H 5.348263681 1.2862297679 -2.2889211562
| 33> H 3.7689974329 0.4893603112 -2.3250547658
| 34> H 3.8856205857 2.1888660523 -1.8507449316
| 35> H 0.7062934237 -1.6167540248 -2.0637000356
| 36> H -0.6734318173 -0.5683826193 -2.5623295743
| 37> H -0.4322598747 2.7755130463 1.3391313653
| 38> H -1.2297443046 2.7687583532 -0.2591150119
| 39> H -2.4640488349 4.2481123576 1.3315974366
| 40> H -3.4517509149 2.8670624857 0.8248153558
| 41> H -2.6980586439 2.8694693027 2.4252232479
| 42> H -3.4024181128 -2.4555220806 0.8220996749
| 43> H -4.8204088767 -1.583673289 1.4748327869
| 44> H -5.3642309661 -2.5747927894 -0.7361082919
| 45> H -5.3548809584 -0.8064463382 -0.8623723527
| 46> H -3.9857379472 -1.7419039685 -1.4706291449
| 47> *
| 48>
| 49>                          ****END OF INPUT****

CARTESIAN COORDINATES (ANGSTROEM)
---------------------------------
  C      2.328724   -1.268751    3.197011
  C      1.717108    0.051587    2.777374
  O      1.258854    0.038881    1.408621
  P      2.169794   -0.203231    0.135951
  S      2.778207   -2.028238   -0.265468
  O      3.339453    0.844730    0.380564
  C      4.572441    0.800610   -0.359260
  C      4.380907    1.222479   -1.801270
  S      0.919592    0.669684   -1.332777
  C      0.008251   -0.838625   -1.756213
  S     -0.928613   -1.513706   -0.361443
  P     -2.206871    0.160679   -0.104832
  S     -2.776372    1.070359   -1.749411
  O     -1.429278    1.078497    0.925175
  C     -1.342022    2.508517    0.799070
  C     -2.570442    3.169602    1.388888
  O     -3.332671   -0.395416    0.864529
  C     -4.080457   -1.610257    0.672728
  C     -4.741444   -1.687310   -0.688158
  H      1.632318   -2.083419    3.010746
  H      3.240254   -1.459453    2.632174
  H      2.567885   -1.234669    4.255335
  H      2.432404    0.869552    2.891198
  H      0.808218    0.268041    3.342327
  H      5.227177    1.486835    0.179423
  H      4.971071   -0.217647   -0.306228
  H      5.348264    1.286230   -2.288921
  H      3.768997    0.489360   -2.325055
  H      3.885621    2.188866   -1.850745
  H      0.706293   -1.616754   -2.063700
  H     -0.673432   -0.568383   -2.562330
  H     -0.432260    2.775513    1.339131
  H     -1.229744    2.768758   -0.259115
  H     -2.464049    4.248112    1.331597
  H     -3.451751    2.867062    0.824815
  H     -2.698059    2.869469    2.425223
  H     -3.402418   -2.455522    0.822100
  H     -4.820409   -1.583673    1.474833
  H     -5.364231   -2.574793   -0.736108
  H     -5.354881   -0.806446   -0.862372
  H     -3.985738   -1.741904   -1.470629

 Total Charge           Charge          ....    0
 Multiplicity           Mult            ....    1
 Number of Electrons    NEL             ....  202
 Basis Dimension        Dim             ....  334

ORBITAL ENERGIES
----------------

  NO   OCC          E(Eh)            E(eV)
   0   2.0000     -88.041458     -2395.7299
   1   2.0000     -88.039718     -2395.6825
   2   2.0000     -87.987653     -2394.2658
   3   2.0000     -87.984601     -2394.1827
   4   2.0000     -76.427650     -2079.7021
   5   2.0000     -76.424214     -2079.6086
   6   2.0000     -18.799254      -511.5537
   7   2.0000     -18.791328      -511.3380
   8   2.0000     -18.786354      -511.2027
   9   2.0000     -18.782243      -511.0908
  10   2.0000      -9.956494      -270.9300
  11   2.0000      -9.954918      -270.8871
  12   2.0000      -9.953965      -270.8612
  13   2.0000      -9.952767      -270.8285
  14   2.0000      -9.943084      -270.5651
  15   2.0000      -9.885618      -269.0013
  16   2.0000      -9.881991      -268.9026
  17   2.0000      -9.881783      -268.8970
  18   2.0000      -9.877793      -268.7884
  19   2.0000      -7.686298      -209.1548
  20   2.0000      -7.684686      -209.1109
  21   2.0000      -7.632648      -207.6949
  22   2.0000      -7.629567      -207.6111
  23   2.0000      -6.424908      -174.8306
  24   2.0000      -6.421296      -174.7324
  25   2.0000      -5.714192      -155.4911
  26   2.0000      -5.712461      -155.4440
  27   2.0000      -5.710967      -155.4033
  28   2.0000      -5.709270      -155.3571
  29   2.0000      -5.703092      -155.1890
  30   2.0000      -5.701686      -155.1508
  31   2.0000      -5.661444      -154.0557
  32   2.0000      -5.658366      -153.9720
  33   2.0000      -5.653360      -153.8357
  34   2.0000      -5.652868      -153.8224
  35   2.0000      -5.650217      -153.7502
  36   2.0000      -5.649830      -153.7397
  37   2.0000      -4.647874      -126.4751
  38   2.0000      -4.646398      -126.4349
  39   2.0000      -4.645321      -126.4056
  40   2.0000      -4.643672      -126.3607
  41   2.0000      -4.643250      -126.3493
  42   2.0000      -4.641827      -126.3105
  43   2.0000      -0.989205       -26.9176
  44   2.0000      -0.983227       -26.7550
  45   2.0000      -0.944929       -25.7128
  46   2.0000      -0.940564       -25.5940
  47   2.0000      -0.764530       -20.8039
  48   2.0000      -0.719724       -19.5847
  49   2.0000      -0.707269       -19.2458
  50   2.0000      -0.689148       -18.7527
  51   2.0000      -0.682860       -18.5816
  52   2.0000      -0.672691       -18.3049
  53   2.0000      -0.651626       -17.7316
  54   2.0000      -0.638217       -17.3668
  55   2.0000      -0.598820       -16.2947
  56   2.0000      -0.592849       -16.1322
  57   2.0000      -0.578616       -15.7449
  58   2.0000      -0.568667       -15.4742
  59   2.0000      -0.559796       -15.2328
  60   2.0000      -0.498989       -13.5782
  61   2.0000      -0.491962       -13.3870
  62   2.0000      -0.471256       -12.8235
  63   2.0000      -0.467011       -12.7080
  64   2.0000      -0.458526       -12.4771
  65   2.0000      -0.444732       -12.1018
  66   2.0000      -0.434157       -11.8140
  67   2.0000      -0.433324       -11.7914
  68   2.0000      -0.425514       -11.5788
  69   2.0000      -0.415397       -11.3035
  70   2.0000      -0.411575       -11.1995
  71   2.0000      -0.409382       -11.1398
  72   2.0000      -0.386200       -10.5090
  73   2.0000      -0.383127       -10.4254
  74   2.0000      -0.376905       -10.2561
  75   2.0000      -0.376270       -10.2388
  76   2.0000      -0.370340       -10.0775
  77   2.0000      -0.358190        -9.7468
  78   2.0000      -0.350545        -9.5388
  79   2.0000      -0.345534        -9.4025
  80   2.0000      -0.345164        -9.3924
  81   2.0000      -0.342234        -9.3127
  82   2.0000      -0.341271        -9.2864
  83   2.0000      -0.338476        -9.2104
  84   2.0000      -0.333686        -9.0801
  85   2.0000      -0.321266        -8.7421
  86   2.0000      -0.308676        -8.3995
  87   2.0000      -0.297767        -8.1026
  88   2.0000      -0.294563        -8.0155
  89   2.0000      -0.289100        -7.8668
  90   2.0000      -0.279113        -7.5951
  91   2.0000      -0.276770        -7.5313
  92   2.0000      -0.271364        -7.3842
  93   2.0000      -0.262683        -7.1480
  94   2.0000      -0.255468        -6.9516
  95   2.0000      -0.232314        -6.3216
  96   2.0000      -0.215589        -5.8665
  97   2.0000      -0.212402        -5.7798
  98   2.0000      -0.203698        -5.5429
  99   2.0000      -0.197767        -5.3815
 100   2.0000      -0.196042        -5.3346
 101   0.0000      -0.045598        -1.2408
 102   0.0000      -0.023688        -0.6446
 103   0.0000      -0.001818        -0.0495
 104   0.0000       0.000608         0.0165
 105   0.0000       0.012816         0.3487

MULLIKEN ATOMIC CHARGES
-----------------------
   0 C :   -0.313994
   1 C :   -0.000295
   2 O :   -0.355835
   3 P :    0.629466
   4 S :   -0.335480
   5 O :   -0.380909
   6 C :   -0.006273
   7 C :   -0.314075
   8 S :   -0.078282
   9 C :   -0.357078
  10 S :   -0.089165
  11 P :    0.613043
  12 S :   -0.338711
  13 O :   -0.349849
  14 C :   -0.008027
  15 C :   -0.290231
  16 O :   -0.368562
  17 C :   -0.012154
  18 C :   -0.308487
  19 H :    0.126476
  20 H :    0.125675
  21 H :    0.108272
  22 H :    0.104863
  23 H :    0.108571
  24 H :    0.104025
  25 H :    0.112377
  26 H :    0.114127
  27 H :    0.127758
  28 H :    0.117801
  29 H :    0.191037
  30 H :    0.191922
  31 H :    0.096944
  32 H :    0.113593
  33 H :    0.107276
  34 H :    0.119113
  35 H :    0.110231
  36 H :    0.115209
  37 H :    0.108743
  38 H :    0.110696
  39 H :    0.125377
  40 H :    0.124806
Sum of atomic charges:    0.0000000

LOEWDIN ATOMIC CHARGES
----------------------
   0 C :   -0.367286
   1 C :   -0.109047
   2 O :   -0.235318
   3 P :    0.573538
   4 S :   -0.320812
   5 O :   -0.246398
   6 C :   -0.120777
   7 C :   -0.368361
   8 S :    0.098013
   9 C :   -0.480941
  10 S :    0.083869
  11 P :    0.573248
  12 S :   -0.321271
  13 O :   -0.230084
  14 C :   -0.122896
  15 C :   -0.361027
  16 O :   -0.242940
  17 C :   -0.114403
  18 C :   -0.369291
  19 H :    0.130954
  20 H :    0.120754
  21 H :    0.128215
  22 H :    0.110897
  23 H :    0.120949
  24 H :    0.117790
  25 H :    0.110321
  26 H :    0.131773
  27 H :    0.121795
  28 H :    0.125099
  29 H :    0.129526
  30 H :    0.130293
  31 H :    0.113388
  32 H :    0.105107
  33 H :    0.128053
  34 H :    0.123294
  35 H :    0.123341
  36 H :    0.109554
  37 H :    0.121229
  38 H :    0.129594
  39 H :    0.129379
  40 H :    0.120879

  Mayer bond orders larger than 0.100000
B(  0-C ,  1-C ) :   1.1661 B(  0-C , 19-H ) :   0.9452 B(  0-C , 20-H ) :   0.9367
B(  0-C , 21-H ) :   0.9361 B(  1-C ,  2-O ) :   0.9102 B(  1-C , 22-H ) :   0.9306
B(  1-C , 23-H ) :   0.9330 B(  2-O ,  3-P ) :   1.1295 B(  3-P ,  4-S ) :   1.6010
B(  3-P ,  5-O ) :   1.0917 B(  3-P ,  8-S ) :   0.9458 B(  4-S ,  8-S ) :   0.1142
B(  5-O ,  6-C ) :   0.9059 B(  6-C ,  7-C ) :   1.1664 B(  6-C , 24-H ) :   0.9330
B(  6-C , 25-H ) :   0.9130 B(  7-C , 26-H ) :   0.9381 B(  7-C , 27-H ) :   0.9347
B(  7-C , 28-H ) :   0.9456 B(  8-S ,  9-C ) :   1.0041 B(  9-C , 10-S ) :   1.0126
B(  9-C , 29-H ) :   0.8824 B(  9-C , 30-H ) :   0.8817 B( 10-S , 11-P ) :   0.9431
B( 10-S , 12-S ) :   0.1085 B( 11-P , 12-S ) :   1.5846 B( 11-P , 13-O ) :   1.1340
B( 11-P , 16-O ) :   1.1246 B( 13-O , 14-C ) :   0.9036 B( 14-C , 15-C ) :   1.1620
B( 14-C , 31-H ) :   0.9325 B( 14-C , 32-H ) :   0.9065 B( 15-C , 33-H ) :   0.9414
B( 15-C , 34-H ) :   0.9397 B( 15-C , 35-H ) :   0.9478 B( 16-O , 17-C ) :   0.9157
B( 17-C , 18-C ) :   1.1636 B( 17-C , 36-H ) :   0.9269 B( 17-C , 37-H ) :   0.9343
B( 18-C , 38-H ) :   0.9353 B( 18-C , 39-H ) :   0.9430 B( 18-C , 40-H ) :   0.9334

Dispersion correction           -0.066959109
FINAL SINGLE POINT ENERGY     -2929.520419871571

DIPOLE MOMENT
-------------

Method             : SCF
Type of density    : Electron Density
Multiplicity       :   1
Irrep              :   0
Energy             : -2929.6380317497087162 Eh
Relativity type    :
Basis              : AO
                                X                 Y                 Z
Electronic contribution:     -0.313432403      -5.155947346      -8.351116808
Nuclear contribution   :      0.698449854       5.531454322       9.330121762
                        -----------------------------------------
Total Dipole Moment    :      0.385017451       0.375506976       0.979004954
                        -----------------------------------------
Magnitude (a.u.)       :      1.117002518
Magnitude (Debye)      :      2.839194767

Rotational constants in cm-1:             0.012541             0.005049             0.004971
Rotational constants in MHz :           375.970259           151.365790           149.023851

                             ****ORCA TERMINATED NORMALLY****
TOTAL RUN TIME: 0 days 0 hours 0 minutes 21 seconds 440 msec
