                         Program Version 6.0.1  -  RELEASE   -
|  1> ! r2scan-3c def2/J RI DEFGRID2 scfconv6 printgap
|  2> %output
|  3>     printlevel normal
|  4> end
|  5> * xyz 0 1
|  6> C 5.0170583723 -0.6391621994 0.5206009327
|  7> C 4.5455308967 -1.7292060294 -0.428161686
|  8> O 3.1082643336 -1.8312518515 -0.4129987668
|  9> C 2.4164564975 -1.0597307816 -1.22376257
| 10> O 2.8979122269 -0.2862425523 -2.0229293115
| 11> C 0.9244206693 -1.2879973334 -1.0625351021
| 12> C 0.188067447 0.0229744337 -1.2972776269
| 13> H 0.5445529799 0.4674293161 -2.2348455482
| 14> C 0.4143212176 1.0517678772 -0.2062427374
| 15> O -0.4050347961 1.9111900527 0.0537860043
| 16> O 1.5815346368 0.9197504338 0.3664666089
| 17> C 1.9356617391 1.8524362596 1.4083289016
| 18> C 2.4955169074 3.1392678425 0.8264636923
| 19> S -1.6043137406 -0.1841275549 -1.5227559865
| 20> P -2.2663966729 -0.0923080651 0.4953570016
| 21> S -1.018726691 -0.6556654662 1.8942128716
| 22> O -2.9471981677 1.2966375597 0.8033088969
| 23> C -3.8333431278 1.9565386843 -0.1216159984
| 24> O -3.5772920218 -1.0112423921 0.4057612946
| 25> C -3.4850400944 -2.4264779947 0.2090807579
| 26> H 4.6485383587 -0.834488844 1.5239402329
| 27> H 6.101669362 -0.6159445695 0.5336981747
| 28> H 4.6443543178 0.3266408413 0.1877746552
| 29> H 4.8932831226 -2.7122888984 -0.1107832465
| 30> H 4.8695903438 -1.5195997504 -1.4515770571
| 31> H 0.7286374202 -1.6903181286 -0.067794605
| 32> H 0.6082433029 -2.0154785617 -1.8128910629
| 33> H 1.0435797875 2.0463372524 2.0112679958
| 34> H 2.6795004994 1.3189207645 2.000018873
| 35> H 2.8395573845 3.7754906076 1.6349363217
| 36> H 3.3272994962 2.9191352545 0.1621396568
| 37> H 1.7253684406 3.663969627 0.2656852591
| 38> H -4.6102967667 1.2701182071 -0.4533385062
| 39> H -3.2593130182 2.3246974765 -0.9716021531
| 40> H -4.2586163157 2.7849155079 0.4387555232
| 41> H -3.1897776667 -2.638638847 -0.8180724463
| 42> H -4.4799886534 -2.8145537866 0.4112375434
| 43> H -2.7610271993 -2.8542224384 0.9042506317
| 44> *
| 45>
| 46>                          ****END OF INPUT****

CARTESIAN COORDINATES (ANGSTROEM)
---------------------------------
  C      5.017058   -0.639162    0.520601
  C      4.545531   -1.729206   -0.428162
  O      3.108264   -1.831252   -0.412999
  C      2.416456   -1.059731   -1.223763
  O      2.897912   -0.286243   -2.022929
  C      0.924421   -1.287997   -1.062535
  C      0.188067    0.022974   -1.297278
  H      0.544553    0.467429   -2.234846
  C      0.414321    1.051768   -0.206243
  O     -0.405035    1.911190    0.053786
  O      1.581535    0.919750    0.366467
  C      1.935662    1.852436    1.408329
  C      2.495517    3.139268    0.826464
  S     -1.604314   -0.184128   -1.522756
  P     -2.266397   -0.092308    0.495357
  S     -1.018727   -0.655665    1.894213
  O     -2.947198    1.296638    0.803309
  C     -3.833343    1.956539   -0.121616
  O     -3.577292   -1.011242    0.405761
  C     -3.485040   -2.426478    0.209081
  H      4.648538   -0.834489    1.523940
  H      6.101669   -0.615945    0.533698
  H      4.644354    0.326641    0.187775
  H      4.893283   -2.712289   -0.110783
  H      4.869590   -1.519600   -1.451577
  H      0.728637   -1.690318   -0.067795
  H      0.608243   -2.015479   -1.812891
  H      1.043580    2.046337    2.011268
  H      2.679500    1.318921    2.000019
  H      2.839557    3.775491    1.634936
  H      3.327299    2.919135    0.162140
  H      1.725368    3.663970    0.265685
  H     -4.610297    1.270118   -0.453339
  H     -3.259313    2.324697   -0.971602
  H     -4.258616    2.784916    0.438756
  H     -3.189778   -2.638639   -0.818072
  H     -4.479989   -2.814554    0.411238
  H     -2.761027   -2.854222    0.904251

 Total Charge           Charge          ....    0
 Multiplicity           Mult            ....    1
 Number of Electrons    NEL             ....  174
 Basis Dimension        Dim             ....  510

ORBITAL ENERGIES
----------------

  NO   OCC          E(Eh)            E(eV)
   0   2.0000     -88.575208     -2410.2539
   1   2.0000     -88.514963     -2408.6146
   2   2.0000     -76.911769     -2092.8756
   3   2.0000     -19.008045      -517.2352
   4   2.0000     -19.002300      -517.0789
   5   2.0000     -18.987097      -516.6652
   6   2.0000     -18.985868      -516.6317
   7   2.0000     -18.933835      -515.2158
   8   2.0000     -18.932585      -515.1818
   9   2.0000     -10.166022      -276.6315
  10   2.0000     -10.159398      -276.4513
  11   2.0000     -10.096235      -274.7325
  12   2.0000     -10.095667      -274.7171
  13   2.0000     -10.094185      -274.6767
  14   2.0000     -10.090243      -274.5695
  15   2.0000     -10.088897      -274.5329
  16   2.0000     -10.052580      -273.5446
  17   2.0000     -10.033364      -273.0217
  18   2.0000     -10.029232      -272.9093
  19   2.0000      -7.869483      -214.1395
  20   2.0000      -7.810020      -212.5215
  21   2.0000      -6.589782      -179.3171
  22   2.0000      -5.816509      -158.2753
  23   2.0000      -5.813273      -158.1872
  24   2.0000      -5.806525      -158.0036
  25   2.0000      -5.757872      -156.6797
  26   2.0000      -5.750254      -156.4724
  27   2.0000      -5.749810      -156.4603
  28   2.0000      -4.735431      -128.8576
  29   2.0000      -4.734937      -128.8442
  30   2.0000      -4.733298      -128.7996
  31   2.0000      -1.086711       -29.5709
  32   2.0000      -1.078349       -29.3434
  33   2.0000      -1.045071       -28.4378
  34   2.0000      -1.003063       -27.2947
  35   2.0000      -0.987088       -26.8600
  36   2.0000      -0.982859       -26.7450
  37   2.0000      -0.809730       -22.0339
  38   2.0000      -0.753948       -20.5160
  39   2.0000      -0.746685       -20.3183
  40   2.0000      -0.728461       -19.8224
  41   2.0000      -0.697239       -18.9728
  42   2.0000      -0.671452       -18.2711
  43   2.0000      -0.659928       -17.9575
  44   2.0000      -0.651255       -17.7216
  45   2.0000      -0.629658       -17.1339
  46   2.0000      -0.599048       -16.3009
  47   2.0000      -0.538913       -14.6646
  48   2.0000      -0.529747       -14.4151
  49   2.0000      -0.524230       -14.2650
  50   2.0000      -0.499922       -13.6036
  51   2.0000      -0.488862       -13.3026
  52   2.0000      -0.485058       -13.1991
  53   2.0000      -0.464770       -12.6470
  54   2.0000      -0.451928       -12.2976
  55   2.0000      -0.449047       -12.2192
  56   2.0000      -0.443291       -12.0625
  57   2.0000      -0.442235       -12.0338
  58   2.0000      -0.440208       -11.9787
  59   2.0000      -0.428722       -11.6661
  60   2.0000      -0.419744       -11.4218
  61   2.0000      -0.415544       -11.3075
  62   2.0000      -0.412702       -11.2302
  63   2.0000      -0.404181       -10.9983
  64   2.0000      -0.397293       -10.8109
  65   2.0000      -0.380904       -10.3649
  66   2.0000      -0.375173       -10.2090
  67   2.0000      -0.366757        -9.9800
  68   2.0000      -0.362295        -9.8586
  69   2.0000      -0.355115        -9.6632
  70   2.0000      -0.349246        -9.5035
  71   2.0000      -0.346076        -9.4172
  72   2.0000      -0.334174        -9.0933
  73   2.0000      -0.328707        -8.9446
  74   2.0000      -0.317376        -8.6362
  75   2.0000      -0.313470        -8.5300
  76   2.0000      -0.309797        -8.4300
  77   2.0000      -0.307187        -8.3590
  78   2.0000      -0.287801        -7.8315
  79   2.0000      -0.278908        -7.5895
  80   2.0000      -0.273963        -7.4549
  81   2.0000      -0.271934        -7.3997
  82   2.0000      -0.252267        -6.8645
  83   2.0000      -0.246768        -6.7149
  84   2.0000      -0.231683        -6.3044
  85   2.0000      -0.213093        -5.7986
  86   2.0000      -0.211554        -5.7567
  87   0.0000      -0.045011        -1.2248
  88   0.0000      -0.027815        -0.7569
  89   0.0000      -0.011654        -0.3171
  90   0.0000       0.008036         0.2187
  91   0.0000       0.020445         0.5563

MULLIKEN ATOMIC CHARGES
-----------------------
   0 C :   -0.484524
   1 C :   -0.126591
   2 O :   -0.156152
   3 C :    0.319376
   4 O :   -0.414089
   5 C :   -0.427088
   6 C :    0.072756
   7 H :    0.224907
   8 C :    0.179027
   9 O :   -0.382393
  10 O :   -0.073410
  11 C :   -0.146504
  12 C :   -0.475080
  13 S :   -0.180535
  14 P :    0.756196
  15 S :   -0.446604
  16 O :   -0.290852
  17 C :   -0.298310
  18 O :   -0.351969
  19 C :   -0.298556
  20 H :    0.156192
  21 H :    0.149671
  22 H :    0.170568
  23 H :    0.150502
  24 H :    0.169134
  25 H :    0.219346
  26 H :    0.186976
  27 H :    0.184081
  28 H :    0.155473
  29 H :    0.151388
  30 H :    0.155076
  31 H :    0.176516
  32 H :    0.162120
  33 H :    0.176370
  34 H :    0.155000
  35 H :    0.156020
  36 H :    0.151987
  37 H :    0.173978
Sum of atomic charges:    0.0000000

LOEWDIN ATOMIC CHARGES
----------------------
   0 C :   -0.389610
   1 C :    0.031148
   2 O :   -0.575055
   3 C :    0.356719
   4 O :   -0.440308
   5 C :   -0.213015
   6 C :   -0.197851
   7 H :    0.218257
   8 C :    0.341158
   9 O :   -0.454708
  10 O :   -0.574584
  11 C :    0.032510
  12 C :   -0.388554
  13 S :    0.202338
  14 P :    0.406390
  15 S :   -0.069667
  16 O :   -0.638880
  17 C :   -0.050218
  18 O :   -0.686155
  19 C :   -0.063089
  20 H :    0.158666
  21 H :    0.159508
  22 H :    0.164728
  23 H :    0.179014
  24 H :    0.188632
  25 H :    0.202700
  26 H :    0.187430
  27 H :    0.195998
  28 H :    0.180856
  29 H :    0.160226
  30 H :    0.158915
  31 H :    0.167242
  32 H :    0.170647
  33 H :    0.176912
  34 H :    0.181048
  35 H :    0.167734
  36 H :    0.176938
  37 H :    0.175981

  Mayer bond orders larger than 0.100000
B(  0-C ,  1-C ) :   0.9344 B(  0-C , 20-H ) :   0.9711 B(  0-C , 21-H ) :   0.9653
B(  0-C , 22-H ) :   0.9707 B(  1-C ,  2-O ) :   0.8063 B(  1-C , 23-H ) :   0.9613
B(  1-C , 24-H ) :   0.9701 B(  2-O ,  3-C ) :   1.1010 B(  3-C ,  4-O ) :   1.8584
B(  3-C ,  5-C ) :   0.8858 B(  3-C , 10-O ) :   0.1089 B(  4-O ,  6-C ) :   0.1148
B(  5-C ,  6-C ) :   0.8873 B(  5-C , 25-H ) :   0.9676 B(  5-C , 26-H ) :   0.9433
B(  6-C ,  7-H ) :   0.8842 B(  6-C ,  8-C ) :   0.9611 B(  6-C , 13-S ) :   0.8248
B(  8-C ,  9-O ) :   1.7919 B(  8-C , 10-O ) :   1.1443 B( 10-O , 11-C ) :   0.7627
B( 11-C , 12-C ) :   0.9152 B( 11-C , 27-H ) :   0.9614 B( 11-C , 28-H ) :   0.9643
B( 12-C , 29-H ) :   0.9669 B( 12-C , 30-H ) :   0.9728 B( 12-C , 31-H ) :   0.9723
B( 13-S , 14-P ) :   1.0097 B( 14-P , 15-S ) :   1.7596 B( 14-P , 16-O ) :   1.2033
B( 14-P , 18-O ) :   1.0155 B( 16-O , 17-C ) :   0.7962 B( 17-C , 32-H ) :   0.9641
B( 17-C , 33-H ) :   0.9563 B( 17-C , 34-H ) :   0.9648 B( 18-O , 19-C ) :   0.8342
B( 19-C , 35-H ) :   0.9565 B( 19-C , 36-H ) :   0.9685 B( 19-C , 37-H ) :   0.9591

Dispersion correction           -0.017810359
FINAL SINGLE POINT ENERGY     -1981.452778283189

DIPOLE MOMENT
-------------

Method             : SCF
Type of density    : Electron Density
Multiplicity       :   1
Irrep              :   0
Energy             : -1981.4724062453392435 Eh
Relativity type    :
Basis              : AO
                                X                 Y                 Z
Electronic contribution:    -16.847279604      -3.447394808      -1.856628024
Nuclear contribution   :     17.210734532       3.125719883       1.554391724
                        -----------------------------------------
Total Dipole Moment    :      0.363454928      -0.321674925      -0.302236300
                        -----------------------------------------
Magnitude (a.u.)       :      0.571770079
Magnitude (Debye)      :      1.453324043

Rotational constants in cm-1:             0.016396             0.006380             0.005673
Rotational constants in MHz :           491.544413           191.273059           170.073608

                             ****ORCA TERMINATED NORMALLY****
TOTAL RUN TIME: 0 days 0 hours 1 minutes 21 seconds 610 msec
