                         Program Version 6.0.1  -  RELEASE   -
|  1> ! r2scan-3c def2/J RI DEFGRID2 scfconv6 printgap
|  2> %output
|  3>     printlevel normal
|  4> end
|  5> %cpcm
|  6>     smd true
|  7>     smdsolvent "water"
|  8> end
|  9> * xyz 0 1
| 10> C 5.0170583723 -0.6391621994 0.5206009327
| 11> C 4.5455308967 -1.7292060294 -0.428161686
| 12> O 3.1082643336 -1.8312518515 -0.4129987668
| 13> C 2.4164564975 -1.0597307816 -1.22376257
| 14> O 2.8979122269 -0.2862425523 -2.0229293115
| 15> C 0.9244206693 -1.2879973334 -1.0625351021
| 16> C 0.188067447 0.0229744337 -1.2972776269
| 17> H 0.5445529799 0.4674293161 -2.2348455482
| 18> C 0.4143212176 1.0517678772 -0.2062427374
| 19> O -0.4050347961 1.9111900527 0.0537860043
| 20> O 1.5815346368 0.9197504338 0.3664666089
| 21> C 1.9356617391 1.8524362596 1.4083289016
| 22> C 2.4955169074 3.1392678425 0.8264636923
| 23> S -1.6043137406 -0.1841275549 -1.5227559865
| 24> P -2.2663966729 -0.0923080651 0.4953570016
| 25> S -1.018726691 -0.6556654662 1.8942128716
| 26> O -2.9471981677 1.2966375597 0.8033088969
| 27> C -3.8333431278 1.9565386843 -0.1216159984
| 28> O -3.5772920218 -1.0112423921 0.4057612946
| 29> C -3.4850400944 -2.4264779947 0.2090807579
| 30> H 4.6485383587 -0.834488844 1.5239402329
| 31> H 6.101669362 -0.6159445695 0.5336981747
| 32> H 4.6443543178 0.3266408413 0.1877746552
| 33> H 4.8932831226 -2.7122888984 -0.1107832465
| 34> H 4.8695903438 -1.5195997504 -1.4515770571
| 35> H 0.7286374202 -1.6903181286 -0.067794605
| 36> H 0.6082433029 -2.0154785617 -1.8128910629
| 37> H 1.0435797875 2.0463372524 2.0112679958
| 38> H 2.6795004994 1.3189207645 2.000018873
| 39> H 2.8395573845 3.7754906076 1.6349363217
| 40> H 3.3272994962 2.9191352545 0.1621396568
| 41> H 1.7253684406 3.663969627 0.2656852591
| 42> H -4.6102967667 1.2701182071 -0.4533385062
| 43> H -3.2593130182 2.3246974765 -0.9716021531
| 44> H -4.2586163157 2.7849155079 0.4387555232
| 45> H -3.1897776667 -2.638638847 -0.8180724463
| 46> H -4.4799886534 -2.8145537866 0.4112375434
| 47> H -2.7610271993 -2.8542224384 0.9042506317
| 48> *
| 49>
| 50>                          ****END OF INPUT****

CARTESIAN COORDINATES (ANGSTROEM)
---------------------------------
  C      5.017058   -0.639162    0.520601
  C      4.545531   -1.729206   -0.428162
  O      3.108264   -1.831252   -0.412999
  C      2.416456   -1.059731   -1.223763
  O      2.897912   -0.286243   -2.022929
  C      0.924421   -1.287997   -1.062535
  C      0.188067    0.022974   -1.297278
  H      0.544553    0.467429   -2.234846
  C      0.414321    1.051768   -0.206243
  O     -0.405035    1.911190    0.053786
  O      1.581535    0.919750    0.366467
  C      1.935662    1.852436    1.408329
  C      2.495517    3.139268    0.826464
  S     -1.604314   -0.184128   -1.522756
  P     -2.266397   -0.092308    0.495357
  S     -1.018727   -0.655665    1.894213
  O     -2.947198    1.296638    0.803309
  C     -3.833343    1.956539   -0.121616
  O     -3.577292   -1.011242    0.405761
  C     -3.485040   -2.426478    0.209081
  H      4.648538   -0.834489    1.523940
  H      6.101669   -0.615945    0.533698
  H      4.644354    0.326641    0.187775
  H      4.893283   -2.712289   -0.110783
  H      4.869590   -1.519600   -1.451577
  H      0.728637   -1.690318   -0.067795
  H      0.608243   -2.015479   -1.812891
  H      1.043580    2.046337    2.011268
  H      2.679500    1.318921    2.000019
  H      2.839557    3.775491    1.634936
  H      3.327299    2.919135    0.162140
  H      1.725368    3.663970    0.265685
  H     -4.610297    1.270118   -0.453339
  H     -3.259313    2.324697   -0.971602
  H     -4.258616    2.784916    0.438756
  H     -3.189778   -2.638639   -0.818072
  H     -4.479989   -2.814554    0.411238
  H     -2.761027   -2.854222    0.904251

 Total Charge           Charge          ....    0
 Multiplicity           Mult            ....    1
 Number of Electrons    NEL             ....  174
 Basis Dimension        Dim             ....  510

ORBITAL ENERGIES
----------------

  NO   OCC          E(Eh)            E(eV)
   0   2.0000     -88.581382     -2410.4220
   1   2.0000     -88.528561     -2408.9846
   2   2.0000     -76.921888     -2093.1510
   3   2.0000     -19.015427      -517.4361
   4   2.0000     -19.007489      -517.2201
   5   2.0000     -18.996697      -516.9264
   6   2.0000     -18.992988      -516.8255
   7   2.0000     -18.948933      -515.6267
   8   2.0000     -18.946239      -515.5534
   9   2.0000     -10.177896      -276.9546
  10   2.0000     -10.169895      -276.7369
  11   2.0000     -10.099008      -274.8080
  12   2.0000     -10.089074      -274.5377
  13   2.0000     -10.085520      -274.4410
  14   2.0000     -10.084763      -274.4204
  15   2.0000     -10.080946      -274.3165
  16   2.0000     -10.052853      -273.5520
  17   2.0000     -10.020273      -272.6655
  18   2.0000     -10.019391      -272.6415
  19   2.0000      -7.875565      -214.3050
  20   2.0000      -7.823889      -212.8988
  21   2.0000      -6.600041      -179.5962
  22   2.0000      -5.822632      -158.4419
  23   2.0000      -5.819388      -158.3536
  24   2.0000      -5.812543      -158.1673
  25   2.0000      -5.771637      -157.0542
  26   2.0000      -5.764168      -156.8510
  27   2.0000      -5.763683      -156.8378
  28   2.0000      -4.745661      -129.1360
  29   2.0000      -4.745126      -129.1215
  30   2.0000      -4.743656      -129.0814
  31   2.0000      -1.095305       -29.8048
  32   2.0000      -1.085022       -29.5250
  33   2.0000      -1.053490       -28.6669
  34   2.0000      -1.010501       -27.4971
  35   2.0000      -1.000497       -27.2249
  36   2.0000      -0.994684       -27.0667
  37   2.0000      -0.813551       -22.1379
  38   2.0000      -0.750592       -20.4246
  39   2.0000      -0.744727       -20.2650
  40   2.0000      -0.729989       -19.8640
  41   2.0000      -0.697925       -18.9915
  42   2.0000      -0.669295       -18.2125
  43   2.0000      -0.662480       -18.0270
  44   2.0000      -0.654500       -17.8098
  45   2.0000      -0.625389       -17.0177
  46   2.0000      -0.598399       -16.2833
  47   2.0000      -0.540504       -14.7079
  48   2.0000      -0.528407       -14.3787
  49   2.0000      -0.524040       -14.2598
  50   2.0000      -0.504031       -13.7154
  51   2.0000      -0.491855       -13.3841
  52   2.0000      -0.488134       -13.2828
  53   2.0000      -0.473582       -12.8868
  54   2.0000      -0.458246       -12.4695
  55   2.0000      -0.454596       -12.3702
  56   2.0000      -0.450402       -12.2561
  57   2.0000      -0.444773       -12.1029
  58   2.0000      -0.441079       -12.0024
  59   2.0000      -0.427767       -11.6401
  60   2.0000      -0.422078       -11.4853
  61   2.0000      -0.413608       -11.2548
  62   2.0000      -0.411430       -11.1956
  63   2.0000      -0.404641       -11.0108
  64   2.0000      -0.394597       -10.7375
  65   2.0000      -0.380214       -10.3462
  66   2.0000      -0.371355       -10.1051
  67   2.0000      -0.365425        -9.9437
  68   2.0000      -0.360791        -9.8176
  69   2.0000      -0.352349        -9.5879
  70   2.0000      -0.351688        -9.5699
  71   2.0000      -0.343257        -9.3405
  72   2.0000      -0.335447        -9.1280
  73   2.0000      -0.330285        -8.9875
  74   2.0000      -0.319711        -8.6998
  75   2.0000      -0.315311        -8.5800
  76   2.0000      -0.308895        -8.4055
  77   2.0000      -0.306637        -8.3440
  78   2.0000      -0.294014        -8.0005
  79   2.0000      -0.286594        -7.7986
  80   2.0000      -0.280462        -7.6318
  81   2.0000      -0.278024        -7.5654
  82   2.0000      -0.263449        -7.1688
  83   2.0000      -0.261183        -7.1071
  84   2.0000      -0.242588        -6.6012
  85   2.0000      -0.227698        -6.1960
  86   2.0000      -0.224239        -6.1019
  87   0.0000      -0.052712        -1.4344
  88   0.0000      -0.037847        -1.0299
  89   0.0000      -0.020541        -0.5590
  90   0.0000       0.002291         0.0623
  91   0.0000       0.011936         0.3248

MULLIKEN ATOMIC CHARGES
-----------------------
   0 C :   -0.509775
   1 C :   -0.129349
   2 O :   -0.177262
   3 C :    0.349142
   4 O :   -0.482565
   5 C :   -0.436896
   6 C :    0.062004
   7 H :    0.256609
   8 C :    0.203397
   9 O :   -0.434341
  10 O :   -0.094352
  11 C :   -0.133489
  12 C :   -0.508000
  13 S :   -0.177108
  14 P :    0.756611
  15 S :   -0.484957
  16 O :   -0.340008
  17 C :   -0.304086
  18 O :   -0.381880
  19 C :   -0.304325
  20 H :    0.169568
  21 H :    0.173158
  22 H :    0.171858
  23 H :    0.176112
  24 H :    0.174585
  25 H :    0.220247
  26 H :    0.224491
  27 H :    0.177112
  28 H :    0.185249
  29 H :    0.176120
  30 H :    0.169455
  31 H :    0.173816
  32 H :    0.184701
  33 H :    0.181653
  34 H :    0.182272
  35 H :    0.174285
  36 H :    0.179479
  37 H :    0.176470
Sum of atomic charges:   -0.0000000

LOEWDIN ATOMIC CHARGES
----------------------
   0 C :   -0.391188
   1 C :    0.036497
   2 O :   -0.580109
   3 C :    0.365062
   4 O :   -0.486372
   5 C :   -0.207551
   6 C :   -0.194516
   7 H :    0.229554
   8 C :    0.345934
   9 O :   -0.497392
  10 O :   -0.577742
  11 C :    0.037366
  12 C :   -0.390025
  13 S :    0.216276
  14 P :    0.402501
  15 S :   -0.100782
  16 O :   -0.670659
  17 C :   -0.044114
  18 O :   -0.698426
  19 C :   -0.056821
  20 H :    0.163317
  21 H :    0.168474
  22 H :    0.163902
  23 H :    0.190233
  24 H :    0.190691
  25 H :    0.202241
  26 H :    0.203316
  27 H :    0.193640
  28 H :    0.193205
  29 H :    0.169826
  30 H :    0.163763
  31 H :    0.164478
  32 H :    0.180985
  33 H :    0.180316
  34 H :    0.192190
  35 H :    0.175861
  36 H :    0.188664
  37 H :    0.177406

  Mayer bond orders larger than 0.100000
B(  0-C ,  1-C ) :   0.9287 B(  0-C , 20-H ) :   0.9675 B(  0-C , 21-H ) :   0.9597
B(  0-C , 22-H ) :   0.9665 B(  1-C ,  2-O ) :   0.7898 B(  1-C , 23-H ) :   0.9515
B(  1-C , 24-H ) :   0.9652 B(  2-O ,  3-C ) :   1.1147 B(  3-C ,  4-O ) :   1.8044
B(  3-C ,  5-C ) :   0.9020 B(  3-C , 10-O ) :   0.1051 B(  4-O ,  6-C ) :   0.1026
B(  5-C ,  6-C ) :   0.8681 B(  5-C , 25-H ) :   0.9707 B(  5-C , 26-H ) :   0.9230
B(  6-C ,  7-H ) :   0.8801 B(  6-C ,  8-C ) :   0.9602 B(  6-C , 13-S ) :   0.8095
B(  8-C ,  9-O ) :   1.7547 B(  8-C , 10-O ) :   1.1554 B( 10-O , 11-C ) :   0.7467
B( 11-C , 12-C ) :   0.9129 B( 11-C , 27-H ) :   0.9541 B( 11-C , 28-H ) :   0.9527
B( 12-C , 29-H ) :   0.9600 B( 12-C , 30-H ) :   0.9711 B( 12-C , 31-H ) :   0.9703
B( 13-S , 14-P ) :   1.0300 B( 14-P , 15-S ) :   1.7589 B( 14-P , 16-O ) :   1.1908
B( 14-P , 18-O ) :   1.0196 B( 16-O , 17-C ) :   0.7903 B( 17-C , 32-H ) :   0.9539
B( 17-C , 33-H ) :   0.9483 B( 17-C , 34-H ) :   0.9540 B( 18-O , 19-C ) :   0.8262
B( 19-C , 35-H ) :   0.9494 B( 19-C , 36-H ) :   0.9582 B( 19-C , 37-H ) :   0.9547

Dispersion correction           -0.017810359
FINAL SINGLE POINT ENERGY     -1981.467224942041

DIPOLE MOMENT
-------------

Method             : SCF
Type of density    : Electron Density
Multiplicity       :   1
Irrep              :   0
Energy             : -1981.4868529041907550 Eh
Relativity type    :
Basis              : AO
                                X                 Y                 Z
Electronic contribution:    -16.672347826      -3.887012943      -2.169246527
Nuclear contribution   :     17.210734532       3.125719883       1.554391724
                        -----------------------------------------
Total Dipole Moment    :      0.538386705      -0.761293060      -0.614854803
                        -----------------------------------------
Magnitude (a.u.)       :      1.116903665
Magnitude (Debye)      :      2.838943502

Rotational constants in cm-1:             0.016396             0.006380             0.005673
Rotational constants in MHz :           491.544413           191.273059           170.073608

                             ****ORCA TERMINATED NORMALLY****
TOTAL RUN TIME: 0 days 0 hours 1 minutes 47 seconds 250 msec
