                         Program Version 6.0.0  -   RELEASE  -
|  1> ! r2scan-3c def2/J RI DEFGRID2 scfconv6 printgap
|  2> %output
|  3>     printlevel normal
|  4> end
|  5> * xyz 0 1
|  6> C 2.5916864992 -2.9627803342 -1.4197440925
|  7> C 3.4260013769 -1.7766456692 -1.8560390425
|  8> O 3.5864653474 -0.7926622795 -0.8086209821
|  9> P 2.4251820957 0.0164087363 -0.0892455824
| 10> S 3.1739755452 1.5965624247 0.7809618693
| 11> O 1.6777932693 -1.0112301332 0.8814070329
| 12> C 1.9622838888 -1.1214267903 2.2903858182
| 13> C 0.944880825 -0.357099424 3.1137911504
| 14> S 0.9761568681 0.2834913653 -1.6031293288
| 15> C 0.2524725737 1.8151192292 -0.9635091046
| 16> S -0.5908806492 1.609201361 0.6262268319
| 17> P -2.0308002684 0.2100042137 -0.0325240905
| 18> S -2.7442717806 0.442732697 -1.8477716509
| 19> O -3.1172289416 0.1982360305 1.1272949786
| 20> C -4.2644134926 1.0646697522 1.1225646828
| 21> C -3.8850314344 2.5170561926 1.3285491875
| 22> O -1.2557657344 -1.1398288717 0.2597483384
| 23> C -1.5597135803 -2.3676469545 -0.4301797121
| 24> C -2.9292939932 -2.8972931536 -0.0605544247
| 25> H 3.0245610976 -3.4251077167 -0.5362787438
| 26> H 1.5775841765 -2.6401727798 -1.191708558
| 27> H 2.5589591535 -3.6889749776 -2.2258888306
| 28> H 2.977157497 -1.2835816127 -2.7223839091
| 29> H 4.452498332 -2.066622255 -2.0862368433
| 30> H 1.9151834419 -2.192235052 2.4969572079
| 31> H 2.9738224314 -0.7519420658 2.4840699499
| 32> H 1.1021205927 -0.5729268468 4.1656736702
| 33> H 1.0546142901 0.7128110505 2.9494682428
| 34> H -0.0625359246 -0.6519857134 2.829616049
| 35> H -0.458677234 2.1487735695 -1.7186225848
| 36> H 1.0391533437 2.5511687597 -0.8004295984
| 37> H -4.7901452074 0.9367763044 0.1708020822
| 38> H -4.8798823515 0.689221057 1.9411767051
| 39> H -3.3270061315 2.8830589018 0.4676995083
| 40> H -4.7859277919 3.1115537817 1.4419499463
| 41> H -3.2663993154 2.6242741977 2.2161116296
| 42> H -1.4913399999 -2.1855874157 -1.507874729
| 43> H -0.765374353 -3.0469487808 -0.1167543094
| 44> H -3.0803220265 -3.8645127315 -0.5295666011
| 45> H -3.0158494887 -2.9983896308 1.0181024537
| 46> H -3.6975603254 -2.2096359208 -0.4125809979
| 47> *
| 48>
| 49>                          ****END OF INPUT****

CARTESIAN COORDINATES (ANGSTROEM)
---------------------------------
  C      2.591686   -2.962780   -1.419744
  C      3.426001   -1.776646   -1.856039
  O      3.586465   -0.792662   -0.808621
  P      2.425182    0.016409   -0.089246
  S      3.173976    1.596562    0.780962
  O      1.677793   -1.011230    0.881407
  C      1.962284   -1.121427    2.290386
  C      0.944881   -0.357099    3.113791
  S      0.976157    0.283491   -1.603129
  C      0.252473    1.815119   -0.963509
  S     -0.590881    1.609201    0.626227
  P     -2.030800    0.210004   -0.032524
  S     -2.744272    0.442733   -1.847772
  O     -3.117229    0.198236    1.127295
  C     -4.264413    1.064670    1.122565
  C     -3.885031    2.517056    1.328549
  O     -1.255766   -1.139829    0.259748
  C     -1.559714   -2.367647   -0.430180
  C     -2.929294   -2.897293   -0.060554
  H      3.024561   -3.425108   -0.536279
  H      1.577584   -2.640173   -1.191709
  H      2.558959   -3.688975   -2.225889
  H      2.977157   -1.283582   -2.722384
  H      4.452498   -2.066622   -2.086237
  H      1.915183   -2.192235    2.496957
  H      2.973822   -0.751942    2.484070
  H      1.102121   -0.572927    4.165674
  H      1.054614    0.712811    2.949468
  H     -0.062536   -0.651986    2.829616
  H     -0.458677    2.148774   -1.718623
  H      1.039153    2.551169   -0.800430
  H     -4.790145    0.936776    0.170802
  H     -4.879882    0.689221    1.941177
  H     -3.327006    2.883059    0.467700
  H     -4.785928    3.111554    1.441950
  H     -3.266399    2.624274    2.216112
  H     -1.491340   -2.185587   -1.507875
  H     -0.765374   -3.046949   -0.116754
  H     -3.080322   -3.864513   -0.529567
  H     -3.015849   -2.998390    1.018102
  H     -3.697560   -2.209636   -0.412581

 Total Charge           Charge          ....    0
 Multiplicity           Mult            ....    1
 Number of Electrons    NEL             ....  202
 Basis Dimension        Dim             ....  539

ORBITAL ENERGIES
----------------

  NO   OCC          E(Eh)            E(eV)
   0   2.0000     -88.576642     -2410.2930
   1   2.0000     -88.575076     -2410.2503
   2   2.0000     -88.523921     -2408.8584
   3   2.0000     -88.515834     -2408.6383
   4   2.0000     -76.915357     -2092.9733
   5   2.0000     -76.912120     -2092.8852
   6   2.0000     -18.995332      -516.8893
   7   2.0000     -18.988744      -516.7100
   8   2.0000     -18.988723      -516.7094
   9   2.0000     -18.982941      -516.5521
  10   2.0000     -10.107836      -275.0482
  11   2.0000     -10.105746      -274.9913
  12   2.0000     -10.100945      -274.8607
  13   2.0000     -10.099056      -274.8093
  14   2.0000     -10.093657      -274.6624
  15   2.0000     -10.037299      -273.1288
  16   2.0000     -10.030432      -272.9419
  17   2.0000     -10.030240      -272.9367
  18   2.0000     -10.018488      -272.6169
  19   2.0000      -7.871206      -214.1864
  20   2.0000      -7.869544      -214.1412
  21   2.0000      -7.818654      -212.7564
  22   2.0000      -7.810759      -212.5416
  23   2.0000      -6.593956      -179.4307
  24   2.0000      -6.590258      -179.3300
  25   2.0000      -5.818132      -158.3194
  26   2.0000      -5.816462      -158.2740
  27   2.0000      -5.815058      -158.2358
  28   2.0000      -5.813460      -158.1923
  29   2.0000      -5.808211      -158.0495
  30   2.0000      -5.806518      -158.0034
  31   2.0000      -5.766260      -156.9079
  32   2.0000      -5.758934      -156.7086
  33   2.0000      -5.758708      -156.7024
  34   2.0000      -5.758557      -156.6983
  35   2.0000      -5.751298      -156.5008
  36   2.0000      -5.750322      -156.4742
  37   2.0000      -4.739315      -128.9633
  38   2.0000      -4.738822      -128.9499
  39   2.0000      -4.737866      -128.9239
  40   2.0000      -4.736061      -128.8748
  41   2.0000      -4.734991      -128.8456
  42   2.0000      -4.733953      -128.8174
  43   2.0000      -1.051649       -28.6168
  44   2.0000      -1.041730       -28.3469
  45   2.0000      -1.012491       -27.5513
  46   2.0000      -1.004718       -27.3398
  47   2.0000      -0.804218       -21.8839
  48   2.0000      -0.759120       -20.6567
  49   2.0000      -0.750819       -20.4308
  50   2.0000      -0.733695       -19.9649
  51   2.0000      -0.731938       -19.9170
  52   2.0000      -0.710641       -19.3375
  53   2.0000      -0.686645       -18.6846
  54   2.0000      -0.671080       -18.2610
  55   2.0000      -0.635112       -17.2823
  56   2.0000      -0.622279       -16.9331
  57   2.0000      -0.610439       -16.6109
  58   2.0000      -0.607070       -16.5192
  59   2.0000      -0.589653       -16.0453
  60   2.0000      -0.524385       -14.2693
  61   2.0000      -0.517634       -14.0855
  62   2.0000      -0.494868       -13.4660
  63   2.0000      -0.493036       -13.4162
  64   2.0000      -0.475951       -12.9513
  65   2.0000      -0.465298       -12.6614
  66   2.0000      -0.460506       -12.5310
  67   2.0000      -0.453751       -12.3472
  68   2.0000      -0.447150       -12.1676
  69   2.0000      -0.431818       -11.7504
  70   2.0000      -0.423844       -11.5334
  71   2.0000      -0.414559       -11.2807
  72   2.0000      -0.413118       -11.2415
  73   2.0000      -0.405806       -11.0425
  74   2.0000      -0.397797       -10.8246
  75   2.0000      -0.387621       -10.5477
  76   2.0000      -0.383480       -10.4350
  77   2.0000      -0.374672       -10.1953
  78   2.0000      -0.370104       -10.0711
  79   2.0000      -0.369141       -10.0448
  80   2.0000      -0.363123        -9.8811
  81   2.0000      -0.360891        -9.8203
  82   2.0000      -0.359964        -9.7951
  83   2.0000      -0.353853        -9.6288
  84   2.0000      -0.349804        -9.5187
  85   2.0000      -0.333650        -9.0791
  86   2.0000      -0.322647        -8.7797
  87   2.0000      -0.315392        -8.5822
  88   2.0000      -0.311700        -8.4818
  89   2.0000      -0.301136        -8.1943
  90   2.0000      -0.293041        -7.9740
  91   2.0000      -0.292329        -7.9547
  92   2.0000      -0.286782        -7.8037
  93   2.0000      -0.280870        -7.6429
  94   2.0000      -0.272862        -7.4249
  95   2.0000      -0.242881        -6.6091
  96   2.0000      -0.229774        -6.2525
  97   2.0000      -0.228136        -6.2079
  98   2.0000      -0.221003        -6.0138
  99   2.0000      -0.213166        -5.8005
 100   2.0000      -0.209117        -5.6904
 101   0.0000      -0.048432        -1.3179
 102   0.0000      -0.026912        -0.7323
 103   0.0000      -0.001950        -0.0531
 104   0.0000       0.006449         0.1755
 105   0.0000       0.007912         0.2153

MULLIKEN ATOMIC CHARGES
-----------------------
   0 C :   -0.427085
   1 C :   -0.172608
   2 O :   -0.261964
   3 P :    0.646027
   4 S :   -0.457116
   5 O :   -0.239296
   6 C :   -0.134656
   7 C :   -0.466773
   8 S :   -0.160289
   9 C :   -0.247580
  10 S :   -0.107551
  11 P :    0.683699
  12 S :   -0.484973
  13 O :   -0.303460
  14 C :   -0.152322
  15 C :   -0.449947
  16 O :   -0.250828
  17 C :   -0.166821
  18 C :   -0.451111
  19 H :    0.155989
  20 H :    0.160824
  21 H :    0.152396
  22 H :    0.164690
  23 H :    0.156041
  24 H :    0.143580
  25 H :    0.161136
  26 H :    0.139294
  27 H :    0.180128
  28 H :    0.162188
  29 H :    0.211144
  30 H :    0.211857
  31 H :    0.171458
  32 H :    0.148741
  33 H :    0.176385
  34 H :    0.148615
  35 H :    0.156446
  36 H :    0.177345
  37 H :    0.153302
  38 H :    0.146860
  39 H :    0.156177
  40 H :    0.170061
Sum of atomic charges:    0.0000000

LOEWDIN ATOMIC CHARGES
----------------------
   0 C :   -0.401066
   1 C :    0.020656
   2 O :   -0.662589
   3 P :    0.387642
   4 S :   -0.102897
   5 O :   -0.684959
   6 C :    0.022582
   7 C :   -0.407114
   8 S :    0.166777
   9 C :   -0.417550
  10 S :    0.180532
  11 P :    0.378887
  12 S :   -0.130469
  13 O :   -0.661239
  14 C :    0.019855
  15 C :   -0.406609
  16 O :   -0.674699
  17 C :    0.013981
  18 C :   -0.399654
  19 H :    0.161665
  20 H :    0.165276
  21 H :    0.160203
  22 H :    0.174887
  23 H :    0.183816
  24 H :    0.174715
  25 H :    0.178162
  26 H :    0.155175
  27 H :    0.167127
  28 H :    0.163464
  29 H :    0.189791
  30 H :    0.192513
  31 H :    0.179423
  32 H :    0.179672
  33 H :    0.165399
  34 H :    0.159516
  35 H :    0.160793
  36 H :    0.180945
  37 H :    0.179929
  38 H :    0.159273
  39 H :    0.160640
  40 H :    0.165554

  Mayer bond orders larger than 0.100000
B(  0-C ,  1-C ) :   0.9266 B(  0-C , 19-H ) :   0.9703 B(  0-C , 20-H ) :   0.9566
B(  0-C , 21-H ) :   0.9632 B(  1-C ,  2-O ) :   0.8038 B(  1-C , 22-H ) :   0.9689
B(  1-C , 23-H ) :   0.9556 B(  2-O ,  3-P ) :   1.1390 B(  3-P ,  4-S ) :   1.8295
B(  3-P ,  5-O ) :   1.0637 B(  3-P ,  8-S ) :   1.0413 B(  5-O ,  6-C ) :   0.7769
B(  6-C ,  7-C ) :   0.9435 B(  6-C , 24-H ) :   0.9644 B(  6-C , 25-H ) :   0.9633
B(  7-C , 26-H ) :   0.9620 B(  7-C , 27-H ) :   0.9621 B(  7-C , 28-H ) :   0.9691
B(  8-S ,  9-C ) :   0.9033 B(  9-C , 10-S ) :   0.9001 B(  9-C , 29-H ) :   0.9133
B(  9-C , 30-H ) :   0.9099 B( 10-S , 11-P ) :   1.0930 B( 11-P , 12-S ) :   1.7431
B( 11-P , 13-O ) :   1.0615 B( 11-P , 16-O ) :   1.1394 B( 13-O , 14-C ) :   0.8132
B( 14-C , 15-C ) :   0.9233 B( 14-C , 31-H ) :   0.9673 B( 14-C , 32-H ) :   0.9580
B( 15-C , 33-H ) :   0.9627 B( 15-C , 34-H ) :   0.9587 B( 15-C , 35-H ) :   0.9682
B( 16-O , 17-C ) :   0.7872 B( 17-C , 18-C ) :   0.9239 B( 17-C , 36-H ) :   0.9627
B( 17-C , 37-H ) :   0.9602 B( 18-C , 38-H ) :   0.9618 B( 18-C , 39-H ) :   0.9729
B( 18-C , 40-H ) :   0.9601

Dispersion correction           -0.022513680
FINAL SINGLE POINT ENERGY     -2932.459180502955

DIPOLE MOMENT
-------------

Method             : SCF
Type of density    : Electron Density
Multiplicity       :   1
Irrep              :   0
Energy             : -2932.4831170872330404 Eh
Relativity type    :
Basis              : AO
                                X                 Y                 Z
Electronic contribution:      9.849761357      13.850749296      -7.663338679
Nuclear contribution   :    -10.631407384     -15.293402517       8.007650670
                        -----------------------------------------
Total Dipole Moment    :     -0.781646027      -1.442653222       0.344311991
                        -----------------------------------------
Magnitude (a.u.)       :      1.676534991
Magnitude (Debye)      :      4.261413288

Rotational constants in cm-1:             0.011932             0.005709             0.005201
Rotational constants in MHz :           357.707562           171.140811           155.916697

                             ****ORCA TERMINATED NORMALLY****
TOTAL RUN TIME: 0 days 0 hours 1 minutes 24 seconds 978 msec
