                         Program Version 6.0.0  -   RELEASE  -
|  1> ! r2scan-3c def2/J RI DEFGRID2 scfconv6 printgap
|  2> %output
|  3>     printlevel normal
|  4> end
|  5> %cpcm
|  6>     smd true
|  7>     smdsolvent "water"
|  8> end
|  9> * xyz 0 1
| 10> C 2.5916864992 -2.9627803342 -1.4197440925
| 11> C 3.4260013769 -1.7766456692 -1.8560390425
| 12> O 3.5864653474 -0.7926622795 -0.8086209821
| 13> P 2.4251820957 0.0164087363 -0.0892455824
| 14> S 3.1739755452 1.5965624247 0.7809618693
| 15> O 1.6777932693 -1.0112301332 0.8814070329
| 16> C 1.9622838888 -1.1214267903 2.2903858182
| 17> C 0.944880825 -0.357099424 3.1137911504
| 18> S 0.9761568681 0.2834913653 -1.6031293288
| 19> C 0.2524725737 1.8151192292 -0.9635091046
| 20> S -0.5908806492 1.609201361 0.6262268319
| 21> P -2.0308002684 0.2100042137 -0.0325240905
| 22> S -2.7442717806 0.442732697 -1.8477716509
| 23> O -3.1172289416 0.1982360305 1.1272949786
| 24> C -4.2644134926 1.0646697522 1.1225646828
| 25> C -3.8850314344 2.5170561926 1.3285491875
| 26> O -1.2557657344 -1.1398288717 0.2597483384
| 27> C -1.5597135803 -2.3676469545 -0.4301797121
| 28> C -2.9292939932 -2.8972931536 -0.0605544247
| 29> H 3.0245610976 -3.4251077167 -0.5362787438
| 30> H 1.5775841765 -2.6401727798 -1.191708558
| 31> H 2.5589591535 -3.6889749776 -2.2258888306
| 32> H 2.977157497 -1.2835816127 -2.7223839091
| 33> H 4.452498332 -2.066622255 -2.0862368433
| 34> H 1.9151834419 -2.192235052 2.4969572079
| 35> H 2.9738224314 -0.7519420658 2.4840699499
| 36> H 1.1021205927 -0.5729268468 4.1656736702
| 37> H 1.0546142901 0.7128110505 2.9494682428
| 38> H -0.0625359246 -0.6519857134 2.829616049
| 39> H -0.458677234 2.1487735695 -1.7186225848
| 40> H 1.0391533437 2.5511687597 -0.8004295984
| 41> H -4.7901452074 0.9367763044 0.1708020822
| 42> H -4.8798823515 0.689221057 1.9411767051
| 43> H -3.3270061315 2.8830589018 0.4676995083
| 44> H -4.7859277919 3.1115537817 1.4419499463
| 45> H -3.2663993154 2.6242741977 2.2161116296
| 46> H -1.4913399999 -2.1855874157 -1.507874729
| 47> H -0.765374353 -3.0469487808 -0.1167543094
| 48> H -3.0803220265 -3.8645127315 -0.5295666011
| 49> H -3.0158494887 -2.9983896308 1.0181024537
| 50> H -3.6975603254 -2.2096359208 -0.4125809979
| 51> *
| 52>
| 53>                          ****END OF INPUT****

CARTESIAN COORDINATES (ANGSTROEM)
---------------------------------
  C      2.591686   -2.962780   -1.419744
  C      3.426001   -1.776646   -1.856039
  O      3.586465   -0.792662   -0.808621
  P      2.425182    0.016409   -0.089246
  S      3.173976    1.596562    0.780962
  O      1.677793   -1.011230    0.881407
  C      1.962284   -1.121427    2.290386
  C      0.944881   -0.357099    3.113791
  S      0.976157    0.283491   -1.603129
  C      0.252473    1.815119   -0.963509
  S     -0.590881    1.609201    0.626227
  P     -2.030800    0.210004   -0.032524
  S     -2.744272    0.442733   -1.847772
  O     -3.117229    0.198236    1.127295
  C     -4.264413    1.064670    1.122565
  C     -3.885031    2.517056    1.328549
  O     -1.255766   -1.139829    0.259748
  C     -1.559714   -2.367647   -0.430180
  C     -2.929294   -2.897293   -0.060554
  H      3.024561   -3.425108   -0.536279
  H      1.577584   -2.640173   -1.191709
  H      2.558959   -3.688975   -2.225889
  H      2.977157   -1.283582   -2.722384
  H      4.452498   -2.066622   -2.086237
  H      1.915183   -2.192235    2.496957
  H      2.973822   -0.751942    2.484070
  H      1.102121   -0.572927    4.165674
  H      1.054614    0.712811    2.949468
  H     -0.062536   -0.651986    2.829616
  H     -0.458677    2.148774   -1.718623
  H      1.039153    2.551169   -0.800430
  H     -4.790145    0.936776    0.170802
  H     -4.879882    0.689221    1.941177
  H     -3.327006    2.883059    0.467700
  H     -4.785928    3.111554    1.441950
  H     -3.266399    2.624274    2.216112
  H     -1.491340   -2.185587   -1.507875
  H     -0.765374   -3.046949   -0.116754
  H     -3.080322   -3.864513   -0.529567
  H     -3.015849   -2.998390    1.018102
  H     -3.697560   -2.209636   -0.412581

 Total Charge           Charge          ....    0
 Multiplicity           Mult            ....    1
 Number of Electrons    NEL             ....  202
 Basis Dimension        Dim             ....  539

ORBITAL ENERGIES
----------------

  NO   OCC          E(Eh)            E(eV)
   0   2.0000     -88.580573     -2410.3999
   1   2.0000     -88.577359     -2410.3125
   2   2.0000     -88.528604     -2408.9858
   3   2.0000     -88.527251     -2408.9490
   4   2.0000     -76.919580     -2093.0882
   5   2.0000     -76.918495     -2093.0587
   6   2.0000     -18.995689      -516.8990
   7   2.0000     -18.992643      -516.8161
   8   2.0000     -18.990570      -516.7597
   9   2.0000     -18.987621      -516.6794
  10   2.0000     -10.106536      -275.0128
  11   2.0000     -10.093660      -274.6624
  12   2.0000     -10.089740      -274.5558
  13   2.0000     -10.088779      -274.5296
  14   2.0000     -10.087594      -274.4974
  15   2.0000     -10.020893      -272.6824
  16   2.0000     -10.018516      -272.6177
  17   2.0000     -10.018252      -272.6105
  18   2.0000     -10.014088      -272.4972
  19   2.0000      -7.875091      -214.2921
  20   2.0000      -7.871875      -214.2046
  21   2.0000      -7.823610      -212.8913
  22   2.0000      -7.822542      -212.8622
  23   2.0000      -6.597756      -179.5341
  24   2.0000      -6.597129      -179.5170
  25   2.0000      -5.822019      -158.4252
  26   2.0000      -5.818917      -158.3408
  27   2.0000      -5.818778      -158.3370
  28   2.0000      -5.815787      -158.2556
  29   2.0000      -5.812130      -158.1561
  30   2.0000      -5.808868      -158.0673
  31   2.0000      -5.771171      -157.0416
  32   2.0000      -5.770225      -157.0158
  33   2.0000      -5.763871      -156.8429
  34   2.0000      -5.763676      -156.8376
  35   2.0000      -5.763011      -156.8195
  36   2.0000      -5.762217      -156.7979
  37   2.0000      -4.743503      -129.0773
  38   2.0000      -4.742464      -129.0490
  39   2.0000      -4.742445      -129.0485
  40   2.0000      -4.742004      -129.0365
  41   2.0000      -4.741570      -129.0247
  42   2.0000      -4.741097      -129.0118
  43   2.0000      -1.052324       -28.6352
  44   2.0000      -1.045490       -28.4492
  45   2.0000      -1.012655       -27.5557
  46   2.0000      -1.008059       -27.4307
  47   2.0000      -0.805796       -21.9268
  48   2.0000      -0.755886       -20.5687
  49   2.0000      -0.743618       -20.2349
  50   2.0000      -0.726337       -19.7646
  51   2.0000      -0.722868       -19.6702
  52   2.0000      -0.709273       -19.3003
  53   2.0000      -0.689299       -18.7568
  54   2.0000      -0.676221       -18.4009
  55   2.0000      -0.632950       -17.2234
  56   2.0000      -0.619809       -16.8659
  57   2.0000      -0.604943       -16.4613
  58   2.0000      -0.598849       -16.2955
  59   2.0000      -0.587681       -15.9916
  60   2.0000      -0.521227       -14.1833
  61   2.0000      -0.513088       -13.9618
  62   2.0000      -0.491642       -13.3782
  63   2.0000      -0.488358       -13.2889
  64   2.0000      -0.474592       -12.9143
  65   2.0000      -0.460766       -12.5381
  66   2.0000      -0.454588       -12.3700
  67   2.0000      -0.449250       -12.2247
  68   2.0000      -0.442370       -12.0375
  69   2.0000      -0.427404       -11.6302
  70   2.0000      -0.420665       -11.4469
  71   2.0000      -0.410840       -11.1795
  72   2.0000      -0.407120       -11.0783
  73   2.0000      -0.403542       -10.9809
  74   2.0000      -0.394350       -10.7308
  75   2.0000      -0.385571       -10.4919
  76   2.0000      -0.384007       -10.4494
  77   2.0000      -0.370939       -10.0938
  78   2.0000      -0.364415        -9.9162
  79   2.0000      -0.358589        -9.7577
  80   2.0000      -0.354225        -9.6389
  81   2.0000      -0.353380        -9.6160
  82   2.0000      -0.351996        -9.5783
  83   2.0000      -0.347277        -9.4499
  84   2.0000      -0.346631        -9.4323
  85   2.0000      -0.329911        -8.9773
  86   2.0000      -0.317156        -8.6303
  87   2.0000      -0.313541        -8.5319
  88   2.0000      -0.304692        -8.2911
  89   2.0000      -0.299368        -8.1462
  90   2.0000      -0.294997        -8.0273
  91   2.0000      -0.290188        -7.8964
  92   2.0000      -0.285428        -7.7669
  93   2.0000      -0.279420        -7.6034
  94   2.0000      -0.274609        -7.4725
  95   2.0000      -0.245596        -6.6830
  96   2.0000      -0.237168        -6.4537
  97   2.0000      -0.233964        -6.3665
  98   2.0000      -0.227520        -6.1911
  99   2.0000      -0.221753        -6.0342
 100   2.0000      -0.219336        -5.9684
 101   0.0000      -0.052396        -1.4258
 102   0.0000      -0.032455        -0.8832
 103   0.0000      -0.004504        -0.1226
 104   0.0000       0.001983         0.0540
 105   0.0000       0.007843         0.2134

MULLIKEN ATOMIC CHARGES
-----------------------
   0 C :   -0.460650
   1 C :   -0.166152
   2 O :   -0.299539
   3 P :    0.659116
   4 S :   -0.514389
   5 O :   -0.261072
   6 C :   -0.130054
   7 C :   -0.491344
   8 S :   -0.165331
   9 C :   -0.259737
  10 S :   -0.118475
  11 P :    0.723883
  12 S :   -0.527638
  13 O :   -0.330935
  14 C :   -0.153089
  15 C :   -0.486419
  16 O :   -0.286111
  17 C :   -0.154836
  18 C :   -0.492255
  19 H :    0.171527
  20 H :    0.162019
  21 H :    0.177380
  22 H :    0.176531
  23 H :    0.179659
  24 H :    0.174270
  25 H :    0.167245
  26 H :    0.164937
  27 H :    0.171821
  28 H :    0.163767
  29 H :    0.235192
  30 H :    0.231389
  31 H :    0.177979
  32 H :    0.175505
  33 H :    0.172827
  34 H :    0.172960
  35 H :    0.169122
  36 H :    0.179682
  37 H :    0.179779
  38 H :    0.172212
  39 H :    0.170040
  40 H :    0.169185
Sum of atomic charges:    0.0000000

LOEWDIN ATOMIC CHARGES
----------------------
   0 C :   -0.400939
   1 C :    0.027045
   2 O :   -0.683338
   3 P :    0.389276
   4 S :   -0.144768
   5 O :   -0.694817
   6 C :    0.027709
   7 C :   -0.409659
   8 S :    0.167239
   9 C :   -0.412060
  10 S :    0.174784
  11 P :    0.384317
  12 S :   -0.155691
  13 O :   -0.672462
  14 C :    0.025496
  15 C :   -0.410002
  16 O :   -0.691624
  17 C :    0.019669
  18 C :   -0.403055
  19 H :    0.165569
  20 H :    0.164283
  21 H :    0.170503
  22 H :    0.180287
  23 H :    0.194064
  24 H :    0.187576
  25 H :    0.180566
  26 H :    0.164326
  27 H :    0.162115
  28 H :    0.163014
  29 H :    0.197423
  30 H :    0.198121
  31 H :    0.181559
  32 H :    0.191021
  33 H :    0.161517
  34 H :    0.168331
  35 H :    0.163600
  36 H :    0.182338
  37 H :    0.191019
  38 H :    0.168701
  39 H :    0.164117
  40 H :    0.162830

  Mayer bond orders larger than 0.100000
B(  0-C ,  1-C ) :   0.9155 B(  0-C , 19-H ) :   0.9693 B(  0-C , 20-H ) :   0.9535
B(  0-C , 21-H ) :   0.9567 B(  1-C ,  2-O ) :   0.7918 B(  1-C , 22-H ) :   0.9590
B(  1-C , 23-H ) :   0.9454 B(  2-O ,  3-P ) :   1.1473 B(  3-P ,  4-S ) :   1.8024
B(  3-P ,  5-O ) :   1.0689 B(  3-P ,  8-S ) :   1.0623 B(  5-O ,  6-C ) :   0.7640
B(  6-C ,  7-C ) :   0.9329 B(  6-C , 24-H ) :   0.9547 B(  6-C , 25-H ) :   0.9613
B(  7-C , 26-H ) :   0.9582 B(  7-C , 27-H ) :   0.9645 B(  7-C , 28-H ) :   0.9670
B(  8-S ,  9-C ) :   0.8896 B(  9-C , 10-S ) :   0.8910 B(  9-C , 29-H ) :   0.9066
B(  9-C , 30-H ) :   0.9048 B( 10-S , 11-P ) :   1.1007 B( 11-P , 12-S ) :   1.7043
B( 11-P , 13-O ) :   1.0698 B( 11-P , 16-O ) :   1.1448 B( 13-O , 14-C ) :   0.8014
B( 14-C , 15-C ) :   0.9098 B( 14-C , 31-H ) :   0.9659 B( 14-C , 32-H ) :   0.9483
B( 15-C , 33-H ) :   0.9638 B( 15-C , 34-H ) :   0.9534 B( 15-C , 35-H ) :   0.9657
B( 16-O , 17-C ) :   0.7773 B( 17-C , 18-C ) :   0.9112 B( 17-C , 36-H ) :   0.9587
B( 17-C , 37-H ) :   0.9496 B( 18-C , 38-H ) :   0.9559 B( 18-C , 39-H ) :   0.9714
B( 18-C , 40-H ) :   0.9599

Dispersion correction           -0.022513680
FINAL SINGLE POINT ENERGY     -2932.469349938175

DIPOLE MOMENT
-------------

Method             : SCF
Type of density    : Electron Density
Multiplicity       :   1
Irrep              :   0
Energy             : -2932.4932865224523084 Eh
Relativity type    :
Basis              : AO
                                X                 Y                 Z
Electronic contribution:      9.558688589      13.325271322      -7.637049891
Nuclear contribution   :    -10.631407384     -15.293402517       8.007650670
                        -----------------------------------------
Total Dipole Moment    :     -1.072718795      -1.968131196       0.370600779
                        -----------------------------------------
Magnitude (a.u.)       :      2.271917902
Magnitude (Debye)      :      5.774756381

Rotational constants in cm-1:             0.011932             0.005709             0.005201
Rotational constants in MHz :           357.707562           171.140811           155.916697

                             ****ORCA TERMINATED NORMALLY****
TOTAL RUN TIME: 0 days 0 hours 2 minutes 1 seconds 270 msec
