                         Program Version 6.0.0  -   RELEASE  -
|  1> ! pbe def2-sv(p) def2/J RI DEFGRID1 loosescf d4 GCP(DFT/SV(P)) printgap
|  2> %output
|  3>     printlevel normal
|  4> end
|  5> * xyz 0 1
|  6> C 5.1094517075 0.5463238005 0.3858746828
|  7> C 3.9814839861 1.1485513434 -0.4239413055
|  8> O 3.0024098329 0.1535186935 -0.7969753917
|  9> P 2.0746816026 -0.5403456602 0.2794691998
| 10> S 1.5929654841 0.5525187437 1.8378648112
| 11> O 2.8656137271 -1.8676778769 0.6423251113
| 12> C 2.5977471763 -2.6609677618 1.814770067
| 13> C 3.9045232489 -3.2665092175 2.2881049021
| 14> S 0.5561412942 -1.2809864451 -1.0076866647
| 15> C 0.1023002806 0.2719454694 -1.8329941421
| 16> S -0.6658676711 1.4846526944 -0.7374396014
| 17> P -2.544919616 0.4839646948 -0.5793851091
| 18> S -3.1891268896 -0.3431510912 -2.22917652
| 19> O -3.4569727375 1.5599255924 0.1507437312
| 20> C -3.6062799995 2.9365053676 -0.2472152646
| 21> C -4.0096062347 3.0864352446 -1.6988409606
| 22> O -2.4113607439 -0.6215481433 0.5333099472
| 23> C -1.9994258403 -0.3611503742 1.8982034755
| 24> C -1.4551409179 -1.6546613666 2.4664738991
| 25> H 5.873070492 1.2988883056 0.555725415
| 26> H 4.7296222021 0.2043482607 1.3477116229
| 27> H 5.5424302398 -0.2984728113 -0.1432680499
| 28> H 4.3317654456 1.5414303905 -1.3792523775
| 29> H 3.4755427785 1.9370254193 0.1424029432
| 30> H 2.1566580017 -2.0161587885 2.5829623924
| 31> H 1.8802960732 -3.4367567877 1.535511794
| 32> H 4.352995391 -3.8497959776 1.4891951292
| 33> H 4.5975467936 -2.4844067778 2.5854171695
| 34> H 3.70862045 -3.9117520173 3.1381481455
| 35> H -0.6129866625 -0.0039692264 -2.6105914236
| 36> H 0.991310839 0.7327602612 -2.2551147866
| 37> H -4.3794116506 3.3136659472 0.4244945702
| 38> H -2.6610052189 3.450545118 -0.0514906423
| 39> H -4.9142280994 2.5181050477 -1.9017084915
| 40> H -4.1854951901 4.134719792 -1.9175263875
| 41> H -3.2186392175 2.714919635 -2.3489560856
| 42> H -1.2353234532 0.4229257566 1.9010395201
| 43> H -2.873889358 -0.0123293017 2.4495884172
| 44> H -1.1393346723 -1.4868266275 3.4910371481
| 45> H -2.2174590447 -2.4272909754 2.4368556271
| 46> H -0.6002965192 -1.9860586056 1.8795487877
| 47> *
| 48>
| 49>                          ****END OF INPUT****

CARTESIAN COORDINATES (ANGSTROEM)
---------------------------------
  C      5.109452    0.546324    0.385875
  C      3.981484    1.148551   -0.423941
  O      3.002410    0.153519   -0.796975
  P      2.074682   -0.540346    0.279469
  S      1.592965    0.552519    1.837865
  O      2.865614   -1.867678    0.642325
  C      2.597747   -2.660968    1.814770
  C      3.904523   -3.266509    2.288105
  S      0.556141   -1.280986   -1.007687
  C      0.102300    0.271945   -1.832994
  S     -0.665868    1.484653   -0.737440
  P     -2.544920    0.483965   -0.579385
  S     -3.189127   -0.343151   -2.229177
  O     -3.456973    1.559926    0.150744
  C     -3.606280    2.936505   -0.247215
  C     -4.009606    3.086435   -1.698841
  O     -2.411361   -0.621548    0.533310
  C     -1.999426   -0.361150    1.898203
  C     -1.455141   -1.654661    2.466474
  H      5.873070    1.298888    0.555725
  H      4.729622    0.204348    1.347712
  H      5.542430   -0.298473   -0.143268
  H      4.331765    1.541430   -1.379252
  H      3.475543    1.937025    0.142403
  H      2.156658   -2.016159    2.582962
  H      1.880296   -3.436757    1.535512
  H      4.352995   -3.849796    1.489195
  H      4.597547   -2.484407    2.585417
  H      3.708620   -3.911752    3.138148
  H     -0.612987   -0.003969   -2.610591
  H      0.991311    0.732760   -2.255115
  H     -4.379412    3.313666    0.424495
  H     -2.661005    3.450545   -0.051491
  H     -4.914228    2.518105   -1.901708
  H     -4.185495    4.134720   -1.917526
  H     -3.218639    2.714920   -2.348956
  H     -1.235323    0.422926    1.901040
  H     -2.873889   -0.012329    2.449588
  H     -1.139335   -1.486827    3.491037
  H     -2.217459   -2.427291    2.436856
  H     -0.600297   -1.986059    1.879549

 Total Charge           Charge          ....    0
 Multiplicity           Mult            ....    1
 Number of Electrons    NEL             ....  202
 Basis Dimension        Dim             ....  334

ORBITAL ENERGIES
----------------

  NO   OCC          E(Eh)            E(eV)
   0   2.0000     -88.040874     -2395.7140
   1   2.0000     -88.039569     -2395.6785
   2   2.0000     -87.992878     -2394.4079
   3   2.0000     -87.977526     -2393.9902
   4   2.0000     -76.431553     -2079.8083
   5   2.0000     -76.421123     -2079.5245
   6   2.0000     -18.800650      -511.5917
   7   2.0000     -18.797854      -511.5156
   8   2.0000     -18.792255      -511.3632
   9   2.0000     -18.781977      -511.0836
  10   2.0000      -9.958994      -270.9980
  11   2.0000      -9.957996      -270.9709
  12   2.0000      -9.957159      -270.9481
  13   2.0000      -9.954462      -270.8747
  14   2.0000      -9.941610      -270.5249
  15   2.0000      -9.892436      -269.1869
  16   2.0000      -9.890261      -269.1277
  17   2.0000      -9.881364      -268.8856
  18   2.0000      -9.877460      -268.7794
  19   2.0000      -7.686133      -209.1503
  20   2.0000      -7.684499      -209.1059
  21   2.0000      -7.637624      -207.8303
  22   2.0000      -7.622943      -207.4308
  23   2.0000      -6.429127      -174.9454
  24   2.0000      -6.418397      -174.6535
  25   2.0000      -5.714040      -155.4869
  26   2.0000      -5.712124      -155.4348
  27   2.0000      -5.710842      -155.3999
  28   2.0000      -5.708992      -155.3496
  29   2.0000      -5.702845      -155.1823
  30   2.0000      -5.701743      -155.1523
  31   2.0000      -5.666310      -154.1881
  32   2.0000      -5.658196      -153.9673
  33   2.0000      -5.658070      -153.9639
  34   2.0000      -5.651952      -153.7974
  35   2.0000      -5.643558      -153.5690
  36   2.0000      -5.642948      -153.5524
  37   2.0000      -4.651752      -126.5806
  38   2.0000      -4.650935      -126.5584
  39   2.0000      -4.649487      -126.5190
  40   2.0000      -4.641260      -126.2951
  41   2.0000      -4.640402      -126.2718
  42   2.0000      -4.638410      -126.2176
  43   2.0000      -0.993693       -27.0398
  44   2.0000      -0.983426       -26.7604
  45   2.0000      -0.953969       -25.9588
  46   2.0000      -0.938740       -25.5444
  47   2.0000      -0.762989       -20.7620
  48   2.0000      -0.724368       -19.7111
  49   2.0000      -0.709869       -19.3165
  50   2.0000      -0.695007       -18.9121
  51   2.0000      -0.685692       -18.6586
  52   2.0000      -0.671854       -18.2821
  53   2.0000      -0.653659       -17.7870
  54   2.0000      -0.636393       -17.3171
  55   2.0000      -0.603183       -16.4134
  56   2.0000      -0.586586       -15.9618
  57   2.0000      -0.572923       -15.5900
  58   2.0000      -0.567257       -15.4359
  59   2.0000      -0.560842       -15.2613
  60   2.0000      -0.510249       -13.8846
  61   2.0000      -0.499248       -13.5852
  62   2.0000      -0.485719       -13.2171
  63   2.0000      -0.469817       -12.7844
  64   2.0000      -0.461623       -12.5614
  65   2.0000      -0.448445       -12.2028
  66   2.0000      -0.441563       -12.0155
  67   2.0000      -0.432511       -11.7692
  68   2.0000      -0.425731       -11.5847
  69   2.0000      -0.416070       -11.3218
  70   2.0000      -0.412263       -11.2183
  71   2.0000      -0.403762       -10.9869
  72   2.0000      -0.392522       -10.6811
  73   2.0000      -0.384714       -10.4686
  74   2.0000      -0.380776       -10.3614
  75   2.0000      -0.378396       -10.2967
  76   2.0000      -0.363216        -9.8836
  77   2.0000      -0.360030        -9.7969
  78   2.0000      -0.354652        -9.6506
  79   2.0000      -0.349252        -9.5036
  80   2.0000      -0.347558        -9.4575
  81   2.0000      -0.344794        -9.3823
  82   2.0000      -0.342547        -9.3212
  83   2.0000      -0.335695        -9.1347
  84   2.0000      -0.332984        -9.0610
  85   2.0000      -0.321170        -8.7395
  86   2.0000      -0.312716        -8.5094
  87   2.0000      -0.303029        -8.2458
  88   2.0000      -0.294500        -8.0137
  89   2.0000      -0.291839        -7.9413
  90   2.0000      -0.287485        -7.8229
  91   2.0000      -0.280986        -7.6460
  92   2.0000      -0.270195        -7.3524
  93   2.0000      -0.266966        -7.2645
  94   2.0000      -0.256936        -6.9916
  95   2.0000      -0.241028        -6.5587
  96   2.0000      -0.220821        -6.0089
  97   2.0000      -0.208640        -5.6774
  98   2.0000      -0.203111        -5.5269
  99   2.0000      -0.196877        -5.3573
 100   2.0000      -0.189919        -5.1680
 101   0.0000      -0.045815        -1.2467
 102   0.0000      -0.020201        -0.5497
 103   0.0000      -0.013918        -0.3787
 104   0.0000      -0.001306        -0.0355
 105   0.0000       0.014140         0.3848

MULLIKEN ATOMIC CHARGES
-----------------------
   0 C :   -0.314000
   1 C :   -0.005410
   2 O :   -0.370986
   3 P :    0.614939
   4 S :   -0.321244
   5 O :   -0.375230
   6 C :   -0.029801
   7 C :   -0.279861
   8 S :   -0.068680
   9 C :   -0.362250
  10 S :   -0.105378
  11 P :    0.603261
  12 S :   -0.315855
  13 O :   -0.383013
  14 C :   -0.011735
  15 C :   -0.307929
  16 O :   -0.351202
  17 C :   -0.018960
  18 C :   -0.282154
  19 H :    0.115088
  20 H :    0.125979
  21 H :    0.120717
  22 H :    0.107547
  23 H :    0.113978
  24 H :    0.112876
  25 H :    0.112563
  26 H :    0.119405
  27 H :    0.120498
  28 H :    0.113071
  29 H :    0.195117
  30 H :    0.187013
  31 H :    0.109110
  32 H :    0.114315
  33 H :    0.127344
  34 H :    0.110196
  35 H :    0.124718
  36 H :    0.120283
  37 H :    0.101015
  38 H :    0.105718
  39 H :    0.113621
  40 H :    0.115317
Sum of atomic charges:    0.0000000

LOEWDIN ATOMIC CHARGES
----------------------
   0 C :   -0.365682
   1 C :   -0.117493
   2 O :   -0.239239
   3 P :    0.568292
   4 S :   -0.308535
   5 O :   -0.245028
   6 C :   -0.121234
   7 C :   -0.350542
   8 S :    0.091415
   9 C :   -0.482780
  10 S :    0.068010
  11 P :    0.568697
  12 S :   -0.312753
  13 O :   -0.246299
  14 C :   -0.113968
  15 C :   -0.369131
  16 O :   -0.232043
  17 C :   -0.119053
  18 C :   -0.352594
  19 H :    0.132182
  20 H :    0.121325
  21 H :    0.128123
  22 H :    0.119572
  23 H :    0.112082
  24 H :    0.106750
  25 H :    0.114831
  26 H :    0.128236
  27 H :    0.127256
  28 H :    0.131715
  29 H :    0.129402
  30 H :    0.132512
  31 H :    0.121267
  32 H :    0.108732
  33 H :    0.130852
  34 H :    0.129512
  35 H :    0.121109
  36 H :    0.102307
  37 H :    0.112131
  38 H :    0.127898
  39 H :    0.125807
  40 H :    0.116359

  Mayer bond orders larger than 0.100000
B(  0-C ,  1-C ) :   1.1662 B(  0-C , 19-H ) :   0.9377 B(  0-C , 20-H ) :   0.9326
B(  0-C , 21-H ) :   0.9456 B(  1-C ,  2-O ) :   0.8991 B(  1-C , 22-H ) :   0.9335
B(  1-C , 23-H ) :   0.9160 B(  2-O ,  3-P ) :   1.1158 B(  3-P ,  4-S ) :   1.6073
B(  3-P ,  5-O ) :   1.1103 B(  3-P ,  8-S ) :   0.9736 B(  4-S ,  8-S ) :   0.1116
B(  5-O ,  6-C ) :   0.9047 B(  6-C ,  7-C ) :   1.1603 B(  6-C , 24-H ) :   0.9018
B(  6-C , 25-H ) :   0.9299 B(  7-C , 26-H ) :   0.9494 B(  7-C , 27-H ) :   0.9492
B(  7-C , 28-H ) :   0.9411 B(  8-S ,  9-C ) :   0.9993 B(  9-C , 10-S ) :   1.0121
B(  9-C , 29-H ) :   0.8648 B(  9-C , 30-H ) :   0.8982 B( 10-S , 11-P ) :   0.9387
B( 10-S , 12-S ) :   0.1089 B( 11-P , 12-S ) :   1.6392 B( 11-P , 13-O ) :   1.0884
B( 11-P , 16-O ) :   1.1508 B( 12-S , 29-H ) :   0.1007 B( 13-O , 14-C ) :   0.9141
B( 14-C , 15-C ) :   1.1659 B( 14-C , 31-H ) :   0.9336 B( 14-C , 32-H ) :   0.9269
B( 15-C , 33-H ) :   0.9431 B( 15-C , 34-H ) :   0.9351 B( 15-C , 35-H ) :   0.9317
B( 16-O , 17-C ) :   0.8826 B( 17-C , 18-C ) :   1.1694 B( 17-C , 36-H ) :   0.9020
B( 17-C , 37-H ) :   0.9311 B( 18-C , 38-H ) :   0.9404 B( 18-C , 39-H ) :   0.9473
B( 18-C , 40-H ) :   0.9388

Dispersion correction           -0.065130880
FINAL SINGLE POINT ENERGY     -2929.520202827178

DIPOLE MOMENT
-------------

Method             : SCF
Type of density    : Electron Density
Multiplicity       :   1
Irrep              :   0
Energy             : -2929.6393176372916969 Eh
Relativity type    :
Basis              : AO
                                X                 Y                 Z
Electronic contribution:    -11.902962175       0.286165618     -12.024450618
Nuclear contribution   :     13.230351642       0.360466266      12.863878043
                        -----------------------------------------
Total Dipole Moment    :      1.327389467       0.646631883       0.839427425
                        -----------------------------------------
Magnitude (a.u.)       :      1.698450468
Magnitude (Debye)      :      4.317118003

Rotational constants in cm-1:             0.013728             0.004627             0.004286
Rotational constants in MHz :           411.540519           138.723380           128.482711

                             ****ORCA TERMINATED NORMALLY****
TOTAL RUN TIME: 0 days 0 hours 0 minutes 21 seconds 91 msec
