                         Program Version 6.0.0  -   RELEASE  -
|  1> ! pbe def2-sv(p) def2/J RI DEFGRID1 loosescf d4 GCP(DFT/SV(P)) printgap
|  2> %output
|  3>     printlevel normal
|  4> end
|  5> * xyz 0 1
|  6> C 1.571100333 2.8203126482 1.0187400513
|  7> C 1.48325249 2.3029703737 -0.4041196787
|  8> O 1.1842740018 0.8925439118 -0.4486299722
|  9> P 2.2694924932 -0.1492823283 0.0712049401
| 10> S 4.1460532549 0.3809881234 -0.0962501232
| 11> O 1.8309908696 -1.3720110435 -0.8352501554
| 12> C 2.5448225806 -2.6232017294 -0.7614607035
| 13> C 2.0222861455 -3.5139046574 -1.8696165467
| 14> S 1.6429881433 -0.6845222527 2.0232689799
| 15> C -0.0958142801 -1.0998558467 1.6725604376
| 16> S -1.195170833 0.3355479476 1.5759921797
| 17> P -1.8830520926 0.1800504967 -0.4433776059
| 18> S -1.2221100802 -1.3758297672 -1.4339376399
| 19> O -1.5825196217 1.5273397393 -1.2070478131
| 20> C -2.3689736272 2.7396964877 -1.0872156061
| 21> C -2.308025645 3.3431345963 0.3001809472
| 22> O -3.466357156 0.2926487118 -0.2814577173
| 23> C -4.2728757474 -0.577694781 0.5298439879
| 24> C -4.5217909871 -1.9185220297 -0.1323554037
| 25> H 2.4276077509 2.3693332474 1.5204985976
| 26> H 1.7036414051 3.8975467484 1.0008287179
| 27> H 0.6712205146 2.5728908026 1.5779406916
| 28> H 2.4277422529 2.4715809319 -0.9307854389
| 29> H 0.6647060067 2.7587925902 -0.9619820984
| 30> H 3.6153074786 -2.420196552 -0.8739093343
| 31> H 2.3702016607 -3.0680788334 0.2237975336
| 32> H 2.2438540302 -3.0736907386 -2.8374061232
| 33> H 2.4916939608 -4.4891365011 -1.7977162772
| 34> H 0.9437606204 -3.6179115366 -1.7790780931
| 35> H -0.4152202652 -1.712341897 2.51125237
| 36> H -0.1641182525 -1.6429204889 0.7245213657
| 37> H -1.9271365199 3.4006093157 -1.8350178613
| 38> H -3.3977738309 2.5059136126 -1.3660366982
| 39> H -1.2839014997 3.5804880058 0.573170557
| 40> H -2.8982748691 4.254252964 0.3127962783
| 41> H -2.7148765691 2.6486733853 1.0334494612
| 42> H -3.7879744907 -0.7027726736 1.5024995628
| 43> H -5.205346668 -0.0238621959 0.6564003031
| 44> H -4.9662030638 -1.7757272354 -1.1138755737
| 45> H -3.589216975 -2.4646164771 -0.254853889
| 46> H -5.197342229 -2.5014947634 0.4853472854
| 47> *
| 48>
| 49>                          ****END OF INPUT****

CARTESIAN COORDINATES (ANGSTROEM)
---------------------------------
  C      1.571100    2.820313    1.018740
  C      1.483252    2.302970   -0.404120
  O      1.184274    0.892544   -0.448630
  P      2.269492   -0.149282    0.071205
  S      4.146053    0.380988   -0.096250
  O      1.830991   -1.372011   -0.835250
  C      2.544823   -2.623202   -0.761461
  C      2.022286   -3.513905   -1.869617
  S      1.642988   -0.684522    2.023269
  C     -0.095814   -1.099856    1.672560
  S     -1.195171    0.335548    1.575992
  P     -1.883052    0.180050   -0.443378
  S     -1.222110   -1.375830   -1.433938
  O     -1.582520    1.527340   -1.207048
  C     -2.368974    2.739696   -1.087216
  C     -2.308026    3.343135    0.300181
  O     -3.466357    0.292649   -0.281458
  C     -4.272876   -0.577695    0.529844
  C     -4.521791   -1.918522   -0.132355
  H      2.427608    2.369333    1.520499
  H      1.703641    3.897547    1.000829
  H      0.671221    2.572891    1.577941
  H      2.427742    2.471581   -0.930785
  H      0.664706    2.758793   -0.961982
  H      3.615307   -2.420197   -0.873909
  H      2.370202   -3.068079    0.223798
  H      2.243854   -3.073691   -2.837406
  H      2.491694   -4.489137   -1.797716
  H      0.943761   -3.617912   -1.779078
  H     -0.415220   -1.712342    2.511252
  H     -0.164118   -1.642920    0.724521
  H     -1.927137    3.400609   -1.835018
  H     -3.397774    2.505914   -1.366037
  H     -1.283901    3.580488    0.573171
  H     -2.898275    4.254253    0.312796
  H     -2.714877    2.648673    1.033449
  H     -3.787974   -0.702773    1.502500
  H     -5.205347   -0.023862    0.656400
  H     -4.966203   -1.775727   -1.113876
  H     -3.589217   -2.464616   -0.254854
  H     -5.197342   -2.501495    0.485347

 Total Charge           Charge          ....    0
 Multiplicity           Mult            ....    1
 Number of Electrons    NEL             ....  202
 Basis Dimension        Dim             ....  334

ORBITAL ENERGIES
----------------

  NO   OCC          E(Eh)            E(eV)
   0   2.0000     -88.048261     -2395.9150
   1   2.0000     -88.041697     -2395.7364
   2   2.0000     -87.987034     -2394.2489
   3   2.0000     -87.982280     -2394.1195
   4   2.0000     -76.431000     -2079.7933
   5   2.0000     -76.420132     -2079.4975
   6   2.0000     -18.798753      -511.5401
   7   2.0000     -18.796583      -511.4810
   8   2.0000     -18.784245      -511.1453
   9   2.0000     -18.783431      -511.1232
  10   2.0000      -9.963376      -271.1172
  11   2.0000      -9.959501      -271.0118
  12   2.0000      -9.956519      -270.9307
  13   2.0000      -9.946395      -270.6552
  14   2.0000      -9.944730      -270.6099
  15   2.0000      -9.898261      -269.3454
  16   2.0000      -9.884433      -268.9691
  17   2.0000      -9.879326      -268.8301
  18   2.0000      -9.876573      -268.7552
  19   2.0000      -7.692557      -209.3251
  20   2.0000      -7.686831      -209.1693
  21   2.0000      -7.632090      -207.6797
  22   2.0000      -7.627509      -207.5551
  23   2.0000      -6.427916      -174.9125
  24   2.0000      -6.417888      -174.6396
  25   2.0000      -5.720378      -155.6594
  26   2.0000      -5.716970      -155.5667
  27   2.0000      -5.714884      -155.5099
  28   2.0000      -5.710983      -155.4037
  29   2.0000      -5.709788      -155.3712
  30   2.0000      -5.704010      -155.2140
  31   2.0000      -5.661093      -154.0462
  32   2.0000      -5.656480      -153.9207
  33   2.0000      -5.652689      -153.8175
  34   2.0000      -5.652083      -153.8010
  35   2.0000      -5.648005      -153.6900
  36   2.0000      -5.647737      -153.6827
  37   2.0000      -4.650854      -126.5562
  38   2.0000      -4.649655      -126.5235
  39   2.0000      -4.648142      -126.4824
  40   2.0000      -4.640168      -126.2654
  41   2.0000      -4.640109      -126.2638
  42   2.0000      -4.638142      -126.2103
  43   2.0000      -0.993899       -27.0454
  44   2.0000      -0.981391       -26.7050
  45   2.0000      -0.948009       -25.7966
  46   2.0000      -0.939172       -25.5562
  47   2.0000      -0.761744       -20.7281
  48   2.0000      -0.723260       -19.6809
  49   2.0000      -0.709779       -19.3141
  50   2.0000      -0.696479       -18.9521
  51   2.0000      -0.679312       -18.4850
  52   2.0000      -0.677747       -18.4424
  53   2.0000      -0.652555       -17.7569
  54   2.0000      -0.637338       -17.3429
  55   2.0000      -0.597637       -16.2625
  56   2.0000      -0.589670       -16.0457
  57   2.0000      -0.585162       -15.9231
  58   2.0000      -0.565876       -15.3983
  59   2.0000      -0.554790       -15.0966
  60   2.0000      -0.505150       -13.7458
  61   2.0000      -0.499408       -13.5896
  62   2.0000      -0.480579       -13.0772
  63   2.0000      -0.464745       -12.6464
  64   2.0000      -0.457558       -12.4508
  65   2.0000      -0.452839       -12.3224
  66   2.0000      -0.439431       -11.9575
  67   2.0000      -0.435618       -11.8538
  68   2.0000      -0.428537       -11.6611
  69   2.0000      -0.422296       -11.4913
  70   2.0000      -0.411557       -11.1990
  71   2.0000      -0.405828       -11.0431
  72   2.0000      -0.399190       -10.8625
  73   2.0000      -0.388967       -10.5843
  74   2.0000      -0.374978       -10.2037
  75   2.0000      -0.369432       -10.0527
  76   2.0000      -0.362546        -9.8654
  77   2.0000      -0.361470        -9.8361
  78   2.0000      -0.357121        -9.7178
  79   2.0000      -0.351790        -9.5727
  80   2.0000      -0.346861        -9.4386
  81   2.0000      -0.341892        -9.3034
  82   2.0000      -0.339795        -9.2463
  83   2.0000      -0.336152        -9.1472
  84   2.0000      -0.332346        -9.0436
  85   2.0000      -0.320494        -8.7211
  86   2.0000      -0.313772        -8.5382
  87   2.0000      -0.301956        -8.2166
  88   2.0000      -0.298772        -8.1300
  89   2.0000      -0.295698        -8.0464
  90   2.0000      -0.287498        -7.8232
  91   2.0000      -0.280747        -7.6395
  92   2.0000      -0.264907        -7.2085
  93   2.0000      -0.263664        -7.1747
  94   2.0000      -0.255662        -6.9569
  95   2.0000      -0.230378        -6.2689
  96   2.0000      -0.222811        -6.0630
  97   2.0000      -0.206663        -5.6236
  98   2.0000      -0.203005        -5.5240
  99   2.0000      -0.199132        -5.4187
 100   2.0000      -0.195545        -5.3211
 101   0.0000      -0.042790        -1.1644
 102   0.0000      -0.026573        -0.7231
 103   0.0000      -0.019188        -0.5221
 104   0.0000       0.003268         0.0889
 105   0.0000       0.005655         0.1539

MULLIKEN ATOMIC CHARGES
-----------------------
   0 C :   -0.335321
   1 C :   -0.012055
   2 O :   -0.363599
   3 P :    0.585678
   4 S :   -0.321275
   5 O :   -0.348338
   6 C :   -0.013435
   7 C :   -0.279406
   8 S :   -0.086680
   9 C :   -0.353103
  10 S :   -0.114619
  11 P :    0.630691
  12 S :   -0.284739
  13 O :   -0.366454
  14 C :    0.001024
  15 C :   -0.338052
  16 O :   -0.385360
  17 C :   -0.008587
  18 C :   -0.297420
  19 H :    0.125188
  20 H :    0.106329
  21 H :    0.137940
  22 H :    0.114437
  23 H :    0.110927
  24 H :    0.106337
  25 H :    0.093485
  26 H :    0.120833
  27 H :    0.107310
  28 H :    0.125189
  29 H :    0.179606
  30 H :    0.200672
  31 H :    0.114532
  32 H :    0.116425
  33 H :    0.134350
  34 H :    0.118198
  35 H :    0.126698
  36 H :    0.099787
  37 H :    0.103583
  38 H :    0.117296
  39 H :    0.124400
  40 H :    0.107528
Sum of atomic charges:   -0.0000000

LOEWDIN ATOMIC CHARGES
----------------------
   0 C :   -0.377891
   1 C :   -0.122734
   2 O :   -0.236010
   3 P :    0.569670
   4 S :   -0.320080
   5 O :   -0.231014
   6 C :   -0.120765
   7 C :   -0.350849
   8 S :    0.073382
   9 C :   -0.487557
  10 S :    0.080614
  11 P :    0.574878
  12 S :   -0.271690
  13 O :   -0.229612
  14 C :   -0.111345
  15 C :   -0.367729
  16 O :   -0.248509
  17 C :   -0.119586
  18 C :   -0.366998
  19 H :    0.121519
  20 H :    0.127801
  21 H :    0.116482
  22 H :    0.111373
  23 H :    0.113813
  24 H :    0.109338
  25 H :    0.103088
  26 H :    0.129765
  27 H :    0.128218
  28 H :    0.126334
  29 H :    0.136926
  30 H :    0.121835
  31 H :    0.122014
  32 H :    0.117020
  33 H :    0.129594
  34 H :    0.134903
  35 H :    0.118346
  36 H :    0.100527
  37 H :    0.117495
  38 H :    0.128160
  39 H :    0.120738
  40 H :    0.128534

  Mayer bond orders larger than 0.100000
B(  0-C ,  1-C ) :   1.1637 B(  0-C , 19-H ) :   0.9277 B(  0-C , 20-H ) :   0.9380
B(  0-C , 21-H ) :   0.9244 B(  1-C ,  2-O ) :   0.9015 B(  1-C , 22-H ) :   0.9155
B(  1-C , 23-H ) :   0.9223 B(  2-O ,  3-P ) :   1.1016 B(  3-P ,  4-S ) :   1.6472
B(  3-P ,  5-O ) :   1.1148 B(  3-P ,  8-S ) :   0.9685 B(  5-O ,  6-C ) :   0.9065
B(  6-C ,  7-C ) :   1.1625 B(  6-C , 24-H ) :   0.9147 B(  6-C , 25-H ) :   0.9218
B(  7-C , 26-H ) :   0.9504 B(  7-C , 27-H ) :   0.9416 B(  7-C , 28-H ) :   0.9474
B(  8-S ,  9-C ) :   0.9818 B(  9-C , 10-S ) :   1.0013 B(  9-C , 29-H ) :   0.9102
B(  9-C , 30-H ) :   0.8385 B( 10-S , 11-P ) :   0.9332 B( 10-S , 12-S ) :   0.1223
B( 11-P , 12-S ) :   1.6561 B( 11-P , 13-O ) :   1.1226 B( 11-P , 16-O ) :   1.0569
B( 12-S , 30-H ) :   0.1231 B( 13-O , 14-C ) :   0.8943 B( 14-C , 15-C ) :   1.1710
B( 14-C , 31-H ) :   0.9293 B( 14-C , 32-H ) :   0.9244 B( 15-C , 33-H ) :   0.9383
B( 15-C , 34-H ) :   0.9346 B( 15-C , 35-H ) :   0.9330 B( 16-O , 17-C ) :   0.9163
B( 17-C , 18-C ) :   1.1651 B( 17-C , 36-H ) :   0.9126 B( 17-C , 37-H ) :   0.9353
B( 18-C , 38-H ) :   0.9471 B( 18-C , 39-H ) :   0.9309 B( 18-C , 40-H ) :   0.9377

Dispersion correction           -0.068742498
FINAL SINGLE POINT ENERGY     -2929.514764511295

DIPOLE MOMENT
-------------

Method             : SCF
Type of density    : Electron Density
Multiplicity       :   1
Irrep              :   0
Energy             : -2929.6349776782881236 Eh
Relativity type    :
Basis              : AO
                                X                 Y                 Z
Electronic contribution:     13.513307107      -2.445716740       1.834443667
Nuclear contribution   :    -15.472169702       2.815128660      -1.295907748
                        -----------------------------------------
Total Dipole Moment    :     -1.958862595       0.369411920       0.538535918
                        -----------------------------------------
Magnitude (a.u.)       :      2.064855629
Magnitude (Debye)      :      5.248445909

Rotational constants in cm-1:             0.011410             0.006131             0.005068
Rotational constants in MHz :           342.063523           183.793371           151.932197

                             ****ORCA TERMINATED NORMALLY****
TOTAL RUN TIME: 0 days 0 hours 0 minutes 22 seconds 221 msec
