                         Program Version 6.0.0  -   RELEASE  -
|  1> ! pbe def2-sv(p) def2/J RI DEFGRID1 loosescf d4 GCP(DFT/SV(P)) printgap
|  2> %output
|  3>     printlevel normal
|  4> end
|  5> * xyz 0 1
|  6> C 1.7831063381 -3.0566780398 -0.9907583931
|  7> C 2.491422477 -2.4254593123 0.1904805671
|  8> O 1.9208906126 -1.134974374 0.5039344497
|  9> P 2.5510575039 0.2304690996 -0.0460485442
| 10> S 3.4501438367 0.1287578236 -1.7788452674
| 11> O 3.5552595776 0.7374320741 1.0695639239
| 12> C 3.2228616684 0.8028405953 2.479465253
| 13> C 2.779755971 2.1986678393 2.8686021735
| 14> S 0.858421889 1.4828972564 0.081489135
| 15> C 0.0587651558 0.8723289608 -1.4264118719
| 16> S -0.8868285515 -0.6402215085 -1.1671815017
| 17> P -2.6619465302 0.2379928814 -0.3547457212
| 18> S -2.8588822663 2.1639530273 -0.6561451141
| 19> O -2.7515009491 -0.189789753 1.1761831711
| 20> C -1.9873326417 0.4346044327 2.2224043327
| 21> C -0.8680765625 -0.481968208 2.6788079219
| 22> O -3.8438058216 -0.5780701974 -0.9906389763
| 23> C -3.8447068226 -1.9929370277 -1.3080537897
| 24> C -3.4725149942 -2.8602692283 -0.1258645218
| 25> H 1.951101938 -2.4649542888 -1.8879142308
| 26> H 2.1747747246 -4.0562294405 -1.1485225003
| 27> H 0.7142164525 -3.1087634015 -0.8055255795
| 28> H 3.5591792037 -2.3057409813 -0.0151015432
| 29> H 2.353303648 -3.0138655158 1.0989282981
| 30> H 2.447898962 0.0642753469 2.6969672181
| 31> H 4.1505305177 0.5287952545 2.9848026702
| 32> H 3.5412985578 2.9220019136 2.5905651408
| 33> H 1.8506912852 2.4613371744 2.3666230233
| 34> H 2.6267994884 2.2356851298 3.9426023557
| 35> H 0.8260306806 0.6567118308 -2.1709232695
| 36> H -0.6153201892 1.6615025228 -1.7622773032
| 37> H -1.6008258524 1.3958313835 1.8665710345
| 38> H -2.7016843886 0.6135042814 3.0285853507
| 39> H -0.1648620007 -0.6613034954 1.8689120911
| 40> H -0.3451126283 -0.0130835858 3.5063422579
| 41> H -1.2778822122 -1.4337481644 3.0045344086
| 42> H -4.8702424039 -2.1714479923 -1.6346114173
| 43> H -3.1562541584 -2.1526248129 -2.1417103803
| 44> H -3.5817048521 -3.9039423596 -0.4040955749
| 45> H -2.4392059066 -2.676251221 0.1612705616
| 46> H -4.1189959934 -2.6417327797 0.7198700158
| 47> *
| 48>
| 49>                          ****END OF INPUT****

CARTESIAN COORDINATES (ANGSTROEM)
---------------------------------
  C      1.783106   -3.056678   -0.990758
  C      2.491422   -2.425459    0.190481
  O      1.920891   -1.134974    0.503934
  P      2.551058    0.230469   -0.046049
  S      3.450144    0.128758   -1.778845
  O      3.555260    0.737432    1.069564
  C      3.222862    0.802841    2.479465
  C      2.779756    2.198668    2.868602
  S      0.858422    1.482897    0.081489
  C      0.058765    0.872329   -1.426412
  S     -0.886829   -0.640222   -1.167182
  P     -2.661947    0.237993   -0.354746
  S     -2.858882    2.163953   -0.656145
  O     -2.751501   -0.189790    1.176183
  C     -1.987333    0.434604    2.222404
  C     -0.868077   -0.481968    2.678808
  O     -3.843806   -0.578070   -0.990639
  C     -3.844707   -1.992937   -1.308054
  C     -3.472515   -2.860269   -0.125865
  H      1.951102   -2.464954   -1.887914
  H      2.174775   -4.056229   -1.148523
  H      0.714216   -3.108763   -0.805526
  H      3.559179   -2.305741   -0.015102
  H      2.353304   -3.013866    1.098928
  H      2.447899    0.064275    2.696967
  H      4.150531    0.528795    2.984803
  H      3.541299    2.922002    2.590565
  H      1.850691    2.461337    2.366623
  H      2.626799    2.235685    3.942602
  H      0.826031    0.656712   -2.170923
  H     -0.615320    1.661503   -1.762277
  H     -1.600826    1.395831    1.866571
  H     -2.701684    0.613504    3.028585
  H     -0.164862   -0.661303    1.868912
  H     -0.345113   -0.013084    3.506342
  H     -1.277882   -1.433748    3.004534
  H     -4.870242   -2.171448   -1.634611
  H     -3.156254   -2.152625   -2.141710
  H     -3.581705   -3.903942   -0.404096
  H     -2.439206   -2.676251    0.161271
  H     -4.118996   -2.641733    0.719870

 Total Charge           Charge          ....    0
 Multiplicity           Mult            ....    1
 Number of Electrons    NEL             ....  202
 Basis Dimension        Dim             ....  334

ORBITAL ENERGIES
----------------

  NO   OCC          E(Eh)            E(eV)
   0   2.0000     -88.047818     -2395.9029
   1   2.0000     -88.046027     -2395.8542
   2   2.0000     -87.989283     -2394.3101
   3   2.0000     -87.986406     -2394.2318
   4   2.0000     -76.430404     -2079.7770
   5   2.0000     -76.428540     -2079.7263
   6   2.0000     -18.799706      -511.5660
   7   2.0000     -18.797312      -511.5009
   8   2.0000     -18.795797      -511.4596
   9   2.0000     -18.790471      -511.3147
  10   2.0000      -9.965140      -271.1652
  11   2.0000      -9.963336      -271.1162
  12   2.0000      -9.958201      -270.9764
  13   2.0000      -9.954571      -270.8777
  14   2.0000      -9.951643      -270.7980
  15   2.0000      -9.895638      -269.2740
  16   2.0000      -9.894840      -269.2523
  17   2.0000      -9.884215      -268.9632
  18   2.0000      -9.883888      -268.9543
  19   2.0000      -7.692748      -209.3303
  20   2.0000      -7.690660      -209.2735
  21   2.0000      -7.634581      -207.7475
  22   2.0000      -7.631599      -207.6664
  23   2.0000      -6.428428      -174.9264
  24   2.0000      -6.426000      -174.8603
  25   2.0000      -5.720524      -155.6634
  26   2.0000      -5.718468      -155.6074
  27   2.0000      -5.717409      -155.5786
  28   2.0000      -5.715102      -155.5158
  29   2.0000      -5.709671      -155.3680
  30   2.0000      -5.707831      -155.3180
  31   2.0000      -5.663692      -154.1169
  32   2.0000      -5.660637      -154.0338
  33   2.0000      -5.655266      -153.8876
  34   2.0000      -5.654418      -153.8645
  35   2.0000      -5.652196      -153.8041
  36   2.0000      -5.651626      -153.7886
  37   2.0000      -4.651511      -126.5740
  38   2.0000      -4.649796      -126.5274
  39   2.0000      -4.648757      -126.4991
  40   2.0000      -4.648688      -126.4972
  41   2.0000      -4.647777      -126.4725
  42   2.0000      -4.646341      -126.4334
  43   2.0000      -0.991137       -26.9702
  44   2.0000      -0.989129       -26.9156
  45   2.0000      -0.949821       -25.8460
  46   2.0000      -0.946748       -25.7623
  47   2.0000      -0.768007       -20.8985
  48   2.0000      -0.727187       -19.7878
  49   2.0000      -0.717292       -19.5185
  50   2.0000      -0.698096       -18.9962
  51   2.0000      -0.693085       -18.8598
  52   2.0000      -0.679553       -18.4916
  53   2.0000      -0.652840       -17.7647
  54   2.0000      -0.640328       -17.4242
  55   2.0000      -0.602412       -16.3925
  56   2.0000      -0.593185       -16.1414
  57   2.0000      -0.584822       -15.9138
  58   2.0000      -0.574711       -15.6387
  59   2.0000      -0.561766       -15.2864
  60   2.0000      -0.513679       -13.9779
  61   2.0000      -0.500123       -13.6090
  62   2.0000      -0.481299       -13.0968
  63   2.0000      -0.479982       -13.0610
  64   2.0000      -0.465559       -12.6685
  65   2.0000      -0.452734       -12.3195
  66   2.0000      -0.447872       -12.1872
  67   2.0000      -0.440236       -11.9794
  68   2.0000      -0.435125       -11.8404
  69   2.0000      -0.423979       -11.5371
  70   2.0000      -0.408710       -11.1216
  71   2.0000      -0.402401       -10.9499
  72   2.0000      -0.395359       -10.7583
  73   2.0000      -0.388783       -10.5793
  74   2.0000      -0.383905       -10.4466
  75   2.0000      -0.376174       -10.2362
  76   2.0000      -0.370027       -10.0689
  77   2.0000      -0.364027        -9.9057
  78   2.0000      -0.360261        -9.8032
  79   2.0000      -0.360075        -9.7981
  80   2.0000      -0.358793        -9.7633
  81   2.0000      -0.351504        -9.5649
  82   2.0000      -0.348033        -9.4705
  83   2.0000      -0.345017        -9.3884
  84   2.0000      -0.334255        -9.0955
  85   2.0000      -0.322116        -8.7652
  86   2.0000      -0.316198        -8.6042
  87   2.0000      -0.309059        -8.4099
  88   2.0000      -0.295583        -8.0432
  89   2.0000      -0.293148        -7.9770
  90   2.0000      -0.288929        -7.8622
  91   2.0000      -0.281117        -7.6496
  92   2.0000      -0.278351        -7.5743
  93   2.0000      -0.276462        -7.5229
  94   2.0000      -0.259100        -7.0505
  95   2.0000      -0.237011        -6.4494
  96   2.0000      -0.221546        -6.0286
  97   2.0000      -0.212684        -5.7874
  98   2.0000      -0.204931        -5.5765
  99   2.0000      -0.202434        -5.5085
 100   2.0000      -0.201257        -5.4765
 101   0.0000      -0.047446        -1.2911
 102   0.0000      -0.031474        -0.8564
 103   0.0000      -0.012506        -0.3403
 104   0.0000       0.000615         0.0167
 105   0.0000       0.003899         0.1061

MULLIKEN ATOMIC CHARGES
-----------------------
   0 C :   -0.300695
   1 C :   -0.006078
   2 O :   -0.383413
   3 P :    0.614480
   4 S :   -0.304376
   5 O :   -0.363223
   6 C :   -0.035128
   7 C :   -0.304277
   8 S :   -0.099053
   9 C :   -0.339963
  10 S :   -0.121226
  11 P :    0.597629
  12 S :   -0.306833
  13 O :   -0.372252
  14 C :   -0.003083
  15 C :   -0.334693
  16 O :   -0.358263
  17 C :   -0.007577
  18 C :   -0.322122
  19 H :    0.123066
  20 H :    0.108963
  21 H :    0.123754
  22 H :    0.107938
  23 H :    0.102493
  24 H :    0.114375
  25 H :    0.113561
  26 H :    0.128004
  27 H :    0.137642
  28 H :    0.113607
  29 H :    0.186830
  30 H :    0.201213
  31 H :    0.106094
  32 H :    0.105302
  33 H :    0.156113
  34 H :    0.104306
  35 H :    0.108178
  36 H :    0.116183
  37 H :    0.116966
  38 H :    0.116492
  39 H :    0.131195
  40 H :    0.127870
Sum of atomic charges:   -0.0000000

LOEWDIN ATOMIC CHARGES
----------------------
   0 C :   -0.366189
   1 C :   -0.115898
   2 O :   -0.253998
   3 P :    0.571158
   4 S :   -0.306040
   5 O :   -0.241833
   6 C :   -0.117465
   7 C :   -0.360978
   8 S :    0.098971
   9 C :   -0.486054
  10 S :    0.076734
  11 P :    0.568926
  12 S :   -0.303627
  13 O :   -0.244787
  14 C :   -0.118067
  15 C :   -0.372155
  16 O :   -0.232995
  17 C :   -0.112002
  18 C :   -0.368090
  19 H :    0.123481
  20 H :    0.129348
  21 H :    0.119668
  22 H :    0.110693
  23 H :    0.116404
  24 H :    0.111374
  25 H :    0.123117
  26 H :    0.133000
  27 H :    0.119420
  28 H :    0.131959
  29 H :    0.129041
  30 H :    0.131204
  31 H :    0.101750
  32 H :    0.118138
  33 H :    0.118484
  34 H :    0.124540
  35 H :    0.122660
  36 H :    0.125545
  37 H :    0.111772
  38 H :    0.132771
  39 H :    0.118475
  40 H :    0.131543

  Mayer bond orders larger than 0.100000
B(  0-C ,  1-C ) :   1.1735 B(  0-C , 19-H ) :   0.9361 B(  0-C , 20-H ) :   0.9381
B(  0-C , 21-H ) :   0.9408 B(  1-C ,  2-O ) :   0.8899 B(  1-C , 22-H ) :   0.9133
B(  1-C , 23-H ) :   0.9329 B(  2-O ,  3-P ) :   1.0648 B(  3-P ,  4-S ) :   1.6297
B(  3-P ,  5-O ) :   1.1315 B(  3-P ,  8-S ) :   0.9687 B(  5-O ,  6-C ) :   0.9004
B(  6-C ,  7-C ) :   1.1690 B(  6-C , 24-H ) :   0.9132 B(  6-C , 25-H ) :   0.9329
B(  7-C , 26-H ) :   0.9453 B(  7-C , 27-H ) :   0.9334 B(  7-C , 28-H ) :   0.9379
B(  8-S ,  9-C ) :   0.9990 B(  9-C , 10-S ) :   1.0204 B(  9-C , 29-H ) :   0.8641
B(  9-C , 30-H ) :   0.8612 B( 10-S , 11-P ) :   0.9290 B( 10-S , 12-S ) :   0.1112
B( 11-P , 12-S ) :   1.6410 B( 11-P , 13-O ) :   1.0889 B( 11-P , 16-O ) :   1.1546
B( 13-O , 14-C ) :   0.9070 B( 14-C , 15-C ) :   1.1628 B( 14-C , 31-H ) :   0.9021
B( 14-C , 32-H ) :   0.9347 B( 15-C , 33-H ) :   0.9172 B( 15-C , 34-H ) :   0.9381
B( 15-C , 35-H ) :   0.9432 B( 16-O , 17-C ) :   0.9008 B( 17-C , 18-C ) :   1.1683
B( 17-C , 36-H ) :   0.9339 B( 17-C , 37-H ) :   0.9223 B( 18-C , 38-H ) :   0.9343
B( 18-C , 39-H ) :   0.9355 B( 18-C , 40-H ) :   0.9417

Dispersion correction           -0.066044366
FINAL SINGLE POINT ENERGY     -2929.516489955646

DIPOLE MOMENT
-------------

Method             : SCF
Type of density    : Electron Density
Multiplicity       :   1
Irrep              :   0
Energy             : -2929.6369072912621050 Eh
Relativity type    :
Basis              : AO
                                X                 Y                 Z
Electronic contribution:     -1.255973794      15.717092687     -15.618109454
Nuclear contribution   :      1.308102671     -17.473769804      17.247354268
                        -----------------------------------------
Total Dipole Moment    :      0.052128876      -1.756677117       1.629244814
                        -----------------------------------------
Magnitude (a.u.)       :      2.396470442
Magnitude (Debye)      :      6.091343775

Rotational constants in cm-1:             0.011506             0.005252             0.004788
Rotational constants in MHz :           344.940700           157.454488           143.532264

                             ****ORCA TERMINATED NORMALLY****
TOTAL RUN TIME: 0 days 0 hours 0 minutes 21 seconds 959 msec
