                         Program Version 6.0.0  -   RELEASE  -
|  1> ! pbe def2-sv(p) def2/J RI DEFGRID1 loosescf d4 GCP(DFT/SV(P)) printgap
|  2> %output
|  3>     printlevel normal
|  4> end
|  5> * xyz 0 1
|  6> C 3.3244645162 -0.1570776386 -2.3241424165
|  7> C 2.1678202916 0.7897292492 -2.0961112288
|  8> O 1.7602848801 0.9522587904 -0.7109836713
|  9> P 2.0369882154 0.1137890713 0.5880026905
| 10> S 1.1819901274 1.0317569474 2.092691541
| 11> O 3.6198080699 0.0315592576 0.6618643144
| 12> C 4.3668079191 -0.9469786023 1.4066192832
| 13> C 3.9471916886 -1.0303799066 2.85912892
| 14> S 1.4868914906 -1.9247275236 0.2427369165
| 15> C -0.1846675165 -1.7334041534 -0.4086666673
| 16> S -1.3919188948 -1.079097056 0.8008978891
| 17> P -2.3943263525 0.3346757103 -0.4336809565
| 18> S -1.4681829195 0.8215193531 -2.0977681621
| 19> O -2.8607466445 1.4751008939 0.5535889423
| 20> C -2.0335607138 2.3268108477 1.3608403662
| 21> C -1.1920585151 3.2719726611 0.5273537697
| 22> O -3.8569048195 -0.2294853926 -0.6615840288
| 23> C -4.2360726712 -0.9740395418 -1.8302235682
| 24> C -3.6355262054 -2.3660350327 -1.8370031779
| 25> H 3.5255073863 -0.1926048823 -3.3909465591
| 26> H 4.2134272933 0.1942050521 -1.8075280758
| 27> H 3.0821647838 -1.1602167509 -1.9805771233
| 28> H 1.2732338984 0.4690584075 -2.6378972938
| 29> H 2.4221518265 1.8045512674 -2.4086051395
| 30> H 4.2439806361 -1.915539518 0.9140948154
| 31> H 5.400111912 -0.6087016366 1.310611575
| 32> H 2.9176931877 -1.3787482802 2.9340782688
| 33> H 4.5944644324 -1.7268950343 3.3821712678
| 34> H 4.0127084783 -0.0526140318 3.3310206214
| 35> H -0.485085291 -2.7415144719 -0.6853780498
| 36> H -0.1796056936 -1.0644753381 -1.273866794
| 37> H -2.7536291058 2.8733187614 1.972570097
| 38> H -1.3968939733 1.7150305286 2.0067354256
| 39> H -0.6926225951 3.9746184031 1.1867683828
| 40> H -0.4311590275 2.718868767 -0.0222789574
| 41> H -1.8156248499 3.8129818307 -0.1802852821
| 42> H -5.3250072146 -1.005842303 -1.7750512938
| 43> H -3.926404734 -0.4153404545 -2.719533918
| 44> H -2.5599380382 -2.3034710015 -1.9937487555
| 45> H -3.830679358 -2.8632832985 -0.8901615102
| 46> H -4.0754742086 -2.9430129467 -2.6440956949
| 47> *
| 48>
| 49>                          ****END OF INPUT****

CARTESIAN COORDINATES (ANGSTROEM)
---------------------------------
  C      3.324465   -0.157078   -2.324142
  C      2.167820    0.789729   -2.096111
  O      1.760285    0.952259   -0.710984
  P      2.036988    0.113789    0.588003
  S      1.181990    1.031757    2.092692
  O      3.619808    0.031559    0.661864
  C      4.366808   -0.946979    1.406619
  C      3.947192   -1.030380    2.859129
  S      1.486891   -1.924728    0.242737
  C     -0.184668   -1.733404   -0.408667
  S     -1.391919   -1.079097    0.800898
  P     -2.394326    0.334676   -0.433681
  S     -1.468183    0.821519   -2.097768
  O     -2.860747    1.475101    0.553589
  C     -2.033561    2.326811    1.360840
  C     -1.192059    3.271973    0.527354
  O     -3.856905   -0.229485   -0.661584
  C     -4.236073   -0.974040   -1.830224
  C     -3.635526   -2.366035   -1.837003
  H      3.525507   -0.192605   -3.390947
  H      4.213427    0.194205   -1.807528
  H      3.082165   -1.160217   -1.980577
  H      1.273234    0.469058   -2.637897
  H      2.422152    1.804551   -2.408605
  H      4.243981   -1.915540    0.914095
  H      5.400112   -0.608702    1.310612
  H      2.917693   -1.378748    2.934078
  H      4.594464   -1.726895    3.382171
  H      4.012708   -0.052614    3.331021
  H     -0.485085   -2.741514   -0.685378
  H     -0.179606   -1.064475   -1.273867
  H     -2.753629    2.873319    1.972570
  H     -1.396894    1.715031    2.006735
  H     -0.692623    3.974618    1.186768
  H     -0.431159    2.718869   -0.022279
  H     -1.815625    3.812982   -0.180285
  H     -5.325007   -1.005842   -1.775051
  H     -3.926405   -0.415340   -2.719534
  H     -2.559938   -2.303471   -1.993749
  H     -3.830679   -2.863283   -0.890162
  H     -4.075474   -2.943013   -2.644096

 Total Charge           Charge          ....    0
 Multiplicity           Mult            ....    1
 Number of Electrons    NEL             ....  202
 Basis Dimension        Dim             ....  334

ORBITAL ENERGIES
----------------

  NO   OCC          E(Eh)            E(eV)
   0   2.0000     -88.048849     -2395.9310
   1   2.0000     -88.041612     -2395.7340
   2   2.0000     -87.991061     -2394.3585
   3   2.0000     -87.975336     -2393.9306
   4   2.0000     -76.428729     -2079.7315
   5   2.0000     -76.426291     -2079.6651
   6   2.0000     -18.794659      -511.4287
   7   2.0000     -18.792276      -511.3638
   8   2.0000     -18.785773      -511.1869
   9   2.0000     -18.783473      -511.1243
  10   2.0000      -9.961949      -271.0784
  11   2.0000      -9.960959      -271.0515
  12   2.0000      -9.955479      -270.9024
  13   2.0000      -9.950781      -270.7745
  14   2.0000      -9.939401      -270.4649
  15   2.0000      -9.888204      -269.0717
  16   2.0000      -9.887608      -269.0555
  17   2.0000      -9.884462      -268.9699
  18   2.0000      -9.864855      -268.4364
  19   2.0000      -7.693674      -209.3555
  20   2.0000      -7.686427      -209.1583
  21   2.0000      -7.635813      -207.7810
  22   2.0000      -7.620514      -207.3647
  23   2.0000      -6.425254      -174.8400
  24   2.0000      -6.423444      -174.7908
  25   2.0000      -5.721456      -155.6887
  26   2.0000      -5.718101      -155.5974
  27   2.0000      -5.714308      -155.4942
  28   2.0000      -5.711029      -155.4050
  29   2.0000      -5.710861      -155.4004
  30   2.0000      -5.703362      -155.1964
  31   2.0000      -5.664477      -154.1383
  32   2.0000      -5.656590      -153.9236
  33   2.0000      -5.656056      -153.9091
  34   2.0000      -5.649692      -153.7359
  35   2.0000      -5.640862      -153.4957
  36   2.0000      -5.640631      -153.4894
  37   2.0000      -4.648405      -126.4895
  38   2.0000      -4.647506      -126.4651
  39   2.0000      -4.645649      -126.4145
  40   2.0000      -4.645431      -126.4086
  41   2.0000      -4.644899      -126.3941
  42   2.0000      -4.644096      -126.3723
  43   2.0000      -0.987676       -26.8760
  44   2.0000      -0.984492       -26.7894
  45   2.0000      -0.946157       -25.7462
  46   2.0000      -0.938748       -25.5446
  47   2.0000      -0.762967       -20.7614
  48   2.0000      -0.721555       -19.6345
  49   2.0000      -0.711872       -19.3710
  50   2.0000      -0.693919       -18.8825
  51   2.0000      -0.682378       -18.5684
  52   2.0000      -0.673173       -18.3180
  53   2.0000      -0.652500       -17.7554
  54   2.0000      -0.638610       -17.3775
  55   2.0000      -0.596907       -16.2427
  56   2.0000      -0.589884       -16.0516
  57   2.0000      -0.583577       -15.8799
  58   2.0000      -0.569490       -15.4966
  59   2.0000      -0.563078       -15.3221
  60   2.0000      -0.497247       -13.5308
  61   2.0000      -0.489194       -13.3116
  62   2.0000      -0.471539       -12.8312
  63   2.0000      -0.463117       -12.6021
  64   2.0000      -0.459694       -12.5089
  65   2.0000      -0.447298       -12.1716
  66   2.0000      -0.440588       -11.9890
  67   2.0000      -0.430553       -11.7160
  68   2.0000      -0.425974       -11.5913
  69   2.0000      -0.417013       -11.3475
  70   2.0000      -0.412953       -11.2370
  71   2.0000      -0.408987       -11.1291
  72   2.0000      -0.402529       -10.9534
  73   2.0000      -0.393459       -10.7066
  74   2.0000      -0.389889       -10.6094
  75   2.0000      -0.367277        -9.9941
  76   2.0000      -0.358984        -9.7685
  77   2.0000      -0.354203        -9.6384
  78   2.0000      -0.350954        -9.5499
  79   2.0000      -0.349254        -9.5037
  80   2.0000      -0.346492        -9.4285
  81   2.0000      -0.342917        -9.3312
  82   2.0000      -0.339875        -9.2485
  83   2.0000      -0.332239        -9.0407
  84   2.0000      -0.325460        -8.8562
  85   2.0000      -0.324801        -8.8383
  86   2.0000      -0.309108        -8.4112
  87   2.0000      -0.296743        -8.0748
  88   2.0000      -0.294183        -8.0051
  89   2.0000      -0.289413        -7.8753
  90   2.0000      -0.282116        -7.6768
  91   2.0000      -0.277367        -7.5475
  92   2.0000      -0.265525        -7.2253
  93   2.0000      -0.259697        -7.0667
  94   2.0000      -0.257730        -7.0132
  95   2.0000      -0.243730        -6.6322
  96   2.0000      -0.220634        -6.0038
  97   2.0000      -0.209151        -5.6913
  98   2.0000      -0.205117        -5.5815
  99   2.0000      -0.191765        -5.2182
 100   2.0000      -0.183402        -4.9906
 101   0.0000      -0.044183        -1.2023
 102   0.0000      -0.035195        -0.9577
 103   0.0000      -0.020448        -0.5564
 104   0.0000      -0.000206        -0.0056
 105   0.0000       0.014132         0.3846

MULLIKEN ATOMIC CHARGES
-----------------------
   0 C :   -0.331170
   1 C :    0.001806
   2 O :   -0.356145
   3 P :    0.609880
   4 S :   -0.309574
   5 O :   -0.376716
   6 C :   -0.016106
   7 C :   -0.309513
   8 S :   -0.125127
   9 C :   -0.371200
  10 S :   -0.076613
  11 P :    0.615050
  12 S :   -0.340299
  13 O :   -0.354945
  14 C :   -0.016395
  15 C :   -0.312725
  16 O :   -0.356719
  17 C :    0.001147
  18 C :   -0.324279
  19 H :    0.115978
  20 H :    0.127869
  21 H :    0.118581
  22 H :    0.126479
  23 H :    0.112016
  24 H :    0.114293
  25 H :    0.111923
  26 H :    0.129441
  27 H :    0.111579
  28 H :    0.130110
  29 H :    0.190523
  30 H :    0.199109
  31 H :    0.100236
  32 H :    0.131672
  33 H :    0.106827
  34 H :    0.140661
  35 H :    0.108841
  36 H :    0.107181
  37 H :    0.112352
  38 H :    0.119037
  39 H :    0.122420
  40 H :    0.112518
Sum of atomic charges:   -0.0000000

LOEWDIN ATOMIC CHARGES
----------------------
   0 C :   -0.377311
   1 C :   -0.104904
   2 O :   -0.229053
   3 P :    0.568389
   4 S :   -0.304168
   5 O :   -0.241909
   6 C :   -0.115625
   7 C :   -0.370197
   8 S :    0.066674
   9 C :   -0.485621
  10 S :    0.081648
  11 P :    0.572292
  12 S :   -0.301947
  13 O :   -0.224965
  14 C :   -0.118695
  15 C :   -0.369861
  16 O :   -0.236869
  17 C :   -0.118413
  18 C :   -0.367814
  19 H :    0.133163
  20 H :    0.127244
  21 H :    0.115302
  22 H :    0.109972
  23 H :    0.123682
  24 H :    0.107600
  25 H :    0.122558
  26 H :    0.122282
  27 H :    0.130186
  28 H :    0.131833
  29 H :    0.135045
  30 H :    0.117606
  31 H :    0.117182
  32 H :    0.105591
  33 H :    0.129574
  34 H :    0.122131
  35 H :    0.122013
  36 H :    0.120185
  37 H :    0.109167
  38 H :    0.118084
  39 H :    0.127265
  40 H :    0.130687

  Mayer bond orders larger than 0.100000
B(  0-C ,  1-C ) :   1.1702 B(  0-C , 19-H ) :   0.9325 B(  0-C , 20-H ) :   0.9384
B(  0-C , 21-H ) :   0.9325 B(  1-C ,  2-O ) :   0.8831 B(  1-C , 22-H ) :   0.9136
B(  1-C , 23-H ) :   0.9366 B(  2-O ,  3-P ) :   1.1473 B(  3-P ,  4-S ) :   1.6593
B(  3-P ,  5-O ) :   1.0842 B(  3-P ,  8-S ) :   0.9205 B(  4-S ,  8-S ) :   0.1082
B(  5-O ,  6-C ) :   0.9111 B(  6-C ,  7-C ) :   1.1683 B(  6-C , 24-H ) :   0.9243
B(  6-C , 25-H ) :   0.9329 B(  7-C , 26-H ) :   0.9324 B(  7-C , 27-H ) :   0.9343
B(  7-C , 28-H ) :   0.9412 B(  8-S ,  9-C ) :   1.0071 B(  9-C , 10-S ) :   1.0031
B(  9-C , 29-H ) :   0.9014 B(  9-C , 30-H ) :   0.8409 B( 10-S , 11-P ) :   0.9620
B( 10-S , 12-S ) :   0.1241 B( 11-P , 12-S ) :   1.5665 B( 11-P , 13-O ) :   1.1608
B( 11-P , 16-O ) :   1.1132 B( 12-S , 30-H ) :   0.1200 B( 13-O , 14-C ) :   0.9013
B( 14-C , 15-C ) :   1.1718 B( 14-C , 31-H ) :   0.9334 B( 14-C , 32-H ) :   0.9096
B( 15-C , 33-H ) :   0.9367 B( 15-C , 34-H ) :   0.9276 B( 15-C , 35-H ) :   0.9439
B( 16-O , 17-C ) :   0.9249 B( 17-C , 18-C ) :   1.1599 B( 17-C , 36-H ) :   0.9340
B( 17-C , 37-H ) :   0.9141 B( 18-C , 38-H ) :   0.9346 B( 18-C , 39-H ) :   0.9447
B( 18-C , 40-H ) :   0.9384

Dispersion correction           -0.067822605
FINAL SINGLE POINT ENERGY     -2929.507791422145

DIPOLE MOMENT
-------------

Method             : SCF
Type of density    : Electron Density
Multiplicity       :   1
Irrep              :   0
Energy             : -2929.6258973092981250 Eh
Relativity type    :
Basis              : AO
                                X                 Y                 Z
Electronic contribution:     -7.267537139       1.908586033       6.305825841
Nuclear contribution   :      8.010514328      -2.970294897      -7.086389941
                        -----------------------------------------
Total Dipole Moment    :      0.742977189      -1.061708863      -0.780564100
                        -----------------------------------------
Magnitude (a.u.)       :      1.512785883
Magnitude (Debye)      :      3.845196132

Rotational constants in cm-1:             0.012451             0.005291             0.004983
Rotational constants in MHz :           373.272447           158.621271           149.393590

                             ****ORCA TERMINATED NORMALLY****
TOTAL RUN TIME: 0 days 0 hours 0 minutes 21 seconds 511 msec
