                         Program Version 6.0.0  -   RELEASE  -
|  1> ! pbe def2-sv(p) def2/J RI DEFGRID1 loosescf d4 GCP(DFT/SV(P)) printgap
|  2> %output
|  3>     printlevel normal
|  4> end
|  5> * xyz 0 1
|  6> C -1.8527865784 -1.4099374591 -0.0001777379
|  7> C -0.5280212684 -0.7124635929 0.0001861863
|  8> C 0.6708427788 -1.40488339 0.0002192487
|  9> C 1.8873323006 -0.7409675499 -4.10732e-05
| 10> C 1.9128112306 0.6409072966 -0.0001095587
| 11> C 0.726530126 1.3547645623 -1.6677e-05
| 12> C -0.4903199851 0.6875980314 0.0001074306
| 13> O -1.6801860474 1.3532061649 8.0607e-06
| 14> H -2.4247277952 -1.1228355321 -0.8813674485
| 15> H -1.7229954377 -2.487991054 0.0077451367
| 16> H -2.4316037912 -1.1104234444 0.8722740754
| 17> H 0.6501795861 -2.4848786463 -7.5495e-05
| 18> H 2.8089685267 -1.3023600637 -0.0003348856
| 19> H 2.8538568629 1.1696830299 -0.0003960921
| 20> H 0.7466364895 2.4354759797 -0.0002818488
| 21> H -1.5316284296 2.3102289523 0.0003088606
| 22> *
| 23>
| 24>                          ****END OF INPUT****

CARTESIAN COORDINATES (ANGSTROEM)
---------------------------------
  C     -1.852787   -1.409937   -0.000178
  C     -0.528021   -0.712464    0.000186
  C      0.670843   -1.404883    0.000219
  C      1.887332   -0.740968   -0.000041
  C      1.912811    0.640907   -0.000110
  C      0.726530    1.354765   -0.000017
  C     -0.490320    0.687598    0.000107
  O     -1.680186    1.353206    0.000008
  H     -2.424728   -1.122836   -0.881367
  H     -1.722995   -2.487991    0.007745
  H     -2.431604   -1.110423    0.872274
  H      0.650180   -2.484879   -0.000075
  H      2.808969   -1.302360   -0.000335
  H      2.853857    1.169683   -0.000396
  H      0.746636    2.435476   -0.000282
  H     -1.531628    2.310229    0.000309

 Total Charge           Charge          ....    0
 Multiplicity           Mult            ....    1
 Number of Electrons    NEL             ....   58
 Basis Dimension        Dim             ....  128

ORBITAL ENERGIES
----------------

  NO   OCC          E(Eh)            E(eV)
   0   2.0000     -18.781608      -511.0735
   1   2.0000      -9.946142      -270.6483
   2   2.0000      -9.893991      -269.2292
   3   2.0000      -9.888416      -269.0775
   4   2.0000      -9.887692      -269.0578
   5   2.0000      -9.886173      -269.0165
   6   2.0000      -9.881225      -268.8818
   7   2.0000      -9.876197      -268.7450
   8   2.0000      -0.962277       -26.1849
   9   2.0000      -0.769812       -20.9477
  10   2.0000      -0.693443       -18.8696
  11   2.0000      -0.659619       -17.9491
  12   2.0000      -0.608716       -16.5640
  13   2.0000      -0.563662       -15.3380
  14   2.0000      -0.519985       -14.1495
  15   2.0000      -0.488459       -13.2916
  16   2.0000      -0.434375       -11.8199
  17   2.0000      -0.420760       -11.4495
  18   2.0000      -0.383831       -10.4446
  19   2.0000      -0.381345       -10.3769
  20   2.0000      -0.362547        -9.8654
  21   2.0000      -0.344213        -9.3665
  22   2.0000      -0.338600        -9.2138
  23   2.0000      -0.331952        -9.0329
  24   2.0000      -0.305447        -8.3116
  25   2.0000      -0.293623        -7.9899
  26   2.0000      -0.288222        -7.8429
  27   2.0000      -0.219359        -5.9690
  28   2.0000      -0.190454        -5.1825
  29   0.0000      -0.027111        -0.7377
  30   0.0000      -0.015167        -0.4127
  31   0.0000       0.021935         0.5969
  32   0.0000       0.050422         1.3720
  33   0.0000       0.066211         1.8017

MULLIKEN ATOMIC CHARGES
-----------------------
   0 C :   -0.204693
   1 C :   -0.024432
   2 C :   -0.142905
   3 C :   -0.042385
   4 C :   -0.054240
   5 C :   -0.166847
   6 C :    0.181729
   7 O :   -0.337293
   8 H :    0.115177
   9 H :    0.093586
  10 H :    0.115084
  11 H :    0.034818
  12 H :    0.044230
  13 H :    0.049136
  14 H :    0.021756
  15 H :    0.317277
Sum of atomic charges:   -0.0000000

LOEWDIN ATOMIC CHARGES
----------------------
   0 C :   -0.319048
   1 C :   -0.070857
   2 C :   -0.119235
   3 C :   -0.147315
   4 C :   -0.123696
   5 C :   -0.176713
   6 C :    0.024000
   7 O :   -0.235968
   8 H :    0.132403
   9 H :    0.122036
  10 H :    0.132332
  11 H :    0.121589
  12 H :    0.121393
  13 H :    0.122498
  14 H :    0.118288
  15 H :    0.298294

  Mayer bond orders larger than 0.100000
B(  0-C ,  1-C ) :   1.1114 B(  0-C ,  8-H ) :   0.9330 B(  0-C ,  9-H ) :   0.9390
B(  0-C , 10-H ) :   0.9329 B(  1-C ,  2-C ) :   1.4338 B(  1-C ,  6-C ) :   1.3746
B(  2-C ,  3-C ) :   1.3393 B(  2-C , 11-H ) :   0.9610 B(  3-C ,  4-C ) :   1.3824
B(  3-C , 12-H ) :   0.9662 B(  4-C ,  5-C ) :   1.3571 B(  4-C , 13-H ) :   0.9630
B(  5-C ,  6-C ) :   1.3298 B(  5-C , 14-H ) :   0.9580 B(  6-C ,  7-O ) :   1.2151
B(  7-O , 15-H ) :   0.8405

Dispersion correction           -0.015676555
FINAL SINGLE POINT ENERGY      -346.023716439299

DIPOLE MOMENT
-------------

Method             : SCF
Type of density    : Electron Density
Multiplicity       :   1
Irrep              :   0
Energy             :  -346.0736470077230820 Eh
Relativity type    :
Basis              : AO
                                X                 Y                 Z
Electronic contribution:      1.007532094       2.916634936       0.001478199
Nuclear contribution   :     -1.011252468      -2.412695128      -0.001996030
                        -----------------------------------------
Total Dipole Moment    :     -0.003720374       0.503939808      -0.000517832
                        -----------------------------------------
Magnitude (a.u.)       :      0.503953807
Magnitude (Debye)      :      1.280948779

Rotational constants in cm-1:             0.110034             0.074245             0.044697
Rotational constants in MHz :          3298.748031          2225.819076          1339.972478

                             ****ORCA TERMINATED NORMALLY****
TOTAL RUN TIME: 0 days 0 hours 0 minutes 9 seconds 249 msec
