                         Program Version 6.0.0  -   RELEASE  -
|  1> ! pbe def2-sv(p) def2/J RI DEFGRID1 loosescf d4 GCP(DFT/SV(P)) printgap
|  2> %output
|  3>     printlevel normal
|  4> end
|  5> * xyz 0 1
|  6> C 4.5133294859 0.9004577497 -1.9292593833
|  7> C 4.6439349898 0.1536418193 -0.6188861687
|  8> O 3.5894449861 0.4701574574 0.3101560714
|  9> P 2.0388844486 0.2950480393 0.0233427532
| 10> S 1.1352716396 1.6697240864 -1.0456891215
| 11> O 1.4397898851 0.3061763753 1.4811957588
| 12> C 2.0392712789 -0.2671237102 2.6704207951
| 13> C 2.1694580971 -1.7745078352 2.5999389153
| 14> S 1.9073349613 -1.6587137405 -0.8094055395
| 15> C 0.1521895157 -1.6277629928 -1.2073578343
| 16> S -0.9086653209 -1.6651207158 0.2820973505
| 17> P -2.0499823053 0.0736725227 -0.004451756
| 18> S -2.3049490413 0.7085091645 -1.8456987004
| 19> O -1.3580376085 1.0536071795 1.0303313682
| 20> C -1.5565685651 2.478882859 0.9988560535
| 21> C -2.9840805183 2.8653178228 1.3211351521
| 22> O -3.4033327742 -0.2617381285 0.7641556746
| 23> C -4.5377535106 -0.8594789585 0.114321662
| 24> C -4.2770325552 -2.2950267024 -0.2946614367
| 25> H 5.3717461333 0.6822807272 -2.5562024867
| 26> H 3.6069224198 0.5928583694 -2.448862675
| 27> H 4.4581299216 1.9721450388 -1.7526481204
| 28> H 5.5501807955 0.442317024 -0.0835083461
| 29> H 4.6369397307 -0.9264536109 -0.7879926067
| 30> H 3.010724252 0.2070372926 2.82116524
| 31> H 1.3491361102 0.0358084447 3.4596758626
| 32> H 2.9077277576 -2.0634586872 1.8553583081
| 33> H 2.486216064 -2.142531761 3.5709710732
| 34> H 1.2135131238 -2.2260095725 2.3427217507
| 35> H -0.0419520022 -2.5282595543 -1.7840797945
| 36> H -0.0858132263 -0.7290363966 -1.7835595902
| 37> H -0.8517304276 2.8537187459 1.742904924
| 38> H -1.2632318925 2.8460105366 0.0091315605
| 39> H -3.6484790831 2.5225837328 0.5286282789
| 40> H -3.2916211555 2.4136753441 2.2607727652
| 41> H -3.0528873379 3.9461142308 1.395562035
| 42> H -5.3311689976 -0.7901962843 0.8596940916
| 43> H -4.7922770225 -0.2528680323 -0.7608842724
| 44> H -5.1998942087 -2.7367545892 -0.6565622544
| 45> H -3.5356355407 -2.3250163606 -1.0919233253
| 46> H -3.9074877355 -2.8685869118 0.5515770427
| 47> *
| 48>
| 49>                          ****END OF INPUT****

CARTESIAN COORDINATES (ANGSTROEM)
---------------------------------
  C      4.513329    0.900458   -1.929259
  C      4.643935    0.153642   -0.618886
  O      3.589445    0.470157    0.310156
  P      2.038884    0.295048    0.023343
  S      1.135272    1.669724   -1.045689
  O      1.439790    0.306176    1.481196
  C      2.039271   -0.267124    2.670421
  C      2.169458   -1.774508    2.599939
  S      1.907335   -1.658714   -0.809406
  C      0.152190   -1.627763   -1.207358
  S     -0.908665   -1.665121    0.282097
  P     -2.049982    0.073673   -0.004452
  S     -2.304949    0.708509   -1.845699
  O     -1.358038    1.053607    1.030331
  C     -1.556569    2.478883    0.998856
  C     -2.984081    2.865318    1.321135
  O     -3.403333   -0.261738    0.764156
  C     -4.537754   -0.859479    0.114322
  C     -4.277033   -2.295027   -0.294661
  H      5.371746    0.682281   -2.556202
  H      3.606922    0.592858   -2.448863
  H      4.458130    1.972145   -1.752648
  H      5.550181    0.442317   -0.083508
  H      4.636940   -0.926454   -0.787993
  H      3.010724    0.207037    2.821165
  H      1.349136    0.035808    3.459676
  H      2.907728   -2.063459    1.855358
  H      2.486216   -2.142532    3.570971
  H      1.213513   -2.226010    2.342722
  H     -0.041952   -2.528260   -1.784080
  H     -0.085813   -0.729036   -1.783560
  H     -0.851730    2.853719    1.742905
  H     -1.263232    2.846011    0.009132
  H     -3.648479    2.522584    0.528628
  H     -3.291621    2.413675    2.260773
  H     -3.052887    3.946114    1.395562
  H     -5.331169   -0.790196    0.859694
  H     -4.792277   -0.252868   -0.760884
  H     -5.199894   -2.736755   -0.656562
  H     -3.535636   -2.325016   -1.091923
  H     -3.907488   -2.868587    0.551577

 Total Charge           Charge          ....    0
 Multiplicity           Mult            ....    1
 Number of Electrons    NEL             ....  202
 Basis Dimension        Dim             ....  334

ORBITAL ENERGIES
----------------

  NO   OCC          E(Eh)            E(eV)
   0   2.0000     -88.044494     -2395.8125
   1   2.0000     -88.039211     -2395.6687
   2   2.0000     -87.981215     -2394.0906
   3   2.0000     -87.975632     -2393.9387
   4   2.0000     -76.424231     -2079.6090
   5   2.0000     -76.419187     -2079.4718
   6   2.0000     -18.797727      -511.5122
   7   2.0000     -18.786411      -511.2042
   8   2.0000     -18.785471      -511.1786
   9   2.0000     -18.776239      -510.9274
  10   2.0000      -9.961755      -271.0731
  11   2.0000      -9.954270      -270.8694
  12   2.0000      -9.953079      -270.8370
  13   2.0000      -9.947245      -270.6783
  14   2.0000      -9.936362      -270.3822
  15   2.0000      -9.884538      -268.9719
  16   2.0000      -9.883469      -268.9429
  17   2.0000      -9.880230      -268.8547
  18   2.0000      -9.874074      -268.6872
  19   2.0000      -7.689522      -209.2425
  20   2.0000      -7.684345      -209.1016
  21   2.0000      -7.626090      -207.5165
  22   2.0000      -7.620559      -207.3660
  23   2.0000      -6.421241      -174.7308
  24   2.0000      -6.416714      -174.6077
  25   2.0000      -5.717289      -155.5753
  26   2.0000      -5.713906      -155.4833
  27   2.0000      -5.712241      -155.4380
  28   2.0000      -5.708902      -155.3471
  29   2.0000      -5.706733      -155.2881
  30   2.0000      -5.701140      -155.1359
  31   2.0000      -5.654928      -153.8784
  32   2.0000      -5.649638      -153.7345
  33   2.0000      -5.646912      -153.6603
  34   2.0000      -5.646159      -153.6398
  35   2.0000      -5.641140      -153.5032
  36   2.0000      -5.640580      -153.4880
  37   2.0000      -4.644293      -126.3776
  38   2.0000      -4.643222      -126.3485
  39   2.0000      -4.641108      -126.2910
  40   2.0000      -4.638958      -126.2325
  41   2.0000      -4.638327      -126.2153
  42   2.0000      -4.637630      -126.1963
  43   2.0000      -0.988247       -26.8916
  44   2.0000      -0.977824       -26.6079
  45   2.0000      -0.942714       -25.6526
  46   2.0000      -0.935039       -25.4437
  47   2.0000      -0.762051       -20.7365
  48   2.0000      -0.718363       -19.5477
  49   2.0000      -0.706275       -19.2187
  50   2.0000      -0.691263       -18.8102
  51   2.0000      -0.681336       -18.5401
  52   2.0000      -0.671717       -18.2783
  53   2.0000      -0.648257       -17.6400
  54   2.0000      -0.630829       -17.1657
  55   2.0000      -0.596679       -16.2365
  56   2.0000      -0.587310       -15.9815
  57   2.0000      -0.580452       -15.7949
  58   2.0000      -0.564166       -15.3517
  59   2.0000      -0.559794       -15.2328
  60   2.0000      -0.498748       -13.5716
  61   2.0000      -0.484697       -13.1893
  62   2.0000      -0.470352       -12.7989
  63   2.0000      -0.463615       -12.6156
  64   2.0000      -0.453113       -12.3298
  65   2.0000      -0.442074       -12.0294
  66   2.0000      -0.436166       -11.8687
  67   2.0000      -0.433330       -11.7915
  68   2.0000      -0.431191       -11.7333
  69   2.0000      -0.413350       -11.2478
  70   2.0000      -0.410999       -11.1838
  71   2.0000      -0.404674       -11.0117
  72   2.0000      -0.386875       -10.5274
  73   2.0000      -0.383287       -10.4298
  74   2.0000      -0.382574       -10.4104
  75   2.0000      -0.375267       -10.2115
  76   2.0000      -0.354091        -9.6353
  77   2.0000      -0.352736        -9.5984
  78   2.0000      -0.349497        -9.5103
  79   2.0000      -0.345717        -9.4074
  80   2.0000      -0.343198        -9.3389
  81   2.0000      -0.340953        -9.2778
  82   2.0000      -0.339237        -9.2311
  83   2.0000      -0.334207        -9.0942
  84   2.0000      -0.329525        -8.9668
  85   2.0000      -0.323529        -8.8037
  86   2.0000      -0.305739        -8.3196
  87   2.0000      -0.298597        -8.1252
  88   2.0000      -0.291026        -7.9192
  89   2.0000      -0.289031        -7.8649
  90   2.0000      -0.276814        -7.5325
  91   2.0000      -0.270446        -7.3592
  92   2.0000      -0.262964        -7.1556
  93   2.0000      -0.261108        -7.1051
  94   2.0000      -0.254139        -6.9155
  95   2.0000      -0.233304        -6.3485
  96   2.0000      -0.217221        -5.9109
  97   2.0000      -0.210510        -5.7283
  98   2.0000      -0.199183        -5.4200
  99   2.0000      -0.188090        -5.1182
 100   2.0000      -0.182740        -4.9726
 101   0.0000      -0.041534        -1.1302
 102   0.0000      -0.030094        -0.8189
 103   0.0000      -0.010382        -0.2825
 104   0.0000       0.012352         0.3361
 105   0.0000       0.019475         0.5299

MULLIKEN ATOMIC CHARGES
-----------------------
   0 C :   -0.306272
   1 C :   -0.017291
   2 O :   -0.382616
   3 P :    0.604208
   4 S :   -0.299524
   5 O :   -0.344002
   6 C :    0.007334
   7 C :   -0.322588
   8 S :   -0.125296
   9 C :   -0.351381
  10 S :   -0.093539
  11 P :    0.613749
  12 S :   -0.321074
  13 O :   -0.352246
  14 C :   -0.000196
  15 C :   -0.301935
  16 O :   -0.375666
  17 C :   -0.003106
  18 C :   -0.307930
  19 H :    0.110812
  20 H :    0.129788
  21 H :    0.126803
  22 H :    0.109429
  23 H :    0.114955
  24 H :    0.106849
  25 H :    0.108795
  26 H :    0.117300
  27 H :    0.110136
  28 H :    0.132270
  29 H :    0.181459
  30 H :    0.213782
  31 H :    0.099985
  32 H :    0.121319
  33 H :    0.118974
  34 H :    0.111241
  35 H :    0.108265
  36 H :    0.102593
  37 H :    0.108861
  38 H :    0.110224
  39 H :    0.119566
  40 H :    0.115966
Sum of atomic charges:    0.0000000

LOEWDIN ATOMIC CHARGES
----------------------
   0 C :   -0.368654
   1 C :   -0.114970
   2 O :   -0.246264
   3 P :    0.564321
   4 S :   -0.291715
   5 O :   -0.227805
   6 C :   -0.107964
   7 C :   -0.371855
   8 S :    0.068971
   9 C :   -0.477553
  10 S :    0.088526
  11 P :    0.572399
  12 S :   -0.312780
  13 O :   -0.230785
  14 C :   -0.118360
  15 C :   -0.366307
  16 O :   -0.246572
  17 C :   -0.120349
  18 C :   -0.369127
  19 H :    0.129977
  20 H :    0.123313
  21 H :    0.131184
  22 H :    0.121179
  23 H :    0.107372
  24 H :    0.112660
  25 H :    0.122381
  26 H :    0.114913
  27 H :    0.129550
  28 H :    0.123451
  29 H :    0.136304
  30 H :    0.126981
  31 H :    0.117649
  32 H :    0.109179
  33 H :    0.120465
  34 H :    0.123558
  35 H :    0.128580
  36 H :    0.117344
  37 H :    0.109011
  38 H :    0.129344
  39 H :    0.119277
  40 H :    0.123172

  Mayer bond orders larger than 0.100000
B(  0-C ,  1-C ) :   1.1673 B(  0-C , 19-H ) :   0.9350 B(  0-C , 20-H ) :   0.9308
B(  0-C , 21-H ) :   0.9434 B(  1-C ,  2-O ) :   0.9126 B(  1-C , 22-H ) :   0.9334
B(  1-C , 23-H ) :   0.9250 B(  2-O ,  3-P ) :   1.0766 B(  3-P ,  4-S ) :   1.6540
B(  3-P ,  5-O ) :   1.1432 B(  3-P ,  8-S ) :   0.9267 B(  4-S ,  8-S ) :   0.1062
B(  5-O ,  6-C ) :   0.9000 B(  6-C ,  7-C ) :   1.1694 B(  6-C , 24-H ) :   0.9289
B(  6-C , 25-H ) :   0.9339 B(  7-C , 26-H ) :   0.9405 B(  7-C , 27-H ) :   0.9354
B(  7-C , 28-H ) :   0.9368 B(  8-S ,  9-C ) :   1.0104 B(  9-C , 10-S ) :   0.9947
B(  9-C , 29-H ) :   0.9113 B(  9-C , 30-H ) :   0.8444 B( 10-S , 11-P ) :   0.9643
B( 10-S , 12-S ) :   0.1136 B( 11-P , 12-S ) :   1.5902 B( 11-P , 13-O ) :   1.1499
B( 11-P , 16-O ) :   1.0941 B( 13-O , 14-C ) :   0.9056 B( 14-C , 15-C ) :   1.1569
B( 14-C , 31-H ) :   0.9363 B( 14-C , 32-H ) :   0.9136 B( 15-C , 33-H ) :   0.9372
B( 15-C , 34-H ) :   0.9448 B( 15-C , 35-H ) :   0.9394 B( 16-O , 17-C ) :   0.9140
B( 17-C , 18-C ) :   1.1672 B( 17-C , 36-H ) :   0.9341 B( 17-C , 37-H ) :   0.9141
B( 18-C , 38-H ) :   0.9381 B( 18-C , 39-H ) :   0.9372 B( 18-C , 40-H ) :   0.9442

Dispersion correction           -0.068856385
FINAL SINGLE POINT ENERGY     -2929.514446500168

DIPOLE MOMENT
-------------

Method             : SCF
Type of density    : Electron Density
Multiplicity       :   1
Irrep              :   0
Energy             : -2929.6317288094442119 Eh
Relativity type    :
Basis              : AO
                                X                 Y                 Z
Electronic contribution:      1.051392495       0.453012645      -6.346543901
Nuclear contribution   :     -0.366701074      -1.287036157       7.351550278
                        -----------------------------------------
Total Dipole Moment    :      0.684691422      -0.834023512       1.005006377
                        -----------------------------------------
Magnitude (a.u.)       :      1.474596683
Magnitude (Debye)      :      3.748126901

Rotational constants in cm-1:             0.012936             0.005368             0.005111
Rotational constants in MHz :           387.809755           160.916906           153.209532

                             ****ORCA TERMINATED NORMALLY****
TOTAL RUN TIME: 0 days 0 hours 0 minutes 22 seconds 889 msec
