                         Program Version 6.0.0  -   RELEASE  -
|  1> ! r2scan-3c def2/J RI DEFGRID2 scfconv6 printgap
|  2> %output
|  3>     printlevel normal
|  4> end
|  5> * xyz 0 1
|  6> C 4.3464899869 -1.8770024859 -0.7755000276
|  7> C 4.5872360057 -0.4036705413 -0.5156159797
|  8> O 3.562834894 0.180939666 0.3051086824
|  9> P 2.0592419665 0.3496889051 -0.1898251085
| 10> S 1.8840695029 0.8374028878 -2.0839089197
| 11> O 1.5118888551 1.3668234844 0.8989125991
| 12> C 1.5626060282 2.7938467425 0.7147028945
| 13> C 2.9824878294 3.3132085013 0.6433022976
| 14> S 1.1330896193 -1.4224807042 0.4712082642
| 15> C -0.0928873855 -1.6892691609 -0.8648085873
| 16> S -1.7534183092 -2.0293929678 -0.2391798384
| 17> P -2.3765280062 -0.066131146 0.2935005159
| 18> S -1.3746627216 1.399976401 -0.5553158191
| 19> O -2.4795099022 -0.0132164512 1.8724333631
| 20> C -1.3487814794 0.0237900731 2.7628047684
| 21> C -1.0738091427 -1.3497972246 3.3445356733
| 22> O -3.9355185983 -0.0625742507 0.050990182
| 23> C -4.5163882536 0.3115316378 -1.2113681973
| 24> C -4.2064593748 -0.687090838 -2.3087123794
| 25> H 4.1873071486 -2.4058295345 0.1608351515
| 26> H 3.4675117201 -2.0025837615 -1.4065298081
| 27> H 5.2075979835 -2.2959496715 -1.286183982
| 28> H 4.6290550506 0.1485614659 -1.4600728305
| 29> H 5.5032255247 -0.2387768776 0.053257873
| 30> H 1.0054527497 3.0411339007 -0.1956298568
| 31> H 1.0288081182 3.186911882 1.5814798807
| 32> H 3.5468604619 2.9798928666 1.5104087548
| 33> H 3.4678240067 2.9432933081 -0.2592107202
| 34> H 2.9652713987 4.3981972425 0.6141650245
| 35> H 0.1981063822 -2.5756927091 -1.4216853188
| 36> H -0.1019270067 -0.8029379871 -1.5042708527
| 37> H -0.4740922152 0.4186534064 2.234200801
| 38> H -1.6379508204 0.7296104247 3.5444362526
| 39> H -1.9770123772 -1.7399453974 3.8047273234
| 40> H -0.7437815962 -2.0403482511 2.5717363175
| 41> H -0.2929352546 -1.2659877469 4.0934893994
| 42> H -5.5855847776 0.3569843106 -0.9997706368
| 43> H -4.1499387082 1.3072098458 -1.4820099955
| 44> H -4.7835332028 -0.4366549367 -3.1932366298
| 45> H -3.1470910578 -0.6508711991 -2.5596737081
| 46> H -4.4580352547 -1.6938104584 -1.9850565892
| 47> *
| 48>
| 49>                          ****END OF INPUT****

CARTESIAN COORDINATES (ANGSTROEM)
---------------------------------
  C      4.346490   -1.877002   -0.775500
  C      4.587236   -0.403671   -0.515616
  O      3.562835    0.180940    0.305109
  P      2.059242    0.349689   -0.189825
  S      1.884070    0.837403   -2.083909
  O      1.511889    1.366823    0.898913
  C      1.562606    2.793847    0.714703
  C      2.982488    3.313209    0.643302
  S      1.133090   -1.422481    0.471208
  C     -0.092887   -1.689269   -0.864809
  S     -1.753418   -2.029393   -0.239180
  P     -2.376528   -0.066131    0.293501
  S     -1.374663    1.399976   -0.555316
  O     -2.479510   -0.013216    1.872433
  C     -1.348781    0.023790    2.762805
  C     -1.073809   -1.349797    3.344536
  O     -3.935519   -0.062574    0.050990
  C     -4.516388    0.311532   -1.211368
  C     -4.206459   -0.687091   -2.308712
  H      4.187307   -2.405830    0.160835
  H      3.467512   -2.002584   -1.406530
  H      5.207598   -2.295950   -1.286184
  H      4.629055    0.148561   -1.460073
  H      5.503226   -0.238777    0.053258
  H      1.005453    3.041134   -0.195630
  H      1.028808    3.186912    1.581480
  H      3.546860    2.979893    1.510409
  H      3.467824    2.943293   -0.259211
  H      2.965271    4.398197    0.614165
  H      0.198106   -2.575693   -1.421685
  H     -0.101927   -0.802938   -1.504271
  H     -0.474092    0.418653    2.234201
  H     -1.637951    0.729610    3.544436
  H     -1.977012   -1.739945    3.804727
  H     -0.743782   -2.040348    2.571736
  H     -0.292935   -1.265988    4.093489
  H     -5.585585    0.356984   -0.999771
  H     -4.149939    1.307210   -1.482010
  H     -4.783533   -0.436655   -3.193237
  H     -3.147091   -0.650871   -2.559674
  H     -4.458035   -1.693810   -1.985057

 Total Charge           Charge          ....    0
 Multiplicity           Mult            ....    1
 Number of Electrons    NEL             ....  202
 Basis Dimension        Dim             ....  539

ORBITAL ENERGIES
----------------

  NO   OCC          E(Eh)            E(eV)
   0   2.0000     -88.578294     -2410.3379
   1   2.0000     -88.575042     -2410.2494
   2   2.0000     -88.520490     -2408.7650
   3   2.0000     -88.517181     -2408.6750
   4   2.0000     -76.913178     -2092.9140
   5   2.0000     -76.912072     -2092.8839
   6   2.0000     -18.989596      -516.7332
   7   2.0000     -18.989477      -516.7299
   8   2.0000     -18.985536      -516.6227
   9   2.0000     -18.984023      -516.5815
  10   2.0000     -10.107558      -275.0406
  11   2.0000     -10.097341      -274.7626
  12   2.0000     -10.097097      -274.7560
  13   2.0000     -10.092676      -274.6357
  14   2.0000     -10.091727      -274.6099
  15   2.0000     -10.028286      -272.8835
  16   2.0000     -10.027032      -272.8494
  17   2.0000     -10.025316      -272.8027
  18   2.0000     -10.022002      -272.7125
  19   2.0000      -7.872665      -214.2261
  20   2.0000      -7.869688      -214.1451
  21   2.0000      -7.815150      -212.6611
  22   2.0000      -7.811910      -212.5729
  23   2.0000      -6.591576      -179.3659
  24   2.0000      -6.590497      -179.3365
  25   2.0000      -5.819680      -158.3615
  26   2.0000      -5.816454      -158.2738
  27   2.0000      -5.816282      -158.2691
  28   2.0000      -5.813628      -158.1969
  29   2.0000      -5.809864      -158.0944
  30   2.0000      -5.806751      -158.0097
  31   2.0000      -5.762836      -156.8147
  32   2.0000      -5.759584      -156.7262
  33   2.0000      -5.755616      -156.6183
  34   2.0000      -5.754954      -156.6003
  35   2.0000      -5.752221      -156.5259
  36   2.0000      -5.751881      -156.5166
  37   2.0000      -4.736805      -128.8950
  38   2.0000      -4.736407      -128.8842
  39   2.0000      -4.735798      -128.8676
  40   2.0000      -4.735670      -128.8641
  41   2.0000      -4.735622      -128.8628
  42   2.0000      -4.734217      -128.8246
  43   2.0000      -1.049581       -28.5605
  44   2.0000      -1.047220       -28.4963
  45   2.0000      -1.007386       -27.4124
  46   2.0000      -1.005912       -27.3723
  47   2.0000      -0.799035       -21.7429
  48   2.0000      -0.756510       -20.5857
  49   2.0000      -0.748085       -20.3564
  50   2.0000      -0.729441       -19.8491
  51   2.0000      -0.724719       -19.7206
  52   2.0000      -0.712411       -19.3857
  53   2.0000      -0.685592       -18.6559
  54   2.0000      -0.665044       -18.0968
  55   2.0000      -0.635650       -17.2969
  56   2.0000      -0.625903       -17.0317
  57   2.0000      -0.603309       -16.4169
  58   2.0000      -0.596751       -16.2384
  59   2.0000      -0.591651       -16.0996
  60   2.0000      -0.521040       -14.1782
  61   2.0000      -0.514087       -13.9890
  62   2.0000      -0.488974       -13.3056
  63   2.0000      -0.486355       -13.2344
  64   2.0000      -0.470676       -12.8078
  65   2.0000      -0.465654       -12.6711
  66   2.0000      -0.456716       -12.4279
  67   2.0000      -0.453699       -12.3458
  68   2.0000      -0.440011       -11.9733
  69   2.0000      -0.431946       -11.7538
  70   2.0000      -0.429960       -11.6998
  71   2.0000      -0.412191       -11.2163
  72   2.0000      -0.406480       -11.0609
  73   2.0000      -0.404336       -11.0026
  74   2.0000      -0.399733       -10.8773
  75   2.0000      -0.396927       -10.8009
  76   2.0000      -0.381192       -10.3728
  77   2.0000      -0.369824       -10.0634
  78   2.0000      -0.368317       -10.0224
  79   2.0000      -0.361774        -9.8444
  80   2.0000      -0.361034        -9.8242
  81   2.0000      -0.355322        -9.6688
  82   2.0000      -0.354089        -9.6352
  83   2.0000      -0.348713        -9.4889
  84   2.0000      -0.346964        -9.4414
  85   2.0000      -0.327348        -8.9076
  86   2.0000      -0.323349        -8.7988
  87   2.0000      -0.310218        -8.4415
  88   2.0000      -0.307730        -8.3737
  89   2.0000      -0.302448        -8.2300
  90   2.0000      -0.295497        -8.0409
  91   2.0000      -0.284550        -7.7430
  92   2.0000      -0.282754        -7.6941
  93   2.0000      -0.279194        -7.5973
  94   2.0000      -0.272408        -7.4126
  95   2.0000      -0.246529        -6.7084
  96   2.0000      -0.231109        -6.2888
  97   2.0000      -0.229898        -6.2558
  98   2.0000      -0.217266        -5.9121
  99   2.0000      -0.213564        -5.8114
 100   2.0000      -0.203586        -5.5399
 101   0.0000      -0.046882        -1.2757
 102   0.0000      -0.036777        -1.0008
 103   0.0000      -0.015791        -0.4297
 104   0.0000       0.008099         0.2204
 105   0.0000       0.015993         0.4352

MULLIKEN ATOMIC CHARGES
-----------------------
   0 C :   -0.442207
   1 C :   -0.156033
   2 O :   -0.290521
   3 P :    0.662083
   4 S :   -0.461884
   5 O :   -0.290892
   6 C :   -0.152279
   7 C :   -0.449110
   8 S :   -0.141166
   9 C :   -0.209752
  10 S :   -0.133617
  11 P :    0.663508
  12 S :   -0.419453
  13 O :   -0.286008
  14 C :   -0.153228
  15 C :   -0.422968
  16 O :   -0.314835
  17 C :   -0.150667
  18 C :   -0.439778
  19 H :    0.156608
  20 H :    0.169872
  21 H :    0.147398
  22 H :    0.171970
  23 H :    0.147702
  24 H :    0.176515
  25 H :    0.152521
  26 H :    0.156004
  27 H :    0.168808
  28 H :    0.147246
  29 H :    0.193974
  30 H :    0.216088
  31 H :    0.180432
  32 H :    0.148961
  33 H :    0.151185
  34 H :    0.159111
  35 H :    0.145906
  36 H :    0.149474
  37 H :    0.173486
  38 H :    0.147699
  39 H :    0.172399
  40 H :    0.155449
Sum of atomic charges:   -0.0000000

LOEWDIN ATOMIC CHARGES
----------------------
   0 C :   -0.407505
   1 C :    0.018179
   2 O :   -0.668785
   3 P :    0.373288
   4 S :   -0.122827
   5 O :   -0.692346
   6 C :    0.012079
   7 C :   -0.400661
   8 S :    0.158884
   9 C :   -0.415635
  10 S :    0.142781
  11 P :    0.386026
  12 S :   -0.083110
  13 O :   -0.648114
  14 C :    0.021912
  15 C :   -0.404789
  16 O :   -0.649344
  17 C :    0.023743
  18 C :   -0.407194
  19 H :    0.161038
  20 H :    0.162812
  21 H :    0.158361
  22 H :    0.179238
  23 H :    0.179214
  24 H :    0.182622
  25 H :    0.181810
  26 H :    0.161160
  27 H :    0.165007
  28 H :    0.159412
  29 H :    0.178897
  30 H :    0.202218
  31 H :    0.190060
  32 H :    0.178004
  33 H :    0.158495
  34 H :    0.161467
  35 H :    0.159748
  36 H :    0.180547
  37 H :    0.179896
  38 H :    0.158985
  39 H :    0.163687
  40 H :    0.160740

  Mayer bond orders larger than 0.100000
B(  0-C ,  1-C ) :   0.9192 B(  0-C , 19-H ) :   0.9668 B(  0-C , 20-H ) :   0.9671
B(  0-C , 21-H ) :   0.9595 B(  1-C ,  2-O ) :   0.8233 B(  1-C , 22-H ) :   0.9679
B(  1-C , 23-H ) :   0.9580 B(  2-O ,  3-P ) :   1.0541 B(  3-P ,  4-S ) :   1.7500
B(  3-P ,  5-O ) :   1.1605 B(  3-P ,  8-S ) :   1.1172 B(  5-O ,  6-C ) :   0.8160
B(  6-C ,  7-C ) :   0.9132 B(  6-C , 24-H ) :   0.9641 B(  6-C , 25-H ) :   0.9603
B(  7-C , 26-H ) :   0.9713 B(  7-C , 27-H ) :   0.9615 B(  7-C , 28-H ) :   0.9600
B(  8-S ,  9-C ) :   0.8780 B(  9-C , 10-S ) :   0.9153 B(  9-C , 29-H ) :   0.9121
B(  9-C , 30-H ) :   0.9019 B( 10-S , 11-P ) :   1.0424 B( 11-P , 12-S ) :   1.7696
B( 11-P , 13-O ) :   1.1393 B( 11-P , 16-O ) :   1.1292 B( 13-O , 14-C ) :   0.7638
B( 14-C , 15-C ) :   0.9485 B( 14-C , 31-H ) :   0.9552 B( 14-C , 32-H ) :   0.9651
B( 15-C , 33-H ) :   0.9741 B( 15-C , 34-H ) :   0.9543 B( 15-C , 35-H ) :   0.9686
B( 16-O , 17-C ) :   0.8191 B( 17-C , 18-C ) :   0.9184 B( 17-C , 36-H ) :   0.9604
B( 17-C , 37-H ) :   0.9697 B( 18-C , 38-H ) :   0.9589 B( 18-C , 39-H ) :   0.9646
B( 18-C , 40-H ) :   0.9674

Dispersion correction           -0.022281115
FINAL SINGLE POINT ENERGY     -2932.459584329304

DIPOLE MOMENT
-------------

Method             : SCF
Type of density    : Electron Density
Multiplicity       :   1
Irrep              :   0
Energy             : -2932.4839922883747931 Eh
Relativity type    :
Basis              : AO
                                X                 Y                 Z
Electronic contribution:     -7.226459711      -1.440050408      -1.916304896
Nuclear contribution   :      7.636326652       1.080504354       2.289430874
                        -----------------------------------------
Total Dipole Moment    :      0.409866941      -0.359546054       0.373125978
                        -----------------------------------------
Magnitude (a.u.)       :      0.660671832
Magnitude (Debye)      :      1.679294341

Rotational constants in cm-1:             0.012229             0.005163             0.005084
Rotational constants in MHz :           366.603109           154.793449           152.416283

                             ****ORCA TERMINATED NORMALLY****
TOTAL RUN TIME: 0 days 0 hours 1 minutes 24 seconds 983 msec
