                         Program Version 6.0.0  -   RELEASE  -
|  1> ! r2scan-3c def2/J RI DEFGRID2 scfconv6 printgap
|  2> %output
|  3>     printlevel normal
|  4> end
|  5> %cpcm
|  6>     smd true
|  7>     smdsolvent "water"
|  8> end
|  9> * xyz 0 1
| 10> C 4.3464899869 -1.8770024859 -0.7755000276
| 11> C 4.5872360057 -0.4036705413 -0.5156159797
| 12> O 3.562834894 0.180939666 0.3051086824
| 13> P 2.0592419665 0.3496889051 -0.1898251085
| 14> S 1.8840695029 0.8374028878 -2.0839089197
| 15> O 1.5118888551 1.3668234844 0.8989125991
| 16> C 1.5626060282 2.7938467425 0.7147028945
| 17> C 2.9824878294 3.3132085013 0.6433022976
| 18> S 1.1330896193 -1.4224807042 0.4712082642
| 19> C -0.0928873855 -1.6892691609 -0.8648085873
| 20> S -1.7534183092 -2.0293929678 -0.2391798384
| 21> P -2.3765280062 -0.066131146 0.2935005159
| 22> S -1.3746627216 1.399976401 -0.5553158191
| 23> O -2.4795099022 -0.0132164512 1.8724333631
| 24> C -1.3487814794 0.0237900731 2.7628047684
| 25> C -1.0738091427 -1.3497972246 3.3445356733
| 26> O -3.9355185983 -0.0625742507 0.050990182
| 27> C -4.5163882536 0.3115316378 -1.2113681973
| 28> C -4.2064593748 -0.687090838 -2.3087123794
| 29> H 4.1873071486 -2.4058295345 0.1608351515
| 30> H 3.4675117201 -2.0025837615 -1.4065298081
| 31> H 5.2075979835 -2.2959496715 -1.286183982
| 32> H 4.6290550506 0.1485614659 -1.4600728305
| 33> H 5.5032255247 -0.2387768776 0.053257873
| 34> H 1.0054527497 3.0411339007 -0.1956298568
| 35> H 1.0288081182 3.186911882 1.5814798807
| 36> H 3.5468604619 2.9798928666 1.5104087548
| 37> H 3.4678240067 2.9432933081 -0.2592107202
| 38> H 2.9652713987 4.3981972425 0.6141650245
| 39> H 0.1981063822 -2.5756927091 -1.4216853188
| 40> H -0.1019270067 -0.8029379871 -1.5042708527
| 41> H -0.4740922152 0.4186534064 2.234200801
| 42> H -1.6379508204 0.7296104247 3.5444362526
| 43> H -1.9770123772 -1.7399453974 3.8047273234
| 44> H -0.7437815962 -2.0403482511 2.5717363175
| 45> H -0.2929352546 -1.2659877469 4.0934893994
| 46> H -5.5855847776 0.3569843106 -0.9997706368
| 47> H -4.1499387082 1.3072098458 -1.4820099955
| 48> H -4.7835332028 -0.4366549367 -3.1932366298
| 49> H -3.1470910578 -0.6508711991 -2.5596737081
| 50> H -4.4580352547 -1.6938104584 -1.9850565892
| 51> *
| 52>
| 53>                          ****END OF INPUT****

CARTESIAN COORDINATES (ANGSTROEM)
---------------------------------
  C      4.346490   -1.877002   -0.775500
  C      4.587236   -0.403671   -0.515616
  O      3.562835    0.180940    0.305109
  P      2.059242    0.349689   -0.189825
  S      1.884070    0.837403   -2.083909
  O      1.511889    1.366823    0.898913
  C      1.562606    2.793847    0.714703
  C      2.982488    3.313209    0.643302
  S      1.133090   -1.422481    0.471208
  C     -0.092887   -1.689269   -0.864809
  S     -1.753418   -2.029393   -0.239180
  P     -2.376528   -0.066131    0.293501
  S     -1.374663    1.399976   -0.555316
  O     -2.479510   -0.013216    1.872433
  C     -1.348781    0.023790    2.762805
  C     -1.073809   -1.349797    3.344536
  O     -3.935519   -0.062574    0.050990
  C     -4.516388    0.311532   -1.211368
  C     -4.206459   -0.687091   -2.308712
  H      4.187307   -2.405830    0.160835
  H      3.467512   -2.002584   -1.406530
  H      5.207598   -2.295950   -1.286184
  H      4.629055    0.148561   -1.460073
  H      5.503226   -0.238777    0.053258
  H      1.005453    3.041134   -0.195630
  H      1.028808    3.186912    1.581480
  H      3.546860    2.979893    1.510409
  H      3.467824    2.943293   -0.259211
  H      2.965271    4.398197    0.614165
  H      0.198106   -2.575693   -1.421685
  H     -0.101927   -0.802938   -1.504271
  H     -0.474092    0.418653    2.234201
  H     -1.637951    0.729610    3.544436
  H     -1.977012   -1.739945    3.804727
  H     -0.743782   -2.040348    2.571736
  H     -0.292935   -1.265988    4.093489
  H     -5.585585    0.356984   -0.999771
  H     -4.149939    1.307210   -1.482010
  H     -4.783533   -0.436655   -3.193237
  H     -3.147091   -0.650871   -2.559674
  H     -4.458035   -1.693810   -1.985057

 Total Charge           Charge          ....    0
 Multiplicity           Mult            ....    1
 Number of Electrons    NEL             ....  202
 Basis Dimension        Dim             ....  539

ORBITAL ENERGIES
----------------

  NO   OCC          E(Eh)            E(eV)
   0   2.0000     -88.581350     -2410.4211
   1   2.0000     -88.576616     -2410.2923
   2   2.0000     -88.527108     -2408.9451
   3   2.0000     -88.525672     -2408.9060
   4   2.0000     -76.918703     -2093.0643
   5   2.0000     -76.917595     -2093.0342
   6   2.0000     -18.995251      -516.8871
   7   2.0000     -18.991953      -516.7973
   8   2.0000     -18.991752      -516.7918
   9   2.0000     -18.988971      -516.7162
  10   2.0000     -10.105377      -274.9813
  11   2.0000     -10.090594      -274.5790
  12   2.0000     -10.089157      -274.5399
  13   2.0000     -10.088038      -274.5095
  14   2.0000     -10.087784      -274.5026
  15   2.0000     -10.018410      -272.6148
  16   2.0000     -10.017861      -272.5998
  17   2.0000     -10.017436      -272.5883
  18   2.0000     -10.016521      -272.5634
  19   2.0000      -7.875652      -214.3074
  20   2.0000      -7.871235      -214.1872
  21   2.0000      -7.822081      -212.8496
  22   2.0000      -7.820606      -212.8095
  23   2.0000      -6.597272      -179.5209
  24   2.0000      -6.596050      -179.4876
  25   2.0000      -5.822697      -158.4436
  26   2.0000      -5.819285      -158.3508
  27   2.0000      -5.818027      -158.3166
  28   2.0000      -5.815192      -158.2394
  29   2.0000      -5.812826      -158.1750
  30   2.0000      -5.808266      -158.0509
  31   2.0000      -5.769699      -157.0015
  32   2.0000      -5.768220      -156.9612
  33   2.0000      -5.762526      -156.8063
  34   2.0000      -5.761915      -156.7897
  35   2.0000      -5.760855      -156.7608
  36   2.0000      -5.760657      -156.7554
  37   2.0000      -4.742586      -129.0523
  38   2.0000      -4.742403      -129.0473
  39   2.0000      -4.741265      -129.0164
  40   2.0000      -4.740973      -129.0084
  41   2.0000      -4.740860      -129.0054
  42   2.0000      -4.740206      -128.9876
  43   2.0000      -1.056205       -28.7408
  44   2.0000      -1.049780       -28.5660
  45   2.0000      -1.012012       -27.5382
  46   2.0000      -1.009403       -27.4673
  47   2.0000      -0.799587       -21.7579
  48   2.0000      -0.755716       -20.5641
  49   2.0000      -0.744842       -20.2682
  50   2.0000      -0.722304       -19.6549
  51   2.0000      -0.719852       -19.5882
  52   2.0000      -0.711820       -19.3696
  53   2.0000      -0.689748       -18.7690
  54   2.0000      -0.670567       -18.2471
  55   2.0000      -0.635926       -17.3044
  56   2.0000      -0.624311       -16.9884
  57   2.0000      -0.597954       -16.2711
  58   2.0000      -0.594031       -16.1644
  59   2.0000      -0.590158       -16.0590
  60   2.0000      -0.520659       -14.1679
  61   2.0000      -0.511715       -13.9245
  62   2.0000      -0.488039       -13.2802
  63   2.0000      -0.486180       -13.2296
  64   2.0000      -0.472827       -12.8663
  65   2.0000      -0.465659       -12.6712
  66   2.0000      -0.453567       -12.3422
  67   2.0000      -0.451485       -12.2855
  68   2.0000      -0.438174       -11.9233
  69   2.0000      -0.429319       -11.6824
  70   2.0000      -0.426550       -11.6070
  71   2.0000      -0.411954       -11.2098
  72   2.0000      -0.405908       -11.0453
  73   2.0000      -0.403082       -10.9684
  74   2.0000      -0.397980       -10.8296
  75   2.0000      -0.394900       -10.7458
  76   2.0000      -0.379804       -10.3350
  77   2.0000      -0.366708        -9.9786
  78   2.0000      -0.363858        -9.9011
  79   2.0000      -0.357372        -9.7246
  80   2.0000      -0.353930        -9.6309
  81   2.0000      -0.351614        -9.5679
  82   2.0000      -0.348565        -9.4849
  83   2.0000      -0.345679        -9.4064
  84   2.0000      -0.344117        -9.3639
  85   2.0000      -0.327850        -8.9213
  86   2.0000      -0.321236        -8.7413
  87   2.0000      -0.308443        -8.3932
  88   2.0000      -0.303647        -8.2627
  89   2.0000      -0.302855        -8.2411
  90   2.0000      -0.296287        -8.0624
  91   2.0000      -0.285140        -7.7591
  92   2.0000      -0.284458        -7.7405
  93   2.0000      -0.280301        -7.6274
  94   2.0000      -0.276044        -7.5115
  95   2.0000      -0.248637        -6.7658
  96   2.0000      -0.239130        -6.5071
  97   2.0000      -0.235119        -6.3979
  98   2.0000      -0.224564        -6.1107
  99   2.0000      -0.218889        -5.9563
 100   2.0000      -0.212370        -5.7789
 101   0.0000      -0.050659        -1.3785
 102   0.0000      -0.040912        -1.1133
 103   0.0000      -0.018297        -0.4979
 104   0.0000       0.003313         0.0901
 105   0.0000       0.012984         0.3533

MULLIKEN ATOMIC CHARGES
-----------------------
   0 C :   -0.476316
   1 C :   -0.158011
   2 O :   -0.319120
   3 P :    0.704139
   4 S :   -0.516887
   5 O :   -0.313706
   6 C :   -0.150281
   7 C :   -0.491831
   8 S :   -0.141136
   9 C :   -0.206333
  10 S :   -0.135800
  11 P :    0.682553
  12 S :   -0.460568
  13 O :   -0.320098
  14 C :   -0.140827
  15 C :   -0.466668
  16 O :   -0.345332
  17 C :   -0.149926
  18 C :   -0.475309
  19 H :    0.166404
  20 H :    0.171345
  21 H :    0.171526
  22 H :    0.177249
  23 H :    0.173740
  24 H :    0.176040
  25 H :    0.177675
  26 H :    0.169598
  27 H :    0.169774
  28 H :    0.171620
  29 H :    0.235105
  30 H :    0.211021
  31 H :    0.173657
  32 H :    0.175081
  33 H :    0.165079
  34 H :    0.159882
  35 H :    0.171209
  36 H :    0.175596
  37 H :    0.178145
  38 H :    0.172558
  39 H :    0.171558
  40 H :    0.167597
Sum of atomic charges:   -0.0000000

LOEWDIN ATOMIC CHARGES
----------------------
   0 C :   -0.410237
   1 C :    0.023127
   2 O :   -0.681628
   3 P :    0.379027
   4 S :   -0.155890
   5 O :   -0.703860
   6 C :    0.014006
   7 C :   -0.403628
   8 S :    0.161772
   9 C :   -0.407550
  10 S :    0.147790
  11 P :    0.386236
  12 S :   -0.108203
  13 O :   -0.668878
  14 C :    0.025219
  15 C :   -0.408507
  16 O :   -0.668250
  17 C :    0.027884
  18 C :   -0.409654
  19 H :    0.163328
  20 H :    0.160907
  21 H :    0.167123
  22 H :    0.180928
  23 H :    0.190100
  24 H :    0.181692
  25 H :    0.191034
  26 H :    0.164550
  27 H :    0.163008
  28 H :    0.168431
  29 H :    0.195321
  30 H :    0.200520
  31 H :    0.188614
  32 H :    0.188617
  33 H :    0.162469
  34 H :    0.159650
  35 H :    0.168902
  36 H :    0.191470
  37 H :    0.181422
  38 H :    0.168105
  39 H :    0.161107
  40 H :    0.163928

  Mayer bond orders larger than 0.100000
B(  0-C ,  1-C ) :   0.9076 B(  0-C , 19-H ) :   0.9647 B(  0-C , 20-H ) :   0.9664
B(  0-C , 21-H ) :   0.9544 B(  1-C ,  2-O ) :   0.8109 B(  1-C , 22-H ) :   0.9662
B(  1-C , 23-H ) :   0.9485 B(  2-O ,  3-P ) :   1.0611 B(  3-P ,  4-S ) :   1.6963
B(  3-P ,  5-O ) :   1.1644 B(  3-P ,  8-S ) :   1.1363 B(  5-O ,  6-C ) :   0.8019
B(  6-C ,  7-C ) :   0.9070 B(  6-C , 24-H ) :   0.9612 B(  6-C , 25-H ) :   0.9494
B(  7-C , 26-H ) :   0.9696 B(  7-C , 27-H ) :   0.9615 B(  7-C , 28-H ) :   0.9539
B(  8-S ,  9-C ) :   0.8742 B(  9-C , 10-S ) :   0.9100 B(  9-C , 29-H ) :   0.8967
B(  9-C , 30-H ) :   0.9057 B( 10-S , 11-P ) :   1.0602 B( 11-P , 12-S ) :   1.7502
B( 11-P , 13-O ) :   1.1334 B( 11-P , 16-O ) :   1.1271 B( 13-O , 14-C ) :   0.7572
B( 14-C , 15-C ) :   0.9405 B( 14-C , 31-H ) :   0.9511 B( 14-C , 32-H ) :   0.9549
B( 15-C , 33-H ) :   0.9720 B( 15-C , 34-H ) :   0.9549 B( 15-C , 35-H ) :   0.9631
B( 16-O , 17-C ) :   0.8084 B( 17-C , 18-C ) :   0.9086 B( 17-C , 36-H ) :   0.9505
B( 17-C , 37-H ) :   0.9662 B( 18-C , 38-H ) :   0.9536 B( 18-C , 39-H ) :   0.9649
B( 18-C , 40-H ) :   0.9650

Dispersion correction           -0.022281115
FINAL SINGLE POINT ENERGY     -2932.466153536088

DIPOLE MOMENT
-------------

Method             : SCF
Type of density    : Electron Density
Multiplicity       :   1
Irrep              :   0
Energy             : -2932.4905614951585449 Eh
Relativity type    :
Basis              : AO
                                X                 Y                 Z
Electronic contribution:     -7.011354759      -1.724319114      -1.839479207
Nuclear contribution   :      7.636326652       1.080504354       2.289430874
                        -----------------------------------------
Total Dipole Moment    :      0.624971893      -0.643814760       0.449951667
                        -----------------------------------------
Magnitude (a.u.)       :      1.003764821
Magnitude (Debye)      :      2.551367413

Rotational constants in cm-1:             0.012229             0.005163             0.005084
Rotational constants in MHz :           366.603109           154.793449           152.416283

                             ****ORCA TERMINATED NORMALLY****
TOTAL RUN TIME: 0 days 0 hours 1 minutes 49 seconds 947 msec
