                         Program Version 6.0.0  -   RELEASE  -
|  1> ! pbe def2-sv(p) def2/J RI DEFGRID1 loosescf d4 GCP(DFT/SV(P)) printgap
|  2> %output
|  3>     printlevel normal
|  4> end
|  5> * xyz 0 1
|  6> C 4.5215364757 -2.0988488233 0.035318495
|  7> C 4.2453996726 -0.7180866549 0.5961721398
|  8> O 3.7281599536 0.164101825 -0.4331314523
|  9> P 2.1870405127 0.5221752884 -0.5798989724
| 10> S 1.9557072926 1.8097782641 -2.031223587
| 11> O 1.722345152 0.9822988587 0.8843476892
| 12> C 1.9798953862 2.3263393524 1.3372184102
| 13> C 1.3351365908 2.4875859452 2.6977214466
| 14> S 1.186974249 -1.3175003764 -0.7067907842
| 15> C -0.1811416336 -0.8691491989 -1.8356807332
| 16> S -1.7865107278 -1.4251949984 -1.2443917808
| 17> P -2.2646299098 0.1362400593 0.1358115173
| 18> S -1.229140182 1.7812161995 -0.1254397222
| 19> O -2.2136094094 -0.485688704 1.5995425929
| 20> C -1.0002445402 -0.8468907299 2.2868785115
| 21> C -0.7586776773 -2.3417344282 2.1995423738
| 22> O -3.8037369733 0.4008501658 -0.0367889565
| 23> C -4.8642729238 -0.4491752567 0.4704375179
| 24> C -4.829101511 -1.8393705389 -0.1258860026
| 25> H 5.0134245461 -2.6955533888 0.7969771169
| 26> H 3.5952045184 -2.5867514348 -0.2575576706
| 27> H 5.1693998391 -2.0216202668 -0.8333496973
| 28> H 5.1677937486 -0.2362490246 0.926071365
| 29> H 3.5320510611 -0.7600371319 1.4231344679
| 30> H 3.0626536357 2.4800800764 1.3775606143
| 31> H 1.549672076 3.0207184007 0.6077300851
| 32> H 1.5467118346 3.4830728146 3.073583784
| 33> H 0.2591785517 2.3628054723 2.6071009888
| 34> H 1.7259599341 1.7466526418 3.3889604894
| 35> H -0.0139472115 -1.376755857 -2.7821191606
| 36> H -0.179689251 0.2166669225 -1.9639039283
| 37> H -0.1634979961 -0.2780617168 1.8710230958
| 38> H -1.1659363198 -0.5341115722 3.3200064983
| 39> H -0.5677301009 -2.6445597501 1.1726693244
| 40> H 0.1066256453 -2.5946185026 2.8033398161
| 41> H -1.6254475455 -2.8790752544 2.5735722011
| 42> H -4.7792265014 -0.4847469324 1.5577346958
| 43> H -5.7686337491 0.0899669579 0.1846249731
| 44> H -4.8499024412 -1.7887598511 -1.2114133394
| 45> H -3.9244621427 -2.3610891344 0.1804859631
| 46> H -5.6935142272 -2.3959122604 0.2229017058
| 47> *
| 48>
| 49>                          ****END OF INPUT****

CARTESIAN COORDINATES (ANGSTROEM)
---------------------------------
  C      4.521536   -2.098849    0.035318
  C      4.245400   -0.718087    0.596172
  O      3.728160    0.164102   -0.433131
  P      2.187041    0.522175   -0.579899
  S      1.955707    1.809778   -2.031224
  O      1.722345    0.982299    0.884348
  C      1.979895    2.326339    1.337218
  C      1.335137    2.487586    2.697721
  S      1.186974   -1.317500   -0.706791
  C     -0.181142   -0.869149   -1.835681
  S     -1.786511   -1.425195   -1.244392
  P     -2.264630    0.136240    0.135812
  S     -1.229140    1.781216   -0.125440
  O     -2.213609   -0.485689    1.599543
  C     -1.000245   -0.846891    2.286879
  C     -0.758678   -2.341734    2.199542
  O     -3.803737    0.400850   -0.036789
  C     -4.864273   -0.449175    0.470438
  C     -4.829102   -1.839371   -0.125886
  H      5.013425   -2.695553    0.796977
  H      3.595205   -2.586751   -0.257558
  H      5.169400   -2.021620   -0.833350
  H      5.167794   -0.236249    0.926071
  H      3.532051   -0.760037    1.423134
  H      3.062654    2.480080    1.377561
  H      1.549672    3.020718    0.607730
  H      1.546712    3.483073    3.073584
  H      0.259179    2.362805    2.607101
  H      1.725960    1.746653    3.388960
  H     -0.013947   -1.376756   -2.782119
  H     -0.179689    0.216667   -1.963904
  H     -0.163498   -0.278062    1.871023
  H     -1.165936   -0.534112    3.320006
  H     -0.567730   -2.644560    1.172669
  H      0.106626   -2.594619    2.803340
  H     -1.625448   -2.879075    2.573572
  H     -4.779227   -0.484747    1.557735
  H     -5.768634    0.089967    0.184625
  H     -4.849902   -1.788760   -1.211413
  H     -3.924462   -2.361089    0.180486
  H     -5.693514   -2.395912    0.222902

 Total Charge           Charge          ....    0
 Multiplicity           Mult            ....    1
 Number of Electrons    NEL             ....  202
 Basis Dimension        Dim             ....  334

ORBITAL ENERGIES
----------------

  NO   OCC          E(Eh)            E(eV)
   0   2.0000     -88.046071     -2395.8554
   1   2.0000     -88.043774     -2395.7929
   2   2.0000     -87.980816     -2394.0797
   3   2.0000     -87.978864     -2394.0266
   4   2.0000     -76.425691     -2079.6488
   5   2.0000     -76.421360     -2079.5309
   6   2.0000     -18.792734      -511.3763
   7   2.0000     -18.791068      -511.3310
   8   2.0000     -18.789603      -511.2911
   9   2.0000     -18.786872      -511.2168
  10   2.0000      -9.959746      -271.0185
  11   2.0000      -9.959216      -271.0040
  12   2.0000      -9.954277      -270.8696
  13   2.0000      -9.950524      -270.7675
  14   2.0000      -9.946189      -270.6496
  15   2.0000      -9.894190      -269.2346
  16   2.0000      -9.889298      -269.1015
  17   2.0000      -9.883406      -268.9411
  18   2.0000      -9.882079      -268.9050
  19   2.0000      -7.690722      -209.2752
  20   2.0000      -7.688901      -209.2256
  21   2.0000      -7.625640      -207.5042
  22   2.0000      -7.624194      -207.4649
  23   2.0000      -6.423115      -174.7818
  24   2.0000      -6.419439      -174.6818
  25   2.0000      -5.718731      -155.6146
  26   2.0000      -5.716712      -155.5596
  27   2.0000      -5.714975      -155.5124
  28   2.0000      -5.713462      -155.4712
  29   2.0000      -5.707914      -155.3202
  30   2.0000      -5.705791      -155.2625
  31   2.0000      -5.654723      -153.8728
  32   2.0000      -5.653406      -153.8370
  33   2.0000      -5.645965      -153.6345
  34   2.0000      -5.645904      -153.6329
  35   2.0000      -5.644859      -153.6044
  36   2.0000      -5.643957      -153.5799
  37   2.0000      -4.646003      -126.4242
  38   2.0000      -4.644793      -126.3912
  39   2.0000      -4.643375      -126.3527
  40   2.0000      -4.642258      -126.3223
  41   2.0000      -4.640939      -126.2864
  42   2.0000      -4.639883      -126.2576
  43   2.0000      -0.988809       -26.9069
  44   2.0000      -0.981931       -26.7197
  45   2.0000      -0.943625       -25.6773
  46   2.0000      -0.939123       -25.5548
  47   2.0000      -0.762791       -20.7566
  48   2.0000      -0.723123       -19.6772
  49   2.0000      -0.713088       -19.4041
  50   2.0000      -0.693498       -18.8710
  51   2.0000      -0.690937       -18.8013
  52   2.0000      -0.676376       -18.4051
  53   2.0000      -0.648688       -17.6517
  54   2.0000      -0.632027       -17.1983
  55   2.0000      -0.597845       -16.2682
  56   2.0000      -0.583751       -15.8847
  57   2.0000      -0.578916       -15.7531
  58   2.0000      -0.573891       -15.6164
  59   2.0000      -0.555577       -15.1180
  60   2.0000      -0.509501       -13.8642
  61   2.0000      -0.498371       -13.5614
  62   2.0000      -0.478635       -13.0243
  63   2.0000      -0.475151       -12.9295
  64   2.0000      -0.452941       -12.3252
  65   2.0000      -0.449088       -12.2203
  66   2.0000      -0.446149       -12.1403
  67   2.0000      -0.436330       -11.8731
  68   2.0000      -0.430258       -11.7079
  69   2.0000      -0.423078       -11.5125
  70   2.0000      -0.413889       -11.2625
  71   2.0000      -0.394678       -10.7397
  72   2.0000      -0.390625       -10.6294
  73   2.0000      -0.385579       -10.4921
  74   2.0000      -0.382503       -10.4084
  75   2.0000      -0.368191       -10.0190
  76   2.0000      -0.362425        -9.8621
  77   2.0000      -0.361678        -9.8418
  78   2.0000      -0.358308        -9.7501
  79   2.0000      -0.352755        -9.5990
  80   2.0000      -0.351097        -9.5538
  81   2.0000      -0.346656        -9.4330
  82   2.0000      -0.345627        -9.4050
  83   2.0000      -0.336361        -9.1529
  84   2.0000      -0.332315        -9.0428
  85   2.0000      -0.315547        -8.5865
  86   2.0000      -0.314419        -8.5558
  87   2.0000      -0.305503        -8.3132
  88   2.0000      -0.298734        -8.1290
  89   2.0000      -0.293493        -7.9863
  90   2.0000      -0.278597        -7.5810
  91   2.0000      -0.275341        -7.4924
  92   2.0000      -0.272623        -7.4185
  93   2.0000      -0.265507        -7.2248
  94   2.0000      -0.259213        -7.0535
  95   2.0000      -0.234976        -6.3940
  96   2.0000      -0.217489        -5.9182
  97   2.0000      -0.209760        -5.7079
  98   2.0000      -0.199339        -5.4243
  99   2.0000      -0.194809        -5.3010
 100   2.0000      -0.185626        -5.0511
 101   0.0000      -0.043316        -1.1787
 102   0.0000      -0.033224        -0.9041
 103   0.0000      -0.016621        -0.4523
 104   0.0000       0.004643         0.1264
 105   0.0000       0.012983         0.3533

MULLIKEN ATOMIC CHARGES
-----------------------
   0 C :   -0.290445
   1 C :   -0.031822
   2 O :   -0.369824
   3 P :    0.624888
   4 S :   -0.298281
   5 O :   -0.380205
   6 C :   -0.014003
   7 C :   -0.287544
   8 S :   -0.133470
   9 C :   -0.322326
  10 S :   -0.130190
  11 P :    0.605931
  12 S :   -0.293997
  13 O :   -0.385299
  14 C :   -0.044697
  15 C :   -0.294224
  16 O :   -0.359167
  17 C :    0.006480
  18 C :   -0.340288
  19 H :    0.108997
  20 H :    0.128209
  21 H :    0.124258
  22 H :    0.110842
  23 H :    0.103620
  24 H :    0.096683
  25 H :    0.119639
  26 H :    0.111281
  27 H :    0.132011
  28 H :    0.103206
  29 H :    0.185637
  30 H :    0.214633
  31 H :    0.144857
  32 H :    0.103094
  33 H :    0.128843
  34 H :    0.103635
  35 H :    0.107900
  36 H :    0.112188
  37 H :    0.113301
  38 H :    0.131883
  39 H :    0.134059
  40 H :    0.119705
Sum of atomic charges:   -0.0000000

LOEWDIN ATOMIC CHARGES
----------------------
   0 C :   -0.361443
   1 C :   -0.119326
   2 O :   -0.247472
   3 P :    0.567520
   4 S :   -0.295767
   5 O :   -0.253390
   6 C :   -0.121189
   7 C :   -0.354447
   8 S :    0.076692
   9 C :   -0.476518
  10 S :    0.077026
  11 P :    0.564045
  12 S :   -0.286676
  13 O :   -0.249909
  14 C :   -0.122923
  15 C :   -0.364349
  16 O :   -0.234564
  17 C :   -0.108280
  18 C :   -0.373569
  19 H :    0.129485
  20 H :    0.119092
  21 H :    0.131483
  22 H :    0.120958
  23 H :    0.106178
  24 H :    0.106143
  25 H :    0.112911
  26 H :    0.130478
  27 H :    0.127713
  28 H :    0.119702
  29 H :    0.138603
  30 H :    0.128146
  31 H :    0.111583
  32 H :    0.117314
  33 H :    0.112609
  34 H :    0.127739
  35 H :    0.121486
  36 H :    0.115748
  37 H :    0.124053
  38 H :    0.129695
  39 H :    0.118511
  40 H :    0.134910

  Mayer bond orders larger than 0.100000
B(  0-C ,  1-C ) :   1.1674 B(  0-C , 19-H ) :   0.9387 B(  0-C , 20-H ) :   0.9360
B(  0-C , 21-H ) :   0.9462 B(  1-C ,  2-O ) :   0.9056 B(  1-C , 22-H ) :   0.9346
B(  1-C , 23-H ) :   0.9158 B(  2-O ,  3-P ) :   1.1082 B(  3-P ,  4-S ) :   1.6612
B(  3-P ,  5-O ) :   1.0641 B(  3-P ,  8-S ) :   0.9684 B(  4-S ,  8-S ) :   0.1098
B(  5-O ,  6-C ) :   0.8978 B(  6-C ,  7-C ) :   1.1614 B(  6-C , 24-H ) :   0.9291
B(  6-C , 25-H ) :   0.9136 B(  7-C , 26-H ) :   0.9419 B(  7-C , 27-H ) :   0.9396
B(  7-C , 28-H ) :   0.9503 B(  8-S ,  9-C ) :   0.9812 B(  9-C , 10-S ) :   1.0241
B(  9-C , 29-H ) :   0.9077 B(  9-C , 30-H ) :   0.8400 B( 10-S , 11-P ) :   0.9186
B( 10-S , 12-S ) :   0.1107 B( 11-P , 12-S ) :   1.6751 B( 11-P , 13-O ) :   1.0727
B( 11-P , 16-O ) :   1.1458 B( 13-O , 14-C ) :   0.8984 B( 14-C , 15-C ) :   1.1688
B( 14-C , 31-H ) :   0.8890 B( 14-C , 32-H ) :   0.9349 B( 15-C , 33-H ) :   0.9287
B( 15-C , 34-H ) :   0.9408 B( 15-C , 35-H ) :   0.9451 B( 16-O , 17-C ) :   0.8976
B( 17-C , 18-C ) :   1.1705 B( 17-C , 36-H ) :   0.9267 B( 17-C , 37-H ) :   0.9334
B( 18-C , 38-H ) :   0.9411 B( 18-C , 39-H ) :   0.9300 B( 18-C , 40-H ) :   0.9348

Dispersion correction           -0.066760053
FINAL SINGLE POINT ENERGY     -2929.513569143904

DIPOLE MOMENT
-------------

Method             : SCF
Type of density    : Electron Density
Multiplicity       :   1
Irrep              :   0
Energy             : -2929.6332840747008959 Eh
Relativity type    :
Basis              : AO
                                X                 Y                 Z
Electronic contribution:     -2.069403419      10.545892543     -18.589892801
Nuclear contribution   :      1.930490588     -12.078420637      20.283854228
                        -----------------------------------------
Total Dipole Moment    :     -0.138912831      -1.532528094       1.693961428
                        -----------------------------------------
Magnitude (a.u.)       :      2.288546362
Magnitude (Debye)      :      5.817022567

Rotational constants in cm-1:             0.012428             0.005217             0.005007
Rotational constants in MHz :           372.585988           156.414035           150.116591

                             ****ORCA TERMINATED NORMALLY****
TOTAL RUN TIME: 0 days 0 hours 0 minutes 21 seconds 770 msec
