                         Program Version 6.0.0  -   RELEASE  -
|  1> ! r2scan-3c def2/J RI DEFGRID2 scfconv6 printgap
|  2> %output
|  3>     printlevel normal
|  4> end
|  5> * xyz 0 1
|  6> C 2.2095947213 -1.1746059447 0.1343633919
|  7> C 1.3953519553 0.0896275406 -0.0074740281
|  8> O 1.9478902243 1.1948234271 -0.071102933
|  9> N 0.064951771 -0.0138379524 -0.0558210876
| 10> C -0.7393172025 -1.2256566569 0.0185901159
| 11> C -2.1698664438 -0.740326873 -0.2204470554
| 12> C -2.1448082559 0.6870023823 0.3209411185
| 13> C -0.7733417606 1.1764335153 -0.1256941346
| 14> H 1.6069909404 -2.0730397976 0.1447455145
| 15> H 2.7795351827 -1.1047492624 1.0584590356
| 16> H 2.9235667308 -1.214772507 -0.6851550401
| 17> H -0.4266283205 -1.9493113001 -0.7359006388
| 18> H -0.6421268385 -1.6758906211 1.0116509925
| 19> H -2.386425367 -0.7268820993 -1.2882855833
| 20> H -2.9016813125 -1.3693936024 0.2793297905
| 21> H -2.9475871023 1.3037277522 -0.0733589383
| 22> H -2.203951778 0.6806512152 1.4091113528
| 23> H -0.7935551543 1.5487472612 -1.155668746
| 24> H -0.347699172 1.9581739308 0.5061482806
| 25> *
| 26>
| 27>                          ****END OF INPUT****

CARTESIAN COORDINATES (ANGSTROEM)
---------------------------------
  C      2.209595   -1.174606    0.134363
  C      1.395352    0.089628   -0.007474
  O      1.947890    1.194823   -0.071103
  N      0.064952   -0.013838   -0.055821
  C     -0.739317   -1.225657    0.018590
  C     -2.169866   -0.740327   -0.220447
  C     -2.144808    0.687002    0.320941
  C     -0.773342    1.176434   -0.125694
  H      1.606991   -2.073040    0.144746
  H      2.779535   -1.104749    1.058459
  H      2.923567   -1.214773   -0.685155
  H     -0.426628   -1.949311   -0.735901
  H     -0.642127   -1.675891    1.011651
  H     -2.386425   -0.726882   -1.288286
  H     -2.901681   -1.369394    0.279330
  H     -2.947587    1.303728   -0.073359
  H     -2.203952    0.680651    1.409111
  H     -0.793555    1.548747   -1.155669
  H     -0.347699    1.958174    0.506148

 Total Charge           Charge          ....    0
 Multiplicity           Mult            ....    1
 Number of Electrons    NEL             ....   62
 Basis Dimension        Dim             ....  217

ORBITAL ENERGIES
----------------

  NO   OCC          E(Eh)            E(eV)
   0   2.0000     -18.892473      -514.0903
   1   2.0000     -14.185169      -385.9981
   2   2.0000     -10.114471      -275.2288
   3   2.0000     -10.077145      -274.2130
   4   2.0000     -10.062640      -273.8184
   5   2.0000     -10.046611      -273.3822
   6   2.0000     -10.042078      -273.2588
   7   2.0000     -10.027714      -272.8680
   8   2.0000      -0.984458       -26.7885
   9   2.0000      -0.908273       -24.7154
  10   2.0000      -0.771794       -21.0016
  11   2.0000      -0.719023       -19.5656
  12   2.0000      -0.692656       -18.8481
  13   2.0000      -0.612132       -16.6570
  14   2.0000      -0.570518       -15.5246
  15   2.0000      -0.522402       -14.2153
  16   2.0000      -0.482723       -13.1356
  17   2.0000      -0.448703       -12.2098
  18   2.0000      -0.420565       -11.4442
  19   2.0000      -0.408197       -11.1076
  20   2.0000      -0.403142       -10.9701
  21   2.0000      -0.393894       -10.7184
  22   2.0000      -0.375968       -10.2306
  23   2.0000      -0.361632        -9.8405
  24   2.0000      -0.340983        -9.2786
  25   2.0000      -0.330009        -8.9800
  26   2.0000      -0.326838        -8.8937
  27   2.0000      -0.316397        -8.6096
  28   2.0000      -0.303959        -8.2712
  29   2.0000      -0.208595        -5.6762
  30   2.0000      -0.201982        -5.4962
  31   0.0000       0.004354         0.1185
  32   0.0000       0.067036         1.8241
  33   0.0000       0.093753         2.5512
  34   0.0000       0.101096         2.7510
  35   0.0000       0.110239         2.9997

MULLIKEN ATOMIC CHARGES
-----------------------
   0 C :   -0.523322
   1 C :    0.270394
   2 O :   -0.456010
   3 N :    0.141242
   4 C :   -0.361558
   5 C :   -0.261907
   6 C :   -0.250418
   7 C :   -0.352387
   8 H :    0.145181
   9 H :    0.177658
  10 H :    0.177301
  11 H :    0.152613
  12 H :    0.163491
  13 H :    0.164529
  14 H :    0.154539
  15 H :    0.154734
  16 H :    0.161196
  17 H :    0.159668
  18 H :    0.183056
Sum of atomic charges:    0.0000000

LOEWDIN ATOMIC CHARGES
----------------------
   0 C :   -0.349343
   1 C :    0.327756
   2 O :   -0.490108
   3 N :   -0.824363
   4 C :   -0.025373
   5 C :   -0.255905
   6 C :   -0.256463
   7 C :   -0.014879
   8 H :    0.157802
   9 H :    0.179797
  10 H :    0.179346
  11 H :    0.176395
  12 H :    0.172967
  13 H :    0.161773
  14 H :    0.161862
  15 H :    0.162622
  16 H :    0.160944
  17 H :    0.178578
  18 H :    0.196592

  Mayer bond orders larger than 0.100000
B(  0-C ,  1-C ) :   0.8778 B(  0-C ,  8-H ) :   0.9770 B(  0-C ,  9-H ) :   0.9568
B(  0-C , 10-H ) :   0.9630 B(  1-C ,  2-O ) :   1.7623 B(  1-C ,  3-N ) :   1.2299
B(  3-N ,  4-C ) :   0.9383 B(  3-N ,  7-C ) :   0.9237 B(  4-C ,  5-C ) :   0.9469
B(  4-C , 11-H ) :   0.9502 B(  4-C , 12-H ) :   0.9441 B(  5-C ,  6-C ) :   0.8966
B(  5-C , 13-H ) :   0.9792 B(  5-C , 14-H ) :   0.9627 B(  6-C ,  7-C ) :   0.9047
B(  6-C , 15-H ) :   0.9636 B(  6-C , 16-H ) :   0.9807 B(  7-C , 17-H ) :   0.9494
B(  7-C , 18-H ) :   0.9521

Dispersion correction           -0.005528768
FINAL SINGLE POINT ENERGY      -365.153432834108

DIPOLE MOMENT
-------------

Method             : SCF
Type of density    : Electron Density
Multiplicity       :   1
Irrep              :   0
Energy             :  -365.1617358566144844 Eh
Relativity type    :
Basis              : AO
                                X                 Y                 Z
Electronic contribution:      3.663503631       3.186762490      -0.359703201
Nuclear contribution   :     -4.980167518      -4.319264046       0.440588089
                        -----------------------------------------
Total Dipole Moment    :     -1.316663887      -1.132501556       0.080884889
                        -----------------------------------------
Magnitude (a.u.)       :      1.738593090
Magnitude (Debye)      :      4.419152438

Rotational constants in cm-1:             0.138240             0.051474             0.039422
Rotational constants in MHz :          4144.341810          1543.141268          1181.830242

                             ****ORCA TERMINATED NORMALLY****
TOTAL RUN TIME: 0 days 0 hours 0 minutes 50 seconds 493 msec
