                         Program Version 6.0.0  -   RELEASE  -
|  1> ! r2scan-3c def2/J RI DEFGRID2 scfconv6 printgap
|  2> %output
|  3>     printlevel normal
|  4> end
|  5> %cpcm
|  6>     smd true
|  7>     smdsolvent "water"
|  8> end
|  9> * xyz 0 1
| 10> C 2.2095947213 -1.1746059447 0.1343633919
| 11> C 1.3953519553 0.0896275406 -0.0074740281
| 12> O 1.9478902243 1.1948234271 -0.071102933
| 13> N 0.064951771 -0.0138379524 -0.0558210876
| 14> C -0.7393172025 -1.2256566569 0.0185901159
| 15> C -2.1698664438 -0.740326873 -0.2204470554
| 16> C -2.1448082559 0.6870023823 0.3209411185
| 17> C -0.7733417606 1.1764335153 -0.1256941346
| 18> H 1.6069909404 -2.0730397976 0.1447455145
| 19> H 2.7795351827 -1.1047492624 1.0584590356
| 20> H 2.9235667308 -1.214772507 -0.6851550401
| 21> H -0.4266283205 -1.9493113001 -0.7359006388
| 22> H -0.6421268385 -1.6758906211 1.0116509925
| 23> H -2.386425367 -0.7268820993 -1.2882855833
| 24> H -2.9016813125 -1.3693936024 0.2793297905
| 25> H -2.9475871023 1.3037277522 -0.0733589383
| 26> H -2.203951778 0.6806512152 1.4091113528
| 27> H -0.7935551543 1.5487472612 -1.155668746
| 28> H -0.347699172 1.9581739308 0.5061482806
| 29> *
| 30>
| 31>                          ****END OF INPUT****

CARTESIAN COORDINATES (ANGSTROEM)
---------------------------------
  C      2.209595   -1.174606    0.134363
  C      1.395352    0.089628   -0.007474
  O      1.947890    1.194823   -0.071103
  N      0.064952   -0.013838   -0.055821
  C     -0.739317   -1.225657    0.018590
  C     -2.169866   -0.740327   -0.220447
  C     -2.144808    0.687002    0.320941
  C     -0.773342    1.176434   -0.125694
  H      1.606991   -2.073040    0.144746
  H      2.779535   -1.104749    1.058459
  H      2.923567   -1.214773   -0.685155
  H     -0.426628   -1.949311   -0.735901
  H     -0.642127   -1.675891    1.011651
  H     -2.386425   -0.726882   -1.288286
  H     -2.901681   -1.369394    0.279330
  H     -2.947587    1.303728   -0.073359
  H     -2.203952    0.680651    1.409111
  H     -0.793555    1.548747   -1.155669
  H     -0.347699    1.958174    0.506148

 Total Charge           Charge          ....    0
 Multiplicity           Mult            ....    1
 Number of Electrons    NEL             ....   62
 Basis Dimension        Dim             ....  217

ORBITAL ENERGIES
----------------

  NO   OCC          E(Eh)            E(eV)
   0   2.0000     -18.914651      -514.6938
   1   2.0000     -14.188993      -386.1021
   2   2.0000     -10.126598      -275.5588
   3   2.0000     -10.059958      -273.7454
   4   2.0000     -10.056011      -273.6380
   5   2.0000     -10.026399      -272.8322
   6   2.0000     -10.025423      -272.8056
   7   2.0000     -10.022848      -272.7356
   8   2.0000      -1.002367       -27.2758
   9   2.0000      -0.911373       -24.7997
  10   2.0000      -0.762024       -20.7357
  11   2.0000      -0.709799       -19.3146
  12   2.0000      -0.686145       -18.6709
  13   2.0000      -0.605105       -16.4657
  14   2.0000      -0.556071       -15.1315
  15   2.0000      -0.512907       -13.9569
  16   2.0000      -0.470909       -12.8141
  17   2.0000      -0.452991       -12.3265
  18   2.0000      -0.421598       -11.4723
  19   2.0000      -0.404201       -10.9989
  20   2.0000      -0.392827       -10.6894
  21   2.0000      -0.383627       -10.4390
  22   2.0000      -0.366781        -9.9806
  23   2.0000      -0.358553        -9.7567
  24   2.0000      -0.349147        -9.5008
  25   2.0000      -0.318191        -8.6584
  26   2.0000      -0.313391        -8.5278
  27   2.0000      -0.312248        -8.4967
  28   2.0000      -0.295530        -8.0418
  29   2.0000      -0.227921        -6.2021
  30   2.0000      -0.215049        -5.8518
  31   0.0000      -0.003823        -0.1040
  32   0.0000       0.077918         2.1202
  33   0.0000       0.106767         2.9053
  34   0.0000       0.115963         3.1555
  35   0.0000       0.124411         3.3854

MULLIKEN ATOMIC CHARGES
-----------------------
   0 C :   -0.550979
   1 C :    0.305464
   2 O :   -0.588169
   3 N :    0.136623
   4 C :   -0.366170
   5 C :   -0.271675
   6 C :   -0.271212
   7 C :   -0.362231
   8 H :    0.177102
   9 H :    0.193182
  10 H :    0.190564
  11 H :    0.176447
  12 H :    0.184509
  13 H :    0.178330
  14 H :    0.170815
  15 H :    0.169786
  16 H :    0.174787
  17 H :    0.177833
  18 H :    0.174992
Sum of atomic charges:    0.0000000

LOEWDIN ATOMIC CHARGES
----------------------
   0 C :   -0.347364
   1 C :    0.328510
   2 O :   -0.592034
   3 N :   -0.807345
   4 C :   -0.016874
   5 C :   -0.253456
   6 C :   -0.253760
   7 C :   -0.017625
   8 H :    0.173312
   9 H :    0.185044
  10 H :    0.183601
  11 H :    0.187570
  12 H :    0.184070
  13 H :    0.166098
  14 H :    0.168610
  15 H :    0.168374
  16 H :    0.165731
  17 H :    0.184565
  18 H :    0.192972

  Mayer bond orders larger than 0.100000
B(  0-C ,  1-C ) :   0.8863 B(  0-C ,  8-H ) :   0.9659 B(  0-C ,  9-H ) :   0.9497
B(  0-C , 10-H ) :   0.9557 B(  1-C ,  2-O ) :   1.6511 B(  1-C ,  3-N ) :   1.3018
B(  3-N ,  4-C ) :   0.9410 B(  3-N ,  7-C ) :   0.9162 B(  4-C ,  5-C ) :   0.9303
B(  4-C , 11-H ) :   0.9434 B(  4-C , 12-H ) :   0.9368 B(  5-C ,  6-C ) :   0.8901
B(  5-C , 13-H ) :   0.9793 B(  5-C , 14-H ) :   0.9581 B(  6-C ,  7-C ) :   0.9234
B(  6-C , 15-H ) :   0.9592 B(  6-C , 16-H ) :   0.9792 B(  7-C , 17-H ) :   0.9395
B(  7-C , 18-H ) :   0.9480

Dispersion correction           -0.005528768
FINAL SINGLE POINT ENERGY      -365.168272055542

DIPOLE MOMENT
-------------

Method             : SCF
Type of density    : Electron Density
Multiplicity       :   1
Irrep              :   0
Energy             :  -365.1765750780487565 Eh
Relativity type    :
Basis              : AO
                                X                 Y                 Z
Electronic contribution:      3.092787510       2.566547509      -0.324151184
Nuclear contribution   :     -4.980167518      -4.319264046       0.440588089
                        -----------------------------------------
Total Dipole Moment    :     -1.887380008      -1.752716537       0.116436906
                        -----------------------------------------
Magnitude (a.u.)       :      2.578328161
Magnitude (Debye)      :      6.553589363

Rotational constants in cm-1:             0.138240             0.051474             0.039422
Rotational constants in MHz :          4144.341810          1543.141268          1181.830242

                             ****ORCA TERMINATED NORMALLY****
TOTAL RUN TIME: 0 days 0 hours 0 minutes 48 seconds 578 msec
