                         Program Version 6.0.1  -  RELEASE   -
|  1> ! pbe def2-sv(p) def2/J RI DEFGRID1 loosescf d4 GCP(DFT/SV(P)) printgap
|  2> %output
|  3>     printlevel normal
|  4> end
|  5> * xyz 0 1
|  6> C 1.0546340495 -4.1040081618 -1.0532297193
|  7> C 2.3468734968 -3.5898496597 -0.4391135821
|  8> O 2.1644005591 -2.2428580784 0.036931671
|  9> C 2.4791181856 -1.2411657457 -0.7578333493
| 10> O 2.98069236 -1.351809144 -1.8535366713
| 11> C 2.1006603213 0.0885296879 -0.1305750905
| 12> C 0.9784486285 0.7124242725 -0.9635880366
| 13> H 1.3523280181 0.9502222616 -1.9635701255
| 14> C 0.4329172263 1.9633251676 -0.3030849006
| 15> O -0.7285956703 2.0607755106 0.0388905511
| 16> O 1.3511627903 2.8711972637 -0.1385355988
| 17> C 0.985209785 4.1073818323 0.5163586046
| 18> C 0.3769971827 5.0879915459 -0.4719700467
| 19> S -0.4101648779 -0.4283171509 -1.2460960731
| 20> P -1.4174799364 -0.3634116152 0.6439278429
| 21> S -0.5215868832 0.1448646713 2.3101751295
| 22> O -2.8828611168 0.2193418742 0.3853834191
| 23> C -3.3613602904 1.5315848023 0.675460099
| 24> O -1.7899935654 -1.9078424013 0.780102568
| 25> C -2.5649357877 -2.618020339 -0.1993961363
| 26> H 0.2486169368 -4.0278303874 -0.3278251522
| 27> H 0.7971133533 -3.5126154658 -1.9293714981
| 28> H 1.1801768893 -5.1409264882 -1.3457645911
| 29> H 3.1602224099 -3.5938871427 -1.1700855757
| 30> H 2.6236081072 -4.1640474125 0.4455550499
| 31> H 2.9595266837 0.7603079527 -0.1441980918
| 32> H 1.7745952357 -0.0824496721 0.896803151
| 33> H 0.2866571089 3.8759231303 1.3249359449
| 34> H 1.9257095545 4.4794541997 0.9216871427
| 35> H -0.5562136096 4.6951432821 -0.8684656726
| 36> H 0.1754237928 6.0251326856 0.0359864147
| 37> H 1.0648792294 5.2668708601 -1.2936645676
| 38> H -4.4231249248 1.4158754699 0.8827785407
| 39> H -3.2011032902 2.1785648117 -0.1844726461
| 40> H -2.8443086803 1.9400642679 1.5436176626
| 41> H -3.564225167 -2.1918070076 -0.2641728004
| 42> H -2.6072276088 -3.6438842621 0.1580748785
| 43> H -2.0745032025 -2.568161907 -1.1720636713
| 44> *
| 45>
| 46>                          ****END OF INPUT****

CARTESIAN COORDINATES (ANGSTROEM)
---------------------------------
  C      1.054634   -4.104008   -1.053230
  C      2.346873   -3.589850   -0.439114
  O      2.164401   -2.242858    0.036932
  C      2.479118   -1.241166   -0.757833
  O      2.980692   -1.351809   -1.853537
  C      2.100660    0.088530   -0.130575
  C      0.978449    0.712424   -0.963588
  H      1.352328    0.950222   -1.963570
  C      0.432917    1.963325   -0.303085
  O     -0.728596    2.060776    0.038891
  O      1.351163    2.871197   -0.138536
  C      0.985210    4.107382    0.516359
  C      0.376997    5.087992   -0.471970
  S     -0.410165   -0.428317   -1.246096
  P     -1.417480   -0.363412    0.643928
  S     -0.521587    0.144865    2.310175
  O     -2.882861    0.219342    0.385383
  C     -3.361360    1.531585    0.675460
  O     -1.789994   -1.907842    0.780103
  C     -2.564936   -2.618020   -0.199396
  H      0.248617   -4.027830   -0.327825
  H      0.797113   -3.512615   -1.929371
  H      1.180177   -5.140926   -1.345765
  H      3.160222   -3.593887   -1.170086
  H      2.623608   -4.164047    0.445555
  H      2.959527    0.760308   -0.144198
  H      1.774595   -0.082450    0.896803
  H      0.286657    3.875923    1.324936
  H      1.925710    4.479454    0.921687
  H     -0.556214    4.695143   -0.868466
  H      0.175424    6.025133    0.035986
  H      1.064879    5.266871   -1.293665
  H     -4.423125    1.415875    0.882779
  H     -3.201103    2.178565   -0.184473
  H     -2.844309    1.940064    1.543618
  H     -3.564225   -2.191807   -0.264173
  H     -2.607228   -3.643884    0.158075
  H     -2.074503   -2.568162   -1.172064

 Total Charge           Charge          ....    0
 Multiplicity           Mult            ....    1
 Number of Electrons    NEL             ....  174
 Basis Dimension        Dim             ....  316

ORBITAL ENERGIES
----------------

  NO   OCC          E(Eh)            E(eV)
   0   2.0000     -88.035485     -2395.5673
   1   2.0000     -87.972469     -2393.8526
   2   2.0000     -76.421446     -2079.5333
   3   2.0000     -18.826645      -512.2990
   4   2.0000     -18.796700      -511.4842
   5   2.0000     -18.784672      -511.1569
   6   2.0000     -18.777437      -510.9600
   7   2.0000     -18.761779      -510.5340
   8   2.0000     -18.732968      -509.7500
   9   2.0000     -10.031548      -272.9723
  10   2.0000     -10.005195      -272.2552
  11   2.0000      -9.962463      -271.0924
  12   2.0000      -9.954107      -270.8650
  13   2.0000      -9.941526      -270.5227
  14   2.0000      -9.941417      -270.5197
  15   2.0000      -9.936184      -270.3773
  16   2.0000      -9.902683      -269.4657
  17   2.0000      -9.899008      -269.3657
  18   2.0000      -9.881406      -268.8867
  19   2.0000      -7.680140      -208.9872
  20   2.0000      -7.617852      -207.2923
  21   2.0000      -6.417219      -174.6214
  22   2.0000      -5.708211      -155.3283
  23   2.0000      -5.704790      -155.2352
  24   2.0000      -5.696781      -155.0173
  25   2.0000      -5.647230      -153.6689
  26   2.0000      -5.638588      -153.4338
  27   2.0000      -5.637343      -153.3999
  28   2.0000      -4.640101      -126.2636
  29   2.0000      -4.639101      -126.2364
  30   2.0000      -4.637720      -126.1988
  31   2.0000      -1.036295       -28.1990
  32   2.0000      -1.004680       -27.3387
  33   2.0000      -0.975035       -26.5321
  34   2.0000      -0.941713       -25.6253
  35   2.0000      -0.929467       -25.2921
  36   2.0000      -0.910963       -24.7886
  37   2.0000      -0.767340       -20.8804
  38   2.0000      -0.718768       -19.5587
  39   2.0000      -0.704319       -19.1655
  40   2.0000      -0.689502       -18.7623
  41   2.0000      -0.652154       -17.7460
  42   2.0000      -0.631662       -17.1884
  43   2.0000      -0.631494       -17.1838
  44   2.0000      -0.610559       -16.6142
  45   2.0000      -0.594913       -16.1884
  46   2.0000      -0.565216       -15.3803
  47   2.0000      -0.516434       -14.0529
  48   2.0000      -0.506545       -13.7838
  49   2.0000      -0.494363       -13.4523
  50   2.0000      -0.488842       -13.3021
  51   2.0000      -0.470604       -12.8058
  52   2.0000      -0.454928       -12.3792
  53   2.0000      -0.450036       -12.2461
  54   2.0000      -0.439982       -11.9725
  55   2.0000      -0.430654       -11.7187
  56   2.0000      -0.425803       -11.5867
  57   2.0000      -0.421296       -11.4640
  58   2.0000      -0.416705       -11.3391
  59   2.0000      -0.408828       -11.1248
  60   2.0000      -0.401425       -10.9233
  61   2.0000      -0.393251       -10.7009
  62   2.0000      -0.392612       -10.6835
  63   2.0000      -0.384858       -10.4725
  64   2.0000      -0.380667       -10.3585
  65   2.0000      -0.370399       -10.0791
  66   2.0000      -0.359110        -9.7719
  67   2.0000      -0.356757        -9.7078
  68   2.0000      -0.348552        -9.4846
  69   2.0000      -0.339353        -9.2343
  70   2.0000      -0.333729        -9.0812
  71   2.0000      -0.331298        -9.0151
  72   2.0000      -0.323671        -8.8075
  73   2.0000      -0.311679        -8.4812
  74   2.0000      -0.305219        -8.3054
  75   2.0000      -0.295919        -8.0524
  76   2.0000      -0.291407        -7.9296
  77   2.0000      -0.286793        -7.8040
  78   2.0000      -0.283280        -7.7084
  79   2.0000      -0.263436        -7.1685
  80   2.0000      -0.254930        -6.9370
  81   2.0000      -0.252628        -6.8743
  82   2.0000      -0.247891        -6.7455
  83   2.0000      -0.220186        -5.9916
  84   2.0000      -0.213194        -5.8013
  85   2.0000      -0.192214        -5.2304
  86   2.0000      -0.185795        -5.0557
  87   0.0000      -0.048217        -1.3120
  88   0.0000      -0.039555        -1.0763
  89   0.0000      -0.012725        -0.3463
  90   0.0000      -0.004232        -0.1152
  91   0.0000       0.032805         0.8927

MULLIKEN ATOMIC CHARGES
-----------------------
   0 C :   -0.314091
   1 C :   -0.014963
   2 O :   -0.213797
   3 C :    0.121565
   4 O :   -0.207228
   5 C :   -0.073454
   6 C :   -0.314368
   7 H :    0.156169
   8 C :    0.226426
   9 O :   -0.192419
  10 O :   -0.217574
  11 C :   -0.009941
  12 C :   -0.311365
  13 S :   -0.113697
  14 P :    0.640601
  15 S :   -0.326293
  16 O :   -0.398775
  17 C :   -0.080027
  18 O :   -0.372536
  19 C :   -0.117804
  20 H :    0.127703
  21 H :    0.124256
  22 H :    0.107749
  23 H :    0.108424
  24 H :    0.104704
  25 H :    0.116158
  26 H :    0.121894
  27 H :    0.121829
  28 H :    0.111429
  29 H :    0.128676
  30 H :    0.120213
  31 H :    0.119585
  32 H :    0.115608
  33 H :    0.114332
  34 H :    0.115407
  35 H :    0.122458
  36 H :    0.128911
  37 H :    0.124232
Sum of atomic charges:    0.0000000

LOEWDIN ATOMIC CHARGES
----------------------
   0 C :   -0.357454
   1 C :   -0.110073
   2 O :   -0.047572
   3 C :    0.021905
   4 O :   -0.174052
   5 C :   -0.256686
   6 C :   -0.255453
   7 H :    0.153388
   8 C :    0.025555
   9 O :   -0.155948
  10 O :   -0.034057
  11 C :   -0.104847
  12 C :   -0.356147
  13 S :    0.098237
  14 P :    0.588121
  15 S :   -0.319480
  16 O :   -0.253624
  17 C :   -0.206624
  18 O :   -0.253888
  19 C :   -0.216138
  20 H :    0.127142
  21 H :    0.126543
  22 H :    0.127467
  23 H :    0.119023
  24 H :    0.118712
  25 H :    0.143553
  26 H :    0.130589
  27 H :    0.126405
  28 H :    0.122926
  29 H :    0.130332
  30 H :    0.134666
  31 H :    0.127688
  32 H :    0.115541
  33 H :    0.111847
  34 H :    0.110980
  35 H :    0.113382
  36 H :    0.122991
  37 H :    0.105053

  Mayer bond orders larger than 0.100000
B(  0-C ,  1-C ) :   1.1777 B(  0-C , 20-H ) :   0.9415 B(  0-C , 21-H ) :   0.9439
B(  0-C , 22-H ) :   0.9425 B(  1-C ,  2-O ) :   0.9158 B(  1-C , 23-H ) :   0.9096
B(  1-C , 24-H ) :   0.9363 B(  2-O ,  3-C ) :   1.2469 B(  3-C ,  4-O ) :   2.0468
B(  3-C ,  5-C ) :   1.0065 B(  5-C ,  6-C ) :   1.0559 B(  5-C , 25-H ) :   0.8746
B(  5-C , 26-H ) :   0.8732 B(  6-C ,  7-H ) :   0.8588 B(  6-C ,  8-C ) :   0.9183
B(  6-C , 13-S ) :   1.0468 B(  8-C ,  9-O ) :   1.9379 B(  8-C , 10-O ) :   1.2830
B( 10-O , 11-C ) :   0.8979 B( 11-C , 12-C ) :   1.1737 B( 11-C , 27-H ) :   0.9156
B( 11-C , 28-H ) :   0.9360 B( 12-C , 29-H ) :   0.9456 B( 12-C , 30-H ) :   0.9430
B( 12-C , 31-H ) :   0.9471 B( 13-S , 14-P ) :   0.9144 B( 13-S , 15-S ) :   0.1113
B( 14-P , 15-S ) :   1.5927 B( 14-P , 16-O ) :   1.0871 B( 14-P , 18-O ) :   1.0981
B( 16-O , 17-C ) :   0.9287 B( 17-C , 32-H ) :   0.9537 B( 17-C , 33-H ) :   0.9532
B( 17-C , 34-H ) :   0.9406 B( 18-O , 19-C ) :   0.9298 B( 19-C , 35-H ) :   0.9459
B( 19-C , 36-H ) :   0.9580 B( 19-C , 37-H ) :   0.9353

Dispersion correction           -0.053095761
FINAL SINGLE POINT ENERGY     -1979.011994000890

DIPOLE MOMENT
-------------

Method             : SCF
Type of density    : Electron Density
Multiplicity       :   1
Irrep              :   0
Energy             : -1979.1421450190964606 Eh
Relativity type    :
Basis              : AO
                                X                 Y                 Z
Electronic contribution:     -0.106460035      -1.969104244       4.290751021
Nuclear contribution   :     -0.305674937       2.825079395      -4.796093671
                        -----------------------------------------
Total Dipole Moment    :     -0.412134972       0.855975151      -0.505342650
                        -----------------------------------------
Magnitude (a.u.)       :      1.076066860
Magnitude (Debye)      :      2.735144593

Rotational constants in cm-1:             0.012217             0.008429             0.005935
Rotational constants in MHz :           366.258126           252.689354           177.920596

                             ****ORCA TERMINATED NORMALLY****
TOTAL RUN TIME: 0 days 0 hours 0 minutes 40 seconds 427 msec
