                         Program Version 6.0.0  -   RELEASE  -
|  1> ! pbe def2-sv(p) def2/J RI DEFGRID1 loosescf d4 GCP(DFT/SV(P)) printgap
|  2> %output
|  3>     printlevel normal
|  4> end
|  5> * xyz 0 1
|  6> C 4.7810108054 0.0072265067 -1.3964582462
|  7> C 4.5942190058 0.037591065 0.1070495081
|  8> O 3.314584525 -0.4757407653 0.498174685
|  9> P 1.9516789924 0.2958308553 0.1570056557
| 10> S 2.1348278502 2.233848673 0.409045375
| 11> O 0.9418550723 -0.462913569 1.1118016443
| 12> C 0.9143647436 -0.1732934955 2.5259754606
| 13> C 1.7283923567 -1.1878430326 3.3021754492
| 14> S 1.3773634233 -0.426628422 -1.7476731229
| 15> C 0.161734184 -1.7340201621 -1.3846903099
| 16> S -1.520050565 -1.3256531181 -1.946057334
| 17> P -2.1713041686 -0.0151536934 -0.4314991868
| 18> S -3.9969412601 0.6551492958 -0.6462249561
| 19> O -1.0086886181 1.0769728606 -0.4397118689
| 20> C -1.3104321734 2.4588742635 -0.1527912613
| 21> C -1.5476039654 2.6829625897 1.3244748861
| 22> O -1.8932134969 -0.7564655823 0.9559123018
| 23> C -2.8927479952 -1.5910548247 1.5683140847
| 24> C -3.059605822 -2.9108845151 0.8419409013
| 25> H 5.7838878519 0.3407885619 -1.6427155308
| 26> H 4.6288662031 -0.9985334747 -1.778860174
| 27> H 4.059746481 0.6731439184 -1.8719129868
| 28> H 4.6859313561 1.0618459398 0.4840025008
| 29> H 5.3098178047 -0.6103329448 0.615084896
| 30> H 1.2912947646 0.8430549091 2.6860048327
| 31> H -0.1430082042 -0.2144828447 2.7952685781
| 32> H 1.6464637941 -0.968651963 4.3622666109
| 33> H 1.3573552492 -2.1912253436 3.1132789595
| 34> H 2.7731742935 -1.1382006064 3.0064211989
| 35> H 0.1577953279 -1.9394110592 -0.3197624683
| 36> H 0.4518709286 -2.6031686798 -1.9689578805
| 37> H -0.4345530329 3.0056232827 -0.5059574701
| 38> H -2.1909130964 2.7481201785 -0.734635249
| 39> H -1.7614023446 3.7333244542 1.4944213689
| 40> H -2.3963122233 2.0865444863 1.6570247321
| 41> H -0.6643175381 2.4024069369 1.8924710447
| 42> H -2.5320549828 -1.7360306673 2.5879206484
| 43> H -3.8389570786 -1.0405508346 1.5836700942
| 44> H -3.7616955521 -3.5313423273 1.3897972151
| 45> H -3.4496589411 -2.7387510503 -0.1603879492
| 46> H -2.1076699137 -3.42979011 0.7654414562
| 47> *
| 48>
| 49>                          ****END OF INPUT****

CARTESIAN COORDINATES (ANGSTROEM)
---------------------------------
  C      4.781011    0.007227   -1.396458
  C      4.594219    0.037591    0.107050
  O      3.314585   -0.475741    0.498175
  P      1.951679    0.295831    0.157006
  S      2.134828    2.233849    0.409045
  O      0.941855   -0.462914    1.111802
  C      0.914365   -0.173293    2.525975
  C      1.728392   -1.187843    3.302175
  S      1.377363   -0.426628   -1.747673
  C      0.161734   -1.734020   -1.384690
  S     -1.520051   -1.325653   -1.946057
  P     -2.171304   -0.015154   -0.431499
  S     -3.996941    0.655149   -0.646225
  O     -1.008689    1.076973   -0.439712
  C     -1.310432    2.458874   -0.152791
  C     -1.547604    2.682963    1.324475
  O     -1.893213   -0.756466    0.955912
  C     -2.892748   -1.591055    1.568314
  C     -3.059606   -2.910885    0.841941
  H      5.783888    0.340789   -1.642716
  H      4.628866   -0.998533   -1.778860
  H      4.059746    0.673144   -1.871913
  H      4.685931    1.061846    0.484003
  H      5.309818   -0.610333    0.615085
  H      1.291295    0.843055    2.686005
  H     -0.143008   -0.214483    2.795269
  H      1.646464   -0.968652    4.362267
  H      1.357355   -2.191225    3.113279
  H      2.773174   -1.138201    3.006421
  H      0.157795   -1.939411   -0.319762
  H      0.451871   -2.603169   -1.968958
  H     -0.434553    3.005623   -0.505957
  H     -2.190913    2.748120   -0.734635
  H     -1.761402    3.733324    1.494421
  H     -2.396312    2.086544    1.657025
  H     -0.664318    2.402407    1.892471
  H     -2.532055   -1.736031    2.587921
  H     -3.838957   -1.040551    1.583670
  H     -3.761696   -3.531342    1.389797
  H     -3.449659   -2.738751   -0.160388
  H     -2.107670   -3.429790    0.765441

 Total Charge           Charge          ....    0
 Multiplicity           Mult            ....    1
 Number of Electrons    NEL             ....  202
 Basis Dimension        Dim             ....  334

ORBITAL ENERGIES
----------------

  NO   OCC          E(Eh)            E(eV)
   0   2.0000     -88.045245     -2395.8329
   1   2.0000     -88.042950     -2395.7705
   2   2.0000     -87.991100     -2394.3596
   3   2.0000     -87.989348     -2394.3119
   4   2.0000     -76.430288     -2079.7739
   5   2.0000     -76.426734     -2079.6772
   6   2.0000     -18.797611      -511.5090
   7   2.0000     -18.795310      -511.4464
   8   2.0000     -18.790949      -511.3277
   9   2.0000     -18.786429      -511.2047
  10   2.0000      -9.963171      -271.1117
  11   2.0000      -9.956021      -270.9171
  12   2.0000      -9.955687      -270.9080
  13   2.0000      -9.951433      -270.7923
  14   2.0000      -9.937634      -270.4168
  15   2.0000      -9.889866      -269.1169
  16   2.0000      -9.888555      -269.0812
  17   2.0000      -9.885858      -269.0079
  18   2.0000      -9.873699      -268.6770
  19   2.0000      -7.690680      -209.2741
  20   2.0000      -7.688433      -209.2129
  21   2.0000      -7.636036      -207.7871
  22   2.0000      -7.634524      -207.7460
  23   2.0000      -6.427915      -174.9125
  24   2.0000      -6.424603      -174.8223
  25   2.0000      -5.718915      -155.6196
  26   2.0000      -5.717019      -155.5680
  27   2.0000      -5.714881      -155.5098
  28   2.0000      -5.712686      -155.4501
  29   2.0000      -5.707531      -155.3098
  30   2.0000      -5.704841      -155.2366
  31   2.0000      -5.664963      -154.1515
  32   2.0000      -5.663463      -154.1107
  33   2.0000      -5.657014      -153.9352
  34   2.0000      -5.655809      -153.9024
  35   2.0000      -5.655062      -153.8821
  36   2.0000      -5.654727      -153.8729
  37   2.0000      -4.650593      -126.5491
  38   2.0000      -4.649770      -126.5267
  39   2.0000      -4.648201      -126.4840
  40   2.0000      -4.646821      -126.4464
  41   2.0000      -4.646596      -126.4403
  42   2.0000      -4.645139      -126.4007
  43   2.0000      -0.991203       -26.9720
  44   2.0000      -0.984092       -26.7785
  45   2.0000      -0.947450       -25.7814
  46   2.0000      -0.943583       -25.6762
  47   2.0000      -0.763947       -20.7881
  48   2.0000      -0.722937       -19.6721
  49   2.0000      -0.707872       -19.2622
  50   2.0000      -0.689765       -18.7694
  51   2.0000      -0.685302       -18.6480
  52   2.0000      -0.674017       -18.3409
  53   2.0000      -0.659085       -17.9346
  54   2.0000      -0.641129       -17.4460
  55   2.0000      -0.601651       -16.3718
  56   2.0000      -0.595577       -16.2065
  57   2.0000      -0.575122       -15.6499
  58   2.0000      -0.570108       -15.5134
  59   2.0000      -0.562521       -15.3070
  60   2.0000      -0.501799       -13.6547
  61   2.0000      -0.492205       -13.3936
  62   2.0000      -0.476125       -12.9560
  63   2.0000      -0.472001       -12.8438
  64   2.0000      -0.465917       -12.6782
  65   2.0000      -0.450129       -12.2486
  66   2.0000      -0.441045       -12.0015
  67   2.0000      -0.434936       -11.8352
  68   2.0000      -0.424781       -11.5589
  69   2.0000      -0.421042       -11.4571
  70   2.0000      -0.415220       -11.2987
  71   2.0000      -0.399230       -10.8636
  72   2.0000      -0.395436       -10.7604
  73   2.0000      -0.391056       -10.6412
  74   2.0000      -0.384771       -10.4702
  75   2.0000      -0.379359       -10.3229
  76   2.0000      -0.369626       -10.0580
  77   2.0000      -0.359859        -9.7923
  78   2.0000      -0.355112        -9.6631
  79   2.0000      -0.353323        -9.6144
  80   2.0000      -0.349031        -9.4976
  81   2.0000      -0.344558        -9.3759
  82   2.0000      -0.340350        -9.2614
  83   2.0000      -0.336259        -9.1501
  84   2.0000      -0.327602        -8.9145
  85   2.0000      -0.319392        -8.6911
  86   2.0000      -0.311465        -8.4754
  87   2.0000      -0.301295        -8.1987
  88   2.0000      -0.297384        -8.0922
  89   2.0000      -0.293523        -7.9872
  90   2.0000      -0.282844        -7.6966
  91   2.0000      -0.278794        -7.5864
  92   2.0000      -0.266915        -7.2631
  93   2.0000      -0.264437        -7.1957
  94   2.0000      -0.262373        -7.1395
  95   2.0000      -0.233649        -6.3579
  96   2.0000      -0.218687        -5.9508
  97   2.0000      -0.212595        -5.7850
  98   2.0000      -0.210129        -5.7179
  99   2.0000      -0.206685        -5.6242
 100   2.0000      -0.198197        -5.3932
 101   0.0000      -0.048545        -1.3210
 102   0.0000      -0.033149        -0.9020
 103   0.0000      -0.022466        -0.6113
 104   0.0000      -0.007499        -0.2040
 105   0.0000       0.011977         0.3259

MULLIKEN ATOMIC CHARGES
-----------------------
   0 C :   -0.313609
   1 C :   -0.007666
   2 O :   -0.377644
   3 P :    0.636296
   4 S :   -0.324324
   5 O :   -0.378076
   6 C :   -0.037682
   7 C :   -0.275899
   8 S :   -0.076967
   9 C :   -0.364976
  10 S :   -0.070540
  11 P :    0.626343
  12 S :   -0.317615
  13 O :   -0.379635
  14 C :   -0.008395
  15 C :   -0.312879
  16 O :   -0.376069
  17 C :   -0.012971
  18 C :   -0.311936
  19 H :    0.114168
  20 H :    0.118012
  21 H :    0.123742
  22 H :    0.109871
  23 H :    0.102502
  24 H :    0.113559
  25 H :    0.119814
  26 H :    0.110573
  27 H :    0.109718
  28 H :    0.120715
  29 H :    0.208813
  30 H :    0.187184
  31 H :    0.117832
  32 H :    0.111757
  33 H :    0.108608
  34 H :    0.111735
  35 H :    0.123063
  36 H :    0.101726
  37 H :    0.114477
  38 H :    0.114049
  39 H :    0.130020
  40 H :    0.112306
Sum of atomic charges:   -0.0000000

LOEWDIN ATOMIC CHARGES
----------------------
   0 C :   -0.367619
   1 C :   -0.125334
   2 O :   -0.253849
   3 P :    0.582651
   4 S :   -0.301824
   5 O :   -0.234110
   6 C :   -0.120532
   7 C :   -0.357404
   8 S :    0.092131
   9 C :   -0.476532
  10 S :    0.095049
  11 P :    0.575468
  12 S :   -0.309842
  13 O :   -0.244702
  14 C :   -0.126270
  15 C :   -0.366037
  16 O :   -0.241981
  17 C :   -0.123290
  18 C :   -0.367286
  19 H :    0.131381
  20 H :    0.124515
  21 H :    0.117949
  22 H :    0.107455
  23 H :    0.117131
  24 H :    0.108132
  25 H :    0.117533
  26 H :    0.130243
  27 H :    0.123679
  28 H :    0.126487
  29 H :    0.134805
  30 H :    0.140794
  31 H :    0.114991
  32 H :    0.107613
  33 H :    0.130628
  34 H :    0.116671
  35 H :    0.120662
  36 H :    0.114104
  37 H :    0.110287
  38 H :    0.131686
  39 H :    0.122754
  40 H :    0.121814

  Mayer bond orders larger than 0.100000
B(  0-C ,  1-C ) :   1.1633 B(  0-C , 19-H ) :   0.9386 B(  0-C , 20-H ) :   0.9442
B(  0-C , 21-H ) :   0.9347 B(  1-C ,  2-O ) :   0.9220 B(  1-C , 22-H ) :   0.9118
B(  1-C , 23-H ) :   0.9322 B(  2-O ,  3-P ) :   1.0631 B(  3-P ,  4-S ) :   1.6231
B(  3-P ,  5-O ) :   1.1106 B(  3-P ,  8-S ) :   0.9715 B(  5-O ,  6-C ) :   0.8909
B(  6-C ,  7-C ) :   1.1661 B(  6-C , 24-H ) :   0.8976 B(  6-C , 25-H ) :   0.9213
B(  7-C , 26-H ) :   0.9406 B(  7-C , 27-H ) :   0.9485 B(  7-C , 28-H ) :   0.9409
B(  8-S ,  9-C ) :   0.9931 B(  9-C , 10-S ) :   0.9865 B(  9-C , 29-H ) :   0.8733
B(  9-C , 30-H ) :   0.9096 B( 10-S , 11-P ) :   0.9826 B( 11-P , 12-S ) :   1.6331
B( 11-P , 13-O ) :   1.1115 B( 11-P , 16-O ) :   1.0625 B( 13-O , 14-C ) :   0.8907
B( 14-C , 15-C ) :   1.1695 B( 14-C , 31-H ) :   0.9123 B( 14-C , 32-H ) :   0.9132
B( 15-C , 33-H ) :   0.9387 B( 15-C , 34-H ) :   0.9358 B( 15-C , 35-H ) :   0.9354
B( 16-O , 17-C ) :   0.9139 B( 17-C , 18-C ) :   1.1645 B( 17-C , 36-H ) :   0.9307
B( 17-C , 37-H ) :   0.9109 B( 18-C , 38-H ) :   0.9385 B( 18-C , 39-H ) :   0.9352
B( 18-C , 40-H ) :   0.9462

Dispersion correction           -0.068443483
FINAL SINGLE POINT ENERGY     -2929.515826575911

DIPOLE MOMENT
-------------

Method             : SCF
Type of density    : Electron Density
Multiplicity       :   1
Irrep              :   0
Energy             : -2929.6375317147821988 Eh
Relativity type    :
Basis              : AO
                                X                 Y                 Z
Electronic contribution:     -7.595632624       4.869764207     -17.469537434
Nuclear contribution   :      8.591843830      -6.152309906      18.637872478
                        -----------------------------------------
Total Dipole Moment    :      0.996211206      -1.282545699       1.168335044
                        -----------------------------------------
Magnitude (a.u.)       :      2.000591665
Magnitude (Debye)      :      5.085099894

Rotational constants in cm-1:             0.012173             0.005541             0.005431
Rotational constants in MHz :           364.941963           166.119849           162.806910

                             ****ORCA TERMINATED NORMALLY****
TOTAL RUN TIME: 0 days 0 hours 0 minutes 22 seconds 445 msec
