                         Program Version 6.0.0  -   RELEASE  -
|  1> ! pbe def2-sv(p) def2/J RI DEFGRID1 loosescf d4 GCP(DFT/SV(P)) printgap
|  2> %output
|  3>     printlevel normal
|  4> end
|  5> * xyz 0 1
|  6> C 4.9764767229 1.166196927 0.1414437759
|  7> C 3.7243667049 1.434414835 -0.6660871896
|  8> O 2.9407234474 0.235218143 -0.8439640286
|  9> P 2.1502789907 -0.4268628971 0.3559802338
| 10> S 1.5299394991 0.7869774214 1.7703690958
| 11> O 3.1789454037 -1.520797136 0.8847506708
| 12> C 3.0020814871 -2.1819350079 2.1466848548
| 13> C 1.8129342322 -3.1208431004 2.1214687088
| 14> S 0.7781497679 -1.5947460824 -0.7732761344
| 15> C 0.3445111951 -0.4092544745 -2.0768439918
| 16> S -0.2687930135 1.173746805 -1.4381289824
| 17> P -2.0077176844 0.4001428223 -0.5236528437
| 18> S -2.9223169923 -1.038332899 -1.4969613237
| 19> O -2.8816844247 1.6955470198 -0.253660403
| 20> C -3.676355997 2.3075944157 -1.2905786156
| 21> C -4.7444135572 3.1506729065 -0.6238070634
| 22> O -1.472435914 0.0554877084 0.9200801231
| 23> C -2.1216161496 -0.9010318262 1.782349371
| 24> C -3.4949479136 -0.4289746294 2.2074398477
| 25> H 5.5428920805 0.3524609417 -0.3034974769
| 26> H 5.5873367153 2.0630576523 0.1672830021
| 27> H 4.7063369885 0.8915595365 1.1602357676
| 28> H 3.9557336681 1.7498686275 -1.6842125742
| 29> H 3.0991844738 2.1881228149 -0.1764584334
| 30> H 3.9392358109 -2.7177886333 2.3013973517
| 31> H 2.8738216838 -1.4190197037 2.9223077904
| 32> H 1.7389923619 -3.6428597927 3.0699547258
| 33> H 0.8986646818 -2.5487099211 1.9577295495
| 34> H 1.9161076968 -3.8424595801 1.3151669464
| 35> H -0.439233125 -0.8908901366 -2.6631144161
| 36> H 1.2187570345 -0.1907596545 -2.6837824851
| 37> H -3.0141895502 2.9180775396 -1.9102844156
| 38> H -4.1151659476 1.5152179577 -1.9066270858
| 39> H -4.2805274658 3.8923437235 0.0199472847
| 40> H -5.3301205307 3.6515138522 -1.3875434044
| 41> H -5.3980981861 2.5237838773 -0.023991749
| 42> H -2.1818093371 -1.8574872672 1.2521941804
| 43> H -1.4397130615 -0.9851961626 2.6305547464
| 44> H -3.9131792682 -1.1320587672 2.9208367713
| 45> H -3.4267347993 0.5559040387 2.6622654541
| 46> H -4.149052689 -0.3729879683 1.3376813681
| 47> *
| 48>
| 49>                          ****END OF INPUT****

CARTESIAN COORDINATES (ANGSTROEM)
---------------------------------
  C      4.976477    1.166197    0.141444
  C      3.724367    1.434415   -0.666087
  O      2.940723    0.235218   -0.843964
  P      2.150279   -0.426863    0.355980
  S      1.529939    0.786977    1.770369
  O      3.178945   -1.520797    0.884751
  C      3.002081   -2.181935    2.146685
  C      1.812934   -3.120843    2.121469
  S      0.778150   -1.594746   -0.773276
  C      0.344511   -0.409254   -2.076844
  S     -0.268793    1.173747   -1.438129
  P     -2.007718    0.400143   -0.523653
  S     -2.922317   -1.038333   -1.496961
  O     -2.881684    1.695547   -0.253660
  C     -3.676356    2.307594   -1.290579
  C     -4.744414    3.150673   -0.623807
  O     -1.472436    0.055488    0.920080
  C     -2.121616   -0.901032    1.782349
  C     -3.494948   -0.428975    2.207440
  H      5.542892    0.352461   -0.303497
  H      5.587337    2.063058    0.167283
  H      4.706337    0.891560    1.160236
  H      3.955734    1.749869   -1.684213
  H      3.099184    2.188123   -0.176458
  H      3.939236   -2.717789    2.301397
  H      2.873822   -1.419020    2.922308
  H      1.738992   -3.642860    3.069955
  H      0.898665   -2.548710    1.957730
  H      1.916108   -3.842460    1.315167
  H     -0.439233   -0.890890   -2.663114
  H      1.218757   -0.190760   -2.683782
  H     -3.014190    2.918078   -1.910284
  H     -4.115166    1.515218   -1.906627
  H     -4.280527    3.892344    0.019947
  H     -5.330121    3.651514   -1.387543
  H     -5.398098    2.523784   -0.023992
  H     -2.181809   -1.857487    1.252194
  H     -1.439713   -0.985196    2.630555
  H     -3.913179   -1.132059    2.920837
  H     -3.426735    0.555904    2.662265
  H     -4.149053   -0.372988    1.337681

 Total Charge           Charge          ....    0
 Multiplicity           Mult            ....    1
 Number of Electrons    NEL             ....  202
 Basis Dimension        Dim             ....  334

ORBITAL ENERGIES
----------------

  NO   OCC          E(Eh)            E(eV)
   0   2.0000     -88.039394     -2395.6737
   1   2.0000     -88.037316     -2395.6172
   2   2.0000     -87.985460     -2394.2061
   3   2.0000     -87.981374     -2394.0949
   4   2.0000     -76.423386     -2079.5861
   5   2.0000     -76.423348     -2079.5850
   6   2.0000     -18.793303      -511.3918
   7   2.0000     -18.792279      -511.3639
   8   2.0000     -18.789110      -511.2777
   9   2.0000     -18.783930      -511.1367
  10   2.0000      -9.953728      -270.8547
  11   2.0000      -9.952026      -270.8084
  12   2.0000      -9.951955      -270.8065
  13   2.0000      -9.951015      -270.7809
  14   2.0000      -9.945473      -270.6301
  15   2.0000      -9.887677      -269.0574
  16   2.0000      -9.886725      -269.0315
  17   2.0000      -9.883312      -268.9386
  18   2.0000      -9.879213      -268.8270
  19   2.0000      -7.684697      -209.1112
  20   2.0000      -7.682289      -209.0457
  21   2.0000      -7.630450      -207.6351
  22   2.0000      -7.626335      -207.5231
  23   2.0000      -6.421042      -174.7254
  24   2.0000      -6.420867      -174.7207
  25   2.0000      -5.712549      -155.4464
  26   2.0000      -5.710433      -155.3888
  27   2.0000      -5.709295      -155.3578
  28   2.0000      -5.706819      -155.2904
  29   2.0000      -5.701539      -155.1468
  30   2.0000      -5.698982      -155.0772
  31   2.0000      -5.659186      -153.9943
  32   2.0000      -5.655178      -153.8852
  33   2.0000      -5.651161      -153.7759
  34   2.0000      -5.650713      -153.7637
  35   2.0000      -5.647120      -153.6659
  36   2.0000      -5.646436      -153.6473
  37   2.0000      -4.643544      -126.3573
  38   2.0000      -4.643399      -126.3533
  39   2.0000      -4.642796      -126.3369
  40   2.0000      -4.642658      -126.3332
  41   2.0000      -4.641682      -126.3066
  42   2.0000      -4.641191      -126.2932
  43   2.0000      -0.986446       -26.8426
  44   2.0000      -0.984207       -26.7816
  45   2.0000      -0.946777       -25.7631
  46   2.0000      -0.942856       -25.6564
  47   2.0000      -0.761809       -20.7299
  48   2.0000      -0.719258       -19.5720
  49   2.0000      -0.706794       -19.2329
  50   2.0000      -0.687563       -18.7095
  51   2.0000      -0.685268       -18.6471
  52   2.0000      -0.669737       -18.2245
  53   2.0000      -0.649073       -17.6622
  54   2.0000      -0.636390       -17.3170
  55   2.0000      -0.599258       -16.3066
  56   2.0000      -0.592872       -16.1329
  57   2.0000      -0.572842       -15.5878
  58   2.0000      -0.564736       -15.3672
  59   2.0000      -0.559092       -15.2137
  60   2.0000      -0.502421       -13.6716
  61   2.0000      -0.492605       -13.4045
  62   2.0000      -0.474914       -12.9231
  63   2.0000      -0.471383       -12.8270
  64   2.0000      -0.456305       -12.4167
  65   2.0000      -0.443048       -12.0560
  66   2.0000      -0.438594       -11.9348
  67   2.0000      -0.432655       -11.7731
  68   2.0000      -0.424981       -11.5643
  69   2.0000      -0.414394       -11.2762
  70   2.0000      -0.405716       -11.0401
  71   2.0000      -0.393711       -10.7134
  72   2.0000      -0.391509       -10.6535
  73   2.0000      -0.388427       -10.5696
  74   2.0000      -0.378140       -10.2897
  75   2.0000      -0.372903       -10.1472
  76   2.0000      -0.370384       -10.0787
  77   2.0000      -0.357461        -9.7270
  78   2.0000      -0.356028        -9.6880
  79   2.0000      -0.351155        -9.5554
  80   2.0000      -0.348263        -9.4767
  81   2.0000      -0.345266        -9.3952
  82   2.0000      -0.341194        -9.2844
  83   2.0000      -0.339200        -9.2301
  84   2.0000      -0.329267        -8.9598
  85   2.0000      -0.318896        -8.6776
  86   2.0000      -0.306278        -8.3343
  87   2.0000      -0.298774        -8.1300
  88   2.0000      -0.294714        -8.0196
  89   2.0000      -0.284558        -7.7432
  90   2.0000      -0.280772        -7.6402
  91   2.0000      -0.273235        -7.4351
  92   2.0000      -0.270590        -7.3631
  93   2.0000      -0.260839        -7.0978
  94   2.0000      -0.259909        -7.0725
  95   2.0000      -0.234585        -6.3834
  96   2.0000      -0.216350        -5.8872
  97   2.0000      -0.207296        -5.6408
  98   2.0000      -0.203117        -5.5271
  99   2.0000      -0.195167        -5.3108
 100   2.0000      -0.190256        -5.1771
 101   0.0000      -0.045541        -1.2392
 102   0.0000      -0.020525        -0.5585
 103   0.0000      -0.014505        -0.3947
 104   0.0000       0.008735         0.2377
 105   0.0000       0.022164         0.6031

MULLIKEN ATOMIC CHARGES
-----------------------
   0 C :   -0.303937
   1 C :   -0.005778
   2 O :   -0.376661
   3 P :    0.615543
   4 S :   -0.313554
   5 O :   -0.368985
   6 C :   -0.001859
   7 C :   -0.339215
   8 S :   -0.097430
   9 C :   -0.343760
  10 S :   -0.091245
  11 P :    0.621823
  12 S :   -0.343995
  13 O :   -0.373299
  14 C :   -0.011121
  15 C :   -0.282201
  16 O :   -0.342430
  17 C :   -0.014357
  18 C :   -0.302386
  19 H :    0.117047
  20 H :    0.111821
  21 H :    0.122673
  22 H :    0.102284
  23 H :    0.115908
  24 H :    0.105585
  25 H :    0.107866
  26 H :    0.115372
  27 H :    0.140309
  28 H :    0.124443
  29 H :    0.192308
  30 H :    0.186523
  31 H :    0.102367
  32 H :    0.106123
  33 H :    0.119017
  34 H :    0.111805
  35 H :    0.119764
  36 H :    0.112167
  37 H :    0.112684
  38 H :    0.109494
  39 H :    0.118313
  40 H :    0.120975
Sum of atomic charges:   -0.0000000

LOEWDIN ATOMIC CHARGES
----------------------
   0 C :   -0.364094
   1 C :   -0.117920
   2 O :   -0.241486
   3 P :    0.570829
   4 S :   -0.309396
   5 O :   -0.244953
   6 C :   -0.122435
   7 C :   -0.371080
   8 S :    0.084060
   9 C :   -0.476988
  10 S :    0.081421
  11 P :    0.573641
  12 S :   -0.329344
  13 O :   -0.244681
  14 C :   -0.119994
  15 C :   -0.350362
  16 O :   -0.224750
  17 C :   -0.117143
  18 C :   -0.365876
  19 H :    0.126785
  20 H :    0.130429
  21 H :    0.123201
  22 H :    0.116984
  23 H :    0.112426
  24 H :    0.118953
  25 H :    0.107684
  26 H :    0.132227
  27 H :    0.120607
  28 H :    0.127258
  29 H :    0.130038
  30 H :    0.133437
  31 H :    0.110655
  32 H :    0.107899
  33 H :    0.128030
  34 H :    0.130766
  35 H :    0.128076
  36 H :    0.110229
  37 H :    0.117999
  38 H :    0.129489
  39 H :    0.127174
  40 H :    0.120204

  Mayer bond orders larger than 0.100000
B(  0-C ,  1-C ) :   1.1656 B(  0-C , 19-H ) :   0.9460 B(  0-C , 20-H ) :   0.9390
B(  0-C , 21-H ) :   0.9358 B(  1-C ,  2-O ) :   0.9011 B(  1-C , 22-H ) :   0.9343
B(  1-C , 23-H ) :   0.9146 B(  2-O ,  3-P ) :   1.1109 B(  3-P ,  4-S ) :   1.6246
B(  3-P ,  5-O ) :   1.0954 B(  3-P ,  8-S ) :   0.9473 B(  4-S ,  8-S ) :   0.1082
B(  5-O ,  6-C ) :   0.9144 B(  6-C ,  7-C ) :   1.1626 B(  6-C , 24-H ) :   0.9323
B(  6-C , 25-H ) :   0.9110 B(  7-C , 26-H ) :   0.9386 B(  7-C , 27-H ) :   0.9288
B(  7-C , 28-H ) :   0.9430 B(  8-S ,  9-C ) :   1.0026 B(  9-C , 10-S ) :   1.0089
B(  9-C , 29-H ) :   0.8799 B(  9-C , 30-H ) :   0.9017 B( 10-S , 11-P ) :   0.9548
B( 10-S , 12-S ) :   0.1094 B( 11-P , 12-S ) :   1.5912 B( 11-P , 13-O ) :   1.1123
B( 11-P , 16-O ) :   1.1537 B( 13-O , 14-C ) :   0.9034 B( 14-C , 15-C ) :   1.1610
B( 14-C , 31-H ) :   0.9297 B( 14-C , 32-H ) :   0.9083 B( 15-C , 33-H ) :   0.9502
B( 15-C , 34-H ) :   0.9418 B( 15-C , 35-H ) :   0.9515 B( 16-O , 17-C ) :   0.9038
B( 17-C , 18-C ) :   1.1630 B( 17-C , 36-H ) :   0.9186 B( 17-C , 37-H ) :   0.9255
B( 18-C , 38-H ) :   0.9389 B( 18-C , 39-H ) :   0.9448 B( 18-C , 40-H ) :   0.9333

Dispersion correction           -0.066356915
FINAL SINGLE POINT ENERGY     -2929.521934998620

DIPOLE MOMENT
-------------

Method             : SCF
Type of density    : Electron Density
Multiplicity       :   1
Irrep              :   0
Energy             : -2929.6397435514027165 Eh
Relativity type    :
Basis              : AO
                                X                 Y                 Z
Electronic contribution:      2.539702157      -2.300316771     -10.371903479
Nuclear contribution   :     -2.149743577       2.584883002      10.515680199
                        -----------------------------------------
Total Dipole Moment    :      0.389958580       0.284566231       0.143776720
                        -----------------------------------------
Magnitude (a.u.)       :      0.503703662
Magnitude (Debye)      :      1.280312961

Rotational constants in cm-1:             0.012776             0.005106             0.004637
Rotational constants in MHz :           383.014277           153.087820           139.009213

                             ****ORCA TERMINATED NORMALLY****
TOTAL RUN TIME: 0 days 0 hours 0 minutes 21 seconds 281 msec
