                         Program Version 6.0.0  -   RELEASE  -
|  1> ! pbe def2-sv(p) def2/J RI DEFGRID1 loosescf d4 GCP(DFT/SV(P)) printgap
|  2> %output
|  3>     printlevel normal
|  4> end
|  5> * xyz 0 1
|  6> C 0.445401409 -1.645041674 2.794713645
|  7> C 1.5728926595 -0.6393707104 2.6726911516
|  8> O 1.3911928672 0.1830887453 1.4963047585
|  9> P 2.2460016042 0.0163790762 0.1783677615
| 10> S 2.9615401574 -1.7736215679 -0.1910671334
| 11> O 3.3225350729 1.1675334744 0.4000604899
| 12> C 4.3717799664 1.4395611431 -0.5523842234
| 13> C 5.6491677552 0.7174279106 -0.1697163773
| 14> S 0.9852441027 0.8581460966 -1.2917474086
| 15> C 0.2312113507 -0.6871309975 -1.8743667232
| 16> S -0.7300268039 -1.532231727 -0.5944121983
| 17> P -2.1113373042 0.0329162963 -0.2333570496
| 18> S -2.6644059387 1.0532595609 -1.8181314689
| 19> O -1.4175620468 0.8632843608 0.9193830972
| 20> C -1.5068065423 2.2964360723 1.0085541337
| 21> C -2.8473367385 2.7176427473 1.5726119957
| 22> O -3.2379922495 -0.6999888161 0.6108153964
| 23> C -4.0928301429 -1.7272544391 0.0702321195
| 24> C -5.3294650976 -1.1339706913 -0.5769108277
| 25> H -0.5143502371 -1.1379865868 2.7266743231
| 26> H 0.5076163541 -2.3810959918 1.9957631245
| 27> H 0.5202716278 -2.1511841819 3.7517506116
| 28> H 2.5412409906 -1.1443488929 2.6134502247
| 29> H 1.5743750026 0.0638201851 3.5070099681
| 30> H 4.0379416937 1.1457342169 -1.5516330775
| 31> H 4.5005874944 2.5229181676 -0.517191933
| 32> H 5.5000306106 -0.3593211876 -0.2089339135
| 33> H 6.4360446848 0.9912752956 -0.8650090236
| 34> H 5.9461795898 0.9941392252 0.8379413042
| 35> H 1.0100640755 -1.3829970318 -2.1844667423
| 36> H -0.4182902244 -0.4138976286 -2.7054065715
| 37> H -0.6775827357 2.5762529931 1.6601620235
| 38> H -1.3510128682 2.7242111479 0.0121321815
| 39> H -2.8698202126 3.7966909723 1.6870640577
| 40> H -3.6400471202 2.4150388929 0.8892602364
| 41> H -3.0153143615 2.244853417 2.5363774997
| 42> H -3.5235709235 -2.3292522911 -0.6440860971
| 43> H -4.3532115506 -2.3405890613 0.9349512139
| 44> H -5.0526693224 -0.5116488414 -1.4249739864
| 45> H -5.9716721551 -1.9374986534 -0.9227309246
| 46> H -5.8716029052 -0.5246729353 0.1409170959
| 47> *
| 48>
| 49>                          ****END OF INPUT****

CARTESIAN COORDINATES (ANGSTROEM)
---------------------------------
  C      0.445401   -1.645042    2.794714
  C      1.572893   -0.639371    2.672691
  O      1.391193    0.183089    1.496305
  P      2.246002    0.016379    0.178368
  S      2.961540   -1.773622   -0.191067
  O      3.322535    1.167533    0.400060
  C      4.371780    1.439561   -0.552384
  C      5.649168    0.717428   -0.169716
  S      0.985244    0.858146   -1.291747
  C      0.231211   -0.687131   -1.874367
  S     -0.730027   -1.532232   -0.594412
  P     -2.111337    0.032916   -0.233357
  S     -2.664406    1.053260   -1.818131
  O     -1.417562    0.863284    0.919383
  C     -1.506807    2.296436    1.008554
  C     -2.847337    2.717643    1.572612
  O     -3.237992   -0.699989    0.610815
  C     -4.092830   -1.727254    0.070232
  C     -5.329465   -1.133971   -0.576911
  H     -0.514350   -1.137987    2.726674
  H      0.507616   -2.381096    1.995763
  H      0.520272   -2.151184    3.751751
  H      2.541241   -1.144349    2.613450
  H      1.574375    0.063820    3.507010
  H      4.037942    1.145734   -1.551633
  H      4.500587    2.522918   -0.517192
  H      5.500031   -0.359321   -0.208934
  H      6.436045    0.991275   -0.865009
  H      5.946180    0.994139    0.837941
  H      1.010064   -1.382997   -2.184467
  H     -0.418290   -0.413898   -2.705407
  H     -0.677583    2.576253    1.660162
  H     -1.351013    2.724211    0.012132
  H     -2.869820    3.796691    1.687064
  H     -3.640047    2.415039    0.889260
  H     -3.015314    2.244853    2.536377
  H     -3.523571   -2.329252   -0.644086
  H     -4.353212   -2.340589    0.934951
  H     -5.052669   -0.511649   -1.424974
  H     -5.971672   -1.937499   -0.922731
  H     -5.871603   -0.524673    0.140917

 Total Charge           Charge          ....    0
 Multiplicity           Mult            ....    1
 Number of Electrons    NEL             ....  202
 Basis Dimension        Dim             ....  334

ORBITAL ENERGIES
----------------

  NO   OCC          E(Eh)            E(eV)
   0   2.0000     -88.044374     -2395.8092
   1   2.0000     -88.043063     -2395.7736
   2   2.0000     -87.989764     -2394.3232
   3   2.0000     -87.988683     -2394.2938
   4   2.0000     -76.427754     -2079.7049
   5   2.0000     -76.426337     -2079.6663
   6   2.0000     -18.796201      -511.4706
   7   2.0000     -18.791487      -511.3424
   8   2.0000     -18.788086      -511.2498
   9   2.0000     -18.786888      -511.2172
  10   2.0000      -9.956864      -270.9400
  11   2.0000      -9.955327      -270.8982
  12   2.0000      -9.953831      -270.8575
  13   2.0000      -9.949722      -270.7457
  14   2.0000      -9.946559      -270.6596
  15   2.0000      -9.882297      -268.9110
  16   2.0000      -9.880742      -268.8687
  17   2.0000      -9.880663      -268.8665
  18   2.0000      -9.875212      -268.7182
  19   2.0000      -7.689263      -209.2355
  20   2.0000      -7.687839      -209.1967
  21   2.0000      -7.634613      -207.7484
  22   2.0000      -7.633658      -207.7224
  23   2.0000      -6.425090      -174.8356
  24   2.0000      -6.423867      -174.8023
  25   2.0000      -5.717098      -155.5701
  26   2.0000      -5.715669      -155.5313
  27   2.0000      -5.713784      -155.4800
  28   2.0000      -5.712342      -155.4407
  29   2.0000      -5.706269      -155.2755
  30   2.0000      -5.704857      -155.2371
  31   2.0000      -5.663403      -154.1090
  32   2.0000      -5.662414      -154.0821
  33   2.0000      -5.655175      -153.8851
  34   2.0000      -5.654982      -153.8799
  35   2.0000      -5.654417      -153.8645
  36   2.0000      -5.653854      -153.8492
  37   2.0000      -4.647458      -126.4638
  38   2.0000      -4.646960      -126.4502
  39   2.0000      -4.646270      -126.4314
  40   2.0000      -4.645662      -126.4149
  41   2.0000      -4.645653      -126.4147
  42   2.0000      -4.644480      -126.3827
  43   2.0000      -0.988308       -26.8932
  44   2.0000      -0.984368       -26.7860
  45   2.0000      -0.946098       -25.7446
  46   2.0000      -0.942020       -25.6337
  47   2.0000      -0.766268       -20.8512
  48   2.0000      -0.721157       -19.6237
  49   2.0000      -0.707952       -19.2643
  50   2.0000      -0.684886       -18.6367
  51   2.0000      -0.682623       -18.5751
  52   2.0000      -0.672762       -18.3068
  53   2.0000      -0.651603       -17.7310
  54   2.0000      -0.641026       -17.4432
  55   2.0000      -0.598421       -16.2839
  56   2.0000      -0.591170       -16.0866
  57   2.0000      -0.573213       -15.5979
  58   2.0000      -0.567648       -15.4465
  59   2.0000      -0.559471       -15.2240
  60   2.0000      -0.505182       -13.7467
  61   2.0000      -0.497391       -13.5347
  62   2.0000      -0.476094       -12.9552
  63   2.0000      -0.473489       -12.8843
  64   2.0000      -0.454593       -12.3701
  65   2.0000      -0.439747       -11.9661
  66   2.0000      -0.438499       -11.9322
  67   2.0000      -0.435127       -11.8404
  68   2.0000      -0.426394       -11.6028
  69   2.0000      -0.406677       -11.0663
  70   2.0000      -0.405756       -11.0412
  71   2.0000      -0.399477       -10.8703
  72   2.0000      -0.395325       -10.7573
  73   2.0000      -0.388414       -10.5693
  74   2.0000      -0.380347       -10.3498
  75   2.0000      -0.373418       -10.1612
  76   2.0000      -0.368197       -10.0192
  77   2.0000      -0.352504        -9.5921
  78   2.0000      -0.350846        -9.5470
  79   2.0000      -0.347386        -9.4529
  80   2.0000      -0.347156        -9.4466
  81   2.0000      -0.344830        -9.3833
  82   2.0000      -0.336963        -9.1692
  83   2.0000      -0.335867        -9.1394
  84   2.0000      -0.332051        -9.0356
  85   2.0000      -0.322625        -8.7791
  86   2.0000      -0.304923        -8.2974
  87   2.0000      -0.298397        -8.1198
  88   2.0000      -0.297681        -8.1003
  89   2.0000      -0.289112        -7.8671
  90   2.0000      -0.282521        -7.6878
  91   2.0000      -0.279537        -7.6066
  92   2.0000      -0.270438        -7.3590
  93   2.0000      -0.264510        -7.1977
  94   2.0000      -0.257677        -7.0118
  95   2.0000      -0.233691        -6.3591
  96   2.0000      -0.220320        -5.9952
  97   2.0000      -0.214251        -5.8301
  98   2.0000      -0.207916        -5.6577
  99   2.0000      -0.201255        -5.4764
 100   2.0000      -0.199032        -5.4159
 101   0.0000      -0.045759        -1.2452
 102   0.0000      -0.024521        -0.6672
 103   0.0000      -0.001593        -0.0433
 104   0.0000      -0.000253        -0.0069
 105   0.0000       0.009472         0.2578

MULLIKEN ATOMIC CHARGES
-----------------------
   0 C :   -0.297275
   1 C :   -0.001706
   2 O :   -0.356880
   3 P :    0.611968
   4 S :   -0.339797
   5 O :   -0.372355
   6 C :   -0.007550
   7 C :   -0.290552
   8 S :   -0.080762
   9 C :   -0.356069
  10 S :   -0.080748
  11 P :    0.621940
  12 S :   -0.334367
  13 O :   -0.353996
  14 C :   -0.006202
  15 C :   -0.298044
  16 O :   -0.370652
  17 C :   -0.014227
  18 C :   -0.297002
  19 H :    0.121363
  20 H :    0.128269
  21 H :    0.102735
  22 H :    0.104342
  23 H :    0.102409
  24 H :    0.100359
  25 H :    0.106721
  26 H :    0.128381
  27 H :    0.107090
  28 H :    0.111488
  29 H :    0.191188
  30 H :    0.191135
  31 H :    0.104128
  32 H :    0.114389
  33 H :    0.110173
  34 H :    0.119803
  35 H :    0.112797
  36 H :    0.105054
  37 H :    0.108894
  38 H :    0.131091
  39 H :    0.108290
  40 H :    0.114178
Sum of atomic charges:   -0.0000000

LOEWDIN ATOMIC CHARGES
----------------------
   0 C :   -0.363716
   1 C :   -0.110032
   2 O :   -0.234486
   3 P :    0.567468
   4 S :   -0.324967
   5 O :   -0.250466
   6 C :   -0.116326
   7 C :   -0.362853
   8 S :    0.093457
   9 C :   -0.480431
  10 S :    0.097841
  11 P :    0.569304
  12 S :   -0.319389
  13 O :   -0.226235
  14 C :   -0.120244
  15 C :   -0.362736
  16 O :   -0.242779
  17 C :   -0.116515
  18 C :   -0.364629
  19 H :    0.123865
  20 H :    0.122164
  21 H :    0.125589
  22 H :    0.107967
  23 H :    0.116622
  24 H :    0.106432
  25 H :    0.118475
  26 H :    0.124383
  27 H :    0.128492
  28 H :    0.124947
  29 H :    0.131108
  30 H :    0.130913
  31 H :    0.117609
  32 H :    0.107663
  33 H :    0.129477
  34 H :    0.122046
  35 H :    0.124486
  36 H :    0.106272
  37 H :    0.119782
  38 H :    0.124272
  39 H :    0.129161
  40 H :    0.126006

  Mayer bond orders larger than 0.100000
B(  0-C ,  1-C ) :   1.1726 B(  0-C , 19-H ) :   0.9414 B(  0-C , 20-H ) :   0.9385
B(  0-C , 21-H ) :   0.9386 B(  1-C ,  2-O ) :   0.8925 B(  1-C , 22-H ) :   0.9122
B(  1-C , 23-H ) :   0.9340 B(  2-O ,  3-P ) :   1.1471 B(  3-P ,  4-S ) :   1.5885
B(  3-P ,  5-O ) :   1.1153 B(  3-P ,  8-S ) :   0.9584 B(  4-S ,  8-S ) :   0.1101
B(  5-O ,  6-C ) :   0.9039 B(  6-C ,  7-C ) :   1.1665 B(  6-C , 24-H ) :   0.9145
B(  6-C , 25-H ) :   0.9362 B(  7-C , 26-H ) :   0.9325 B(  7-C , 27-H ) :   0.9398
B(  7-C , 28-H ) :   0.9477 B(  8-S ,  9-C ) :   1.0020 B(  9-C , 10-S ) :   1.0075
B(  9-C , 29-H ) :   0.8845 B(  9-C , 30-H ) :   0.8842 B( 10-S , 11-P ) :   0.9562
B( 10-S , 12-S ) :   0.1084 B( 11-P , 12-S ) :   1.5897 B( 11-P , 13-O ) :   1.1233
B( 11-P , 16-O ) :   1.1145 B( 13-O , 14-C ) :   0.8991 B( 14-C , 15-C ) :   1.1628
B( 14-C , 31-H ) :   0.9319 B( 14-C , 32-H ) :   0.9109 B( 15-C , 33-H ) :   0.9408
B( 15-C , 34-H ) :   0.9373 B( 15-C , 35-H ) :   0.9474 B( 16-O , 17-C ) :   0.9074
B( 17-C , 18-C ) :   1.1663 B( 17-C , 36-H ) :   0.9162 B( 17-C , 37-H ) :   0.9359
B( 18-C , 38-H ) :   0.9314 B( 18-C , 39-H ) :   0.9389 B( 18-C , 40-H ) :   0.9474

Dispersion correction           -0.066832334
FINAL SINGLE POINT ENERGY     -2929.528320889353

DIPOLE MOMENT
-------------

Method             : SCF
Type of density    : Electron Density
Multiplicity       :   1
Irrep              :   0
Energy             : -2929.6456565940807195 Eh
Relativity type    :
Basis              : AO
                                X                 Y                 Z
Electronic contribution:      4.446441916      -2.461424183     -11.008291304
Nuclear contribution   :     -4.530590918       2.702326446      11.723091200
                        -----------------------------------------
Total Dipole Moment    :     -0.084149002       0.240902263       0.714799896
                        -----------------------------------------
Magnitude (a.u.)       :      0.758982112
Magnitude (Debye)      :      1.929179214

Rotational constants in cm-1:             0.013917             0.004868             0.004765
Rotational constants in MHz :           417.219742           145.939589           142.850493

                             ****ORCA TERMINATED NORMALLY****
TOTAL RUN TIME: 0 days 0 hours 0 minutes 21 seconds 371 msec
