                         Program Version 6.0.0  -   RELEASE  -
|  1> ! wb97x-v def2-tzvp def2/J RIJCOSX DEFGRID2 scfconv7 GCP(DFT/TZ) printgap
|  2> %output
|  3>     printlevel normal
|  4> end
|  5> * xyz 0 1
|  6> C -3.0850990881435187 -0.39274934276296164 -0.0001345468261219073
|  7> C -1.6229830963033347 -0.04207660306928664 0.00012958254317443668
|  8> C -1.1889459099137698 1.2828546698800882 9.385718828278862e-05
|  9> C 0.1735521397692287 1.5806075943794518 -2.9398057460067522e-05
| 10> C 1.1405689446425817 0.5753040774159957 -7.894977138756261e-05
| 11> C 0.7144573407824647 -0.7688802533697231 -3.8808825840957365e-05
| 12> C -0.651839526481267 -1.049988637426159 7.791918119580762e-05
| 13> C 1.7194989348349698 -1.885079797951641 1.9851594199086063e-05
| 14> C 2.603624923960284 0.9150503114071328 2.5375644567745136e-05
| 15> H -3.3487903646227357 -0.9857142443223735 -0.8829707852657438
| 16> H -3.3472426992064883 -0.9936711085530234 0.8777258173350979
| 17> H -3.7074762150818668 0.5057774647520369 0.004321638720511118
| 18> H -1.9177847995953086 2.0890834890542824 0.00018878296313629565
| 19> H 0.4931795684006583 2.61983713212885 -2.0747583584632492e-05
| 20> H -0.9727329372025142 -2.0900014382875183 0.00015471591843985684
| 21> H 2.372945215636678 -1.8330188564124827 0.8788599884032948
| 22> H 1.223818568338558 -2.858798316899668 -0.00015704724677397333
| 23> H 2.3732476348513307 -1.8328520332907545 -0.8785805462027685
| 24> H 2.752489494003372 1.9975946286281803 -0.0006995188028316752
| 25> H 3.1108453332356705 0.5008963882582803 0.8794771953715043
| 26> H 3.1113291264380845 0.49961528688369167 -0.8785284744805203
| 27> *
| 28>
| 29>                          ****END OF INPUT****

CARTESIAN COORDINATES (ANGSTROEM)
---------------------------------
  C     -3.085099   -0.392749   -0.000135
  C     -1.622983   -0.042077    0.000130
  C     -1.188946    1.282855    0.000094
  C      0.173552    1.580608   -0.000029
  C      1.140569    0.575304   -0.000079
  C      0.714457   -0.768880   -0.000039
  C     -0.651840   -1.049989    0.000078
  C      1.719499   -1.885080    0.000020
  C      2.603625    0.915050    0.000025
  H     -3.348790   -0.985714   -0.882971
  H     -3.347243   -0.993671    0.877726
  H     -3.707476    0.505777    0.004322
  H     -1.917785    2.089083    0.000189
  H      0.493180    2.619837   -0.000021
  H     -0.972733   -2.090001    0.000155
  H      2.372945   -1.833019    0.878860
  H      1.223819   -2.858798   -0.000157
  H      2.373248   -1.832852   -0.878581
  H      2.752489    1.997595   -0.000700
  H      3.110845    0.500896    0.879477
  H      3.111329    0.499615   -0.878528

 Total Charge           Charge          ....    0
 Multiplicity           Mult            ....    1
 Number of Electrons    NEL             ....   66
 Basis Dimension        Dim             ....  351

ORBITAL ENERGIES
----------------

  NO   OCC          E(Eh)            E(eV)
   0   2.0000     -12.053033      -327.9797
   1   2.0000     -12.051630      -327.9415
   2   2.0000     -12.049724      -327.8897
   3   2.0000     -12.042013      -327.6798
   4   2.0000     -12.041117      -327.6554
   5   2.0000     -12.040497      -327.6386
   6   2.0000     -12.039531      -327.6123
   7   2.0000     -12.039002      -327.5979
   8   2.0000     -12.038449      -327.5829
   9   2.0000      -1.382183       -37.6111
  10   2.0000      -1.306592       -35.5542
  11   2.0000      -1.280151       -34.8347
  12   2.0000      -1.220452       -33.2102
  13   2.0000      -1.190768       -32.4024
  14   2.0000      -1.155056       -31.4307
  15   2.0000      -1.088157       -29.6103
  16   2.0000      -1.055785       -28.7294
  17   2.0000      -0.959104       -26.0986
  18   2.0000      -0.936273       -25.4773
  19   2.0000      -0.899224       -24.4691
  20   2.0000      -0.862087       -23.4586
  21   2.0000      -0.861487       -23.4423
  22   2.0000      -0.847059       -23.0497
  23   2.0000      -0.834479       -22.7073
  24   2.0000      -0.831837       -22.6354
  25   2.0000      -0.825487       -22.4627
  26   2.0000      -0.821155       -22.3448
  27   2.0000      -0.810454       -22.0536
  28   2.0000      -0.801953       -21.8222
  29   2.0000      -0.786227       -21.3943
  30   2.0000      -0.742168       -20.1954
  31   2.0000      -0.627249       -17.0683
  32   2.0000      -0.619489       -16.8572
  33   0.0000      -0.234057        -6.3690
  34   0.0000      -0.229689        -6.2501
  35   0.0000      -0.069715        -1.8970
  36   0.0000      -0.057122        -1.5544
  37   0.0000      -0.020575        -0.5599

MULLIKEN ATOMIC CHARGES
-----------------------
   0 C :   -0.367219
   1 C :    0.173422
   2 C :   -0.211310
   3 C :   -0.157244
   4 C :    0.040969
   5 C :    0.136443
   6 C :   -0.285164
   7 C :   -0.355853
   8 C :   -0.354759
   9 H :    0.121199
  10 H :    0.121153
  11 H :    0.115071
  12 H :    0.106274
  13 H :    0.104855
  14 H :    0.104184
  15 H :    0.119359
  16 H :    0.116324
  17 H :    0.119371
  18 H :    0.115955
  19 H :    0.118509
  20 H :    0.118462
Sum of atomic charges:    0.0000000

LOEWDIN ATOMIC CHARGES
----------------------
   0 C :   -0.253737
   1 C :   -0.172577
   2 C :   -0.125484
   3 C :   -0.117914
   4 C :   -0.148448
   5 C :   -0.141801
   6 C :   -0.094759
   7 C :   -0.248750
   8 C :   -0.250640
   9 H :    0.126101
  10 H :    0.126074
  11 H :    0.123334
  12 H :    0.141126
  13 H :    0.141974
  14 H :    0.144426
  15 H :    0.126174
  16 H :    0.123797
  17 H :    0.126167
  18 H :    0.124006
  19 H :    0.125473
  20 H :    0.125459

  Mayer bond orders larger than 0.100000
B(  0-C ,  1-C ) :   0.9116 B(  0-C ,  9-H ) :   0.9771 B(  0-C , 10-H ) :   0.9775
B(  0-C , 11-H ) :   0.9975 B(  1-C ,  2-C ) :   1.4186 B(  1-C ,  6-C ) :   1.3633
B(  2-C ,  3-C ) :   1.4178 B(  2-C , 12-H ) :   0.9730 B(  3-C ,  4-C ) :   1.4394
B(  3-C , 13-H ) :   0.9738 B(  4-C ,  5-C ) :   1.3271 B(  4-C ,  8-C ) :   0.9295
B(  5-C ,  6-C ) :   1.4420 B(  5-C ,  7-C ) :   0.9170 B(  6-C , 14-H ) :   0.9743
B(  7-C , 15-H ) :   0.9803 B(  7-C , 16-H ) :   0.9911 B(  7-C , 17-H ) :   0.9803
B(  8-C , 18-H ) :   0.9898 B(  8-C , 19-H ) :   0.9804 B(  8-C , 20-H ) :   0.9804

FINAL SINGLE POINT ENERGY      -350.208685623153

DIPOLE MOMENT
-------------

Method             : SCF
Type of density    : Electron Density
Multiplicity       :   1
Irrep              :   0
Energy             :  -350.2213802688533519 Eh
Relativity type    :
Basis              : AO
                                X                 Y                 Z
Electronic contribution:     -1.929238565       2.135317007       0.000152802
Nuclear contribution   :      2.030693872      -2.251134417      -0.000266199
                        -----------------------------------------
Total Dipole Moment    :      0.101455307      -0.115817410      -0.000113397
                        -----------------------------------------
Magnitude (a.u.)       :      0.153970337
Magnitude (Debye)      :      0.391361494

Rotational constants in cm-1:             0.098657             0.042880             0.030393
Rotational constants in MHz :          2957.650472          1285.500534           911.157271

                             ****ORCA TERMINATED NORMALLY****
TOTAL RUN TIME: 0 days 0 hours 4 minutes 7 seconds 901 msec
