                         Program Version 6.0.0  -   RELEASE  -
|  1> ! wb97x-v def2-tzvp def2/J RIJCOSX DEFGRID2 scfconv7 GCP(DFT/TZ) printgap
|  2> %output
|  3>     printlevel normal
|  4> end
|  5> %cpcm
|  6>     smd true
|  7>     smdsolvent "water"
|  8> end
|  9> * xyz 0 1
| 10> C -3.0850990881435187 -0.39274934276296164 -0.0001345468261219073
| 11> C -1.6229830963033347 -0.04207660306928664 0.00012958254317443668
| 12> C -1.1889459099137698 1.2828546698800882 9.385718828278862e-05
| 13> C 0.1735521397692287 1.5806075943794518 -2.9398057460067522e-05
| 14> C 1.1405689446425817 0.5753040774159957 -7.894977138756261e-05
| 15> C 0.7144573407824647 -0.7688802533697231 -3.8808825840957365e-05
| 16> C -0.651839526481267 -1.049988637426159 7.791918119580762e-05
| 17> C 1.7194989348349698 -1.885079797951641 1.9851594199086063e-05
| 18> C 2.603624923960284 0.9150503114071328 2.5375644567745136e-05
| 19> H -3.3487903646227357 -0.9857142443223735 -0.8829707852657438
| 20> H -3.3472426992064883 -0.9936711085530234 0.8777258173350979
| 21> H -3.7074762150818668 0.5057774647520369 0.004321638720511118
| 22> H -1.9177847995953086 2.0890834890542824 0.00018878296313629565
| 23> H 0.4931795684006583 2.61983713212885 -2.0747583584632492e-05
| 24> H -0.9727329372025142 -2.0900014382875183 0.00015471591843985684
| 25> H 2.372945215636678 -1.8330188564124827 0.8788599884032948
| 26> H 1.223818568338558 -2.858798316899668 -0.00015704724677397333
| 27> H 2.3732476348513307 -1.8328520332907545 -0.8785805462027685
| 28> H 2.752489494003372 1.9975946286281803 -0.0006995188028316752
| 29> H 3.1108453332356705 0.5008963882582803 0.8794771953715043
| 30> H 3.1113291264380845 0.49961528688369167 -0.8785284744805203
| 31> *
| 32>
| 33>                          ****END OF INPUT****

CARTESIAN COORDINATES (ANGSTROEM)
---------------------------------
  C     -3.085099   -0.392749   -0.000135
  C     -1.622983   -0.042077    0.000130
  C     -1.188946    1.282855    0.000094
  C      0.173552    1.580608   -0.000029
  C      1.140569    0.575304   -0.000079
  C      0.714457   -0.768880   -0.000039
  C     -0.651840   -1.049989    0.000078
  C      1.719499   -1.885080    0.000020
  C      2.603625    0.915050    0.000025
  H     -3.348790   -0.985714   -0.882971
  H     -3.347243   -0.993671    0.877726
  H     -3.707476    0.505777    0.004322
  H     -1.917785    2.089083    0.000189
  H      0.493180    2.619837   -0.000021
  H     -0.972733   -2.090001    0.000155
  H      2.372945   -1.833019    0.878860
  H      1.223819   -2.858798   -0.000157
  H      2.373248   -1.832852   -0.878581
  H      2.752489    1.997595   -0.000700
  H      3.110845    0.500896    0.879477
  H      3.111329    0.499615   -0.878528

 Total Charge           Charge          ....    0
 Multiplicity           Mult            ....    1
 Number of Electrons    NEL             ....   66
 Basis Dimension        Dim             ....  351

ORBITAL ENERGIES
----------------

  NO   OCC          E(Eh)            E(eV)
   0   2.0000     -12.052715      -327.9710
   1   2.0000     -12.051856      -327.9477
   2   2.0000     -12.049344      -327.8793
   3   2.0000     -12.041271      -327.6596
   4   2.0000     -12.038247      -327.5773
   5   2.0000     -12.037546      -327.5583
   6   2.0000     -12.032213      -327.4131
   7   2.0000     -12.031940      -327.4057
   8   2.0000     -12.031671      -327.3984
   9   2.0000      -1.382888       -37.6303
  10   2.0000      -1.305062       -35.5125
  11   2.0000      -1.279243       -34.8100
  12   2.0000      -1.215788       -33.0833
  13   2.0000      -1.185986       -32.2723
  14   2.0000      -1.150754       -31.3136
  15   2.0000      -1.086666       -29.5697
  16   2.0000      -1.053531       -28.6680
  17   2.0000      -0.958202       -26.0740
  18   2.0000      -0.933376       -25.3985
  19   2.0000      -0.895188       -24.3593
  20   2.0000      -0.859331       -23.3836
  21   2.0000      -0.858260       -23.3545
  22   2.0000      -0.841053       -22.8862
  23   2.0000      -0.827824       -22.5262
  24   2.0000      -0.825863       -22.4729
  25   2.0000      -0.819316       -22.2947
  26   2.0000      -0.812835       -22.1184
  27   2.0000      -0.803148       -21.8548
  28   2.0000      -0.795858       -21.6564
  29   2.0000      -0.782396       -21.2901
  30   2.0000      -0.742651       -20.2086
  31   2.0000      -0.629333       -17.1250
  32   2.0000      -0.620417       -16.8824
  33   0.0000      -0.235072        -6.3966
  34   0.0000      -0.231300        -6.2940
  35   0.0000      -0.069771        -1.8986
  36   0.0000      -0.051916        -1.4127
  37   0.0000      -0.013301        -0.3620

MULLIKEN ATOMIC CHARGES
-----------------------
   0 C :   -0.396440
   1 C :    0.143316
   2 C :   -0.262307
   3 C :   -0.200022
   4 C :    0.012697
   5 C :    0.110585
   6 C :   -0.325630
   7 C :   -0.397142
   8 C :   -0.396146
   9 H :    0.138736
  10 H :    0.138758
  11 H :    0.139946
  12 H :    0.151437
  13 H :    0.150706
  14 H :    0.147897
  15 H :    0.141037
  16 H :    0.140940
  17 H :    0.141064
  18 H :    0.140421
  19 H :    0.140084
  20 H :    0.140064
Sum of atomic charges:    0.0000000

LOEWDIN ATOMIC CHARGES
----------------------
   0 C :   -0.256587
   1 C :   -0.184435
   2 C :   -0.140296
   3 C :   -0.131109
   4 C :   -0.157419
   5 C :   -0.149851
   6 C :   -0.104088
   7 C :   -0.251302
   8 C :   -0.253648
   9 H :    0.130600
  10 H :    0.130580
  11 H :    0.128564
  12 H :    0.150150
  13 H :    0.151333
  14 H :    0.154186
  15 H :    0.131840
  16 H :    0.128801
  17 H :    0.131837
  18 H :    0.128808
  19 H :    0.131023
  20 H :    0.131013

  Mayer bond orders larger than 0.100000
B(  0-C ,  1-C ) :   0.9270 B(  0-C ,  9-H ) :   0.9710 B(  0-C , 10-H ) :   0.9714
B(  0-C , 11-H ) :   0.9930 B(  1-C ,  2-C ) :   1.3980 B(  1-C ,  6-C ) :   1.3406
B(  2-C ,  3-C ) :   1.3934 B(  2-C , 12-H ) :   0.9818 B(  3-C ,  4-C ) :   1.4215
B(  3-C , 13-H ) :   0.9819 B(  4-C ,  5-C ) :   1.3022 B(  4-C ,  8-C ) :   0.9427
B(  5-C ,  6-C ) :   1.4318 B(  5-C ,  7-C ) :   0.9315 B(  6-C , 14-H ) :   0.9859
B(  7-C , 15-H ) :   0.9745 B(  7-C , 16-H ) :   0.9854 B(  7-C , 17-H ) :   0.9746
B(  8-C , 18-H ) :   0.9845 B(  8-C , 19-H ) :   0.9749 B(  8-C , 20-H ) :   0.9748

FINAL SINGLE POINT ENERGY      -350.209523500808

DIPOLE MOMENT
-------------

Method             : SCF
Type of density    : Electron Density
Multiplicity       :   1
Irrep              :   0
Energy             :  -350.2222181465079416 Eh
Relativity type    :
Basis              : AO
                                X                 Y                 Z
Electronic contribution:     -1.855832586       2.061203861       0.000096207
Nuclear contribution   :      2.030693872      -2.251134417      -0.000266199
                        -----------------------------------------
Total Dipole Moment    :      0.174861286      -0.189930556      -0.000169992
                        -----------------------------------------
Magnitude (a.u.)       :      0.258166834
Magnitude (Debye)      :      0.656207943

Rotational constants in cm-1:             0.098657             0.042880             0.030393
Rotational constants in MHz :          2957.650472          1285.500534           911.157271

                             ****ORCA TERMINATED NORMALLY****
TOTAL RUN TIME: 0 days 0 hours 3 minutes 32 seconds 789 msec
