                         Program Version 6.0.0  -   RELEASE  -
|  1> ! r2scan-3c def2/J RI DEFGRID2 scfconv6 printgap
|  2> %output
|  3>     printlevel normal
|  4> end
|  5> * xyz 0 1
|  6> C 3.3399434311 -2.983877064 -0.8626542261
|  7> C 3.8626957304 -1.85268416 -1.7201164376
|  8> O 3.9932265772 -0.6077746152 -0.988953789
|  9> P 2.8768334764 0.1143700199 -0.15371919
| 10> S 3.2911898012 2.0039598586 0.1463548953
| 11> O 2.8389997044 -0.7586490103 1.1771654191
| 12> C 2.152955839 -0.3562178967 2.3757714347
| 13> C 0.9427672514 -1.2389712432 2.6113734102
| 14> S 1.0646122381 -0.2618441408 -1.2341302637
| 15> C 0.2879756509 1.3535698206 -1.0257675072
| 16> S -0.6342687992 1.502186986 0.5288900476
| 17> P -2.2555217628 0.2815716393 -0.0645899124
| 18> S -2.8654171873 0.5080819864 -1.9195418865
| 19> O -3.3507886067 0.5515877069 1.0505640414
| 20> C -4.1722795797 1.7361458369 1.0335769256
| 21> C -5.3900188471 1.4715933166 1.8958585923
| 22> O -1.7280279144 -1.1546924866 0.3297345971
| 23> C -2.2440685945 -2.3555643004 -0.2843000189
| 24> C -3.6751886193 -2.6187987568 0.1317922306
| 25> H 3.355288231 -3.9029340303 -1.4402908676
| 26> H 3.9588797381 -3.1022813022 0.0227287321
| 27> H 2.3168264562 -2.7762403351 -0.5550655726
| 28> H 3.2056923758 -1.6752319623 -2.5753089909
| 29> H 4.8797122419 -2.0425509999 -2.066343288
| 30> H 2.8849168606 -0.471690407 3.1779998716
| 31> H 1.8724744535 0.699870531 2.2988203833
| 32> H 0.2165914731 -1.1212076649 1.8106688785
| 33> H 1.2476494857 -2.2803845805 2.6603159025
| 34> H 0.4757595865 -0.9559369299 3.5491181068
| 35> H -0.3996008713 1.4876371555 -1.8613043379
| 36> H 1.0590881855 2.12546133 -1.0098564703
| 37> H -3.5794722044 2.5679013059 1.4237414434
| 38> H -4.4531688637 1.952750567 -0.0028765542
| 39> H -6.0042372258 2.3654904436 1.9275072191
| 40> H -5.9717105983 0.6520344532 1.4836684239
| 41> H -5.0793158641 1.2118192553 2.9034818312
| 42> H -2.1658981989 -2.2497502249 -1.3708140132
| 43> H -1.5679635661 -3.1379268514 0.0618136022
| 44> H -3.7533905097 -2.6408987194 1.2153939607
| 45> H -4.3202153888 -1.8290977822 -0.2519936758
| 46> H -4.0013847441 -3.57019183 -0.276408957
| 47> *
| 48>
| 49>                          ****END OF INPUT****

CARTESIAN COORDINATES (ANGSTROEM)
---------------------------------
  C      3.339943   -2.983877   -0.862654
  C      3.862696   -1.852684   -1.720116
  O      3.993227   -0.607775   -0.988954
  P      2.876833    0.114370   -0.153719
  S      3.291190    2.003960    0.146355
  O      2.839000   -0.758649    1.177165
  C      2.152956   -0.356218    2.375771
  C      0.942767   -1.238971    2.611373
  S      1.064612   -0.261844   -1.234130
  C      0.287976    1.353570   -1.025768
  S     -0.634269    1.502187    0.528890
  P     -2.255522    0.281572   -0.064590
  S     -2.865417    0.508082   -1.919542
  O     -3.350789    0.551588    1.050564
  C     -4.172280    1.736146    1.033577
  C     -5.390019    1.471593    1.895859
  O     -1.728028   -1.154692    0.329735
  C     -2.244069   -2.355564   -0.284300
  C     -3.675189   -2.618799    0.131792
  H      3.355288   -3.902934   -1.440291
  H      3.958880   -3.102281    0.022729
  H      2.316826   -2.776240   -0.555066
  H      3.205692   -1.675232   -2.575309
  H      4.879712   -2.042551   -2.066343
  H      2.884917   -0.471690    3.178000
  H      1.872474    0.699871    2.298820
  H      0.216591   -1.121208    1.810669
  H      1.247649   -2.280385    2.660316
  H      0.475760   -0.955937    3.549118
  H     -0.399601    1.487637   -1.861304
  H      1.059088    2.125461   -1.009856
  H     -3.579472    2.567901    1.423741
  H     -4.453169    1.952751   -0.002877
  H     -6.004237    2.365490    1.927507
  H     -5.971711    0.652034    1.483668
  H     -5.079316    1.211819    2.903482
  H     -2.165898   -2.249750   -1.370814
  H     -1.567964   -3.137927    0.061814
  H     -3.753391   -2.640899    1.215394
  H     -4.320215   -1.829098   -0.251994
  H     -4.001385   -3.570192   -0.276409

 Total Charge           Charge          ....    0
 Multiplicity           Mult            ....    1
 Number of Electrons    NEL             ....  202
 Basis Dimension        Dim             ....  539

ORBITAL ENERGIES
----------------

  NO   OCC          E(Eh)            E(eV)
   0   2.0000     -88.578370     -2410.3400
   1   2.0000     -88.575669     -2410.2665
   2   2.0000     -88.525656     -2408.9056
   3   2.0000     -88.517439     -2408.6820
   4   2.0000     -76.918480     -2093.0583
   5   2.0000     -76.913840     -2092.9320
   6   2.0000     -18.998882      -516.9859
   7   2.0000     -18.997177      -516.9395
   8   2.0000     -18.992934      -516.8240
   9   2.0000     -18.986948      -516.6611
  10   2.0000     -10.107416      -275.0368
  11   2.0000     -10.103760      -274.9373
  12   2.0000     -10.103271      -274.9240
  13   2.0000     -10.102185      -274.8944
  14   2.0000     -10.093335      -274.6536
  15   2.0000     -10.037652      -273.1384
  16   2.0000     -10.037197      -273.1260
  17   2.0000     -10.033671      -273.0301
  18   2.0000     -10.022178      -272.7173
  19   2.0000      -7.872580      -214.2238
  20   2.0000      -7.869924      -214.1515
  21   2.0000      -7.820378      -212.8033
  22   2.0000      -7.812294      -212.5833
  23   2.0000      -6.597237      -179.5199
  24   2.0000      -6.592105      -179.3803
  25   2.0000      -5.819350      -158.3526
  26   2.0000      -5.816804      -158.2833
  27   2.0000      -5.816485      -158.2746
  28   2.0000      -5.813681      -158.1983
  29   2.0000      -5.809791      -158.0925
  30   2.0000      -5.807149      -158.0205
  31   2.0000      -5.767933      -156.9534
  32   2.0000      -5.760687      -156.7563
  33   2.0000      -5.760450      -156.7498
  34   2.0000      -5.760003      -156.7376
  35   2.0000      -5.752633      -156.5371
  36   2.0000      -5.752151      -156.5240
  37   2.0000      -4.742616      -129.0531
  38   2.0000      -4.742195      -129.0417
  39   2.0000      -4.740998      -129.0091
  40   2.0000      -4.737856      -128.9236
  41   2.0000      -4.736956      -128.8991
  42   2.0000      -4.735689      -128.8647
  43   2.0000      -1.056877       -28.7591
  44   2.0000      -1.049274       -28.5522
  45   2.0000      -1.018325       -27.7100
  46   2.0000      -1.008876       -27.4529
  47   2.0000      -0.802295       -21.8316
  48   2.0000      -0.763011       -20.7626
  49   2.0000      -0.754992       -20.5444
  50   2.0000      -0.738465       -20.0946
  51   2.0000      -0.733458       -19.9584
  52   2.0000      -0.712876       -19.3983
  53   2.0000      -0.685580       -18.6556
  54   2.0000      -0.669505       -18.2182
  55   2.0000      -0.635464       -17.2919
  56   2.0000      -0.629044       -17.1172
  57   2.0000      -0.606044       -16.4913
  58   2.0000      -0.604146       -16.4396
  59   2.0000      -0.593031       -16.1372
  60   2.0000      -0.534130       -14.5344
  61   2.0000      -0.521449       -14.1893
  62   2.0000      -0.503021       -13.6879
  63   2.0000      -0.496401       -13.5077
  64   2.0000      -0.480011       -13.0618
  65   2.0000      -0.468101       -12.7377
  66   2.0000      -0.459986       -12.5168
  67   2.0000      -0.458656       -12.4807
  68   2.0000      -0.449096       -12.2205
  69   2.0000      -0.435705       -11.8561
  70   2.0000      -0.424525       -11.5519
  71   2.0000      -0.421602       -11.4724
  72   2.0000      -0.410915       -11.1816
  73   2.0000      -0.402547       -10.9539
  74   2.0000      -0.400758       -10.9052
  75   2.0000      -0.392042       -10.6680
  76   2.0000      -0.382137       -10.3985
  77   2.0000      -0.377657       -10.2766
  78   2.0000      -0.373074       -10.1519
  79   2.0000      -0.370590       -10.0843
  80   2.0000      -0.366953        -9.9853
  81   2.0000      -0.365832        -9.9548
  82   2.0000      -0.359946        -9.7946
  83   2.0000      -0.356455        -9.6996
  84   2.0000      -0.345401        -9.3988
  85   2.0000      -0.337510        -9.1841
  86   2.0000      -0.327627        -8.9152
  87   2.0000      -0.320629        -8.7248
  88   2.0000      -0.309246        -8.4150
  89   2.0000      -0.306894        -8.3510
  90   2.0000      -0.302552        -8.2329
  91   2.0000      -0.296737        -8.0746
  92   2.0000      -0.291073        -7.9205
  93   2.0000      -0.282505        -7.6874
  94   2.0000      -0.270957        -7.3731
  95   2.0000      -0.248690        -6.7672
  96   2.0000      -0.233017        -6.3407
  97   2.0000      -0.228955        -6.2302
  98   2.0000      -0.218782        -5.9534
  99   2.0000      -0.216806        -5.8996
 100   2.0000      -0.212277        -5.7764
 101   0.0000      -0.048341        -1.3154
 102   0.0000      -0.028777        -0.7831
 103   0.0000      -0.007950        -0.2163
 104   0.0000      -0.000243        -0.0066
 105   0.0000       0.014345         0.3903

MULLIKEN ATOMIC CHARGES
-----------------------
   0 C :   -0.431910
   1 C :   -0.176060
   2 O :   -0.272871
   3 P :    0.641842
   4 S :   -0.455621
   5 O :   -0.234634
   6 C :   -0.138435
   7 C :   -0.454400
   8 S :   -0.162478
   9 C :   -0.240266
  10 S :   -0.140560
  11 P :    0.681697
  12 S :   -0.484531
  13 O :   -0.289940
  14 C :   -0.155146
  15 C :   -0.439045
  16 O :   -0.268204
  17 C :   -0.146062
  18 C :   -0.444276
  19 H :    0.152142
  20 H :    0.165266
  21 H :    0.158539
  22 H :    0.168916
  23 H :    0.155779
  24 H :    0.149967
  25 H :    0.166532
  26 H :    0.181094
  27 H :    0.145199
  28 H :    0.144588
  29 H :    0.219181
  30 H :    0.221493
  31 H :    0.153298
  32 H :    0.171181
  33 H :    0.148694
  34 H :    0.154735
  35 H :    0.154443
  36 H :    0.173503
  37 H :    0.152010
  38 H :    0.156946
  39 H :    0.169174
  40 H :    0.148219
Sum of atomic charges:   -0.0000000

LOEWDIN ATOMIC CHARGES
----------------------
   0 C :   -0.400008
   1 C :    0.024312
   2 O :   -0.646175
   3 P :    0.390700
   4 S :   -0.108291
   5 O :   -0.668504
   6 C :    0.019065
   7 C :   -0.404477
   8 S :    0.136506
   9 C :   -0.426913
  10 S :    0.160022
  11 P :    0.372696
  12 S :   -0.136266
  13 O :   -0.663081
  14 C :    0.021559
  15 C :   -0.385019
  16 O :   -0.681785
  17 C :    0.020428
  18 C :   -0.398882
  19 H :    0.160542
  20 H :    0.166247
  21 H :    0.163592
  22 H :    0.175992
  23 H :    0.184475
  24 H :    0.176968
  25 H :    0.180345
  26 H :    0.176583
  27 H :    0.155109
  28 H :    0.160034
  29 H :    0.193224
  30 H :    0.197016
  31 H :    0.172818
  32 H :    0.181127
  33 H :    0.160929
  34 H :    0.160074
  35 H :    0.160350
  36 H :    0.181373
  37 H :    0.180237
  38 H :    0.161131
  39 H :    0.165721
  40 H :    0.160229

  Mayer bond orders larger than 0.100000
B(  0-C ,  1-C ) :   0.9268 B(  0-C , 19-H ) :   0.9593 B(  0-C , 20-H ) :   0.9685
B(  0-C , 21-H ) :   0.9575 B(  1-C ,  2-O ) :   0.7952 B(  1-C , 22-H ) :   0.9682
B(  1-C , 23-H ) :   0.9542 B(  2-O ,  3-P ) :   1.2212 B(  3-P ,  4-S ) :   1.8321
B(  3-P ,  5-O ) :   1.0554 B(  3-P ,  8-S ) :   0.9662 B(  5-O ,  6-C ) :   0.7554
B(  6-C ,  7-C ) :   0.9456 B(  6-C , 24-H ) :   0.9653 B(  6-C , 25-H ) :   0.9588
B(  7-C , 26-H ) :   0.9507 B(  7-C , 27-H ) :   0.9735 B(  7-C , 28-H ) :   0.9670
B(  8-S ,  9-C ) :   0.9280 B(  9-C , 10-S ) :   0.9067 B(  9-C , 29-H ) :   0.9050
B(  9-C , 30-H ) :   0.8944 B( 10-S , 11-P ) :   1.0704 B( 11-P , 12-S ) :   1.7485
B( 11-P , 13-O ) :   1.0962 B( 11-P , 16-O ) :   1.1459 B( 13-O , 14-C ) :   0.7777
B( 14-C , 15-C ) :   0.9573 B( 14-C , 31-H ) :   0.9452 B( 14-C , 32-H ) :   0.9517
B( 15-C , 33-H ) :   0.9641 B( 15-C , 34-H ) :   0.9710 B( 15-C , 35-H ) :   0.9714
B( 16-O , 17-C ) :   0.7838 B( 17-C , 18-C ) :   0.9269 B( 17-C , 36-H ) :   0.9626
B( 17-C , 37-H ) :   0.9609 B( 18-C , 38-H ) :   0.9714 B( 18-C , 39-H ) :   0.9591
B( 18-C , 40-H ) :   0.9618

Dispersion correction           -0.021159950
FINAL SINGLE POINT ENERGY     -2932.461941239825

DIPOLE MOMENT
-------------

Method             : SCF
Type of density    : Electron Density
Multiplicity       :   1
Irrep              :   0
Energy             : -2932.4874312904685212 Eh
Relativity type    :
Basis              : AO
                                X                 Y                 Z
Electronic contribution:     14.339060322      16.420647030     -10.032775911
Nuclear contribution   :    -15.399100841     -18.029148088      10.727191026
                        -----------------------------------------
Total Dipole Moment    :     -1.060040520      -1.608501058       0.694415114
                        -----------------------------------------
Magnitude (a.u.)       :      2.047724080
Magnitude (Debye)      :      5.204900971

Rotational constants in cm-1:             0.012913             0.004566             0.004299
Rotational constants in MHz :           387.134559           136.891056           128.869292

                             ****ORCA TERMINATED NORMALLY****
TOTAL RUN TIME: 0 days 0 hours 1 minutes 19 seconds 412 msec
