                         Program Version 6.0.0  -   RELEASE  -
|  1> ! r2scan-3c def2/J RI DEFGRID2 scfconv6 printgap
|  2> %output
|  3>     printlevel normal
|  4> end
|  5> %cpcm
|  6>     smd true
|  7>     smdsolvent "water"
|  8> end
|  9> * xyz 0 1
| 10> C 3.3399434311 -2.983877064 -0.8626542261
| 11> C 3.8626957304 -1.85268416 -1.7201164376
| 12> O 3.9932265772 -0.6077746152 -0.988953789
| 13> P 2.8768334764 0.1143700199 -0.15371919
| 14> S 3.2911898012 2.0039598586 0.1463548953
| 15> O 2.8389997044 -0.7586490103 1.1771654191
| 16> C 2.152955839 -0.3562178967 2.3757714347
| 17> C 0.9427672514 -1.2389712432 2.6113734102
| 18> S 1.0646122381 -0.2618441408 -1.2341302637
| 19> C 0.2879756509 1.3535698206 -1.0257675072
| 20> S -0.6342687992 1.502186986 0.5288900476
| 21> P -2.2555217628 0.2815716393 -0.0645899124
| 22> S -2.8654171873 0.5080819864 -1.9195418865
| 23> O -3.3507886067 0.5515877069 1.0505640414
| 24> C -4.1722795797 1.7361458369 1.0335769256
| 25> C -5.3900188471 1.4715933166 1.8958585923
| 26> O -1.7280279144 -1.1546924866 0.3297345971
| 27> C -2.2440685945 -2.3555643004 -0.2843000189
| 28> C -3.6751886193 -2.6187987568 0.1317922306
| 29> H 3.355288231 -3.9029340303 -1.4402908676
| 30> H 3.9588797381 -3.1022813022 0.0227287321
| 31> H 2.3168264562 -2.7762403351 -0.5550655726
| 32> H 3.2056923758 -1.6752319623 -2.5753089909
| 33> H 4.8797122419 -2.0425509999 -2.066343288
| 34> H 2.8849168606 -0.471690407 3.1779998716
| 35> H 1.8724744535 0.699870531 2.2988203833
| 36> H 0.2165914731 -1.1212076649 1.8106688785
| 37> H 1.2476494857 -2.2803845805 2.6603159025
| 38> H 0.4757595865 -0.9559369299 3.5491181068
| 39> H -0.3996008713 1.4876371555 -1.8613043379
| 40> H 1.0590881855 2.12546133 -1.0098564703
| 41> H -3.5794722044 2.5679013059 1.4237414434
| 42> H -4.4531688637 1.952750567 -0.0028765542
| 43> H -6.0042372258 2.3654904436 1.9275072191
| 44> H -5.9717105983 0.6520344532 1.4836684239
| 45> H -5.0793158641 1.2118192553 2.9034818312
| 46> H -2.1658981989 -2.2497502249 -1.3708140132
| 47> H -1.5679635661 -3.1379268514 0.0618136022
| 48> H -3.7533905097 -2.6408987194 1.2153939607
| 49> H -4.3202153888 -1.8290977822 -0.2519936758
| 50> H -4.0013847441 -3.57019183 -0.276408957
| 51> *
| 52>
| 53>                          ****END OF INPUT****

CARTESIAN COORDINATES (ANGSTROEM)
---------------------------------
  C      3.339943   -2.983877   -0.862654
  C      3.862696   -1.852684   -1.720116
  O      3.993227   -0.607775   -0.988954
  P      2.876833    0.114370   -0.153719
  S      3.291190    2.003960    0.146355
  O      2.839000   -0.758649    1.177165
  C      2.152956   -0.356218    2.375771
  C      0.942767   -1.238971    2.611373
  S      1.064612   -0.261844   -1.234130
  C      0.287976    1.353570   -1.025768
  S     -0.634269    1.502187    0.528890
  P     -2.255522    0.281572   -0.064590
  S     -2.865417    0.508082   -1.919542
  O     -3.350789    0.551588    1.050564
  C     -4.172280    1.736146    1.033577
  C     -5.390019    1.471593    1.895859
  O     -1.728028   -1.154692    0.329735
  C     -2.244069   -2.355564   -0.284300
  C     -3.675189   -2.618799    0.131792
  H      3.355288   -3.902934   -1.440291
  H      3.958880   -3.102281    0.022729
  H      2.316826   -2.776240   -0.555066
  H      3.205692   -1.675232   -2.575309
  H      4.879712   -2.042551   -2.066343
  H      2.884917   -0.471690    3.178000
  H      1.872474    0.699871    2.298820
  H      0.216591   -1.121208    1.810669
  H      1.247649   -2.280385    2.660316
  H      0.475760   -0.955937    3.549118
  H     -0.399601    1.487637   -1.861304
  H      1.059088    2.125461   -1.009856
  H     -3.579472    2.567901    1.423741
  H     -4.453169    1.952751   -0.002877
  H     -6.004237    2.365490    1.927507
  H     -5.971711    0.652034    1.483668
  H     -5.079316    1.211819    2.903482
  H     -2.165898   -2.249750   -1.370814
  H     -1.567964   -3.137927    0.061814
  H     -3.753391   -2.640899    1.215394
  H     -4.320215   -1.829098   -0.251994
  H     -4.001385   -3.570192   -0.276409

 Total Charge           Charge          ....    0
 Multiplicity           Mult            ....    1
 Number of Electrons    NEL             ....  202
 Basis Dimension        Dim             ....  539

ORBITAL ENERGIES
----------------

  NO   OCC          E(Eh)            E(eV)
   0   2.0000     -88.581284     -2410.4193
   1   2.0000     -88.580907     -2410.4090
   2   2.0000     -88.530776     -2409.0449
   3   2.0000     -88.530234     -2409.0301
   4   2.0000     -76.922700     -2093.1731
   5   2.0000     -76.920761     -2093.1203
   6   2.0000     -18.998050      -516.9632
   7   2.0000     -18.997908      -516.9594
   8   2.0000     -18.996043      -516.9086
   9   2.0000     -18.992992      -516.8256
  10   2.0000     -10.104077      -274.9459
  11   2.0000     -10.095902      -274.7235
  12   2.0000     -10.091233      -274.5964
  13   2.0000     -10.090691      -274.5817
  14   2.0000     -10.089454      -274.5480
  15   2.0000     -10.022651      -272.7302
  16   2.0000     -10.020031      -272.6589
  17   2.0000     -10.019316      -272.6395
  18   2.0000     -10.015375      -272.5322
  19   2.0000      -7.875568      -214.3051
  20   2.0000      -7.875090      -214.2921
  21   2.0000      -7.825990      -212.9560
  22   2.0000      -7.825237      -212.9355
  23   2.0000      -6.601033      -179.6232
  24   2.0000      -6.599532      -179.5824
  25   2.0000      -5.822313      -158.4332
  26   2.0000      -5.822002      -158.4247
  27   2.0000      -5.819471      -158.3558
  28   2.0000      -5.818842      -158.3388
  29   2.0000      -5.812795      -158.1742
  30   2.0000      -5.812296      -158.1606
  31   2.0000      -5.773570      -157.1068
  32   2.0000      -5.772732      -157.0840
  33   2.0000      -5.766327      -156.9097
  34   2.0000      -5.765909      -156.8984
  35   2.0000      -5.765543      -156.8884
  36   2.0000      -5.765319      -156.8823
  37   2.0000      -4.746748      -129.1656
  38   2.0000      -4.745835      -129.1407
  39   2.0000      -4.744847      -129.1138
  40   2.0000      -4.744740      -129.1109
  41   2.0000      -4.744484      -129.1040
  42   2.0000      -4.743397      -129.0744
  43   2.0000      -1.055516       -28.7221
  44   2.0000      -1.054561       -28.6961
  45   2.0000      -1.016175       -27.6515
  46   2.0000      -1.013627       -27.5822
  47   2.0000      -0.805299       -21.9133
  48   2.0000      -0.759046       -20.6547
  49   2.0000      -0.747798       -20.3486
  50   2.0000      -0.727243       -19.7893
  51   2.0000      -0.725418       -19.7396
  52   2.0000      -0.711974       -19.3738
  53   2.0000      -0.688864       -18.7449
  54   2.0000      -0.675609       -18.3842
  55   2.0000      -0.632428       -17.2092
  56   2.0000      -0.625269       -17.0144
  57   2.0000      -0.600743       -16.3470
  58   2.0000      -0.593993       -16.1634
  59   2.0000      -0.591634       -16.0992
  60   2.0000      -0.529151       -14.3989
  61   2.0000      -0.519939       -14.1482
  62   2.0000      -0.497222       -13.5301
  63   2.0000      -0.493776       -13.4363
  64   2.0000      -0.478924       -13.0322
  65   2.0000      -0.462415       -12.5830
  66   2.0000      -0.457157       -12.4399
  67   2.0000      -0.449979       -12.2446
  68   2.0000      -0.444959       -12.1080
  69   2.0000      -0.433824       -11.8050
  70   2.0000      -0.419031       -11.4024
  71   2.0000      -0.416427       -11.3315
  72   2.0000      -0.406886       -11.0719
  73   2.0000      -0.402274       -10.9464
  74   2.0000      -0.398510       -10.8440
  75   2.0000      -0.386175       -10.5084
  76   2.0000      -0.381064       -10.3693
  77   2.0000      -0.369440       -10.0530
  78   2.0000      -0.364386        -9.9154
  79   2.0000      -0.362547        -9.8654
  80   2.0000      -0.357477        -9.7275
  81   2.0000      -0.354192        -9.6381
  82   2.0000      -0.352831        -9.6010
  83   2.0000      -0.349008        -9.4970
  84   2.0000      -0.341995        -9.3062
  85   2.0000      -0.331951        -9.0329
  86   2.0000      -0.323192        -8.7945
  87   2.0000      -0.314058        -8.5460
  88   2.0000      -0.307538        -8.3685
  89   2.0000      -0.304126        -8.2757
  90   2.0000      -0.299808        -8.1582
  91   2.0000      -0.292828        -7.9682
  92   2.0000      -0.290123        -7.8946
  93   2.0000      -0.280303        -7.6274
  94   2.0000      -0.274367        -7.4659
  95   2.0000      -0.251918        -6.8550
  96   2.0000      -0.239908        -6.5282
  97   2.0000      -0.237311        -6.4576
  98   2.0000      -0.228142        -6.2081
  99   2.0000      -0.226282        -6.1574
 100   2.0000      -0.222197        -6.0463
 101   0.0000      -0.053832        -1.4648
 102   0.0000      -0.034903        -0.9498
 103   0.0000      -0.011008        -0.2995
 104   0.0000      -0.005189        -0.1412
 105   0.0000       0.013167         0.3583

MULLIKEN ATOMIC CHARGES
-----------------------
   0 C :   -0.463951
   1 C :   -0.169514
   2 O :   -0.307122
   3 P :    0.649035
   4 S :   -0.511667
   5 O :   -0.256151
   6 C :   -0.129826
   7 C :   -0.487238
   8 S :   -0.157750
   9 C :   -0.250205
  10 S :   -0.147155
  11 P :    0.711478
  12 S :   -0.530711
  13 O :   -0.313464
  14 C :   -0.146450
  15 C :   -0.482547
  16 O :   -0.289750
  17 C :   -0.139933
  18 C :   -0.484716
  19 H :    0.179628
  20 H :    0.174493
  21 H :    0.160170
  22 H :    0.182845
  23 H :    0.180966
  24 H :    0.174650
  25 H :    0.165510
  26 H :    0.168523
  27 H :    0.164887
  28 H :    0.169661
  29 H :    0.237011
  30 H :    0.231608
  31 H :    0.172493
  32 H :    0.172671
  33 H :    0.170273
  34 H :    0.166424
  35 H :    0.166415
  36 H :    0.177284
  37 H :    0.179692
  38 H :    0.170980
  39 H :    0.168229
  40 H :    0.173224
Sum of atomic charges:   -0.0000000

LOEWDIN ATOMIC CHARGES
----------------------
   0 C :   -0.399499
   1 C :    0.031464
   2 O :   -0.667398
   3 P :    0.390300
   4 S :   -0.152059
   5 O :   -0.678299
   6 C :    0.022703
   7 C :   -0.406335
   8 S :    0.143725
   9 C :   -0.424150
  10 S :    0.154932
  11 P :    0.377468
  12 S :   -0.165243
  13 O :   -0.673600
  14 C :    0.026210
  15 C :   -0.388807
  16 O :   -0.690617
  17 C :    0.025879
  18 C :   -0.402043
  19 H :    0.172025
  20 H :    0.167312
  21 H :    0.162338
  22 H :    0.182360
  23 H :    0.195341
  24 H :    0.187203
  25 H :    0.179945
  26 H :    0.171190
  27 H :    0.161951
  28 H :    0.168862
  29 H :    0.197920
  30 H :    0.199570
  31 H :    0.180424
  32 H :    0.182078
  33 H :    0.169318
  34 H :    0.162766
  35 H :    0.163569
  36 H :    0.182640
  37 H :    0.191508
  38 H :    0.164593
  39 H :    0.162948
  40 H :    0.169508

  Mayer bond orders larger than 0.100000
B(  0-C ,  1-C ) :   0.9124 B(  0-C , 19-H ) :   0.9517 B(  0-C , 20-H ) :   0.9690
B(  0-C , 21-H ) :   0.9549 B(  1-C ,  2-O ) :   0.7849 B(  1-C , 22-H ) :   0.9585
B(  1-C , 23-H ) :   0.9435 B(  2-O ,  3-P ) :   1.2268 B(  3-P ,  4-S ) :   1.8076
B(  3-P ,  5-O ) :   1.0583 B(  3-P ,  8-S ) :   0.9883 B(  5-O ,  6-C ) :   0.7435
B(  6-C ,  7-C ) :   0.9436 B(  6-C , 24-H ) :   0.9542 B(  6-C , 25-H ) :   0.9559
B(  7-C , 26-H ) :   0.9541 B(  7-C , 27-H ) :   0.9693 B(  7-C , 28-H ) :   0.9623
B(  8-S ,  9-C ) :   0.9164 B(  9-C , 10-S ) :   0.9011 B(  9-C , 29-H ) :   0.9008
B(  9-C , 30-H ) :   0.8932 B( 10-S , 11-P ) :   1.0812 B( 11-P , 12-S ) :   1.7101
B( 11-P , 13-O ) :   1.1050 B( 11-P , 16-O ) :   1.1571 B( 13-O , 14-C ) :   0.7703
B( 14-C , 15-C ) :   0.9527 B( 14-C , 31-H ) :   0.9366 B( 14-C , 32-H ) :   0.9485
B( 15-C , 33-H ) :   0.9582 B( 15-C , 34-H ) :   0.9686 B( 15-C , 35-H ) :   0.9688
B( 16-O , 17-C ) :   0.7722 B( 17-C , 18-C ) :   0.9152 B( 17-C , 36-H ) :   0.9586
B( 17-C , 37-H ) :   0.9507 B( 18-C , 38-H ) :   0.9703 B( 18-C , 39-H ) :   0.9587
B( 18-C , 40-H ) :   0.9559

Dispersion correction           -0.021159950
FINAL SINGLE POINT ENERGY     -2932.470842990547

DIPOLE MOMENT
-------------

Method             : SCF
Type of density    : Electron Density
Multiplicity       :   1
Irrep              :   0
Energy             : -2932.4963330411910647 Eh
Relativity type    :
Basis              : AO
                                X                 Y                 Z
Electronic contribution:     14.005638695      15.847376741      -9.875751830
Nuclear contribution   :    -15.399100841     -18.029148088      10.727191026
                        -----------------------------------------
Total Dipole Moment    :     -1.393462147      -2.181771346       0.851439196
                        -----------------------------------------
Magnitude (a.u.)       :      2.725217728
Magnitude (Debye)      :      6.926952972

Rotational constants in cm-1:             0.012913             0.004566             0.004299
Rotational constants in MHz :           387.134559           136.891056           128.869292

                             ****ORCA TERMINATED NORMALLY****
TOTAL RUN TIME: 0 days 0 hours 1 minutes 46 seconds 469 msec
