                         Program Version 6.0.0  -   RELEASE  -
|  1> ! pbe def2-sv(p) def2/J RI DEFGRID1 loosescf d4 GCP(DFT/SV(P)) printgap
|  2> %output
|  3>     printlevel normal
|  4> end
|  5> * xyz 0 1
|  6> C -1.4340571028 -0.9939443822 -5.96389e-05
|  7> S -3.08694e-05 0.0907761948 -6.8595e-06
|  8> O -0.0012065766 0.8787189469 1.2258874493
|  9> O -0.0005195837 0.8780305217 -1.2263433401
| 10> C 1.435896838 -0.9915758062 0.0005477514
| 11> H -1.3889707598 -1.5977155229 -0.8956264069
| 12> H -1.3918682246 -1.5935237935 0.8983080041
| 13> H -2.3181092387 -0.3695907443 -0.002814243
| 14> H 1.3916246498 -1.5958986355 -0.8948191242
| 15> H 2.3190018043 -0.3658841364 -0.0027243455
| 16> H 1.3947812592 -1.5910065664 0.8993144443
| 17> *
| 18>
| 19>                          ****END OF INPUT****

CARTESIAN COORDINATES (ANGSTROEM)
---------------------------------
  C     -1.434057   -0.993944   -0.000060
  S     -0.000031    0.090776   -0.000007
  O     -0.001207    0.878719    1.225887
  O     -0.000520    0.878031   -1.226343
  C      1.435897   -0.991576    0.000548
  H     -1.388971   -1.597716   -0.895626
  H     -1.391868   -1.593524    0.898308
  H     -2.318109   -0.369591   -0.002814
  H      1.391625   -1.595899   -0.894819
  H      2.319002   -0.365884   -0.002724
  H      1.394781   -1.591007    0.899314

 Total Charge           Charge          ....    0
 Multiplicity           Mult            ....    1
 Number of Electrons    NEL             ....   50
 Basis Dimension        Dim             ....   86

ORBITAL ENERGIES
----------------

  NO   OCC          E(Eh)            E(eV)
   0   2.0000     -88.222592     -2400.6588
   1   2.0000     -18.725946      -509.5589
   2   2.0000     -18.725839      -509.5560
   3   2.0000      -9.924274      -270.0532
   4   2.0000      -9.924205      -270.0513
   5   2.0000      -7.839733      -213.3300
   6   2.0000      -5.865875      -159.6186
   7   2.0000      -5.865423      -159.6063
   8   2.0000      -5.865166      -159.5993
   9   2.0000      -1.000787       -27.2328
  10   2.0000      -0.884271       -24.0622
  11   2.0000      -0.723847       -19.6969
  12   2.0000      -0.679558       -18.4917
  13   2.0000      -0.535375       -14.5683
  14   2.0000      -0.454261       -12.3611
  15   2.0000      -0.434027       -11.8105
  16   2.0000      -0.433447       -11.7947
  17   2.0000      -0.406696       -11.0668
  18   2.0000      -0.387128       -10.5343
  19   2.0000      -0.384731       -10.4691
  20   2.0000      -0.360304        -9.8044
  21   2.0000      -0.274467        -7.4686
  22   2.0000      -0.253048        -6.8858
  23   2.0000      -0.242704        -6.6043
  24   2.0000      -0.232003        -6.3131
  25   0.0000       0.015460         0.4207
  26   0.0000       0.021475         0.5844
  27   0.0000       0.046100         1.2545
  28   0.0000       0.060206         1.6383
  29   0.0000       0.063975         1.7408

MULLIKEN ATOMIC CHARGES
-----------------------
   0 C :   -0.327726
   1 S :    0.602986
   2 O :   -0.437623
   3 O :   -0.437652
   4 C :   -0.327868
   5 H :    0.145139
   6 H :    0.145188
   7 H :    0.173560
   8 H :    0.145158
   9 H :    0.173577
  10 H :    0.145262
Sum of atomic charges:    0.0000000

LOEWDIN ATOMIC CHARGES
----------------------
   0 C :   -0.475464
   1 S :    1.095057
   2 O :   -0.503255
   3 O :   -0.503275
   4 C :   -0.475461
   5 H :    0.138559
   6 H :    0.138594
   7 H :    0.154039
   8 H :    0.138564
   9 H :    0.154030
  10 H :    0.138611

  Mayer bond orders larger than 0.100000
B(  0-C ,  1-S ) :   0.8711 B(  0-C ,  5-H ) :   0.9290 B(  0-C ,  6-H ) :   0.9290
B(  0-C ,  7-H ) :   0.9304 B(  1-S ,  2-O ) :   1.7018 B(  1-S ,  3-O ) :   1.7017
B(  1-S ,  4-C ) :   0.8710 B(  4-C ,  8-H ) :   0.9290 B(  4-C ,  9-H ) :   0.9304
B(  4-C , 10-H ) :   0.9290

Dispersion correction           -0.008669269
FINAL SINGLE POINT ENERGY      -627.602389423006

DIPOLE MOMENT
-------------

Method             : SCF
Type of density    : Electron Density
Multiplicity       :   1
Irrep              :   0
Energy             :  -627.6430388707997281 Eh
Relativity type    :
Basis              : AO
                                X                 Y                 Z
Electronic contribution:     -0.004216280       4.870162650      -0.001144462
Nuclear contribution   :      0.006035404      -6.650351661       0.001530471
                        -----------------------------------------
Total Dipole Moment    :      0.001819124      -1.780189010       0.000386009
                        -----------------------------------------
Magnitude (a.u.)       :      1.780189982
Magnitude (Debye)      :      4.524883335

Rotational constants in cm-1:             0.152557             0.141113             0.132461
Rotational constants in MHz :          4573.550254          4230.463841          3971.086470

                             ****ORCA TERMINATED NORMALLY****
TOTAL RUN TIME: 0 days 0 hours 0 minutes 5 seconds 903 msec
