                         Program Version 6.0.1  -  RELEASE   -
|  1> ! pbe def2-sv(p) def2/J RI DEFGRID1 loosescf d4 GCP(DFT/SV(P)) printgap
|  2> %output
|  3>     printlevel normal
|  4> end
|  5> * xyz 0 1
|  6> C 5.0368064337 -0.5564353405 -1.2883985075
|  7> C 4.2514737438 -1.8115378886 -0.9471256873
|  8> O 2.9095114519 -1.6719836528 -1.4559756585
|  9> C 1.8885042686 -1.7462556406 -0.6367020443
| 10> O 1.9534730864 -2.0010730398 0.5479472302
| 11> C 0.5902360721 -1.3958150664 -1.3414033088
| 12> C 0.4488370638 0.1330446179 -1.2903218212
| 13> H 1.0881049221 0.6163534156 -2.0296926148
| 14> C 0.7796026084 0.6382976845 0.0972355149
| 15> O -0.0019324685 0.5053136671 1.0190961237
| 16> O 1.9469002884 1.2135736511 0.1696038034
| 17> C 2.3848241717 1.7225373875 1.4527963282
| 18> C 3.243327407 0.6965413691 2.1731685888
| 19> S -1.2586747614 0.6568129116 -1.6458859699
| 20> P -2.3124791276 0.5112117188 0.2137684874
| 21> S -2.3754434268 1.9516899674 1.5423164399
| 22> O -3.7749281482 0.518992173 -0.4333014665
| 23> C -4.2827973913 -0.4759988531 -1.3397710686
| 24> O -2.2229206155 -1.0157938843 0.7079500726
| 25> C -1.6781808465 -1.4446994983 1.9554318766
| 26> H 4.5592419691 0.3166202772 -0.8502598015
| 27> H 6.04569564 -0.6472082571 -0.8996407395
| 28> H 5.078624172 -0.4257184593 -2.3655006994
| 29> H 4.1997649459 -1.9800427303 0.1320846182
| 30> H 4.6769496363 -2.6894134417 -1.4374160053
| 31> H -0.2375218407 -1.864705602 -0.8087083793
| 32> H 0.6101670594 -1.7247410733 -2.3780486517
| 33> H 2.9509666415 2.6221553205 1.210105758
| 34> H 1.4989081432 1.9774224118 2.0408763392
| 35> H 3.4882489599 1.0704301679 3.1615646805
| 36> H 2.6999424403 -0.2412242438 2.2751806284
| 37> H 4.1619416573 0.5126267011 1.6234125492
| 38> H -5.3518250284 -0.2865066301 -1.3957088647
| 39> H -4.0903285043 -1.4736043214 -0.9491592543
| 40> H -3.82113788 -0.3556052673 -2.3187539861
| 41> H -2.317089858 -2.2548177287 2.300188877
| 42> H -1.6823551636 -0.6231366848 2.6726430889
| 43> H -0.6552918361 -1.7940334971 1.8109929546
| 44> *
| 45>
| 46>                          ****END OF INPUT****

CARTESIAN COORDINATES (ANGSTROEM)
---------------------------------
  C      5.036806   -0.556435   -1.288399
  C      4.251474   -1.811538   -0.947126
  O      2.909511   -1.671984   -1.455976
  C      1.888504   -1.746256   -0.636702
  O      1.953473   -2.001073    0.547947
  C      0.590236   -1.395815   -1.341403
  C      0.448837    0.133045   -1.290322
  H      1.088105    0.616353   -2.029693
  C      0.779603    0.638298    0.097236
  O     -0.001932    0.505314    1.019096
  O      1.946900    1.213574    0.169604
  C      2.384824    1.722537    1.452796
  C      3.243327    0.696541    2.173169
  S     -1.258675    0.656813   -1.645886
  P     -2.312479    0.511212    0.213768
  S     -2.375443    1.951690    1.542316
  O     -3.774928    0.518992   -0.433301
  C     -4.282797   -0.475999   -1.339771
  O     -2.222921   -1.015794    0.707950
  C     -1.678181   -1.444699    1.955432
  H      4.559242    0.316620   -0.850260
  H      6.045696   -0.647208   -0.899641
  H      5.078624   -0.425718   -2.365501
  H      4.199765   -1.980043    0.132085
  H      4.676950   -2.689413   -1.437416
  H     -0.237522   -1.864706   -0.808708
  H      0.610167   -1.724741   -2.378049
  H      2.950967    2.622155    1.210106
  H      1.498908    1.977422    2.040876
  H      3.488249    1.070430    3.161565
  H      2.699942   -0.241224    2.275181
  H      4.161942    0.512627    1.623413
  H     -5.351825   -0.286507   -1.395709
  H     -4.090329   -1.473604   -0.949159
  H     -3.821138   -0.355605   -2.318754
  H     -2.317090   -2.254818    2.300189
  H     -1.682355   -0.623137    2.672643
  H     -0.655292   -1.794033    1.810993

 Total Charge           Charge          ....    0
 Multiplicity           Mult            ....    1
 Number of Electrons    NEL             ....  174
 Basis Dimension        Dim             ....  316

ORBITAL ENERGIES
----------------

  NO   OCC          E(Eh)            E(eV)
   0   2.0000     -88.036110     -2395.5844
   1   2.0000     -87.958826     -2393.4813
   2   2.0000     -76.415245     -2079.3645
   3   2.0000     -18.827054      -512.3102
   4   2.0000     -18.820949      -512.1441
   5   2.0000     -18.780283      -511.0375
   6   2.0000     -18.770305      -510.7660
   7   2.0000     -18.765598      -510.6379
   8   2.0000     -18.755103      -510.3523
   9   2.0000     -10.030725      -272.9499
  10   2.0000     -10.026322      -272.8301
  11   2.0000      -9.961463      -271.0652
  12   2.0000      -9.958347      -270.9804
  13   2.0000      -9.958164      -270.9754
  14   2.0000      -9.933550      -270.3056
  15   2.0000      -9.928013      -270.1550
  16   2.0000      -9.919832      -269.9324
  17   2.0000      -9.901382      -269.4303
  18   2.0000      -9.893332      -269.2113
  19   2.0000      -7.681068      -209.0125
  20   2.0000      -7.604388      -206.9259
  21   2.0000      -6.410550      -174.4399
  22   2.0000      -5.709360      -155.3596
  23   2.0000      -5.705236      -155.2474
  24   2.0000      -5.697963      -155.0495
  25   2.0000      -5.633977      -153.3083
  26   2.0000      -5.625026      -153.0647
  27   2.0000      -5.623802      -153.0314
  28   2.0000      -4.633712      -126.0897
  29   2.0000      -4.632428      -126.0548
  30   2.0000      -4.630847      -126.0118
  31   2.0000      -1.036780       -28.2122
  32   2.0000      -1.027913       -27.9709
  33   2.0000      -0.967297       -26.3215
  34   2.0000      -0.943762       -25.6811
  35   2.0000      -0.932589       -25.3770
  36   2.0000      -0.923094       -25.1187
  37   2.0000      -0.773394       -21.0451
  38   2.0000      -0.725276       -19.7358
  39   2.0000      -0.714526       -19.4432
  40   2.0000      -0.690172       -18.7805
  41   2.0000      -0.660283       -17.9672
  42   2.0000      -0.627414       -17.0728
  43   2.0000      -0.624164       -16.9844
  44   2.0000      -0.604826       -16.4582
  45   2.0000      -0.598667       -16.2906
  46   2.0000      -0.570787       -15.5319
  47   2.0000      -0.521539       -14.1918
  48   2.0000      -0.513508       -13.9733
  49   2.0000      -0.506148       -13.7730
  50   2.0000      -0.487844       -13.2749
  51   2.0000      -0.471905       -12.8412
  52   2.0000      -0.464027       -12.6268
  53   2.0000      -0.459819       -12.5123
  54   2.0000      -0.452430       -12.3113
  55   2.0000      -0.436916       -11.8891
  56   2.0000      -0.426188       -11.5972
  57   2.0000      -0.422868       -11.5068
  58   2.0000      -0.413867       -11.2619
  59   2.0000      -0.409878       -11.1533
  60   2.0000      -0.407373       -11.0852
  61   2.0000      -0.397425       -10.8145
  62   2.0000      -0.393627       -10.7111
  63   2.0000      -0.388239       -10.5645
  64   2.0000      -0.382505       -10.4085
  65   2.0000      -0.374645       -10.1946
  66   2.0000      -0.370256       -10.0752
  67   2.0000      -0.362748        -9.8709
  68   2.0000      -0.352036        -9.5794
  69   2.0000      -0.350374        -9.5342
  70   2.0000      -0.339342        -9.2340
  71   2.0000      -0.335422        -9.1273
  72   2.0000      -0.329350        -8.9621
  73   2.0000      -0.312214        -8.4958
  74   2.0000      -0.310326        -8.4444
  75   2.0000      -0.300108        -8.1664
  76   2.0000      -0.292104        -7.9486
  77   2.0000      -0.282927        -7.6988
  78   2.0000      -0.280287        -7.6270
  79   2.0000      -0.275557        -7.4983
  80   2.0000      -0.259996        -7.0749
  81   2.0000      -0.252205        -6.8628
  82   2.0000      -0.245348        -6.6763
  83   2.0000      -0.238982        -6.5030
  84   2.0000      -0.218991        -5.9591
  85   2.0000      -0.179921        -4.8959
  86   2.0000      -0.169457        -4.6112
  87   0.0000      -0.058565        -1.5936
  88   0.0000      -0.043115        -1.1732
  89   0.0000      -0.024066        -0.6549
  90   0.0000       0.008124         0.2211
  91   0.0000       0.022887         0.6228

MULLIKEN ATOMIC CHARGES
-----------------------
   0 C :   -0.300839
   1 C :   -0.034469
   2 O :   -0.224201
   3 C :    0.097610
   4 O :   -0.201322
   5 C :   -0.024988
   6 C :   -0.309813
   7 H :    0.139400
   8 C :    0.212386
   9 O :   -0.189007
  10 O :   -0.221952
  11 C :   -0.024956
  12 C :   -0.326191
  13 S :   -0.098082
  14 P :    0.635947
  15 S :   -0.314980
  16 O :   -0.376975
  17 C :   -0.109663
  18 O :   -0.403382
  19 C :   -0.103431
  20 H :    0.124458
  21 H :    0.116310
  22 H :    0.117885
  23 H :    0.122674
  24 H :    0.112460
  25 H :    0.129038
  26 H :    0.114462
  27 H :    0.110758
  28 H :    0.134260
  29 H :    0.117880
  30 H :    0.151915
  31 H :    0.114976
  32 H :    0.124646
  33 H :    0.115081
  34 H :    0.116644
  35 H :    0.113063
  36 H :    0.120262
  37 H :    0.122136
Sum of atomic charges:    0.0000000

LOEWDIN ATOMIC CHARGES
----------------------
   0 C :   -0.354408
   1 C :   -0.110816
   2 O :   -0.051416
   3 C :    0.026925
   4 O :   -0.163336
   5 C :   -0.241976
   6 C :   -0.259912
   7 H :    0.142502
   8 C :    0.018212
   9 O :   -0.138118
  10 O :   -0.036375
  11 C :   -0.106655
  12 C :   -0.358903
  13 S :    0.100290
  14 P :    0.581256
  15 S :   -0.321848
  16 O :   -0.259225
  17 C :   -0.217071
  18 O :   -0.261868
  19 C :   -0.218036
  20 H :    0.124816
  21 H :    0.132214
  22 H :    0.127725
  23 H :    0.121957
  24 H :    0.121460
  25 H :    0.142785
  26 H :    0.139528
  27 H :    0.121331
  28 H :    0.130773
  29 H :    0.134170
  30 H :    0.137725
  31 H :    0.121160
  32 H :    0.122312
  33 H :    0.110194
  34 H :    0.105282
  35 H :    0.114829
  36 H :    0.112029
  37 H :    0.110488

  Mayer bond orders larger than 0.100000
B(  0-C ,  1-C ) :   1.1714 B(  0-C , 20-H ) :   0.9381 B(  0-C , 21-H ) :   0.9438
B(  0-C , 22-H ) :   0.9468 B(  1-C ,  2-O ) :   0.8984 B(  1-C , 23-H ) :   0.9060
B(  1-C , 24-H ) :   0.9346 B(  2-O ,  3-C ) :   1.2434 B(  2-O ,  4-O ) :   0.1003
B(  3-C ,  4-O ) :   1.9782 B(  3-C ,  5-C ) :   1.0087 B(  5-C ,  6-C ) :   1.0238
B(  5-C , 25-H ) :   0.8803 B(  5-C , 26-H ) :   0.9004 B(  6-C ,  7-H ) :   0.8782
B(  6-C ,  8-C ) :   0.9163 B(  6-C , 13-S ) :   1.0250 B(  8-C ,  9-O ) :   1.8778
B(  8-C , 10-O ) :   1.2602 B(  9-O , 14-P ) :   0.1494 B( 10-O , 11-C ) :   0.8854
B( 11-C , 12-C ) :   1.1750 B( 11-C , 27-H ) :   0.9361 B( 11-C , 28-H ) :   0.9097
B( 12-C , 29-H ) :   0.9397 B( 12-C , 30-H ) :   0.9327 B( 12-C , 31-H ) :   0.9455
B( 13-S , 14-P ) :   0.9149 B( 13-S , 15-S ) :   0.1025 B( 14-P , 15-S ) :   1.6108
B( 14-P , 16-O ) :   1.0856 B( 14-P , 18-O ) :   1.0491 B( 16-O , 17-C ) :   0.9307
B( 17-C , 32-H ) :   0.9598 B( 17-C , 33-H ) :   0.9444 B( 17-C , 34-H ) :   0.9454
B( 18-O , 19-C ) :   0.9211 B( 19-C , 35-H ) :   0.9532 B( 19-C , 36-H ) :   0.9346
B( 19-C , 37-H ) :   0.9405

Dispersion correction           -0.053298892
FINAL SINGLE POINT ENERGY     -1979.002817977606

DIPOLE MOMENT
-------------

Method             : SCF
Type of density    : Electron Density
Multiplicity       :   1
Irrep              :   0
Energy             : -1979.1359635312505816 Eh
Relativity type    :
Basis              : AO
                                X                 Y                 Z
Electronic contribution:    -21.471223761       8.059358956      -2.428465920
Nuclear contribution   :     23.670359503      -9.242117439       1.503448850
                        -----------------------------------------
Total Dipole Moment    :      2.199135742      -1.182758483      -0.925017069
                        -----------------------------------------
Magnitude (a.u.)       :      2.662850394
Magnitude (Debye)      :      6.768427805

Rotational constants in cm-1:             0.017362             0.006406             0.005706
Rotational constants in MHz :           520.503663           192.048978           171.074467

                             ****ORCA TERMINATED NORMALLY****
TOTAL RUN TIME: 0 days 0 hours 0 minutes 31 seconds 849 msec
