                         Program Version 6.0.0  -   RELEASE  -
|  1> ! pbe def2-sv(p) def2/J RI DEFGRID1 loosescf d4 GCP(DFT/SV(P)) printgap
|  2> %output
|  3>     printlevel normal
|  4> end
|  5> * xyz 0 1
|  6> C 4.2504964151 1.2605501476 -2.4171579931
|  7> C 4.4777085781 0.6941122467 -1.0300636231
|  8> O 3.5096051517 1.2405865675 -0.0996133478
|  9> P 2.2995208235 0.4140677638 0.4987282898
| 10> S 1.3499765494 1.5209319529 1.7948841336
| 11> O 2.9325734209 -0.9360214413 1.0748746208
| 12> C 2.9264741632 -1.3029899134 2.4710976806
| 13> C 1.9527802822 -2.4356262182 2.7275645965
| 14> S 1.327759712 -0.3081268848 -1.2458015332
| 15> C 0.3885983933 -1.6818177999 -0.5237438637
| 16> S -0.8658305355 -1.1549007582 0.6694675522
| 17> P -2.1236745901 -0.1335162361 -0.7160058752
| 18> S -2.1516541897 -0.8922206604 -2.516125121
| 19> O -1.6965338679 1.3816033247 -0.7131706078
| 20> C -1.8004153218 2.2457035443 0.4452954542
| 21> C -3.0874906264 3.0408516564 0.4035712303
| 22> O -3.5140527826 -0.1131831156 0.0499050858
| 23> C -4.2861709684 -1.3226286923 0.2109542119
| 24> C -5.6864579208 -0.9265197627 0.6319443959
| 25> H 5.0258543359 0.8949409474 -3.0828332518
| 26> H 3.2789026739 0.9538699966 -2.7996940592
| 27> H 4.2855994481 2.3460136932 -2.3855128154
| 28> H 5.4471529969 0.9997590303 -0.632989762
| 29> H 4.4030844783 -0.3955489447 -1.0261795396
| 30> H 3.9527522901 -1.6036100124 2.6885838045
| 31> H 2.6652077089 -0.4230798938 3.067217031
| 32> H 2.1943530446 -3.293073381 2.1051724371
| 33> H 2.0212299801 -2.7258175036 3.7709653032
| 34> H 0.9330824767 -2.114249035 2.5197618924
| 35> H 1.0630557262 -2.3580764083 -0.0056330146
| 36> H -0.1029071276 -2.1712785729 -1.3655605583
| 37> H -1.7297397821 1.6408620073 1.3534846223
| 38> H -0.9241768041 2.8945033315 0.3850372325
| 39> H -3.9440468192 2.3753169536 0.4687927053
| 40> H -3.1011637824 3.7302191442 1.2418447541
| 41> H -3.1464288945 3.6015727577 -0.5253581131
| 42> H -4.2889066257 -1.8612764175 -0.7421930906
| 43> H -3.798918136 -1.939259444 0.9710503625
| 44> H -6.1457996217 -0.3067347246 -0.1330580755
| 45> H -6.2818875064 -1.8227837448 0.7707752207
| 46> H -5.6517031424 -0.370166941 1.5642377178
| 47> *
| 48>
| 49>                          ****END OF INPUT****

CARTESIAN COORDINATES (ANGSTROEM)
---------------------------------
  C      4.250496    1.260550   -2.417158
  C      4.477709    0.694112   -1.030064
  O      3.509605    1.240587   -0.099613
  P      2.299521    0.414068    0.498728
  S      1.349977    1.520932    1.794884
  O      2.932573   -0.936021    1.074875
  C      2.926474   -1.302990    2.471098
  C      1.952780   -2.435626    2.727565
  S      1.327760   -0.308127   -1.245802
  C      0.388598   -1.681818   -0.523744
  S     -0.865831   -1.154901    0.669468
  P     -2.123675   -0.133516   -0.716006
  S     -2.151654   -0.892221   -2.516125
  O     -1.696534    1.381603   -0.713171
  C     -1.800415    2.245704    0.445295
  C     -3.087491    3.040852    0.403571
  O     -3.514053   -0.113183    0.049905
  C     -4.286171   -1.322629    0.210954
  C     -5.686458   -0.926520    0.631944
  H      5.025854    0.894941   -3.082833
  H      3.278903    0.953870   -2.799694
  H      4.285599    2.346014   -2.385513
  H      5.447153    0.999759   -0.632990
  H      4.403084   -0.395549   -1.026180
  H      3.952752   -1.603610    2.688584
  H      2.665208   -0.423080    3.067217
  H      2.194353   -3.293073    2.105172
  H      2.021230   -2.725818    3.770965
  H      0.933082   -2.114249    2.519762
  H      1.063056   -2.358076   -0.005633
  H     -0.102907   -2.171279   -1.365561
  H     -1.729740    1.640862    1.353485
  H     -0.924177    2.894503    0.385037
  H     -3.944047    2.375317    0.468793
  H     -3.101164    3.730219    1.241845
  H     -3.146429    3.601573   -0.525358
  H     -4.288907   -1.861276   -0.742193
  H     -3.798918   -1.939259    0.971050
  H     -6.145800   -0.306735   -0.133058
  H     -6.281888   -1.822784    0.770775
  H     -5.651703   -0.370167    1.564238

 Total Charge           Charge          ....    0
 Multiplicity           Mult            ....    1
 Number of Electrons    NEL             ....  202
 Basis Dimension        Dim             ....  334

ORBITAL ENERGIES
----------------

  NO   OCC          E(Eh)            E(eV)
   0   2.0000     -88.041711     -2395.7367
   1   2.0000     -88.040837     -2395.7130
   2   2.0000     -87.982741     -2394.1321
   3   2.0000     -87.982040     -2394.1130
   4   2.0000     -76.425227     -2079.6361
   5   2.0000     -76.423551     -2079.5906
   6   2.0000     -18.795414      -511.4492
   7   2.0000     -18.795361      -511.4478
   8   2.0000     -18.790606      -511.3184
   9   2.0000     -18.785474      -511.1787
  10   2.0000      -9.956224      -270.9226
  11   2.0000      -9.956122      -270.9199
  12   2.0000      -9.954826      -270.8846
  13   2.0000      -9.954730      -270.8820
  14   2.0000      -9.942925      -270.5608
  15   2.0000      -9.891147      -269.1518
  16   2.0000      -9.890408      -269.1317
  17   2.0000      -9.886563      -269.0271
  18   2.0000      -9.877559      -268.7820
  19   2.0000      -7.686564      -209.1620
  20   2.0000      -7.685522      -209.1337
  21   2.0000      -7.628087      -207.5708
  22   2.0000      -7.627388      -207.5518
  23   2.0000      -6.422859      -174.7749
  24   2.0000      -6.421192      -174.7295
  25   2.0000      -5.714539      -155.5005
  26   2.0000      -5.713273      -155.4661
  27   2.0000      -5.710997      -155.4041
  28   2.0000      -5.710087      -155.3794
  29   2.0000      -5.703539      -155.2012
  30   2.0000      -5.702643      -155.1768
  31   2.0000      -5.657100      -153.9375
  32   2.0000      -5.656377      -153.9178
  33   2.0000      -5.648558      -153.7051
  34   2.0000      -5.648252      -153.6967
  35   2.0000      -5.647794      -153.6843
  36   2.0000      -5.647572      -153.6782
  37   2.0000      -4.645962      -126.4230
  38   2.0000      -4.644432      -126.3814
  39   2.0000      -4.644069      -126.3715
  40   2.0000      -4.643040      -126.3436
  41   2.0000      -4.642932      -126.3406
  42   2.0000      -4.641382      -126.2984
  43   2.0000      -0.986985       -26.8572
  44   2.0000      -0.984987       -26.8029
  45   2.0000      -0.945129       -25.7183
  46   2.0000      -0.942500       -25.6467
  47   2.0000      -0.763073       -20.7643
  48   2.0000      -0.721791       -19.6409
  49   2.0000      -0.711056       -19.3488
  50   2.0000      -0.693933       -18.8829
  51   2.0000      -0.689153       -18.7528
  52   2.0000      -0.671575       -18.2745
  53   2.0000      -0.648046       -17.6342
  54   2.0000      -0.637064       -17.3354
  55   2.0000      -0.592373       -16.1193
  56   2.0000      -0.585812       -15.9408
  57   2.0000      -0.576146       -15.6777
  58   2.0000      -0.566483       -15.4148
  59   2.0000      -0.564494       -15.3607
  60   2.0000      -0.510505       -13.8916
  61   2.0000      -0.504215       -13.7204
  62   2.0000      -0.479159       -13.0386
  63   2.0000      -0.476546       -12.9675
  64   2.0000      -0.458593       -12.4790
  65   2.0000      -0.445081       -12.1113
  66   2.0000      -0.442834       -12.0501
  67   2.0000      -0.435153       -11.8411
  68   2.0000      -0.430119       -11.7041
  69   2.0000      -0.415105       -11.2956
  70   2.0000      -0.405955       -11.0466
  71   2.0000      -0.391693       -10.6585
  72   2.0000      -0.385557       -10.4915
  73   2.0000      -0.380994       -10.3674
  74   2.0000      -0.378686       -10.3046
  75   2.0000      -0.377970       -10.2851
  76   2.0000      -0.367545       -10.0014
  77   2.0000      -0.359380        -9.7792
  78   2.0000      -0.357809        -9.7365
  79   2.0000      -0.353286        -9.6134
  80   2.0000      -0.352072        -9.5804
  81   2.0000      -0.345536        -9.4025
  82   2.0000      -0.341392        -9.2898
  83   2.0000      -0.339922        -9.2497
  84   2.0000      -0.335007        -9.1160
  85   2.0000      -0.319533        -8.6949
  86   2.0000      -0.311035        -8.4637
  87   2.0000      -0.303179        -8.2499
  88   2.0000      -0.300653        -8.1812
  89   2.0000      -0.287641        -7.8271
  90   2.0000      -0.286179        -7.7873
  91   2.0000      -0.272978        -7.4281
  92   2.0000      -0.268035        -7.2936
  93   2.0000      -0.266641        -7.2557
  94   2.0000      -0.257722        -7.0130
  95   2.0000      -0.240192        -6.5359
  96   2.0000      -0.218307        -5.9404
  97   2.0000      -0.204767        -5.5720
  98   2.0000      -0.203216        -5.5298
  99   2.0000      -0.197731        -5.3805
 100   2.0000      -0.190305        -5.1785
 101   0.0000      -0.046179        -1.2566
 102   0.0000      -0.024035        -0.6540
 103   0.0000      -0.005521        -0.1502
 104   0.0000       0.002098         0.0571
 105   0.0000       0.013822         0.3761

MULLIKEN ATOMIC CHARGES
-----------------------
   0 C :   -0.293527
   1 C :   -0.021121
   2 O :   -0.361794
   3 P :    0.610189
   4 S :   -0.307194
   5 O :   -0.395541
   6 C :   -0.008881
   7 C :   -0.317874
   8 S :   -0.083250
   9 C :   -0.368296
  10 S :   -0.112707
  11 P :    0.622502
  12 S :   -0.320357
  13 O :   -0.347576
  14 C :   -0.019118
  15 C :   -0.285724
  16 O :   -0.384467
  17 C :   -0.012191
  18 C :   -0.283134
  19 H :    0.110666
  20 H :    0.131968
  21 H :    0.122043
  22 H :    0.109458
  23 H :    0.107376
  24 H :    0.103215
  25 H :    0.115496
  26 H :    0.120101
  27 H :    0.115408
  28 H :    0.134516
  29 H :    0.189434
  30 H :    0.195258
  31 H :    0.107417
  32 H :    0.120543
  33 H :    0.117163
  34 H :    0.108849
  35 H :    0.116821
  36 H :    0.106361
  37 H :    0.103504
  38 H :    0.123760
  39 H :    0.113359
  40 H :    0.117346
Sum of atomic charges:   -0.0000000

LOEWDIN ATOMIC CHARGES
----------------------
   0 C :   -0.358843
   1 C :   -0.118554
   2 O :   -0.243036
   3 P :    0.562542
   4 S :   -0.300043
   5 O :   -0.260432
   6 C :   -0.119109
   7 C :   -0.362798
   8 S :    0.093349
   9 C :   -0.482324
  10 S :    0.067750
  11 P :    0.571095
  12 S :   -0.313460
  13 O :   -0.226667
  14 C :   -0.116220
  15 C :   -0.360499
  16 O :   -0.247447
  17 C :   -0.120743
  18 C :   -0.350663
  19 H :    0.130460
  20 H :    0.122362
  21 H :    0.129938
  22 H :    0.120673
  23 H :    0.108727
  24 H :    0.116794
  25 H :    0.109171
  26 H :    0.123516
  27 H :    0.133746
  28 H :    0.118911
  29 H :    0.130120
  30 H :    0.130370
  31 H :    0.105453
  32 H :    0.119947
  33 H :    0.122720
  34 H :    0.129311
  35 H :    0.127549
  36 H :    0.110287
  37 H :    0.108090
  38 H :    0.129876
  39 H :    0.131630
  40 H :    0.126452

  Mayer bond orders larger than 0.100000
B(  0-C ,  1-C ) :   1.1649 B(  0-C , 19-H ) :   0.9395 B(  0-C , 20-H ) :   0.9389
B(  0-C , 21-H ) :   0.9460 B(  1-C ,  2-O ) :   0.8941 B(  1-C , 22-H ) :   0.9327
B(  1-C , 23-H ) :   0.9164 B(  2-O ,  3-P ) :   1.1360 B(  3-P ,  4-S ) :   1.6544
B(  3-P ,  5-O ) :   1.0572 B(  3-P ,  8-S ) :   0.9656 B(  4-S ,  8-S ) :   0.1032
B(  5-O ,  6-C ) :   0.9067 B(  6-C ,  7-C ) :   1.1705 B(  6-C , 24-H ) :   0.9326
B(  6-C , 25-H ) :   0.9006 B(  7-C , 26-H ) :   0.9403 B(  7-C , 27-H ) :   0.9365
B(  7-C , 28-H ) :   0.9311 B(  8-S ,  9-C ) :   0.9970 B(  9-C , 10-S ) :   1.0158
B(  9-C , 29-H ) :   0.8911 B(  9-C , 30-H ) :   0.8746 B( 10-S , 11-P ) :   0.9395
B( 10-S , 12-S ) :   0.1075 B( 11-P , 12-S ) :   1.6422 B( 11-P , 13-O ) :   1.1615
B( 11-P , 16-O ) :   1.0768 B( 13-O , 14-C ) :   0.8828 B( 14-C , 15-C ) :   1.1556
B( 14-C , 31-H ) :   0.9182 B( 14-C , 32-H ) :   0.9272 B( 15-C , 33-H ) :   0.9414
B( 15-C , 34-H ) :   0.9408 B( 15-C , 35-H ) :   0.9462 B( 16-O , 17-C ) :   0.9048
B( 17-C , 18-C ) :   1.1597 B( 17-C , 36-H ) :   0.9107 B( 17-C , 37-H ) :   0.9267
B( 18-C , 38-H ) :   0.9505 B( 18-C , 39-H ) :   0.9417 B( 18-C , 40-H ) :   0.9505

Dispersion correction           -0.064276114
FINAL SINGLE POINT ENERGY     -2929.519623631738

DIPOLE MOMENT
-------------

Method             : SCF
Type of density    : Electron Density
Multiplicity       :   1
Irrep              :   0
Energy             : -2929.6397854628012283 Eh
Relativity type    :
Basis              : AO
                                X                 Y                 Z
Electronic contribution:      4.187748748       1.130132151      -7.020861040
Nuclear contribution   :     -3.736693343      -2.030689060       7.936751091
                        -----------------------------------------
Total Dipole Moment    :      0.451055406      -0.900556909       0.915890052
                        -----------------------------------------
Magnitude (a.u.)       :      1.361362667
Magnitude (Debye)      :      3.460308905

Rotational constants in cm-1:             0.011983             0.004791             0.004612
Rotational constants in MHz :           359.247929           143.616269           138.260795

                             ****ORCA TERMINATED NORMALLY****
TOTAL RUN TIME: 0 days 0 hours 0 minutes 20 seconds 748 msec
