                         Program Version 6.0.0  -   RELEASE  -
|  1> ! pbe def2-sv(p) def2/J RI DEFGRID1 loosescf d4 GCP(DFT/SV(P)) printgap
|  2> %output
|  3>     printlevel normal
|  4> end
|  5> * xyz 0 1
|  6> C 5.4214602925 -1.0062812703 -1.2838201827
|  7> C 4.0235241075 -1.4527926471 -1.6670178519
|  8> O 3.1742949799 -1.5572083398 -0.5072258175
|  9> P 2.2930835704 -0.3496837473 0.0280277288
| 10> S 3.2167730656 1.3200236732 0.497366061
| 11> O 1.5102557162 -1.0429184756 1.2137348613
| 12> C 1.9316867699 -0.8944516866 2.5877227466
| 13> C 3.2007987923 -1.6742953138 2.8556671416
| 14> S 0.7941055382 -0.1652737312 -1.4567050741
| 15> C 0.1100598333 1.3964794129 -0.8393810396
| 16> S -0.9454832042 1.1710460062 0.606374839
| 17> P -2.5882175451 0.3019531629 -0.4517593612
| 18> S -2.9079080898 1.0933771608 -2.2143996081
| 19> O -3.8012951326 0.3601443917 0.5707057502
| 20> C -4.6801815766 1.4974223649 0.6612152797
| 21> C -3.9732396388 2.7345014529 1.1745190208
| 22> O -2.3054739609 -1.2470837421 -0.561399417
| 23> C -2.5842574282 -2.2407027127 0.4542853618
| 24> C -1.7535079241 -2.038394956 1.7033607734
| 25> H 5.3954640374 -0.0078580838 -0.8528448501
| 26> H 5.8464054569 -1.6918431684 -0.5559600143
| 27> H 6.0470324376 -0.9915416647 -2.1704612701
| 28> H 4.0301198875 -2.4594737129 -2.0892719085
| 29> H 3.5711367981 -0.7617086905 -2.3843967556
| 30> H 2.0777095143 0.1706528621 2.7931653964
| 31> H 1.0884089546 -1.2704594227 3.1678695569
| 32> H 4.0174354244 -1.2558713646 2.2682512768
| 33> H 3.4517430048 -1.6069083881 3.9094611201
| 34> H 3.0680842668 -2.7165273958 2.5782114982
| 35> H -0.4786599335 1.8255698362 -1.6511550323
| 36> H 0.927231554 2.0568564258 -0.5456142629
| 37> H -5.10632154 1.6823221865 -0.3294747754
| 38> H -5.4608383012 1.1651998125 1.3470475252
| 39> H -3.4521666707 2.5181305899 2.10364686
| 40> H -3.2495456567 3.0824101115 0.4390290887
| 41> H -4.7041652495 3.5184799443 1.3445611688
| 42> H -3.6513194048 -2.2062357769 0.6822265048
| 43> H -2.338540913 -3.1794308384 -0.0448711435
| 44> H -1.9400567557 -2.8585918521 2.3897111286
| 45> H -0.6964999755 -2.0158151763 1.4491374605
| 46> H -2.0211585059 -1.1000250082 2.1859621463
| 47> *
| 48>
| 49>                          ****END OF INPUT****

CARTESIAN COORDINATES (ANGSTROEM)
---------------------------------
  C      5.421460   -1.006281   -1.283820
  C      4.023524   -1.452793   -1.667018
  O      3.174295   -1.557208   -0.507226
  P      2.293084   -0.349684    0.028028
  S      3.216773    1.320024    0.497366
  O      1.510256   -1.042918    1.213735
  C      1.931687   -0.894452    2.587723
  C      3.200799   -1.674295    2.855667
  S      0.794106   -0.165274   -1.456705
  C      0.110060    1.396479   -0.839381
  S     -0.945483    1.171046    0.606375
  P     -2.588218    0.301953   -0.451759
  S     -2.907908    1.093377   -2.214400
  O     -3.801295    0.360144    0.570706
  C     -4.680182    1.497422    0.661215
  C     -3.973240    2.734501    1.174519
  O     -2.305474   -1.247084   -0.561399
  C     -2.584257   -2.240703    0.454285
  C     -1.753508   -2.038395    1.703361
  H      5.395464   -0.007858   -0.852845
  H      5.846405   -1.691843   -0.555960
  H      6.047032   -0.991542   -2.170461
  H      4.030120   -2.459474   -2.089272
  H      3.571137   -0.761709   -2.384397
  H      2.077710    0.170653    2.793165
  H      1.088409   -1.270459    3.167870
  H      4.017435   -1.255871    2.268251
  H      3.451743   -1.606908    3.909461
  H      3.068084   -2.716527    2.578211
  H     -0.478660    1.825570   -1.651155
  H      0.927232    2.056856   -0.545614
  H     -5.106322    1.682322   -0.329475
  H     -5.460838    1.165200    1.347048
  H     -3.452167    2.518131    2.103647
  H     -3.249546    3.082410    0.439029
  H     -4.704165    3.518480    1.344561
  H     -3.651319   -2.206236    0.682227
  H     -2.338541   -3.179431   -0.044871
  H     -1.940057   -2.858592    2.389711
  H     -0.696500   -2.015815    1.449137
  H     -2.021159   -1.100025    2.185962

 Total Charge           Charge          ....    0
 Multiplicity           Mult            ....    1
 Number of Electrons    NEL             ....  202
 Basis Dimension        Dim             ....  334

ORBITAL ENERGIES
----------------

  NO   OCC          E(Eh)            E(eV)
   0   2.0000     -88.040026     -2395.6909
   1   2.0000     -88.038651     -2395.6535
   2   2.0000     -87.991064     -2394.3586
   3   2.0000     -87.984183     -2394.1713
   4   2.0000     -76.428765     -2079.7324
   5   2.0000     -76.426688     -2079.6759
   6   2.0000     -18.799850      -511.5699
   7   2.0000     -18.797017      -511.4928
   8   2.0000     -18.794730      -511.4306
   9   2.0000     -18.787818      -511.2425
  10   2.0000      -9.957822      -270.9661
  11   2.0000      -9.956802      -270.9383
  12   2.0000      -9.954233      -270.8685
  13   2.0000      -9.953514      -270.8489
  14   2.0000      -9.947894      -270.6960
  15   2.0000      -9.886100      -269.0144
  16   2.0000      -9.885597      -269.0008
  17   2.0000      -9.883351      -268.9397
  18   2.0000      -9.883199      -268.9355
  19   2.0000      -7.685295      -209.1275
  20   2.0000      -7.683518      -209.0792
  21   2.0000      -7.635930      -207.7842
  22   2.0000      -7.629456      -207.6080
  23   2.0000      -6.426540      -174.8750
  24   2.0000      -6.424018      -174.8064
  25   2.0000      -5.713082      -155.4609
  26   2.0000      -5.711241      -155.4108
  27   2.0000      -5.709888      -155.3740
  28   2.0000      -5.708254      -155.3295
  29   2.0000      -5.702245      -155.1660
  30   2.0000      -5.700457      -155.1173
  31   2.0000      -5.664650      -154.1430
  32   2.0000      -5.658376      -153.9722
  33   2.0000      -5.656548      -153.9225
  34   2.0000      -5.656301      -153.9158
  35   2.0000      -5.650162      -153.7487
  36   2.0000      -5.649482      -153.7302
  37   2.0000      -4.649022      -126.5063
  38   2.0000      -4.648317      -126.4871
  39   2.0000      -4.647220      -126.4573
  40   2.0000      -4.647016      -126.4517
  41   2.0000      -4.645420      -126.4083
  42   2.0000      -4.644265      -126.3769
  43   2.0000      -0.991268       -26.9738
  44   2.0000      -0.989912       -26.9369
  45   2.0000      -0.950219       -25.8568
  46   2.0000      -0.944844       -25.7105
  47   2.0000      -0.762636       -20.7524
  48   2.0000      -0.721897       -19.6438
  49   2.0000      -0.709708       -19.3121
  50   2.0000      -0.691760       -18.8237
  51   2.0000      -0.689050       -18.7500
  52   2.0000      -0.676273       -18.4023
  53   2.0000      -0.651968       -17.7409
  54   2.0000      -0.636284       -17.3142
  55   2.0000      -0.601316       -16.3626
  56   2.0000      -0.596126       -16.2214
  57   2.0000      -0.579361       -15.7652
  58   2.0000      -0.572023       -15.5655
  59   2.0000      -0.557457       -15.1692
  60   2.0000      -0.502265       -13.6673
  61   2.0000      -0.496194       -13.5021
  62   2.0000      -0.479119       -13.0375
  63   2.0000      -0.471421       -12.8280
  64   2.0000      -0.459068       -12.4919
  65   2.0000      -0.449233       -12.2243
  66   2.0000      -0.442155       -12.0317
  67   2.0000      -0.438428       -11.9302
  68   2.0000      -0.425599       -11.5811
  69   2.0000      -0.421160       -11.4603
  70   2.0000      -0.406551       -11.0628
  71   2.0000      -0.399441       -10.8693
  72   2.0000      -0.397081       -10.8051
  73   2.0000      -0.393294       -10.7021
  74   2.0000      -0.376492       -10.2449
  75   2.0000      -0.373477       -10.1628
  76   2.0000      -0.369561       -10.0563
  77   2.0000      -0.357929        -9.7397
  78   2.0000      -0.354637        -9.6502
  79   2.0000      -0.352897        -9.6028
  80   2.0000      -0.349126        -9.5002
  81   2.0000      -0.346528        -9.4295
  82   2.0000      -0.339906        -9.2493
  83   2.0000      -0.338219        -9.2034
  84   2.0000      -0.336072        -9.1450
  85   2.0000      -0.325089        -8.8461
  86   2.0000      -0.310986        -8.4624
  87   2.0000      -0.300091        -8.1659
  88   2.0000      -0.297581        -8.0976
  89   2.0000      -0.295401        -8.0383
  90   2.0000      -0.289172        -7.8688
  91   2.0000      -0.278742        -7.5849
  92   2.0000      -0.273158        -7.4330
  93   2.0000      -0.266806        -7.2602
  94   2.0000      -0.255213        -6.9447
  95   2.0000      -0.232835        -6.3358
  96   2.0000      -0.219439        -5.9712
  97   2.0000      -0.212287        -5.7766
  98   2.0000      -0.203887        -5.5480
  99   2.0000      -0.202693        -5.5156
 100   2.0000      -0.196190        -5.3386
 101   0.0000      -0.044361        -1.2071
 102   0.0000      -0.023826        -0.6483
 103   0.0000      -0.004247        -0.1156
 104   0.0000      -0.002730        -0.0743
 105   0.0000       0.018034         0.4907

MULLIKEN ATOMIC CHARGES
-----------------------
   0 C :   -0.297441
   1 C :   -0.013739
   2 O :   -0.371073
   3 P :    0.610569
   4 S :   -0.336620
   5 O :   -0.356011
   6 C :   -0.006375
   7 C :   -0.305780
   8 S :   -0.059917
   9 C :   -0.385906
  10 S :   -0.091195
  11 P :    0.619301
  12 S :   -0.319495
  13 O :   -0.387200
  14 C :   -0.000753
  15 C :   -0.317680
  16 O :   -0.356643
  17 C :    0.013632
  18 C :   -0.356258
  19 H :    0.131898
  20 H :    0.114239
  21 H :    0.109557
  22 H :    0.110216
  23 H :    0.106875
  24 H :    0.115171
  25 H :    0.106939
  26 H :    0.124575
  27 H :    0.112641
  28 H :    0.115999
  29 H :    0.196634
  30 H :    0.192563
  31 H :    0.115307
  32 H :    0.104809
  33 H :    0.116739
  34 H :    0.131250
  35 H :    0.114827
  36 H :    0.106300
  37 H :    0.109393
  38 H :    0.107457
  39 H :    0.157672
  40 H :    0.117523
Sum of atomic charges:    0.0000000

LOEWDIN ATOMIC CHARGES
----------------------
   0 C :   -0.364326
   1 C :   -0.115319
   2 O :   -0.243642
   3 P :    0.572482
   4 S :   -0.317716
   5 O :   -0.232506
   6 C :   -0.117871
   7 C :   -0.363797
   8 S :    0.091729
   9 C :   -0.493684
  10 S :    0.078473
  11 P :    0.577292
  12 S :   -0.312314
  13 O :   -0.246576
  14 C :   -0.115581
  15 C :   -0.370764
  16 O :   -0.236994
  17 C :   -0.105430
  18 C :   -0.376863
  19 H :    0.124825
  20 H :    0.125351
  21 H :    0.129813
  22 H :    0.120342
  23 H :    0.108768
  24 H :    0.110669
  25 H :    0.116948
  26 H :    0.122985
  27 H :    0.130842
  28 H :    0.126234
  29 H :    0.127588
  30 H :    0.126797
  31 H :    0.114232
  32 H :    0.118453
  33 H :    0.123367
  34 H :    0.122935
  35 H :    0.132214
  36 H :    0.112495
  37 H :    0.122734
  38 H :    0.128204
  39 H :    0.131548
  40 H :    0.116063

  Mayer bond orders larger than 0.100000
B(  0-C ,  1-C ) :   1.1672 B(  0-C , 19-H ) :   0.9315 B(  0-C , 20-H ) :   0.9467
B(  0-C , 21-H ) :   0.9391 B(  1-C ,  2-O ) :   0.9039 B(  1-C , 22-H ) :   0.9357
B(  1-C , 23-H ) :   0.9164 B(  2-O ,  3-P ) :   1.1149 B(  3-P ,  4-S ) :   1.5891
B(  3-P ,  5-O ) :   1.1219 B(  3-P ,  8-S ) :   0.9755 B(  4-S ,  8-S ) :   0.1114
B(  5-O ,  6-C ) :   0.8947 B(  6-C ,  7-C ) :   1.1645 B(  6-C , 24-H ) :   0.9136
B(  6-C , 25-H ) :   0.9306 B(  7-C , 26-H ) :   0.9349 B(  7-C , 27-H ) :   0.9391
B(  7-C , 28-H ) :   0.9466 B(  8-S ,  9-C ) :   1.0046 B(  9-C , 10-S ) :   1.0090
B(  9-C , 29-H ) :   0.8648 B(  9-C , 30-H ) :   0.8655 B( 10-S , 11-P ) :   0.9387
B( 10-S , 12-S ) :   0.1127 B( 11-P , 12-S ) :   1.6293 B( 11-P , 13-O ) :   1.0792
B( 11-P , 16-O ) :   1.1400 B( 13-O , 14-C ) :   0.9014 B( 14-C , 15-C ) :   1.1667
B( 14-C , 31-H ) :   0.9178 B( 14-C , 32-H ) :   0.9342 B( 15-C , 33-H ) :   0.9444
B( 15-C , 34-H ) :   0.9334 B( 15-C , 35-H ) :   0.9365 B( 16-O , 17-C ) :   0.9004
B( 17-C , 18-C ) :   1.1706 B( 17-C , 36-H ) :   0.9282 B( 17-C , 37-H ) :   0.9336
B( 18-C , 38-H ) :   0.9351 B( 18-C , 39-H ) :   0.9195 B( 18-C , 40-H ) :   0.9400

Dispersion correction           -0.065174745
FINAL SINGLE POINT ENERGY     -2929.521100995833

DIPOLE MOMENT
-------------

Method             : SCF
Type of density    : Electron Density
Multiplicity       :   1
Irrep              :   0
Energy             : -2929.6416280963549070 Eh
Relativity type    :
Basis              : AO
                                X                 Y                 Z
Electronic contribution:     -6.333393888       6.768160700     -14.276046282
Nuclear contribution   :      6.262550280      -7.709667594      15.506389002
                        -----------------------------------------
Total Dipole Moment    :     -0.070843608      -0.941506894       1.230342720
                        -----------------------------------------
Magnitude (a.u.)       :      1.550869839
Magnitude (Debye)      :      3.941997855

Rotational constants in cm-1:             0.013864             0.004509             0.004270
Rotational constants in MHz :           415.643640           135.173517           128.012140

                             ****ORCA TERMINATED NORMALLY****
TOTAL RUN TIME: 0 days 0 hours 0 minutes 20 seconds 916 msec
