                         Program Version 6.0.0  -   RELEASE  -
|  1> ! r2scan-3c def2/J RI DEFGRID2 scfconv6 printgap
|  2> %output
|  3>     printlevel normal
|  4> end
|  5> * xyz 0 1
|  6> C 5.0078131173 -2.594182018 -1.1069747758
|  7> C 3.9903393969 -1.5434990048 -1.5037826891
|  8> O 2.9976502197 -1.470165295 -0.4607996991
|  9> P 2.1066183797 -0.1752938896 -0.2268500786
| 10> S 3.1013255297 1.5186556808 -0.2263233479
| 11> O 1.3569328561 -0.5568348512 1.1074108299
| 12> C 1.8207305233 -0.1634647753 2.4203999298
| 13> C 0.617731245 0.2032843217 3.264522307
| 14> S 0.5769179385 -0.3673641832 -1.6688824651
| 15> C -0.0301205947 1.3350871278 -1.5458838217
| 16> S -0.7941256287 1.6936962621 0.0509867892
| 17> P -2.4423406507 0.3660461592 -0.1554281221
| 18> S -3.1813876082 0.2016536072 -1.9554815988
| 19> O -3.5085435612 0.917238237 0.8708491772
| 20> C -3.299018658 0.9935032044 2.3058250089
| 21> C -2.9110965278 2.3985588709 2.7196531021
| 22> O -1.9312697103 -0.992723323 0.5134766556
| 23> C -1.9342307673 -2.2762075373 -0.1475448082
| 24> C -0.8246944427 -3.124596229 0.4383816835
| 25> H 4.5143680478 -3.5506232682 -0.9612598865
| 26> H 5.7486396658 -2.6870772264 -1.8942542182
| 27> H 5.5011365189 -2.3069320139 -0.1826854677
| 28> H 3.4835587907 -1.8084221743 -2.4352563953
| 29> H 4.4544520582 -0.5576212865 -1.6145385317
| 30> H 2.3599821564 -1.0164071541 2.837656764
| 31> H 2.5062436003 0.6839496275 2.3136653447
| 32> H 0.9471701131 0.4355165748 4.2719077873
| 33> H 0.116028203 1.0701460243 2.8423447792
| 34> H -0.0785310543 -0.6301830143 3.2953458496
| 35> H -0.7673989391 1.4608544215 -2.3386894813
| 36> H 0.80333898 2.0286315396 -1.6578445805
| 37> H -4.262857951 0.7098635103 2.7318355377
| 38> H -2.5380266174 0.2657480243 2.5926521548
| 39> H -2.828124018 2.4386024929 3.8011905221
| 40> H -1.957857638 2.6805925641 2.2771429664
| 41> H -3.6672775112 3.1056651503 2.3904372377
| 42> H -2.9131523831 -2.7307344071 0.0248809134
| 43> H -1.8003886227 -2.1254955337 -1.2230878523
| 44> H -0.9671373684 -3.2389726781 1.5090128349
| 45> H -0.8436452184 -4.1012930071 -0.0339324941
| 46> H 0.1424808164 -2.6612341651 0.2596877002
| 47> *
| 48>
| 49>                          ****END OF INPUT****

CARTESIAN COORDINATES (ANGSTROEM)
---------------------------------
  C      5.007813   -2.594182   -1.106975
  C      3.990339   -1.543499   -1.503783
  O      2.997650   -1.470165   -0.460800
  P      2.106618   -0.175294   -0.226850
  S      3.101326    1.518656   -0.226323
  O      1.356933   -0.556835    1.107411
  C      1.820731   -0.163465    2.420400
  C      0.617731    0.203284    3.264522
  S      0.576918   -0.367364   -1.668882
  C     -0.030121    1.335087   -1.545884
  S     -0.794126    1.693696    0.050987
  P     -2.442341    0.366046   -0.155428
  S     -3.181388    0.201654   -1.955482
  O     -3.508544    0.917238    0.870849
  C     -3.299019    0.993503    2.305825
  C     -2.911097    2.398559    2.719653
  O     -1.931270   -0.992723    0.513477
  C     -1.934231   -2.276208   -0.147545
  C     -0.824694   -3.124596    0.438382
  H      4.514368   -3.550623   -0.961260
  H      5.748640   -2.687077   -1.894254
  H      5.501137   -2.306932   -0.182685
  H      3.483559   -1.808422   -2.435256
  H      4.454452   -0.557621   -1.614539
  H      2.359982   -1.016407    2.837657
  H      2.506244    0.683950    2.313665
  H      0.947170    0.435517    4.271908
  H      0.116028    1.070146    2.842345
  H     -0.078531   -0.630183    3.295346
  H     -0.767399    1.460854   -2.338689
  H      0.803339    2.028632   -1.657845
  H     -4.262858    0.709864    2.731836
  H     -2.538027    0.265748    2.592652
  H     -2.828124    2.438602    3.801191
  H     -1.957858    2.680593    2.277143
  H     -3.667278    3.105665    2.390437
  H     -2.913152   -2.730734    0.024881
  H     -1.800389   -2.125496   -1.223088
  H     -0.967137   -3.238973    1.509013
  H     -0.843645   -4.101293   -0.033932
  H      0.142481   -2.661234    0.259688

 Total Charge           Charge          ....    0
 Multiplicity           Mult            ....    1
 Number of Electrons    NEL             ....  202
 Basis Dimension        Dim             ....  539

ORBITAL ENERGIES
----------------

  NO   OCC          E(Eh)            E(eV)
   0   2.0000     -88.579294     -2410.3651
   1   2.0000     -88.573582     -2410.2097
   2   2.0000     -88.523637     -2408.8506
   3   2.0000     -88.518722     -2408.7169
   4   2.0000     -76.917005     -2093.0181
   5   2.0000     -76.913895     -2092.9335
   6   2.0000     -18.996057      -516.9090
   7   2.0000     -18.993522      -516.8400
   8   2.0000     -18.992274      -516.8060
   9   2.0000     -18.986162      -516.6397
  10   2.0000     -10.106796      -275.0199
  11   2.0000     -10.105464      -274.9837
  12   2.0000     -10.101852      -274.8854
  13   2.0000     -10.101439      -274.8741
  14   2.0000     -10.093317      -274.6531
  15   2.0000     -10.036500      -273.1070
  16   2.0000     -10.035861      -273.0897
  17   2.0000     -10.034749      -273.0594
  18   2.0000     -10.025784      -272.8155
  19   2.0000      -7.873635      -214.2525
  20   2.0000      -7.868139      -214.1030
  21   2.0000      -7.818410      -212.7497
  22   2.0000      -7.813569      -212.6180
  23   2.0000      -6.595649      -179.4767
  24   2.0000      -6.592000      -179.3774
  25   2.0000      -5.820500      -158.3839
  26   2.0000      -5.817451      -158.3009
  27   2.0000      -5.815011      -158.2345
  28   2.0000      -5.812026      -158.1533
  29   2.0000      -5.810809      -158.1201
  30   2.0000      -5.805170      -157.9667
  31   2.0000      -5.765931      -156.8990
  32   2.0000      -5.761348      -156.7743
  33   2.0000      -5.758696      -156.7021
  34   2.0000      -5.758519      -156.6973
  35   2.0000      -5.753823      -156.5695
  36   2.0000      -5.753444      -156.5592
  37   2.0000      -4.741056      -129.0107
  38   2.0000      -4.740588      -128.9980
  39   2.0000      -4.739407      -128.9658
  40   2.0000      -4.737845      -128.9233
  41   2.0000      -4.736581      -128.8889
  42   2.0000      -4.735803      -128.8677
  43   2.0000      -1.053428       -28.6652
  44   2.0000      -1.046494       -28.4766
  45   2.0000      -1.014040       -27.5934
  46   2.0000      -1.005622       -27.3644
  47   2.0000      -0.804826       -21.9004
  48   2.0000      -0.763947       -20.7881
  49   2.0000      -0.754903       -20.5419
  50   2.0000      -0.737072       -20.0568
  51   2.0000      -0.734660       -19.9911
  52   2.0000      -0.710727       -19.3399
  53   2.0000      -0.684577       -18.6283
  54   2.0000      -0.669949       -18.2302
  55   2.0000      -0.631974       -17.1969
  56   2.0000      -0.619283       -16.8516
  57   2.0000      -0.608935       -16.5700
  58   2.0000      -0.604829       -16.4582
  59   2.0000      -0.589825       -16.0499
  60   2.0000      -0.538030       -14.6405
  61   2.0000      -0.529777       -14.4160
  62   2.0000      -0.503990       -13.7143
  63   2.0000      -0.498255       -13.5582
  64   2.0000      -0.476740       -12.9727
  65   2.0000      -0.465134       -12.6569
  66   2.0000      -0.463010       -12.5992
  67   2.0000      -0.455533       -12.3957
  68   2.0000      -0.447686       -12.1822
  69   2.0000      -0.435336       -11.8461
  70   2.0000      -0.421750       -11.4764
  71   2.0000      -0.413825       -11.2607
  72   2.0000      -0.408915       -11.1271
  73   2.0000      -0.400347       -10.8940
  74   2.0000      -0.395857       -10.7718
  75   2.0000      -0.392806       -10.6888
  76   2.0000      -0.379910       -10.3379
  77   2.0000      -0.377881       -10.2827
  78   2.0000      -0.376194       -10.2368
  79   2.0000      -0.371750       -10.1158
  80   2.0000      -0.368871       -10.0375
  81   2.0000      -0.364015        -9.9053
  82   2.0000      -0.359407        -9.7800
  83   2.0000      -0.355016        -9.6605
  84   2.0000      -0.346980        -9.4418
  85   2.0000      -0.338553        -9.2125
  86   2.0000      -0.325426        -8.8553
  87   2.0000      -0.320427        -8.7192
  88   2.0000      -0.317032        -8.6269
  89   2.0000      -0.306935        -8.3521
  90   2.0000      -0.299657        -8.1541
  91   2.0000      -0.294527        -8.0145
  92   2.0000      -0.287257        -7.8167
  93   2.0000      -0.281436        -7.6583
  94   2.0000      -0.271956        -7.4003
  95   2.0000      -0.247301        -6.7294
  96   2.0000      -0.229660        -6.2494
  97   2.0000      -0.228370        -6.2143
  98   2.0000      -0.221053        -6.0152
  99   2.0000      -0.215476        -5.8634
 100   2.0000      -0.212040        -5.7699
 101   0.0000      -0.050046        -1.3618
 102   0.0000      -0.026144        -0.7114
 103   0.0000      -0.003669        -0.0998
 104   0.0000       0.002072         0.0564
 105   0.0000       0.004621         0.1257

MULLIKEN ATOMIC CHARGES
-----------------------
   0 C :   -0.442873
   1 C :   -0.149565
   2 O :   -0.295332
   3 P :    0.717265
   4 S :   -0.496917
   5 O :   -0.252685
   6 C :   -0.124440
   7 C :   -0.471183
   8 S :   -0.152848
   9 C :   -0.236471
  10 S :   -0.157856
  11 P :    0.673852
  12 S :   -0.449874
  13 O :   -0.287247
  14 C :   -0.176094
  15 C :   -0.413907
  16 O :   -0.271264
  17 C :   -0.103026
  18 C :   -0.470463
  19 H :    0.153301
  20 H :    0.147914
  21 H :    0.156734
  22 H :    0.151030
  23 H :    0.170801
  24 H :    0.148814
  25 H :    0.171074
  26 H :    0.146461
  27 H :    0.163618
  28 H :    0.156075
  29 H :    0.215810
  30 H :    0.216435
  31 H :    0.154358
  32 H :    0.166460
  33 H :    0.148331
  34 H :    0.152517
  35 H :    0.161970
  36 H :    0.147033
  37 H :    0.171435
  38 H :    0.143829
  39 H :    0.144744
  40 H :    0.172184
Sum of atomic charges:    0.0000000

LOEWDIN ATOMIC CHARGES
----------------------
   0 C :   -0.385738
   1 C :    0.021093
   2 O :   -0.664885
   3 P :    0.370397
   4 S :   -0.137355
   5 O :   -0.671905
   6 C :    0.027241
   7 C :   -0.395472
   8 S :    0.173459
   9 C :   -0.421381
  10 S :    0.146302
  11 P :    0.383448
  12 S :   -0.098494
  13 O :   -0.649251
  14 C :    0.024441
  15 C :   -0.398501
  16 O :   -0.683961
  17 C :    0.012944
  18 C :   -0.393963
  19 H :    0.159608
  20 H :    0.160460
  21 H :    0.160730
  22 H :    0.171750
  23 H :    0.181368
  24 H :    0.172629
  25 H :    0.183715
  26 H :    0.158751
  27 H :    0.162982
  28 H :    0.160119
  29 H :    0.192457
  30 H :    0.192328
  31 H :    0.181543
  32 H :    0.178908
  33 H :    0.160091
  34 H :    0.161906
  35 H :    0.164300
  36 H :    0.170778
  37 H :    0.181695
  38 H :    0.156935
  39 H :    0.158588
  40 H :    0.169943

  Mayer bond orders larger than 0.100000
B(  0-C ,  1-C ) :   0.9581 B(  0-C , 19-H ) :   0.9716 B(  0-C , 20-H ) :   0.9645
B(  0-C , 21-H ) :   0.9718 B(  1-C ,  2-O ) :   0.7761 B(  1-C , 22-H ) :   0.9448
B(  1-C , 23-H ) :   0.9520 B(  2-O ,  3-P ) :   1.0822 B(  3-P ,  4-S ) :   1.7444
B(  3-P ,  5-O ) :   1.1594 B(  3-P ,  8-S ) :   1.0613 B(  5-O ,  6-C ) :   0.7563
B(  6-C ,  7-C ) :   0.9588 B(  6-C , 24-H ) :   0.9480 B(  6-C , 25-H ) :   0.9534
B(  7-C , 26-H ) :   0.9631 B(  7-C , 27-H ) :   0.9672 B(  7-C , 28-H ) :   0.9684
B(  8-S ,  9-C ) :   0.8946 B(  9-C , 10-S ) :   0.9086 B(  9-C , 29-H ) :   0.9085
B(  9-C , 30-H ) :   0.9097 B( 10-S , 11-P ) :   1.0044 B( 11-P , 12-S ) :   1.8439
B( 11-P , 13-O ) :   1.1667 B( 11-P , 16-O ) :   1.0463 B( 13-O , 14-C ) :   0.7528
B( 14-C , 15-C ) :   0.9586 B( 14-C , 31-H ) :   0.9612 B( 14-C , 32-H ) :   0.9687
B( 15-C , 33-H ) :   0.9664 B( 15-C , 34-H ) :   0.9524 B( 15-C , 35-H ) :   0.9684
B( 16-O , 17-C ) :   0.7546 B( 17-C , 18-C ) :   0.9311 B( 17-C , 36-H ) :   0.9463
B( 17-C , 37-H ) :   0.9574 B( 18-C , 38-H ) :   0.9697 B( 18-C , 39-H ) :   0.9682
B( 18-C , 40-H ) :   0.9660

Dispersion correction           -0.021971218
FINAL SINGLE POINT ENERGY     -2932.461833560725

DIPOLE MOMENT
-------------

Method             : SCF
Type of density    : Electron Density
Multiplicity       :   1
Irrep              :   0
Energy             : -2932.4864523342075699 Eh
Relativity type    :
Basis              : AO
                                X                 Y                 Z
Electronic contribution:     -7.061879431      10.953715926     -16.676289834
Nuclear contribution   :      7.753784136     -12.050151396      18.125094246
                        -----------------------------------------
Total Dipole Moment    :      0.691904706      -1.096435470       1.448804412
                        -----------------------------------------
Magnitude (a.u.)       :      1.944206030
Magnitude (Debye)      :      4.941778997

Rotational constants in cm-1:             0.011907             0.005367             0.004969
Rotational constants in MHz :           356.962311           160.883641           148.963149

                             ****ORCA TERMINATED NORMALLY****
TOTAL RUN TIME: 0 days 0 hours 1 minutes 23 seconds 236 msec
