                         Program Version 6.0.0  -   RELEASE  -
|  1> ! r2scan-3c def2/J RI DEFGRID2 scfconv6 printgap
|  2> %output
|  3>     printlevel normal
|  4> end
|  5> %cpcm
|  6>     smd true
|  7>     smdsolvent "water"
|  8> end
|  9> * xyz 0 1
| 10> C 5.0078131173 -2.594182018 -1.1069747758
| 11> C 3.9903393969 -1.5434990048 -1.5037826891
| 12> O 2.9976502197 -1.470165295 -0.4607996991
| 13> P 2.1066183797 -0.1752938896 -0.2268500786
| 14> S 3.1013255297 1.5186556808 -0.2263233479
| 15> O 1.3569328561 -0.5568348512 1.1074108299
| 16> C 1.8207305233 -0.1634647753 2.4203999298
| 17> C 0.617731245 0.2032843217 3.264522307
| 18> S 0.5769179385 -0.3673641832 -1.6688824651
| 19> C -0.0301205947 1.3350871278 -1.5458838217
| 20> S -0.7941256287 1.6936962621 0.0509867892
| 21> P -2.4423406507 0.3660461592 -0.1554281221
| 22> S -3.1813876082 0.2016536072 -1.9554815988
| 23> O -3.5085435612 0.917238237 0.8708491772
| 24> C -3.299018658 0.9935032044 2.3058250089
| 25> C -2.9110965278 2.3985588709 2.7196531021
| 26> O -1.9312697103 -0.992723323 0.5134766556
| 27> C -1.9342307673 -2.2762075373 -0.1475448082
| 28> C -0.8246944427 -3.124596229 0.4383816835
| 29> H 4.5143680478 -3.5506232682 -0.9612598865
| 30> H 5.7486396658 -2.6870772264 -1.8942542182
| 31> H 5.5011365189 -2.3069320139 -0.1826854677
| 32> H 3.4835587907 -1.8084221743 -2.4352563953
| 33> H 4.4544520582 -0.5576212865 -1.6145385317
| 34> H 2.3599821564 -1.0164071541 2.837656764
| 35> H 2.5062436003 0.6839496275 2.3136653447
| 36> H 0.9471701131 0.4355165748 4.2719077873
| 37> H 0.116028203 1.0701460243 2.8423447792
| 38> H -0.0785310543 -0.6301830143 3.2953458496
| 39> H -0.7673989391 1.4608544215 -2.3386894813
| 40> H 0.80333898 2.0286315396 -1.6578445805
| 41> H -4.262857951 0.7098635103 2.7318355377
| 42> H -2.5380266174 0.2657480243 2.5926521548
| 43> H -2.828124018 2.4386024929 3.8011905221
| 44> H -1.957857638 2.6805925641 2.2771429664
| 45> H -3.6672775112 3.1056651503 2.3904372377
| 46> H -2.9131523831 -2.7307344071 0.0248809134
| 47> H -1.8003886227 -2.1254955337 -1.2230878523
| 48> H -0.9671373684 -3.2389726781 1.5090128349
| 49> H -0.8436452184 -4.1012930071 -0.0339324941
| 50> H 0.1424808164 -2.6612341651 0.2596877002
| 51> *
| 52>
| 53>                          ****END OF INPUT****

CARTESIAN COORDINATES (ANGSTROEM)
---------------------------------
  C      5.007813   -2.594182   -1.106975
  C      3.990339   -1.543499   -1.503783
  O      2.997650   -1.470165   -0.460800
  P      2.106618   -0.175294   -0.226850
  S      3.101326    1.518656   -0.226323
  O      1.356933   -0.556835    1.107411
  C      1.820731   -0.163465    2.420400
  C      0.617731    0.203284    3.264522
  S      0.576918   -0.367364   -1.668882
  C     -0.030121    1.335087   -1.545884
  S     -0.794126    1.693696    0.050987
  P     -2.442341    0.366046   -0.155428
  S     -3.181388    0.201654   -1.955482
  O     -3.508544    0.917238    0.870849
  C     -3.299019    0.993503    2.305825
  C     -2.911097    2.398559    2.719653
  O     -1.931270   -0.992723    0.513477
  C     -1.934231   -2.276208   -0.147545
  C     -0.824694   -3.124596    0.438382
  H      4.514368   -3.550623   -0.961260
  H      5.748640   -2.687077   -1.894254
  H      5.501137   -2.306932   -0.182685
  H      3.483559   -1.808422   -2.435256
  H      4.454452   -0.557621   -1.614539
  H      2.359982   -1.016407    2.837657
  H      2.506244    0.683950    2.313665
  H      0.947170    0.435517    4.271908
  H      0.116028    1.070146    2.842345
  H     -0.078531   -0.630183    3.295346
  H     -0.767399    1.460854   -2.338689
  H      0.803339    2.028632   -1.657845
  H     -4.262858    0.709864    2.731836
  H     -2.538027    0.265748    2.592652
  H     -2.828124    2.438602    3.801191
  H     -1.957858    2.680593    2.277143
  H     -3.667278    3.105665    2.390437
  H     -2.913152   -2.730734    0.024881
  H     -1.800389   -2.125496   -1.223088
  H     -0.967137   -3.238973    1.509013
  H     -0.843645   -4.101293   -0.033932
  H      0.142481   -2.661234    0.259688

 Total Charge           Charge          ....    0
 Multiplicity           Mult            ....    1
 Number of Electrons    NEL             ....  202
 Basis Dimension        Dim             ....  539

ORBITAL ENERGIES
----------------

  NO   OCC          E(Eh)            E(eV)
   0   2.0000     -88.582032     -2410.4396
   1   2.0000     -88.578485     -2410.3431
   2   2.0000     -88.530747     -2409.0441
   3   2.0000     -88.529240     -2409.0031
   4   2.0000     -76.921726     -2093.1466
   5   2.0000     -76.920138     -2093.1034
   6   2.0000     -18.996015      -516.9079
   7   2.0000     -18.995979      -516.9069
   8   2.0000     -18.993631      -516.8430
   9   2.0000     -18.990636      -516.7615
  10   2.0000     -10.105485      -274.9842
  11   2.0000     -10.093651      -274.6622
  12   2.0000     -10.090052      -274.5643
  13   2.0000     -10.089751      -274.5561
  14   2.0000     -10.088283      -274.5161
  15   2.0000     -10.021282      -272.6929
  16   2.0000     -10.019624      -272.6478
  17   2.0000     -10.018149      -272.6077
  18   2.0000     -10.017244      -272.5831
  19   2.0000      -7.876408      -214.3279
  20   2.0000      -7.872995      -214.2351
  21   2.0000      -7.825960      -212.9552
  22   2.0000      -7.824300      -212.9100
  23   2.0000      -6.599869      -179.5916
  24   2.0000      -6.598785      -179.5621
  25   2.0000      -5.823253      -158.4588
  26   2.0000      -5.820215      -158.3761
  27   2.0000      -5.819851      -158.3662
  28   2.0000      -5.816853      -158.2846
  29   2.0000      -5.813607      -158.1963
  30   2.0000      -5.810080      -158.1003
  31   2.0000      -5.773622      -157.1082
  32   2.0000      -5.771757      -157.0575
  33   2.0000      -5.766200      -156.9063
  34   2.0000      -5.765893      -156.8979
  35   2.0000      -5.764588      -156.8624
  36   2.0000      -5.764417      -156.8578
  37   2.0000      -4.745668      -129.1362
  38   2.0000      -4.744427      -129.1024
  39   2.0000      -4.744139      -129.0946
  40   2.0000      -4.743783      -129.0849
  41   2.0000      -4.743725      -129.0833
  42   2.0000      -4.742636      -129.0537
  43   2.0000      -1.053152       -28.6577
  44   2.0000      -1.050130       -28.5755
  45   2.0000      -1.013031       -27.5660
  46   2.0000      -1.008910       -27.4538
  47   2.0000      -0.807170       -21.9642
  48   2.0000      -0.759527       -20.6678
  49   2.0000      -0.747433       -20.3387
  50   2.0000      -0.727203       -19.7882
  51   2.0000      -0.724020       -19.7016
  52   2.0000      -0.709619       -19.3097
  53   2.0000      -0.688235       -18.7278
  54   2.0000      -0.676123       -18.3982
  55   2.0000      -0.628772       -17.1098
  56   2.0000      -0.613946       -16.7063
  57   2.0000      -0.601740       -16.3742
  58   2.0000      -0.595127       -16.1942
  59   2.0000      -0.586619       -15.9627
  60   2.0000      -0.532916       -14.5014
  61   2.0000      -0.526795       -14.3348
  62   2.0000      -0.498716       -13.5708
  63   2.0000      -0.494831       -13.4650
  64   2.0000      -0.477711       -12.9992
  65   2.0000      -0.459118       -12.4932
  66   2.0000      -0.455841       -12.4041
  67   2.0000      -0.446313       -12.1448
  68   2.0000      -0.443469       -12.0674
  69   2.0000      -0.433266       -11.7898
  70   2.0000      -0.418731       -11.3942
  71   2.0000      -0.409410       -11.1406
  72   2.0000      -0.408371       -11.1123
  73   2.0000      -0.397819       -10.8252
  74   2.0000      -0.389722       -10.6049
  75   2.0000      -0.388302       -10.5662
  76   2.0000      -0.376421       -10.2429
  77   2.0000      -0.370905       -10.0928
  78   2.0000      -0.362788        -9.8720
  79   2.0000      -0.362067        -9.8523
  80   2.0000      -0.358001        -9.7417
  81   2.0000      -0.355044        -9.6612
  82   2.0000      -0.351391        -9.5618
  83   2.0000      -0.346379        -9.4255
  84   2.0000      -0.341499        -9.2927
  85   2.0000      -0.332746        -9.0545
  86   2.0000      -0.322081        -8.7643
  87   2.0000      -0.314253        -8.5513
  88   2.0000      -0.311597        -8.4790
  89   2.0000      -0.303634        -8.2623
  90   2.0000      -0.299331        -8.1452
  91   2.0000      -0.290020        -7.8919
  92   2.0000      -0.287427        -7.8213
  93   2.0000      -0.279261        -7.5991
  94   2.0000      -0.273249        -7.4355
  95   2.0000      -0.250389        -6.8134
  96   2.0000      -0.238299        -6.4844
  97   2.0000      -0.237534        -6.4636
  98   2.0000      -0.228717        -6.2237
  99   2.0000      -0.223686        -6.0868
 100   2.0000      -0.221631        -6.0309
 101   0.0000      -0.054705        -1.4886
 102   0.0000      -0.032089        -0.8732
 103   0.0000      -0.006835        -0.1860
 104   0.0000      -0.002250        -0.0612
 105   0.0000       0.004821         0.1312

MULLIKEN ATOMIC CHARGES
-----------------------
   0 C :   -0.484001
   1 C :   -0.142477
   2 O :   -0.320716
   3 P :    0.744090
   4 S :   -0.541595
   5 O :   -0.276991
   6 C :   -0.119918
   7 C :   -0.507222
   8 S :   -0.159268
   9 C :   -0.246194
  10 S :   -0.164827
  11 P :    0.683026
  12 S :   -0.504779
  13 O :   -0.323313
  14 C :   -0.163133
  15 C :   -0.453498
  16 O :   -0.291271
  17 C :   -0.090326
  18 C :   -0.514024
  19 H :    0.165951
  20 H :    0.169732
  21 H :    0.166444
  22 H :    0.171800
  23 H :    0.171341
  24 H :    0.173369
  25 H :    0.170399
  26 H :    0.169872
  27 H :    0.169089
  28 H :    0.170905
  29 H :    0.234126
  30 H :    0.236585
  31 H :    0.178571
  32 H :    0.183711
  33 H :    0.174598
  34 H :    0.154560
  35 H :    0.171621
  36 H :    0.169859
  37 H :    0.170029
  38 H :    0.167454
  39 H :    0.169418
  40 H :    0.167003
Sum of atomic charges:    0.0000000

LOEWDIN ATOMIC CHARGES
----------------------
   0 C :   -0.389626
   1 C :    0.025504
   2 O :   -0.675396
   3 P :    0.375246
   4 S :   -0.167342
   5 O :   -0.684800
   6 C :    0.031686
   7 C :   -0.396740
   8 S :    0.170540
   9 C :   -0.417308
  10 S :    0.145706
  11 P :    0.383331
  12 S :   -0.140393
  13 O :   -0.670699
  14 C :    0.032859
  15 C :   -0.400441
  16 O :   -0.690915
  17 C :    0.016673
  18 C :   -0.397089
  19 H :    0.163208
  20 H :    0.168949
  21 H :    0.162660
  22 H :    0.180076
  23 H :    0.181731
  24 H :    0.182828
  25 H :    0.183610
  26 H :    0.168017
  27 H :    0.163220
  28 H :    0.164053
  29 H :    0.197460
  30 H :    0.198322
  31 H :    0.192136
  32 H :    0.186899
  33 H :    0.171257
  34 H :    0.160622
  35 H :    0.165304
  36 H :    0.179727
  37 H :    0.181036
  38 H :    0.163620
  39 H :    0.168353
  40 H :    0.166115

  Mayer bond orders larger than 0.100000
B(  0-C ,  1-C ) :   0.9534 B(  0-C , 19-H ) :   0.9688 B(  0-C , 20-H ) :   0.9588
B(  0-C , 21-H ) :   0.9694 B(  1-C ,  2-O ) :   0.7688 B(  1-C , 22-H ) :   0.9361
B(  1-C , 23-H ) :   0.9495 B(  2-O ,  3-P ) :   1.0890 B(  3-P ,  4-S ) :   1.7102
B(  3-P ,  5-O ) :   1.1697 B(  3-P ,  8-S ) :   1.0721 B(  5-O ,  6-C ) :   0.7470
B(  6-C ,  7-C ) :   0.9493 B(  6-C , 24-H ) :   0.9379 B(  6-C , 25-H ) :   0.9515
B(  7-C , 26-H ) :   0.9576 B(  7-C , 27-H ) :   0.9646 B(  7-C , 28-H ) :   0.9662
B(  8-S ,  9-C ) :   0.8863 B(  9-C , 10-S ) :   0.8934 B(  9-C , 29-H ) :   0.9040
B(  9-C , 30-H ) :   0.9041 B( 10-S , 11-P ) :   1.0217 B( 11-P , 12-S ) :   1.8219
B( 11-P , 13-O ) :   1.1727 B( 11-P , 16-O ) :   1.0516 B( 13-O , 14-C ) :   0.7435
B( 14-C , 15-C ) :   0.9475 B( 14-C , 31-H ) :   0.9512 B( 14-C , 32-H ) :   0.9572
B( 15-C , 33-H ) :   0.9592 B( 15-C , 34-H ) :   0.9520 B( 15-C , 35-H ) :   0.9687
B( 16-O , 17-C ) :   0.7452 B( 17-C , 18-C ) :   0.9251 B( 17-C , 36-H ) :   0.9374
B( 17-C , 37-H ) :   0.9548 B( 18-C , 38-H ) :   0.9660 B( 18-C , 39-H ) :   0.9614
B( 18-C , 40-H ) :   0.9668

Dispersion correction           -0.021971218
FINAL SINGLE POINT ENERGY     -2932.472295064418

DIPOLE MOMENT
-------------

Method             : SCF
Type of density    : Electron Density
Multiplicity       :   1
Irrep              :   0
Energy             : -2932.4969138379001379 Eh
Relativity type    :
Basis              : AO
                                X                 Y                 Z
Electronic contribution:     -6.807213559      10.568278440     -16.182974943
Nuclear contribution   :      7.753784136     -12.050151396      18.125094246
                        -----------------------------------------
Total Dipole Moment    :      0.946570577      -1.481872956       1.942119303
                        -----------------------------------------
Magnitude (a.u.)       :      2.619879902
Magnitude (Debye)      :      6.659205495

Rotational constants in cm-1:             0.011907             0.005367             0.004969
Rotational constants in MHz :           356.962311           160.883641           148.963149

                             ****ORCA TERMINATED NORMALLY****
TOTAL RUN TIME: 0 days 0 hours 2 minutes 0 seconds 869 msec
