                         Program Version 6.0.0  -   RELEASE  -
|  1> ! pbe def2-sv(p) def2/J RI DEFGRID1 loosescf d4 GCP(DFT/SV(P)) printgap
|  2> %output
|  3>     printlevel normal
|  4> end
|  5> * xyz 0 1
|  6> C 4.642933761 -1.4631742847 -0.9885347537
|  7> C 4.6469401955 -0.0050671302 -0.5773132522
|  8> O 3.512282816 0.3294383719 0.2405600292
|  9> P 2.0245621482 0.3612879785 -0.3301076788
| 10> S 1.9105284076 1.0691793407 -2.1602958405
| 11> O 1.2995559471 1.1668600557 0.8259384755
| 12> C 1.4333192811 2.6008216673 0.9227480786
| 13> C 0.6207102031 3.0592741244 2.114425805
| 14> S 1.2948923875 -1.5662829552 0.0282128051
| 15> C -0.0251149838 -1.6640500675 -1.2328598622
| 16> S -1.6542500661 -1.9511074319 -0.5194823211
| 17> P -2.0098932093 0.0016266097 0.2517092044
| 18> S -1.4282658672 1.4766950811 -0.8990850148
| 19> O -1.336804708 0.1374595845 1.6698155467
| 20> C -1.6500187882 -0.6791306097 2.8273799526
| 21> C -0.6344632182 -1.7898430753 3.0060553175
| 22> O -3.5477506619 -0.0624964094 0.6477391405
| 23> C -4.6062930262 -0.5610421637 -0.1920061277
| 24> C -4.6640881305 0.1314610738 -1.5370223837
| 25> H 3.8174005615 -1.6520809356 -1.6733174645
| 26> H 5.5764378059 -1.6958698496 -1.4906063806
| 27> H 4.5304867837 -2.1019765419 -0.1162361578
| 28> H 4.6378745836 0.6430969254 -1.459563737
| 29> H 5.5033874771 0.2353122643 0.0540458879
| 30> H 2.4935583139 2.8431706839 1.0366980506
| 31> H 1.0611325579 3.0412814965 -0.0090132397
| 32> H 0.9920864465 2.589447917 3.0203438979
| 33> H 0.6960435428 4.1380391668 2.2037112738
| 34> H -0.4207879515 2.7811016801 1.9723720815
| 35> H 0.1808775583 -2.5210439168 -1.8686408636
| 36> H -0.0281051666 -0.7342796687 -1.8089252821
| 37> H -1.6160168171 0.0233777709 3.6618586074
| 38> H -2.6618393103 -1.0737660103 2.7211650019
| 39> H -0.7024090679 -2.5160481184 2.1997027423
| 40> H 0.3716670076 -1.3782324543 3.0159914345
| 41> H -0.8249166791 -2.2905236036 3.9500596942
| 42> H -4.4638755582 -1.6377711664 -0.3171624266
| 43> H -5.5072106643 -0.3690751425 0.3935280865
| 44> H -3.7619425296 -0.0800247381 -2.109353429
| 45> H -5.526003139 -0.2267296148 -2.090498137
| 46> H -4.7405103958 1.2085224709 -1.4071231222
| 47> *
| 48>
| 49>                          ****END OF INPUT****

CARTESIAN COORDINATES (ANGSTROEM)
---------------------------------
  C      4.642934   -1.463174   -0.988535
  C      4.646940   -0.005067   -0.577313
  O      3.512283    0.329438    0.240560
  P      2.024562    0.361288   -0.330108
  S      1.910528    1.069179   -2.160296
  O      1.299556    1.166860    0.825938
  C      1.433319    2.600822    0.922748
  C      0.620710    3.059274    2.114426
  S      1.294892   -1.566283    0.028213
  C     -0.025115   -1.664050   -1.232860
  S     -1.654250   -1.951107   -0.519482
  P     -2.009893    0.001627    0.251709
  S     -1.428266    1.476695   -0.899085
  O     -1.336805    0.137460    1.669816
  C     -1.650019   -0.679131    2.827380
  C     -0.634463   -1.789843    3.006055
  O     -3.547751   -0.062496    0.647739
  C     -4.606293   -0.561042   -0.192006
  C     -4.664088    0.131461   -1.537022
  H      3.817401   -1.652081   -1.673317
  H      5.576438   -1.695870   -1.490606
  H      4.530487   -2.101977   -0.116236
  H      4.637875    0.643097   -1.459564
  H      5.503387    0.235312    0.054046
  H      2.493558    2.843171    1.036698
  H      1.061133    3.041281   -0.009013
  H      0.992086    2.589448    3.020344
  H      0.696044    4.138039    2.203711
  H     -0.420788    2.781102    1.972372
  H      0.180878   -2.521044   -1.868641
  H     -0.028105   -0.734280   -1.808925
  H     -1.616017    0.023378    3.661859
  H     -2.661839   -1.073766    2.721165
  H     -0.702409   -2.516048    2.199703
  H      0.371667   -1.378232    3.015991
  H     -0.824917   -2.290524    3.950060
  H     -4.463876   -1.637771   -0.317162
  H     -5.507211   -0.369075    0.393528
  H     -3.761943   -0.080025   -2.109353
  H     -5.526003   -0.226730   -2.090498
  H     -4.740510    1.208522   -1.407123

 Total Charge           Charge          ....    0
 Multiplicity           Mult            ....    1
 Number of Electrons    NEL             ....  202
 Basis Dimension        Dim             ....  334

ORBITAL ENERGIES
----------------

  NO   OCC          E(Eh)            E(eV)
   0   2.0000     -88.047905     -2395.9053
   1   2.0000     -88.041708     -2395.7367
   2   2.0000     -87.979282     -2394.0380
   3   2.0000     -87.978665     -2394.0212
   4   2.0000     -76.425427     -2079.6416
   5   2.0000     -76.418253     -2079.4464
   6   2.0000     -18.796276      -511.4727
   7   2.0000     -18.788161      -511.2519
   8   2.0000     -18.786383      -511.2035
   9   2.0000     -18.776778      -510.9421
  10   2.0000      -9.960537      -271.0400
  11   2.0000      -9.956808      -270.9385
  12   2.0000      -9.953451      -270.8472
  13   2.0000      -9.946383      -270.6548
  14   2.0000      -9.937736      -270.4195
  15   2.0000      -9.883227      -268.9363
  16   2.0000      -9.880680      -268.8670
  17   2.0000      -9.880210      -268.8542
  18   2.0000      -9.872221      -268.6368
  19   2.0000      -7.692836      -209.3327
  20   2.0000      -7.686974      -209.1732
  21   2.0000      -7.624183      -207.4646
  22   2.0000      -7.623614      -207.4491
  23   2.0000      -6.422552      -174.7665
  24   2.0000      -6.416014      -174.5886
  25   2.0000      -5.720565      -155.6645
  26   2.0000      -5.717158      -155.5718
  27   2.0000      -5.714861      -155.5093
  28   2.0000      -5.711456      -155.4166
  29   2.0000      -5.710166      -155.3815
  30   2.0000      -5.703834      -155.2092
  31   2.0000      -5.653305      -153.8343
  32   2.0000      -5.652523      -153.8130
  33   2.0000      -5.644713      -153.6005
  34   2.0000      -5.644362      -153.5909
  35   2.0000      -5.644215      -153.5869
  36   2.0000      -5.643681      -153.5724
  37   2.0000      -4.645423      -126.4084
  38   2.0000      -4.644612      -126.3863
  39   2.0000      -4.642506      -126.3290
  40   2.0000      -4.638388      -126.2169
  41   2.0000      -4.637597      -126.1954
  42   2.0000      -4.636786      -126.1734
  43   2.0000      -0.988470       -26.8976
  44   2.0000      -0.977990       -26.6125
  45   2.0000      -0.943550       -25.6753
  46   2.0000      -0.934220       -25.4214
  47   2.0000      -0.764115       -20.7926
  48   2.0000      -0.719758       -19.5856
  49   2.0000      -0.707248       -19.2452
  50   2.0000      -0.689768       -18.7695
  51   2.0000      -0.681250       -18.5378
  52   2.0000      -0.672598       -18.3023
  53   2.0000      -0.647715       -17.6252
  54   2.0000      -0.630240       -17.1497
  55   2.0000      -0.594101       -16.1663
  56   2.0000      -0.586850       -15.9690
  57   2.0000      -0.576285       -15.6815
  58   2.0000      -0.565064       -15.3762
  59   2.0000      -0.554439       -15.0871
  60   2.0000      -0.503172       -13.6920
  61   2.0000      -0.494733       -13.4624
  62   2.0000      -0.471890       -12.8408
  63   2.0000      -0.465408       -12.6644
  64   2.0000      -0.452857       -12.3229
  65   2.0000      -0.443179       -12.0595
  66   2.0000      -0.439025       -11.9465
  67   2.0000      -0.434164       -11.8142
  68   2.0000      -0.426468       -11.6048
  69   2.0000      -0.418068       -11.3762
  70   2.0000      -0.412037       -11.2121
  71   2.0000      -0.399011       -10.8576
  72   2.0000      -0.388730       -10.5779
  73   2.0000      -0.385394       -10.4871
  74   2.0000      -0.380698       -10.3593
  75   2.0000      -0.362082        -9.8527
  76   2.0000      -0.355228        -9.6662
  77   2.0000      -0.354331        -9.6418
  78   2.0000      -0.347918        -9.4673
  79   2.0000      -0.344641        -9.3782
  80   2.0000      -0.344311        -9.3692
  81   2.0000      -0.343472        -9.3463
  82   2.0000      -0.340362        -9.2617
  83   2.0000      -0.333571        -9.0769
  84   2.0000      -0.323059        -8.7909
  85   2.0000      -0.316092        -8.6013
  86   2.0000      -0.307562        -8.3692
  87   2.0000      -0.298950        -8.1348
  88   2.0000      -0.294842        -8.0231
  89   2.0000      -0.289864        -7.8876
  90   2.0000      -0.278361        -7.5746
  91   2.0000      -0.274330        -7.4649
  92   2.0000      -0.263451        -7.1689
  93   2.0000      -0.261187        -7.1073
  94   2.0000      -0.255489        -6.9522
  95   2.0000      -0.236363        -6.4318
  96   2.0000      -0.220725        -6.0062
  97   2.0000      -0.211046        -5.7429
  98   2.0000      -0.199614        -5.4318
  99   2.0000      -0.191288        -5.2052
 100   2.0000      -0.181630        -4.9424
 101   0.0000      -0.041694        -1.1346
 102   0.0000      -0.031042        -0.8447
 103   0.0000      -0.014003        -0.3810
 104   0.0000       0.012308         0.3349
 105   0.0000       0.017920         0.4876

MULLIKEN ATOMIC CHARGES
-----------------------
   0 C :   -0.311250
   1 C :   -0.002648
   2 O :   -0.380547
   3 P :    0.612566
   4 S :   -0.323088
   5 O :   -0.355582
   6 C :   -0.002882
   7 C :   -0.280657
   8 S :   -0.089203
   9 C :   -0.349990
  10 S :   -0.127651
  11 P :    0.603483
  12 S :   -0.288450
  13 O :   -0.341364
  14 C :   -0.012238
  15 C :   -0.291159
  16 O :   -0.382080
  17 C :   -0.014242
  18 C :   -0.306201
  19 H :    0.120820
  20 H :    0.110859
  21 H :    0.115175
  22 H :    0.109804
  23 H :    0.101560
  24 H :    0.094346
  25 H :    0.112100
  26 H :    0.103798
  27 H :    0.103244
  28 H :    0.128226
  29 H :    0.183141
  30 H :    0.212090
  31 H :    0.107956
  32 H :    0.100409
  33 H :    0.120277
  34 H :    0.126390
  35 H :    0.104932
  36 H :    0.113738
  37 H :    0.109234
  38 H :    0.127006
  39 H :    0.110774
  40 H :    0.127303
Sum of atomic charges:   -0.0000000

LOEWDIN ATOMIC CHARGES
----------------------
   0 C :   -0.369340
   1 C :   -0.121296
   2 O :   -0.249512
   3 P :    0.568279
   4 S :   -0.316226
   5 O :   -0.235803
   6 C :   -0.117567
   7 C :   -0.352938
   8 S :    0.096602
   9 C :   -0.477107
  10 S :    0.065245
  11 P :    0.562383
  12 S :   -0.283834
  13 O :   -0.225313
  14 C :   -0.110812
  15 C :   -0.365871
  16 O :   -0.246238
  17 C :   -0.115507
  18 C :   -0.368796
  19 H :    0.119561
  20 H :    0.129694
  21 H :    0.122980
  22 H :    0.109284
  23 H :    0.116785
  24 H :    0.106012
  25 H :    0.110327
  26 H :    0.121034
  27 H :    0.126996
  28 H :    0.127845
  29 H :    0.137482
  30 H :    0.127788
  31 H :    0.120944
  32 H :    0.107736
  33 H :    0.113982
  34 H :    0.126949
  35 H :    0.126968
  36 H :    0.107078
  37 H :    0.121264
  38 H :    0.122029
  39 H :    0.129877
  40 H :    0.131035

  Mayer bond orders larger than 0.100000
B(  0-C ,  1-C ) :   1.1656 B(  0-C , 19-H ) :   0.9364 B(  0-C , 20-H ) :   0.9385
B(  0-C , 21-H ) :   0.9449 B(  1-C ,  2-O ) :   0.9140 B(  1-C , 22-H ) :   0.9127
B(  1-C , 23-H ) :   0.9338 B(  2-O ,  3-P ) :   1.0931 B(  3-P ,  4-S ) :   1.6051
B(  3-P ,  5-O ) :   1.1441 B(  3-P ,  8-S ) :   0.9722 B(  4-S ,  8-S ) :   0.1161
B(  5-O ,  6-C ) :   0.8961 B(  6-C ,  7-C ) :   1.1654 B(  6-C , 24-H ) :   0.9268
B(  6-C , 25-H ) :   0.9148 B(  7-C , 26-H ) :   0.9505 B(  7-C , 27-H ) :   0.9411
B(  7-C , 28-H ) :   0.9408 B(  8-S ,  9-C ) :   0.9933 B(  9-C , 10-S ) :   1.0120
B(  9-C , 29-H ) :   0.9107 B(  9-C , 30-H ) :   0.8442 B( 10-S , 11-P ) :   0.9236
B( 10-S , 12-S ) :   0.1059 B( 11-P , 12-S ) :   1.6533 B( 11-P , 13-O ) :   1.1394
B( 11-P , 16-O ) :   1.0823 B( 13-O , 14-C ) :   0.8984 B( 14-C , 15-C ) :   1.1702
B( 14-C , 31-H ) :   0.9343 B( 14-C , 32-H ) :   0.9195 B( 15-C , 33-H ) :   0.9332
B( 15-C , 34-H ) :   0.9416 B( 15-C , 35-H ) :   0.9371 B( 16-O , 17-C ) :   0.9117
B( 17-C , 18-C ) :   1.1673 B( 17-C , 36-H ) :   0.9256 B( 17-C , 37-H ) :   0.9332
B( 18-C , 38-H ) :   0.9320 B( 18-C , 39-H ) :   0.9349 B( 18-C , 40-H ) :   0.9430

Dispersion correction           -0.068452689
FINAL SINGLE POINT ENERGY     -2929.517990935042

DIPOLE MOMENT
-------------

Method             : SCF
Type of density    : Electron Density
Multiplicity       :   1
Irrep              :   0
Energy             : -2929.6354924393585861 Eh
Relativity type    :
Basis              : AO
                                X                 Y                 Z
Electronic contribution:     -0.013477107       0.022841319      -8.489340024
Nuclear contribution   :     -0.386128419      -0.999084692       9.491182918
                        -----------------------------------------
Total Dipole Moment    :     -0.399605526      -0.976243373       1.001842894
                        -----------------------------------------
Magnitude (a.u.)       :      1.454793760
Magnitude (Debye)      :      3.697791869

Rotational constants in cm-1:             0.012314             0.005485             0.005373
Rotational constants in MHz :           369.153370           164.428833           161.091684

                             ****ORCA TERMINATED NORMALLY****
TOTAL RUN TIME: 0 days 0 hours 0 minutes 21 seconds 789 msec
