                         Program Version 6.0.0  -   RELEASE  -
|  1> ! pbe def2-sv(p) def2/J RI DEFGRID1 loosescf d4 GCP(DFT/SV(P)) printgap
|  2> %output
|  3>     printlevel normal
|  4> end
|  5> * xyz 0 1
|  6> C 5.7931261297 -0.3507665263 0.2227236434
|  7> C 4.4466675505 -0.7742205286 -0.3287283102
|  8> O 3.4322512213 0.0206733878 0.3160808816
|  9> P 1.9709481167 0.1598856805 -0.295177356
| 10> S 1.9358183527 0.5785435269 -2.2139388391
| 11> O 1.322192878 1.1901686004 0.7127324355
| 12> C 1.3706267571 2.6146264034 0.4996293752
| 13> C 2.7833282308 3.1504621851 0.5784950645
| 14> S 1.0965328403 -1.6621900345 0.2862832263
| 15> C -0.1531500614 -1.8883730547 -1.027613034
| 16> S -1.8373110892 -1.9839667815 -0.3847172799
| 17> P -2.051004148 0.054398184 0.1773341944
| 18> S -1.4446261149 1.3791262299 -1.1295592731
| 19> O -1.297617383 0.2127513092 1.5524395795
| 20> C -1.3747127121 -0.6919757375 2.6815061329
| 21> C -2.6148385576 -0.4493012852 3.5151996551
| 22> O -3.5817294376 0.17299383 0.5858563709
| 23> C -4.6180621535 0.4792828493 -0.3642065748
| 24> C -4.838609516 -0.6428566754 -1.3577187197
| 25> H 5.809275172 -0.4841476094 1.3003903099
| 26> H 6.5690683683 -0.960518742 -0.2280615059
| 27> H 5.9808296704 0.6945193089 -0.0059195225
| 28> H 4.2411516266 -1.8267403258 -0.1154316
| 29> H 4.3829793176 -0.6089806313 -1.4097368467
| 30> H 0.9199050509 2.8343776595 -0.4742764678
| 31> H 0.7327105912 3.0139381813 1.2897647594
| 32> H 3.2465988457 2.8498182842 1.5145797619
| 33> H 3.3717819209 2.7586284297 -0.2504691187
| 34> H 2.7593495256 4.233776272 0.5134103147
| 35> H 0.0406879631 -2.8413764452 -1.5127221024
| 36> H -0.0667459607 -1.0600854863 -1.7366955063
| 37> H -1.3423562652 -1.7210715442 2.3120211434
| 38> H -0.46254028 -0.4768515874 3.2414140464
| 39> H -2.5671315029 -1.0717817258 4.4033617642
| 40> H -2.6688198831 0.5949782702 3.8111513894
| 41> H -3.5075867431 -0.7007241711 2.9492897128
| 42> H -5.4983432187 0.6456335618 0.2582616764
| 43> H -4.3485681578 1.4051008563 -0.8819394599
| 44> H -5.7200670853 -0.4250219889 -1.9522238155
| 45> H -3.9800777777 -0.7288050907 -2.0217300004
| 46> H -4.9766469948 -1.5876728892 -0.8382676094
| 47> *
| 48>
| 49>                          ****END OF INPUT****

CARTESIAN COORDINATES (ANGSTROEM)
---------------------------------
  C      5.793126   -0.350767    0.222724
  C      4.446668   -0.774221   -0.328728
  O      3.432251    0.020673    0.316081
  P      1.970948    0.159886   -0.295177
  S      1.935818    0.578544   -2.213939
  O      1.322193    1.190169    0.712732
  C      1.370627    2.614626    0.499629
  C      2.783328    3.150462    0.578495
  S      1.096533   -1.662190    0.286283
  C     -0.153150   -1.888373   -1.027613
  S     -1.837311   -1.983967   -0.384717
  P     -2.051004    0.054398    0.177334
  S     -1.444626    1.379126   -1.129559
  O     -1.297617    0.212751    1.552440
  C     -1.374713   -0.691976    2.681506
  C     -2.614839   -0.449301    3.515200
  O     -3.581729    0.172994    0.585856
  C     -4.618062    0.479283   -0.364207
  C     -4.838610   -0.642857   -1.357719
  H      5.809275   -0.484148    1.300390
  H      6.569068   -0.960519   -0.228062
  H      5.980830    0.694519   -0.005920
  H      4.241152   -1.826740   -0.115432
  H      4.382979   -0.608981   -1.409737
  H      0.919905    2.834378   -0.474276
  H      0.732711    3.013938    1.289765
  H      3.246599    2.849818    1.514580
  H      3.371782    2.758628   -0.250469
  H      2.759350    4.233776    0.513410
  H      0.040688   -2.841376   -1.512722
  H     -0.066746   -1.060085   -1.736696
  H     -1.342356   -1.721072    2.312021
  H     -0.462540   -0.476852    3.241414
  H     -2.567132   -1.071782    4.403362
  H     -2.668820    0.594978    3.811151
  H     -3.507587   -0.700724    2.949290
  H     -5.498343    0.645634    0.258262
  H     -4.348568    1.405101   -0.881939
  H     -5.720067   -0.425022   -1.952224
  H     -3.980078   -0.728805   -2.021730
  H     -4.976647   -1.587673   -0.838268

 Total Charge           Charge          ....    0
 Multiplicity           Mult            ....    1
 Number of Electrons    NEL             ....  202
 Basis Dimension        Dim             ....  334

ORBITAL ENERGIES
----------------

  NO   OCC          E(Eh)            E(eV)
   0   2.0000     -88.045060     -2395.8279
   1   2.0000     -88.040485     -2395.7034
   2   2.0000     -87.980772     -2394.0785
   3   2.0000     -87.980381     -2394.0679
   4   2.0000     -76.424246     -2079.6095
   5   2.0000     -76.419860     -2079.4901
   6   2.0000     -18.794785      -511.4321
   7   2.0000     -18.788222      -511.2535
   8   2.0000     -18.788103      -511.2503
   9   2.0000     -18.780276      -511.0373
  10   2.0000      -9.954654      -270.8799
  11   2.0000      -9.953209      -270.8406
  12   2.0000      -9.950352      -270.7629
  13   2.0000      -9.947994      -270.6987
  14   2.0000      -9.938993      -270.4538
  15   2.0000      -9.885883      -269.0086
  16   2.0000      -9.884727      -268.9771
  17   2.0000      -9.883918      -268.9551
  18   2.0000      -9.875721      -268.7320
  19   2.0000      -7.690054      -209.2570
  20   2.0000      -7.685704      -209.1386
  21   2.0000      -7.625718      -207.5063
  22   2.0000      -7.625306      -207.4951
  23   2.0000      -6.421696      -174.7432
  24   2.0000      -6.417541      -174.6302
  25   2.0000      -5.717816      -155.5897
  26   2.0000      -5.714394      -155.4966
  27   2.0000      -5.713553      -155.4737
  28   2.0000      -5.710186      -155.3821
  29   2.0000      -5.707308      -155.3037
  30   2.0000      -5.702664      -155.1774
  31   2.0000      -5.654724      -153.8729
  32   2.0000      -5.654159      -153.8575
  33   2.0000      -5.646191      -153.6407
  34   2.0000      -5.646128      -153.6390
  35   2.0000      -5.645905      -153.6329
  36   2.0000      -5.645342      -153.6176
  37   2.0000      -4.644534      -126.3842
  38   2.0000      -4.643510      -126.3563
  39   2.0000      -4.641876      -126.3119
  40   2.0000      -4.639802      -126.2554
  41   2.0000      -4.639227      -126.2398
  42   2.0000      -4.638324      -126.2152
  43   2.0000      -0.986143       -26.8343
  44   2.0000      -0.980438       -26.6791
  45   2.0000      -0.944308       -25.6959
  46   2.0000      -0.937888       -25.5212
  47   2.0000      -0.761816       -20.7301
  48   2.0000      -0.719151       -19.5691
  49   2.0000      -0.707800       -19.2602
  50   2.0000      -0.689450       -18.7609
  51   2.0000      -0.683137       -18.5891
  52   2.0000      -0.672595       -18.3022
  53   2.0000      -0.647823       -17.6282
  54   2.0000      -0.630993       -17.1702
  55   2.0000      -0.597973       -16.2717
  56   2.0000      -0.589706       -16.0467
  57   2.0000      -0.574690       -15.6381
  58   2.0000      -0.563246       -15.3267
  59   2.0000      -0.557358       -15.1665
  60   2.0000      -0.500671       -13.6239
  61   2.0000      -0.493133       -13.4188
  62   2.0000      -0.472954       -12.8697
  63   2.0000      -0.467900       -12.7322
  64   2.0000      -0.449216       -12.2238
  65   2.0000      -0.444063       -12.0836
  66   2.0000      -0.442880       -12.0514
  67   2.0000      -0.431665       -11.7462
  68   2.0000      -0.425707       -11.5841
  69   2.0000      -0.416866       -11.3435
  70   2.0000      -0.410514       -11.1707
  71   2.0000      -0.394180       -10.7262
  72   2.0000      -0.387234       -10.5372
  73   2.0000      -0.381556       -10.3827
  74   2.0000      -0.379099       -10.3158
  75   2.0000      -0.369983       -10.0677
  76   2.0000      -0.365395        -9.9429
  77   2.0000      -0.357815        -9.7366
  78   2.0000      -0.353610        -9.6222
  79   2.0000      -0.349931        -9.5221
  80   2.0000      -0.348295        -9.4776
  81   2.0000      -0.340964        -9.2781
  82   2.0000      -0.337649        -9.1879
  83   2.0000      -0.336513        -9.1570
  84   2.0000      -0.331404        -9.0180
  85   2.0000      -0.314376        -8.5546
  86   2.0000      -0.308072        -8.3831
  87   2.0000      -0.296473        -8.0674
  88   2.0000      -0.293166        -7.9774
  89   2.0000      -0.289067        -7.8659
  90   2.0000      -0.275775        -7.5042
  91   2.0000      -0.270660        -7.3650
  92   2.0000      -0.263068        -7.1585
  93   2.0000      -0.260783        -7.0963
  94   2.0000      -0.256695        -6.9850
  95   2.0000      -0.237342        -6.4584
  96   2.0000      -0.221074        -6.0157
  97   2.0000      -0.213697        -5.8150
  98   2.0000      -0.201974        -5.4960
  99   2.0000      -0.192788        -5.2460
 100   2.0000      -0.184341        -5.0162
 101   0.0000      -0.038599        -1.0503
 102   0.0000      -0.028039        -0.7630
 103   0.0000      -0.008739        -0.2378
 104   0.0000       0.013936         0.3792
 105   0.0000       0.025639         0.6977

MULLIKEN ATOMIC CHARGES
-----------------------
   0 C :   -0.281205
   1 C :   -0.009085
   2 O :   -0.379149
   3 P :    0.613482
   4 S :   -0.319801
   5 O :   -0.351928
   6 C :   -0.001632
   7 C :   -0.304779
   8 S :   -0.106754
   9 C :   -0.352163
  10 S :   -0.109769
  11 P :    0.604276
  12 S :   -0.302682
  13 O :   -0.345139
  14 C :   -0.011158
  15 C :   -0.291906
  16 O :   -0.378118
  17 C :   -0.001142
  18 C :   -0.320124
  19 H :    0.115302
  20 H :    0.110713
  21 H :    0.119887
  22 H :    0.098122
  23 H :    0.103412
  24 H :    0.123786
  25 H :    0.101830
  26 H :    0.112205
  27 H :    0.121120
  28 H :    0.109125
  29 H :    0.182885
  30 H :    0.210507
  31 H :    0.105473
  32 H :    0.108276
  33 H :    0.108761
  34 H :    0.116824
  35 H :    0.120151
  36 H :    0.104514
  37 H :    0.113408
  38 H :    0.114803
  39 H :    0.131597
  40 H :    0.116074
Sum of atomic charges:   -0.0000000

LOEWDIN ATOMIC CHARGES
----------------------
   0 C :   -0.350408
   1 C :   -0.123178
   2 O :   -0.249019
   3 P :    0.568650
   4 S :   -0.313280
   5 O :   -0.228895
   6 C :   -0.117419
   7 C :   -0.366804
   8 S :    0.075184
   9 C :   -0.478229
  10 S :    0.077939
  11 P :    0.565665
  12 S :   -0.291981
  13 O :   -0.226331
  14 C :   -0.118910
  15 C :   -0.362439
  16 O :   -0.245358
  17 C :   -0.118038
  18 C :   -0.371336
  19 H :    0.126277
  20 H :    0.130158
  21 H :    0.127846
  22 H :    0.107514
  23 H :    0.106531
  24 H :    0.109900
  25 H :    0.118508
  26 H :    0.123773
  27 H :    0.120459
  28 H :    0.129199
  29 H :    0.137629
  30 H :    0.126983
  31 H :    0.099994
  32 H :    0.120625
  33 H :    0.129036
  34 H :    0.127508
  35 H :    0.123457
  36 H :    0.118211
  37 H :    0.112766
  38 H :    0.132078
  39 H :    0.122976
  40 H :    0.122759

  Mayer bond orders larger than 0.100000
B(  0-C ,  1-C ) :   1.1598 B(  0-C , 19-H ) :   0.9505 B(  0-C , 20-H ) :   0.9423
B(  0-C , 21-H ) :   0.9516 B(  1-C ,  2-O ) :   0.9078 B(  1-C , 22-H ) :   0.9276
B(  1-C , 23-H ) :   0.9071 B(  2-O ,  3-P ) :   1.0927 B(  3-P ,  4-S ) :   1.6068
B(  3-P ,  5-O ) :   1.1553 B(  3-P ,  8-S ) :   0.9616 B(  4-S ,  8-S ) :   0.1160
B(  5-O ,  6-C ) :   0.8998 B(  6-C ,  7-C ) :   1.1589 B(  6-C , 24-H ) :   0.9128
B(  6-C , 25-H ) :   0.9360 B(  7-C , 26-H ) :   0.9447 B(  7-C , 27-H ) :   0.9350
B(  7-C , 28-H ) :   0.9388 B(  8-S ,  9-C ) :   0.9936 B(  9-C , 10-S ) :   1.0022
B(  9-C , 29-H ) :   0.9117 B(  9-C , 30-H ) :   0.8479 B( 10-S , 11-P ) :   0.9394
B( 10-S , 12-S ) :   0.1043 B( 11-P , 12-S ) :   1.6390 B( 11-P , 13-O ) :   1.1517
B( 11-P , 16-O ) :   1.0871 B( 13-O , 14-C ) :   0.8962 B( 14-C , 15-C ) :   1.1626
B( 14-C , 31-H ) :   0.9078 B( 14-C , 32-H ) :   0.9345 B( 15-C , 33-H ) :   0.9390
B( 15-C , 34-H ) :   0.9476 B( 15-C , 35-H ) :   0.9392 B( 16-O , 17-C ) :   0.9043
B( 17-C , 18-C ) :   1.1659 B( 17-C , 36-H ) :   0.9340 B( 17-C , 37-H ) :   0.9152
B( 18-C , 38-H ) :   0.9375 B( 18-C , 39-H ) :   0.9346 B( 18-C , 40-H ) :   0.9443

Dispersion correction           -0.067103783
FINAL SINGLE POINT ENERGY     -2929.521585741436

DIPOLE MOMENT
-------------

Method             : SCF
Type of density    : Electron Density
Multiplicity       :   1
Irrep              :   0
Energy             : -2929.6400400568968507 Eh
Relativity type    :
Basis              : AO
                                X                 Y                 Z
Electronic contribution:     -3.062565934      -4.733418411      -8.730486715
Nuclear contribution   :      2.812102280       4.137537516       9.789448662
                        -----------------------------------------
Total Dipole Moment    :     -0.250463653      -0.595880894       1.058961947
                        -----------------------------------------
Magnitude (a.u.)       :      1.240647607
Magnitude (Debye)      :      3.153475607

Rotational constants in cm-1:             0.013459             0.004950             0.004905
Rotational constants in MHz :           403.502588           148.393854           147.050562

                             ****ORCA TERMINATED NORMALLY****
TOTAL RUN TIME: 0 days 0 hours 0 minutes 21 seconds 379 msec
