                         Program Version 6.0.1  -  RELEASE   -
|  1> ! pbe def2-sv(p) def2/J RI DEFGRID1 loosescf d4 GCP(DFT/SV(P)) printgap
|  2> %output
|  3>     printlevel normal
|  4> end
|  5> * xyz 0 1
|  6> C 4.1504764438 -2.5469794873 0.9915274284
|  7> C 2.6794640681 -2.2953853424 0.7272288208
|  8> O 2.5761198698 -1.3007864746 -0.3116439165
|  9> C 1.4421290798 -1.1724551113 -0.952027918
| 10> O 0.4460109141 -1.841075438 -0.731090472
| 11> C 1.4887525769 -0.0903027226 -2.007227034
| 12> C 0.3780151217 0.9326282676 -1.761558717
| 13> H 0.3464881835 1.6452360269 -2.591480131
| 14> C 0.5488691901 1.7179888142 -0.4714588311
| 15> O -0.3936799741 2.0482928464 0.2186473318
| 16> O 1.8033724018 1.9766245755 -0.2134455872
| 17> C 2.11601614 2.7054335892 0.9933504695
| 18> C 1.9375739344 4.2006975417 0.7919011277
| 19> S -1.2914218342 0.1924782186 -1.7550758689
| 20> P -1.5550427173 -0.3863492868 0.2612141775
| 21> S -0.3483255734 -0.4222596793 1.8067565758
| 22> O -2.8357424188 0.5761255979 0.4845819669
| 23> C -3.431896683 0.7226696065 1.7733119408
| 24> O -2.2064701348 -1.8463612988 0.1813554374
| 25> C -3.0855065123 -2.2408333031 -0.8817840968
| 26> H 4.6342671596 -1.6253557394 1.2990826402
| 27> H 4.2480171968 -3.2832293933 1.7821201476
| 28> H 4.6342641913 -2.9180635065 0.0928520815
| 29> H 2.1630431051 -1.9103285132 1.6125631053
| 30> H 2.1583012396 -3.1980399649 0.3932882214
| 31> H 1.3210450933 -0.5546402137 -2.9799846643
| 32> H 2.4612988902 0.399270808 -1.9785614725
| 33> H 1.4724973955 2.3335375587 1.7963159233
| 34> H 3.1559810671 2.4483657876 1.192363596
| 35> H 0.8926700678 4.4312386564 0.5968098062
| 36> H 2.2484492064 4.7192498989 1.6926318346
| 37> H 2.5410602573 4.5405305369 -0.0451072587
| 38> H -2.7058453522 1.1402027823 2.4725574647
| 39> H -3.7815464213 -0.2417581429 2.1464162405
| 40> H -4.2634918001 1.4079677082 1.631598991
| 41> H -3.7452804632 -1.4180091626 -1.1613296964
| 42> H -3.6577714243 -3.0782716914 -0.4898141659
| 43> H -2.4908432695 -2.5506485877 -1.7402887387
| 44> *
| 45>
| 46>                          ****END OF INPUT****

CARTESIAN COORDINATES (ANGSTROEM)
---------------------------------
  C      4.150476   -2.546979    0.991527
  C      2.679464   -2.295385    0.727229
  O      2.576120   -1.300786   -0.311644
  C      1.442129   -1.172455   -0.952028
  O      0.446011   -1.841075   -0.731090
  C      1.488753   -0.090303   -2.007227
  C      0.378015    0.932628   -1.761559
  H      0.346488    1.645236   -2.591480
  C      0.548869    1.717989   -0.471459
  O     -0.393680    2.048293    0.218647
  O      1.803372    1.976625   -0.213446
  C      2.116016    2.705434    0.993350
  C      1.937574    4.200698    0.791901
  S     -1.291422    0.192478   -1.755076
  P     -1.555043   -0.386349    0.261214
  S     -0.348326   -0.422260    1.806757
  O     -2.835742    0.576126    0.484582
  C     -3.431897    0.722670    1.773312
  O     -2.206470   -1.846361    0.181355
  C     -3.085507   -2.240833   -0.881784
  H      4.634267   -1.625356    1.299083
  H      4.248017   -3.283229    1.782120
  H      4.634264   -2.918064    0.092852
  H      2.163043   -1.910329    1.612563
  H      2.158301   -3.198040    0.393288
  H      1.321045   -0.554640   -2.979985
  H      2.461299    0.399271   -1.978561
  H      1.472497    2.333538    1.796316
  H      3.155981    2.448366    1.192364
  H      0.892670    4.431239    0.596810
  H      2.248449    4.719250    1.692632
  H      2.541060    4.540531   -0.045107
  H     -2.705845    1.140203    2.472557
  H     -3.781546   -0.241758    2.146416
  H     -4.263492    1.407968    1.631599
  H     -3.745280   -1.418009   -1.161330
  H     -3.657771   -3.078272   -0.489814
  H     -2.490843   -2.550649   -1.740289

 Total Charge           Charge          ....    0
 Multiplicity           Mult            ....    1
 Number of Electrons    NEL             ....  174
 Basis Dimension        Dim             ....  316

ORBITAL ENERGIES
----------------

  NO   OCC          E(Eh)            E(eV)
   0   2.0000     -88.027869     -2395.3601
   1   2.0000     -87.964855     -2393.6454
   2   2.0000     -76.409680     -2079.2131
   3   2.0000     -18.815336      -511.9913
   4   2.0000     -18.805549      -511.7250
   5   2.0000     -18.770723      -510.7773
   6   2.0000     -18.762966      -510.5662
   7   2.0000     -18.743433      -510.0347
   8   2.0000     -18.734144      -509.7820
   9   2.0000     -10.016669      -272.5674
  10   2.0000     -10.008047      -272.3328
  11   2.0000      -9.952138      -270.8114
  12   2.0000      -9.950727      -270.7731
  13   2.0000      -9.939899      -270.4784
  14   2.0000      -9.933089      -270.2931
  15   2.0000      -9.923837      -270.0413
  16   2.0000      -9.910908      -269.6895
  17   2.0000      -9.888790      -269.0876
  18   2.0000      -9.885583      -269.0004
  19   2.0000      -7.673067      -208.7948
  20   2.0000      -7.610080      -207.0808
  21   2.0000      -6.405509      -174.3028
  22   2.0000      -5.701481      -155.1452
  23   2.0000      -5.698090      -155.0529
  24   2.0000      -5.688869      -154.8020
  25   2.0000      -5.639639      -153.4624
  26   2.0000      -5.630915      -153.2250
  27   2.0000      -5.629259      -153.1799
  28   2.0000      -4.628389      -125.9449
  29   2.0000      -4.627403      -125.9180
  30   2.0000      -4.626014      -125.8802
  31   2.0000      -1.022174       -27.8148
  32   2.0000      -1.010633       -27.5007
  33   2.0000      -0.959484       -26.1089
  34   2.0000      -0.924202       -25.1488
  35   2.0000      -0.916448       -24.9378
  36   2.0000      -0.911812       -24.8117
  37   2.0000      -0.763336       -20.7714
  38   2.0000      -0.710302       -19.3283
  39   2.0000      -0.706814       -19.2334
  40   2.0000      -0.682848       -18.5812
  41   2.0000      -0.651823       -17.7370
  42   2.0000      -0.626311       -17.0428
  43   2.0000      -0.614116       -16.7110
  44   2.0000      -0.601724       -16.3737
  45   2.0000      -0.588471       -16.0131
  46   2.0000      -0.563241       -15.3266
  47   2.0000      -0.509586       -13.8665
  48   2.0000      -0.505014       -13.7421
  49   2.0000      -0.493464       -13.4278
  50   2.0000      -0.481355       -13.0983
  51   2.0000      -0.457367       -12.4456
  52   2.0000      -0.450253       -12.2520
  53   2.0000      -0.446927       -12.1615
  54   2.0000      -0.434070       -11.8116
  55   2.0000      -0.425304       -11.5731
  56   2.0000      -0.415328       -11.3017
  57   2.0000      -0.412273       -11.2185
  58   2.0000      -0.406808       -11.0698
  59   2.0000      -0.402402       -10.9499
  60   2.0000      -0.398304       -10.8384
  61   2.0000      -0.392327       -10.6758
  62   2.0000      -0.384804       -10.4711
  63   2.0000      -0.378624       -10.3029
  64   2.0000      -0.367510       -10.0004
  65   2.0000      -0.363326        -9.8866
  66   2.0000      -0.356095        -9.6898
  67   2.0000      -0.354278        -9.6404
  68   2.0000      -0.348540        -9.4843
  69   2.0000      -0.341350        -9.2886
  70   2.0000      -0.330746        -9.0000
  71   2.0000      -0.327419        -8.9095
  72   2.0000      -0.314192        -8.5496
  73   2.0000      -0.303275        -8.2525
  74   2.0000      -0.302285        -8.2256
  75   2.0000      -0.296371        -8.0647
  76   2.0000      -0.295062        -8.0291
  77   2.0000      -0.271408        -7.3854
  78   2.0000      -0.262042        -7.1305
  79   2.0000      -0.261628        -7.1193
  80   2.0000      -0.252991        -6.8842
  81   2.0000      -0.242389        -6.5957
  82   2.0000      -0.231095        -6.2884
  83   2.0000      -0.225033        -6.1235
  84   2.0000      -0.192255        -5.2315
  85   2.0000      -0.184279        -5.0145
  86   2.0000      -0.171940        -4.6787
  87   0.0000      -0.043392        -1.1807
  88   0.0000      -0.038392        -1.0447
  89   0.0000      -0.026339        -0.7167
  90   0.0000       0.006003         0.1634
  91   0.0000       0.038592         1.0501

MULLIKEN ATOMIC CHARGES
-----------------------
   0 C :   -0.274392
   1 C :   -0.038679
   2 O :   -0.216350
   3 C :    0.090773
   4 O :   -0.207082
   5 C :    0.001269
   6 C :   -0.326480
   7 H :    0.155247
   8 C :    0.192754
   9 O :   -0.174755
  10 O :   -0.222277
  11 C :   -0.009703
  12 C :   -0.311175
  13 S :   -0.066963
  14 P :    0.627540
  15 S :   -0.343129
  16 O :   -0.385741
  17 C :   -0.096501
  18 O :   -0.370248
  19 C :   -0.115549
  20 H :    0.111542
  21 H :    0.112715
  22 H :    0.110162
  23 H :    0.126933
  24 H :    0.109741
  25 H :    0.116703
  26 H :    0.111659
  27 H :    0.125406
  28 H :    0.103103
  29 H :    0.132692
  30 H :    0.116333
  31 H :    0.111258
  32 H :    0.120210
  33 H :    0.104204
  34 H :    0.114362
  35 H :    0.113725
  36 H :    0.124723
  37 H :    0.125970
Sum of atomic charges:   -0.0000000

LOEWDIN ATOMIC CHARGES
----------------------
   0 C :   -0.351245
   1 C :   -0.110665
   2 O :   -0.044354
   3 C :    0.023022
   4 O :   -0.174804
   5 C :   -0.251339
   6 C :   -0.258769
   7 H :    0.153459
   8 C :    0.000971
   9 O :   -0.151752
  10 O :   -0.041297
  11 C :   -0.106868
  12 C :   -0.357585
  13 S :    0.126649
  14 P :    0.602927
  15 S :   -0.312844
  16 O :   -0.268788
  17 C :   -0.216295
  18 O :   -0.251465
  19 C :   -0.219764
  20 H :    0.124986
  21 H :    0.131259
  22 H :    0.123944
  23 H :    0.118797
  24 H :    0.119264
  25 H :    0.145070
  26 H :    0.138348
  27 H :    0.126205
  28 H :    0.118817
  29 H :    0.132487
  30 H :    0.132797
  31 H :    0.123549
  32 H :    0.111185
  33 H :    0.105718
  34 H :    0.116471
  35 H :    0.105671
  36 H :    0.121847
  37 H :    0.114390

  Mayer bond orders larger than 0.100000
B(  0-C ,  1-C ) :   1.1505 B(  0-C , 20-H ) :   0.9489 B(  0-C , 21-H ) :   0.9448
B(  0-C , 22-H ) :   0.9513 B(  1-C ,  2-O ) :   0.8933 B(  1-C , 23-H ) :   0.9225
B(  1-C , 24-H ) :   0.9237 B(  2-O ,  3-C ) :   1.2697 B(  3-C ,  4-O ) :   1.9552
B(  3-C ,  5-C ) :   1.0084 B(  5-C ,  6-C ) :   1.0212 B(  5-C , 25-H ) :   0.8830
B(  5-C , 26-H ) :   0.8817 B(  6-C ,  7-H ) :   0.8715 B(  6-C ,  8-C ) :   0.8867
B(  6-C , 13-S ) :   1.0598 B(  8-C ,  9-O ) :   2.0152 B(  8-C , 10-O ) :   1.2638
B( 10-O , 11-C ) :   0.9010 B( 11-C , 12-C ) :   1.1714 B( 11-C , 27-H ) :   0.9117
B( 11-C , 28-H ) :   0.9374 B( 12-C , 29-H ) :   0.9440 B( 12-C , 30-H ) :   0.9439
B( 12-C , 31-H ) :   0.9477 B( 13-S , 14-P ) :   0.9279 B( 13-S , 15-S ) :   0.1144
B( 14-P , 15-S ) :   1.5414 B( 14-P , 16-O ) :   1.0567 B( 14-P , 18-O ) :   1.0916
B( 16-O , 17-C ) :   0.9435 B( 17-C , 32-H ) :   0.9412 B( 17-C , 33-H ) :   0.9482
B( 17-C , 34-H ) :   0.9577 B( 18-O , 19-C ) :   0.9376 B( 19-C , 35-H ) :   0.9394
B( 19-C , 36-H ) :   0.9581 B( 19-C , 37-H ) :   0.9461

Dispersion correction           -0.055153206
FINAL SINGLE POINT ENERGY     -1978.994142940954

DIPOLE MOMENT
-------------

Method             : SCF
Type of density    : Electron Density
Multiplicity       :   1
Irrep              :   0
Energy             : -1979.1220656952659738 Eh
Relativity type    :
Basis              : AO
                                X                 Y                 Z
Electronic contribution:    -11.460932062      -2.141541573      -5.690016431
Nuclear contribution   :     12.341245298       2.491960217       5.127852035
                        -----------------------------------------
Total Dipole Moment    :      0.880313236       0.350418643      -0.562164396
                        -----------------------------------------
Magnitude (a.u.)       :      1.101713859
Magnitude (Debye)      :      2.800334083

Rotational constants in cm-1:             0.011708             0.009134             0.007091
Rotational constants in MHz :           350.992617           273.825095           212.570055

                             ****ORCA TERMINATED NORMALLY****
TOTAL RUN TIME: 0 days 0 hours 0 minutes 38 seconds 755 msec
