                         Program Version 6.0.0  -   RELEASE  -
|  1> ! r2scan-3c def2/J RI DEFGRID2 scfconv6 printgap
|  2> %output
|  3>     printlevel normal
|  4> end
|  5> * xyz 0 1
|  6> C -1.8643159984 -1.4124086392 -0.0009659845
|  7> C -0.5464581893 -0.6932556958 0.004002832
|  8> C 0.6444926132 -1.3983219866 0.0002433305
|  9> C 1.8714721116 -0.7544221434 -0.0024484974
| 10> C 1.9109217798 0.628539933 -0.0019092439
| 11> C 0.7352411778 1.3528139395 0.0077101635
| 12> C -0.504554449 0.7120238559 0.0114477681
| 13> N -1.6645874156 1.4558020776 -0.0510114283
| 14> H -1.7069717745 -2.486491344 -0.050126923
| 15> H -2.4302237886 -1.193452233 0.9053781639
| 16> H -2.4616204901 -1.1098749923 -0.8598310437
| 17> H 0.6129409996 -2.4792479222 -0.0018174061
| 18> H 2.7860000766 -1.3284889883 -0.0056625202
| 19> H 2.8594772657 1.1459695474 -0.004195734
| 20> H 0.7664149698 2.4334584207 0.0102404548
| 21> H -1.569818241 2.4252678019 0.2036035983
| 22> H -2.4983527852 1.0119501137 0.2958517008
| 23> *
| 24>
| 25>                          ****END OF INPUT****

CARTESIAN COORDINATES (ANGSTROEM)
---------------------------------
  C     -1.864316   -1.412409   -0.000966
  C     -0.546458   -0.693256    0.004003
  C      0.644493   -1.398322    0.000243
  C      1.871472   -0.754422   -0.002448
  C      1.910922    0.628540   -0.001909
  C      0.735241    1.352814    0.007710
  C     -0.504554    0.712024    0.011448
  N     -1.664587    1.455802   -0.051011
  H     -1.706972   -2.486491   -0.050127
  H     -2.430224   -1.193452    0.905378
  H     -2.461620   -1.109875   -0.859831
  H      0.612941   -2.479248   -0.001817
  H      2.786000   -1.328489   -0.005663
  H      2.859477    1.145970   -0.004196
  H      0.766415    2.433458    0.010240
  H     -1.569818    2.425268    0.203604
  H     -2.498353    1.011950    0.295852

 Total Charge           Charge          ....    0
 Multiplicity           Mult            ....    1
 Number of Electrons    NEL             ....   58
 Basis Dimension        Dim             ....  202

ORBITAL ENERGIES
----------------

  NO   OCC          E(Eh)            E(eV)
   0   2.0000     -14.167375      -385.5139
   1   2.0000     -10.067226      -273.9431
   2   2.0000     -10.031546      -272.9723
   3   2.0000     -10.029040      -272.9041
   4   2.0000     -10.023050      -272.7411
   5   2.0000     -10.022364      -272.7224
   6   2.0000     -10.020742      -272.6783
   7   2.0000     -10.014098      -272.4975
   8   2.0000      -0.891430       -24.2570
   9   2.0000      -0.803302       -21.8590
  10   2.0000      -0.736462       -20.0401
  11   2.0000      -0.691442       -18.8151
  12   2.0000      -0.649752       -17.6807
  13   2.0000      -0.573375       -15.6023
  14   2.0000      -0.551400       -15.0043
  15   2.0000      -0.485024       -13.1982
  16   2.0000      -0.483169       -13.1477
  17   2.0000      -0.434939       -11.8353
  18   2.0000      -0.404985       -11.0202
  19   2.0000      -0.397406       -10.8140
  20   2.0000      -0.390489       -10.6257
  21   2.0000      -0.372156       -10.1269
  22   2.0000      -0.356413        -9.6985
  23   2.0000      -0.341146        -9.2831
  24   2.0000      -0.312664        -8.5080
  25   2.0000      -0.300957        -8.1895
  26   2.0000      -0.284735        -7.7480
  27   2.0000      -0.221327        -6.0226
  28   2.0000      -0.180368        -4.9081
  29   0.0000      -0.019168        -0.5216
  30   0.0000      -0.004924        -0.1340
  31   0.0000       0.063600         1.7306
  32   0.0000       0.094460         2.5704
  33   0.0000       0.103909         2.8275

MULLIKEN ATOMIC CHARGES
-----------------------
   0 C :   -0.590133
   1 C :   -0.025836
   2 C :   -0.183701
   3 C :   -0.208661
   4 C :   -0.128618
   5 C :   -0.401046
   6 C :    0.508999
   7 N :   -0.542301
   8 H :    0.154507
   9 H :    0.156349
  10 H :    0.170548
  11 H :    0.143804
  12 H :    0.143404
  13 H :    0.144579
  14 H :    0.133985
  15 H :    0.254165
  16 H :    0.269957
Sum of atomic charges:    0.0000000

LOEWDIN ATOMIC CHARGES
----------------------
   0 C :   -0.387873
   1 C :   -0.096138
   2 C :   -0.158569
   3 C :   -0.199980
   4 C :   -0.163142
   5 C :   -0.164340
   6 C :    0.128925
   7 N :   -0.609850
   8 H :    0.162706
   9 H :    0.156951
  10 H :    0.163762
  11 H :    0.166334
  12 H :    0.164793
  13 H :    0.165971
  14 H :    0.166352
  15 H :    0.251477
  16 H :    0.252622

  Mayer bond orders larger than 0.100000
B(  0-C ,  1-C ) :   0.7807 B(  0-C ,  8-H ) :   0.9821 B(  0-C ,  9-H ) :   0.9843
B(  0-C , 10-H ) :   0.9804 B(  1-C ,  2-C ) :   1.3843 B(  1-C ,  6-C ) :   1.4484
B(  2-C ,  3-C ) :   1.4403 B(  2-C , 11-H ) :   0.9304 B(  3-C ,  4-C ) :   1.4341
B(  3-C , 12-H ) :   0.9476 B(  4-C ,  5-C ) :   1.4071 B(  4-C , 13-H ) :   0.9428
B(  5-C ,  6-C ) :   1.2820 B(  5-C , 14-H ) :   0.9598 B(  6-C ,  7-N ) :   0.9730
B(  7-N , 15-H ) :   0.9243 B(  7-N , 16-H ) :   0.9066

Dispersion correction           -0.005461392
FINAL SINGLE POINT ENERGY      -326.830770163671

DIPOLE MOMENT
-------------

Method             : SCF
Type of density    : Electron Density
Multiplicity       :   1
Irrep              :   0
Energy             :  -326.8327030993547169 Eh
Relativity type    :
Basis              : AO
                                X                 Y                 Z
Electronic contribution:      2.813940130       1.742427701      -0.155078964
Nuclear contribution   :     -3.426080983      -1.475177473       0.462650457
                        -----------------------------------------
Total Dipole Moment    :     -0.612140853       0.267250228       0.307571494
                        -----------------------------------------
Magnitude (a.u.)       :      0.735349802
Magnitude (Debye)      :      1.869110656

Rotational constants in cm-1:             0.108453             0.074209             0.044466
Rotational constants in MHz :          3251.328460          2224.723731          1333.045737

                             ****ORCA TERMINATED NORMALLY****
TOTAL RUN TIME: 0 days 0 hours 0 minutes 32 seconds 275 msec
