                         Program Version 6.0.0  -   RELEASE  -
|  1> ! r2scan-3c def2/J RI DEFGRID2 scfconv6 printgap
|  2> %output
|  3>     printlevel normal
|  4> end
|  5> %cpcm
|  6>     smd true
|  7>     smdsolvent "water"
|  8> end
|  9> * xyz 0 1
| 10> C -1.8643159984 -1.4124086392 -0.0009659845
| 11> C -0.5464581893 -0.6932556958 0.004002832
| 12> C 0.6444926132 -1.3983219866 0.0002433305
| 13> C 1.8714721116 -0.7544221434 -0.0024484974
| 14> C 1.9109217798 0.628539933 -0.0019092439
| 15> C 0.7352411778 1.3528139395 0.0077101635
| 16> C -0.504554449 0.7120238559 0.0114477681
| 17> N -1.6645874156 1.4558020776 -0.0510114283
| 18> H -1.7069717745 -2.486491344 -0.050126923
| 19> H -2.4302237886 -1.193452233 0.9053781639
| 20> H -2.4616204901 -1.1098749923 -0.8598310437
| 21> H 0.6129409996 -2.4792479222 -0.0018174061
| 22> H 2.7860000766 -1.3284889883 -0.0056625202
| 23> H 2.8594772657 1.1459695474 -0.004195734
| 24> H 0.7664149698 2.4334584207 0.0102404548
| 25> H -1.569818241 2.4252678019 0.2036035983
| 26> H -2.4983527852 1.0119501137 0.2958517008
| 27> *
| 28>
| 29>                          ****END OF INPUT****

CARTESIAN COORDINATES (ANGSTROEM)
---------------------------------
  C     -1.864316   -1.412409   -0.000966
  C     -0.546458   -0.693256    0.004003
  C      0.644493   -1.398322    0.000243
  C      1.871472   -0.754422   -0.002448
  C      1.910922    0.628540   -0.001909
  C      0.735241    1.352814    0.007710
  C     -0.504554    0.712024    0.011448
  N     -1.664587    1.455802   -0.051011
  H     -1.706972   -2.486491   -0.050127
  H     -2.430224   -1.193452    0.905378
  H     -2.461620   -1.109875   -0.859831
  H      0.612941   -2.479248   -0.001817
  H      2.786000   -1.328489   -0.005663
  H      2.859477    1.145970   -0.004196
  H      0.766415    2.433458    0.010240
  H     -1.569818    2.425268    0.203604
  H     -2.498353    1.011950    0.295852

 Total Charge           Charge          ....    0
 Multiplicity           Mult            ....    1
 Number of Electrons    NEL             ....   58
 Basis Dimension        Dim             ....  202

ORBITAL ENERGIES
----------------

  NO   OCC          E(Eh)            E(eV)
   0   2.0000     -14.156499      -385.2179
   1   2.0000     -10.068268      -273.9715
   2   2.0000     -10.033406      -273.0229
   3   2.0000     -10.025004      -272.7942
   4   2.0000     -10.023972      -272.7661
   5   2.0000     -10.021181      -272.6902
   6   2.0000     -10.018823      -272.6260
   7   2.0000     -10.016363      -272.5591
   8   2.0000      -0.884993       -24.0819
   9   2.0000      -0.804884       -21.9020
  10   2.0000      -0.735268       -20.0077
  11   2.0000      -0.692165       -18.8348
  12   2.0000      -0.646234       -17.5849
  13   2.0000      -0.571644       -15.5552
  14   2.0000      -0.549315       -14.9476
  15   2.0000      -0.481933       -13.1141
  16   2.0000      -0.474450       -12.9104
  17   2.0000      -0.431898       -11.7525
  18   2.0000      -0.400540       -10.8993
  19   2.0000      -0.392460       -10.6794
  20   2.0000      -0.388242       -10.5646
  21   2.0000      -0.370174       -10.0729
  22   2.0000      -0.349628        -9.5138
  23   2.0000      -0.341071        -9.2810
  24   2.0000      -0.311422        -8.4742
  25   2.0000      -0.299194        -8.1415
  26   2.0000      -0.287295        -7.8177
  27   2.0000      -0.226902        -6.1743
  28   2.0000      -0.182201        -4.9579
  29   0.0000      -0.024080        -0.6552
  30   0.0000      -0.009385        -0.2554
  31   0.0000       0.077361         2.1051
  32   0.0000       0.100400         2.7320
  33   0.0000       0.116679         3.1750

MULLIKEN ATOMIC CHARGES
-----------------------
   0 C :   -0.587024
   1 C :   -0.067196
   2 C :   -0.218653
   3 C :   -0.258523
   4 C :   -0.162207
   5 C :   -0.415214
   6 C :    0.450996
   7 N :   -0.602043
   8 H :    0.172168
   9 H :    0.180415
  10 H :    0.178772
  11 H :    0.175148
  12 H :    0.171985
  13 H :    0.175290
  14 H :    0.173357
  15 H :    0.309353
  16 H :    0.323377
Sum of atomic charges:   -0.0000000

LOEWDIN ATOMIC CHARGES
----------------------
   0 C :   -0.390621
   1 C :   -0.103407
   2 C :   -0.175033
   3 C :   -0.225273
   4 C :   -0.183095
   5 C :   -0.176401
   6 C :    0.118220
   7 N :   -0.604970
   8 H :    0.167163
   9 H :    0.168607
  10 H :    0.168923
  11 H :    0.177023
  12 H :    0.172853
  13 H :    0.175262
  14 H :    0.180382
  15 H :    0.265148
  16 H :    0.265219

  Mayer bond orders larger than 0.100000
B(  0-C ,  1-C ) :   0.8228 B(  0-C ,  8-H ) :   0.9798 B(  0-C ,  9-H ) :   0.9691
B(  0-C , 10-H ) :   0.9720 B(  1-C ,  2-C ) :   1.3692 B(  1-C ,  6-C ) :   1.3867
B(  2-C ,  3-C ) :   1.3842 B(  2-C , 11-H ) :   0.9482 B(  3-C ,  4-C ) :   1.3770
B(  3-C , 12-H ) :   0.9635 B(  4-C ,  5-C ) :   1.3618 B(  4-C , 13-H ) :   0.9565
B(  5-C ,  6-C ) :   1.2725 B(  5-C , 14-H ) :   0.9749 B(  6-C ,  7-N ) :   0.9860
B(  7-N , 15-H ) :   0.9002 B(  7-N , 16-H ) :   0.8840

Dispersion correction           -0.005461392
FINAL SINGLE POINT ENERGY      -326.839136939823

DIPOLE MOMENT
-------------

Method             : SCF
Type of density    : Electron Density
Multiplicity       :   1
Irrep              :   0
Energy             :  -326.8410698755074009 Eh
Relativity type    :
Basis              : AO
                                X                 Y                 Z
Electronic contribution:      2.484264007       1.873134609      -0.024044441
Nuclear contribution   :     -3.426080983      -1.475177473       0.462650457
                        -----------------------------------------
Total Dipole Moment    :     -0.941816976       0.397957136       0.438606016
                        -----------------------------------------
Magnitude (a.u.)       :      1.112548577
Magnitude (Debye)      :      2.827873748

Rotational constants in cm-1:             0.108453             0.074209             0.044466
Rotational constants in MHz :          3251.328460          2224.723731          1333.045737

                             ****ORCA TERMINATED NORMALLY****
TOTAL RUN TIME: 0 days 0 hours 0 minutes 42 seconds 50 msec
