                         Program Version 6.0.0  -   RELEASE  -
|  1> ! pbe def2-sv(p) def2/J RI DEFGRID1 loosescf d4 GCP(DFT/SV(P)) printgap
|  2> %output
|  3>     printlevel normal
|  4> end
|  5> * xyz 0 1
|  6> C 1.3180453909 -1.8803225692 2.2309487788
|  7> C 2.8091876539 -1.7481873649 2.0005264882
|  8> O 3.1541595327 -0.4995968404 1.3736356037
|  9> P 2.7857128622 -0.1612956433 -0.138595329
| 10> S 2.9499611523 -1.6391479483 -1.4065331699
| 11> O 3.7927140529 1.0099807474 -0.4490345011
| 12> C 3.9080111315 2.1804990467 0.4008683732
| 13> C 4.6067983196 3.2616168041 -0.3960520531
| 14> S 0.8818615128 0.8311395038 -0.0618774706
| 15> C -0.0248780582 -0.1612872102 -1.2732252823
| 16> S -1.2394337197 -1.2584339849 -0.5115196441
| 17> P -2.726162843 0.2447746209 -0.2124275123
| 18> S -2.9403979492 1.5198573429 -1.6815030174
| 19> O -2.343802741 1.0251817849 1.099162853
| 20> C -2.1225157191 0.3787610525 2.3798384235
| 21> C -1.1652135679 1.2425303749 3.174708595
| 22> O -3.9879979681 -0.5921728838 0.2694877271
| 23> C -4.520614201 -1.7562344266 -0.3901557833
| 24> C -4.8285668126 -1.5115057679 -1.8523262924
| 25> H 1.1244142285 -2.7740309955 2.8153022327
| 26> H 0.9419293849 -1.0116803617 2.7651292078
| 27> H 0.7984749416 -1.97017614 1.2773454256
| 28> H 3.1770333159 -2.5644284313 1.3712899084
| 29> H 3.3613619234 -1.7261106322 2.9412125842
| 30> H 2.9032142008 2.4908984824 0.7028644831
| 31> H 4.4803765565 1.8954273159 1.2853572236
| 32> H 4.017255544 3.5236231785 -1.2702630188
| 33> H 4.7323478311 4.1402223287 0.2283718002
| 34> H 5.5805417142 2.9098638888 -0.7246118094
| 35> H 0.6825386558 -0.7897462085 -1.8189982579
| 36> H -0.5506865221 0.524394862 -1.9398155136
| 37> H -3.091839287 0.2903008724 2.8733972696
| 38> H -1.7131203687 -0.6205971092 2.2036665691
| 39> H -0.9940435825 0.7872127825 4.1449567346
| 40> H -0.2218544707 1.3406845619 2.6430086413
| 41> H -1.5866558989 2.2340690561 3.3112329623
| 42> H -3.7995138572 -2.570558198 -0.2777917951
| 43> H -5.4260059637 -1.9796660145 0.1768018136
| 44> H -5.301338777 -2.392324877 -2.27464308
| 45> H -5.4925724718 -0.6573558577 -1.9629480131
| 46> H -3.9105253794 -1.3046109405 -2.4010206308
| 47> *
| 48>
| 49>                          ****END OF INPUT****

CARTESIAN COORDINATES (ANGSTROEM)
---------------------------------
  C      1.318045   -1.880323    2.230949
  C      2.809188   -1.748187    2.000526
  O      3.154160   -0.499597    1.373636
  P      2.785713   -0.161296   -0.138595
  S      2.949961   -1.639148   -1.406533
  O      3.792714    1.009981   -0.449035
  C      3.908011    2.180499    0.400868
  C      4.606798    3.261617   -0.396052
  S      0.881862    0.831140   -0.061877
  C     -0.024878   -0.161287   -1.273225
  S     -1.239434   -1.258434   -0.511520
  P     -2.726163    0.244775   -0.212428
  S     -2.940398    1.519857   -1.681503
  O     -2.343803    1.025182    1.099163
  C     -2.122516    0.378761    2.379838
  C     -1.165214    1.242530    3.174709
  O     -3.987998   -0.592173    0.269488
  C     -4.520614   -1.756234   -0.390156
  C     -4.828567   -1.511506   -1.852326
  H      1.124414   -2.774031    2.815302
  H      0.941929   -1.011680    2.765129
  H      0.798475   -1.970176    1.277345
  H      3.177033   -2.564428    1.371290
  H      3.361362   -1.726111    2.941213
  H      2.903214    2.490898    0.702864
  H      4.480377    1.895427    1.285357
  H      4.017256    3.523623   -1.270263
  H      4.732348    4.140222    0.228372
  H      5.580542    2.909864   -0.724612
  H      0.682539   -0.789746   -1.818998
  H     -0.550687    0.524395   -1.939816
  H     -3.091839    0.290301    2.873397
  H     -1.713120   -0.620597    2.203667
  H     -0.994044    0.787213    4.144957
  H     -0.221854    1.340685    2.643009
  H     -1.586656    2.234069    3.311233
  H     -3.799514   -2.570558   -0.277792
  H     -5.426006   -1.979666    0.176802
  H     -5.301339   -2.392325   -2.274643
  H     -5.492572   -0.657356   -1.962948
  H     -3.910525   -1.304611   -2.401021

 Total Charge           Charge          ....    0
 Multiplicity           Mult            ....    1
 Number of Electrons    NEL             ....  202
 Basis Dimension        Dim             ....  334

ORBITAL ENERGIES
----------------

  NO   OCC          E(Eh)            E(eV)
   0   2.0000     -88.047118     -2395.8839
   1   2.0000     -88.043735     -2395.7918
   2   2.0000     -87.993918     -2394.4362
   3   2.0000     -87.983260     -2394.1462
   4   2.0000     -76.429393     -2079.7495
   5   2.0000     -76.427055     -2079.6859
   6   2.0000     -18.797043      -511.4935
   7   2.0000     -18.795512      -511.4519
   8   2.0000     -18.794148      -511.4148
   9   2.0000     -18.791899      -511.3536
  10   2.0000      -9.961819      -271.0749
  11   2.0000      -9.960480      -271.0384
  12   2.0000      -9.956967      -270.9428
  13   2.0000      -9.956141      -270.9204
  14   2.0000      -9.950422      -270.7647
  15   2.0000      -9.890952      -269.1465
  16   2.0000      -9.888403      -269.0771
  17   2.0000      -9.888019      -269.0667
  18   2.0000      -9.884785      -268.9787
  19   2.0000      -7.691466      -209.2954
  20   2.0000      -7.688296      -209.2092
  21   2.0000      -7.639033      -207.8687
  22   2.0000      -7.628559      -207.5836
  23   2.0000      -6.427207      -174.8932
  24   2.0000      -6.424483      -174.8191
  25   2.0000      -5.718997      -155.6218
  26   2.0000      -5.716069      -155.5422
  27   2.0000      -5.715963      -155.5392
  28   2.0000      -5.712841      -155.4543
  29   2.0000      -5.708930      -155.3479
  30   2.0000      -5.705404      -155.2519
  31   2.0000      -5.667936      -154.2324
  32   2.0000      -5.659586      -154.0052
  33   2.0000      -5.659246      -153.9959
  34   2.0000      -5.657652      -153.9525
  35   2.0000      -5.649120      -153.7204
  36   2.0000      -5.648563      -153.7052
  37   2.0000      -4.649917      -126.5307
  38   2.0000      -4.648719      -126.4981
  39   2.0000      -4.647752      -126.4718
  40   2.0000      -4.647368      -126.4613
  41   2.0000      -4.646502      -126.4378
  42   2.0000      -4.644423      -126.3812
  43   2.0000      -0.991655       -26.9843
  44   2.0000      -0.990805       -26.9612
  45   2.0000      -0.947619       -25.7860
  46   2.0000      -0.946984       -25.7687
  47   2.0000      -0.763783       -20.7836
  48   2.0000      -0.725607       -19.7448
  49   2.0000      -0.716378       -19.4936
  50   2.0000      -0.693349       -18.8670
  51   2.0000      -0.692432       -18.8420
  52   2.0000      -0.679773       -18.4976
  53   2.0000      -0.652692       -17.7607
  54   2.0000      -0.640542       -17.4300
  55   2.0000      -0.598369       -16.2825
  56   2.0000      -0.590494       -16.0682
  57   2.0000      -0.576129       -15.6773
  58   2.0000      -0.573592       -15.6082
  59   2.0000      -0.563858       -15.3433
  60   2.0000      -0.512981       -13.9589
  61   2.0000      -0.505888       -13.7659
  62   2.0000      -0.478843       -13.0300
  63   2.0000      -0.476787       -12.9740
  64   2.0000      -0.465178       -12.6581
  65   2.0000      -0.450528       -12.2595
  66   2.0000      -0.441649       -12.0179
  67   2.0000      -0.438471       -11.9314
  68   2.0000      -0.436329       -11.8731
  69   2.0000      -0.422704       -11.5024
  70   2.0000      -0.416707       -11.3392
  71   2.0000      -0.400869       -10.9082
  72   2.0000      -0.396662       -10.7937
  73   2.0000      -0.388842       -10.5809
  74   2.0000      -0.384305       -10.4575
  75   2.0000      -0.370331       -10.0772
  76   2.0000      -0.362288        -9.8584
  77   2.0000      -0.359453        -9.7812
  78   2.0000      -0.357665        -9.7326
  79   2.0000      -0.350999        -9.5512
  80   2.0000      -0.349349        -9.5063
  81   2.0000      -0.346729        -9.4350
  82   2.0000      -0.344618        -9.3775
  83   2.0000      -0.340758        -9.2725
  84   2.0000      -0.338728        -9.2173
  85   2.0000      -0.322861        -8.7855
  86   2.0000      -0.317838        -8.6488
  87   2.0000      -0.306435        -8.3385
  88   2.0000      -0.300883        -8.1874
  89   2.0000      -0.298813        -8.1311
  90   2.0000      -0.296951        -8.0804
  91   2.0000      -0.278756        -7.5853
  92   2.0000      -0.274176        -7.4607
  93   2.0000      -0.267349        -7.2749
  94   2.0000      -0.257648        -7.0110
  95   2.0000      -0.235585        -6.4106
  96   2.0000      -0.223004        -6.0683
  97   2.0000      -0.214260        -5.8303
  98   2.0000      -0.209813        -5.7093
  99   2.0000      -0.201445        -5.4816
 100   2.0000      -0.197494        -5.3741
 101   0.0000      -0.044367        -1.2073
 102   0.0000      -0.033952        -0.9239
 103   0.0000      -0.017908        -0.4873
 104   0.0000       0.002080         0.0566
 105   0.0000       0.011794         0.3209

MULLIKEN ATOMIC CHARGES
-----------------------
   0 C :   -0.346309
   1 C :    0.008031
   2 O :   -0.385783
   3 P :    0.602421
   4 S :   -0.299938
   5 O :   -0.358313
   6 C :   -0.021892
   7 C :   -0.277814
   8 S :   -0.106862
   9 C :   -0.353475
  10 S :   -0.114786
  11 P :    0.592277
  12 S :   -0.302247
  13 O :   -0.353059
  14 C :   -0.015701
  15 C :   -0.292391
  16 O :   -0.383080
  17 C :   -0.012748
  18 C :   -0.309476
  19 H :    0.111346
  20 H :    0.124240
  21 H :    0.136849
  22 H :    0.113150
  23 H :    0.103470
  24 H :    0.109728
  25 H :    0.110562
  26 H :    0.124639
  27 H :    0.112066
  28 H :    0.124015
  29 H :    0.194682
  30 H :    0.197190
  31 H :    0.108071
  32 H :    0.106262
  33 H :    0.107360
  34 H :    0.133814
  35 H :    0.121030
  36 H :    0.113761
  37 H :    0.110156
  38 H :    0.112522
  39 H :    0.128175
  40 H :    0.128058
Sum of atomic charges:    0.0000000

LOEWDIN ATOMIC CHARGES
----------------------
   0 C :   -0.374033
   1 C :   -0.115016
   2 O :   -0.251262
   3 P :    0.569702
   4 S :   -0.292818
   5 O :   -0.239435
   6 C :   -0.114600
   7 C :   -0.349274
   8 S :    0.073763
   9 C :   -0.490073
  10 S :    0.075994
  11 P :    0.565655
  12 S :   -0.303138
  13 O :   -0.234500
  14 C :   -0.115398
  15 C :   -0.356281
  16 O :   -0.247142
  17 C :   -0.114199
  18 C :   -0.368727
  19 H :    0.130823
  20 H :    0.124192
  21 H :    0.113411
  22 H :    0.112411
  23 H :    0.118250
  24 H :    0.104814
  25 H :    0.115874
  26 H :    0.131597
  27 H :    0.131160
  28 H :    0.131127
  29 H :    0.125695
  30 H :    0.127663
  31 H :    0.116185
  32 H :    0.103141
  33 H :    0.127755
  34 H :    0.121481
  35 H :    0.130169
  36 H :    0.108456
  37 H :    0.121731
  38 H :    0.130738
  39 H :    0.131314
  40 H :    0.122791

  Mayer bond orders larger than 0.100000
B(  0-C ,  1-C ) :   1.1613 B(  0-C , 19-H ) :   0.9363 B(  0-C , 20-H ) :   0.9367
B(  0-C , 21-H ) :   0.9260 B(  1-C ,  2-O ) :   0.9139 B(  1-C , 22-H ) :   0.9177
B(  1-C , 23-H ) :   0.9334 B(  2-O ,  3-P ) :   1.0808 B(  3-P ,  4-S ) :   1.6353
B(  3-P ,  5-O ) :   1.1423 B(  3-P ,  8-S ) :   0.9445 B(  4-S ,  8-S ) :   0.1150
B(  4-S , 29-H ) :   0.1160 B(  5-O ,  6-C ) :   0.8937 B(  6-C ,  7-C ) :   1.1647
B(  6-C , 24-H ) :   0.9137 B(  6-C , 25-H ) :   0.9289 B(  7-C , 26-H ) :   0.9494
B(  7-C , 27-H ) :   0.9404 B(  7-C , 28-H ) :   0.9498 B(  8-S ,  9-C ) :   1.0100
B(  9-C , 10-S ) :   1.0075 B(  9-C , 29-H ) :   0.8495 B(  9-C , 30-H ) :   0.8599
B( 10-S , 11-P ) :   0.9395 B( 10-S , 12-S ) :   0.1081 B( 11-P , 12-S ) :   1.6515
B( 11-P , 13-O ) :   1.1417 B( 11-P , 16-O ) :   1.0881 B( 12-S , 30-H ) :   0.1012
B( 13-O , 14-C ) :   0.8849 B( 14-C , 15-C ) :   1.1706 B( 14-C , 31-H ) :   0.9314
B( 14-C , 32-H ) :   0.9088 B( 15-C , 33-H ) :   0.9391 B( 15-C , 34-H ) :   0.9339
B( 15-C , 35-H ) :   0.9458 B( 16-O , 17-C ) :   0.9125 B( 17-C , 18-C ) :   1.1669
B( 17-C , 36-H ) :   0.9268 B( 17-C , 37-H ) :   0.9332 B( 18-C , 38-H ) :   0.9350
B( 18-C , 39-H ) :   0.9431 B( 18-C , 40-H ) :   0.9321

Dispersion correction           -0.062990649
FINAL SINGLE POINT ENERGY     -2929.517895968099

DIPOLE MOMENT
-------------

Method             : SCF
Type of density    : Electron Density
Multiplicity       :   1
Irrep              :   0
Energy             : -2929.6396097440861013 Eh
Relativity type    :
Basis              : AO
                                X                 Y                 Z
Electronic contribution:      0.257299587      -0.243124174     -13.629370010
Nuclear contribution   :     -0.304845510      -0.255497608      15.529867880
                        -----------------------------------------
Total Dipole Moment    :     -0.047545923      -0.498621782       1.900497871
                        -----------------------------------------
Magnitude (a.u.)       :      1.965394732
Magnitude (Debye)      :      4.995636399

Rotational constants in cm-1:             0.012221             0.004275             0.004235
Rotational constants in MHz :           366.387719           128.163611           126.962875

                             ****ORCA TERMINATED NORMALLY****
TOTAL RUN TIME: 0 days 0 hours 0 minutes 20 seconds 823 msec
