                         Program Version 6.0.0  -   RELEASE  -
|  1> ! pbe def2-sv(p) def2/J RI DEFGRID1 loosescf d4 GCP(DFT/SV(P)) printgap
|  2> %output
|  3>     printlevel normal
|  4> end
|  5> * xyz 0 1
|  6> C 3.2713960356 2.0887750361 -1.8816966801
|  7> C 2.0447618301 1.2121813942 -1.7454750339
|  8> O 1.5352818462 1.2615077196 -0.3893180664
|  9> P 1.8115194297 0.1314783884 0.6714995186
| 10> S 1.2465641224 0.6395467688 2.4722338613
| 11> O 3.3726214117 -0.1022713051 0.456632784
| 12> C 4.1295448199 -1.1352897607 1.1148115212
| 13> C 4.6218951885 -0.6885915744 2.4776952943
| 14> S 1.0264147072 -1.7139912964 -0.0700343289
| 15> C -0.3148269799 -2.0005352641 1.1139923383
| 16> S -1.9696861787 -1.9478227224 0.3740668351
| 17> P -1.9107637645 -0.0466019533 -0.5744589676
| 18> S -1.1706580524 0.0252029901 -2.3918801853
| 19> O -1.1773413245 0.8116272365 0.5415791035
| 20> C -1.577450613 2.150050466 0.9156374246
| 21> C -1.3197583582 3.1433063899 -0.1966513853
| 22> O -3.4068335605 0.4754450088 -0.4821219672
| 23> C -4.3737720576 0.1741318006 -1.5033022001
| 24> C -4.7854937972 -1.2827001224 -1.4699703805
| 25> H 4.0729964361 1.7149578179 -1.2503205381
| 26> H 3.594579028 2.0818025707 -2.9178406081
| 27> H 3.0362571502 3.1074060157 -1.5855331125
| 28> H 2.2612746372 0.1735245521 -2.0089422419
| 29> H 1.2216735129 1.5688793232 -2.3687152496
| 30> H 3.5130062242 -2.0353895631 1.1930571294
| 31> H 4.9640647362 -1.3261851751 0.4370292065
| 32> H 3.7829691414 -0.4988586097 3.1433093119
| 33> H 5.2438361764 -1.4689500746 2.9041887314
| 34> H 5.2039253799 0.2241962038 2.384823635
| 35> H -0.2354085309 -1.2581203875 1.9134749543
| 36> H -0.2076442619 -3.0110632365 1.5013730739
| 37> H -2.6323918282 2.1269450079 1.1933922225
| 38> H -0.9638699712 2.3593871462 1.7944985061
| 39> H -1.8952596628 2.8717259015 -1.0811406804
| 40> H -1.612958628 4.1353018739 0.1320150178
| 41> H -0.2633929429 3.1453980966 -0.4548603597
| 42> H -5.2096586496 0.8377136808 -1.2786333265
| 43> H -3.9417359236 0.4316407693 -2.4762142548
| 44> H -5.5732843954 -1.4520515076 -2.1967839725
| 45> H -3.9322289799 -1.9139647409 -1.7184366752
| 46> H -5.1404770197 -1.5540991384 -0.4792779984
| 47> *
| 48>
| 49>                          ****END OF INPUT****

CARTESIAN COORDINATES (ANGSTROEM)
---------------------------------
  C      3.271396    2.088775   -1.881697
  C      2.044762    1.212181   -1.745475
  O      1.535282    1.261508   -0.389318
  P      1.811519    0.131478    0.671500
  S      1.246564    0.639547    2.472234
  O      3.372621   -0.102271    0.456633
  C      4.129545   -1.135290    1.114812
  C      4.621895   -0.688592    2.477695
  S      1.026415   -1.713991   -0.070034
  C     -0.314827   -2.000535    1.113992
  S     -1.969686   -1.947823    0.374067
  P     -1.910764   -0.046602   -0.574459
  S     -1.170658    0.025203   -2.391880
  O     -1.177341    0.811627    0.541579
  C     -1.577451    2.150050    0.915637
  C     -1.319758    3.143306   -0.196651
  O     -3.406834    0.475445   -0.482122
  C     -4.373772    0.174132   -1.503302
  C     -4.785494   -1.282700   -1.469970
  H      4.072996    1.714958   -1.250321
  H      3.594579    2.081803   -2.917841
  H      3.036257    3.107406   -1.585533
  H      2.261275    0.173525   -2.008942
  H      1.221674    1.568879   -2.368715
  H      3.513006   -2.035390    1.193057
  H      4.964065   -1.326185    0.437029
  H      3.782969   -0.498859    3.143309
  H      5.243836   -1.468950    2.904189
  H      5.203925    0.224196    2.384824
  H     -0.235409   -1.258120    1.913475
  H     -0.207644   -3.011063    1.501373
  H     -2.632392    2.126945    1.193392
  H     -0.963870    2.359387    1.794499
  H     -1.895260    2.871726   -1.081141
  H     -1.612959    4.135302    0.132015
  H     -0.263393    3.145398   -0.454860
  H     -5.209659    0.837714   -1.278633
  H     -3.941736    0.431641   -2.476214
  H     -5.573284   -1.452052   -2.196784
  H     -3.932229   -1.913965   -1.718437
  H     -5.140477   -1.554099   -0.479278

 Total Charge           Charge          ....    0
 Multiplicity           Mult            ....    1
 Number of Electrons    NEL             ....  202
 Basis Dimension        Dim             ....  334

ORBITAL ENERGIES
----------------

  NO   OCC          E(Eh)            E(eV)
   0   2.0000     -88.042207     -2395.7502
   1   2.0000     -88.035911     -2395.5789
   2   2.0000     -87.986302     -2394.2290
   3   2.0000     -87.982085     -2394.1142
   4   2.0000     -76.426639     -2079.6746
   5   2.0000     -76.425010     -2079.6303
   6   2.0000     -18.795400      -511.4488
   7   2.0000     -18.794215      -511.4166
   8   2.0000     -18.788866      -511.2710
   9   2.0000     -18.783965      -511.1377
  10   2.0000      -9.954471      -270.8749
  11   2.0000      -9.953785      -270.8563
  12   2.0000      -9.952489      -270.8210
  13   2.0000      -9.947562      -270.6869
  14   2.0000      -9.943797      -270.5845
  15   2.0000      -9.886967      -269.0380
  16   2.0000      -9.881509      -268.8895
  17   2.0000      -9.880367      -268.8585
  18   2.0000      -9.874988      -268.7121
  19   2.0000      -7.686715      -209.1662
  20   2.0000      -7.681493      -209.0241
  21   2.0000      -7.631330      -207.6591
  22   2.0000      -7.627083      -207.5435
  23   2.0000      -6.423794      -174.8003
  24   2.0000      -6.422298      -174.7596
  25   2.0000      -5.714497      -155.4994
  26   2.0000      -5.711168      -155.4088
  27   2.0000      -5.709635      -155.3671
  28   2.0000      -5.706018      -155.2687
  29   2.0000      -5.703895      -155.2109
  30   2.0000      -5.698121      -155.0538
  31   2.0000      -5.660354      -154.0261
  32   2.0000      -5.655884      -153.9044
  33   2.0000      -5.651948      -153.7973
  34   2.0000      -5.651274      -153.7790
  35   2.0000      -5.647744      -153.6829
  36   2.0000      -5.647341      -153.6720
  37   2.0000      -4.646564      -126.4394
  38   2.0000      -4.645593      -126.4130
  39   2.0000      -4.645542      -126.4116
  40   2.0000      -4.644168      -126.3742
  41   2.0000      -4.643955      -126.3684
  42   2.0000      -4.642248      -126.3220
  43   2.0000      -0.988762       -26.9056
  44   2.0000      -0.986684       -26.8490
  45   2.0000      -0.943574       -25.6760
  46   2.0000      -0.941078       -25.6080
  47   2.0000      -0.759273       -20.6609
  48   2.0000      -0.718364       -19.5477
  49   2.0000      -0.705894       -19.2084
  50   2.0000      -0.688025       -18.7221
  51   2.0000      -0.687254       -18.7011
  52   2.0000      -0.670266       -18.2389
  53   2.0000      -0.649468       -17.6729
  54   2.0000      -0.638176       -17.3657
  55   2.0000      -0.594074       -16.1656
  56   2.0000      -0.586393       -15.9566
  57   2.0000      -0.573361       -15.6020
  58   2.0000      -0.569911       -15.5081
  59   2.0000      -0.562206       -15.2984
  60   2.0000      -0.504600       -13.7309
  61   2.0000      -0.494420       -13.4539
  62   2.0000      -0.476671       -12.9709
  63   2.0000      -0.468855       -12.7582
  64   2.0000      -0.452972       -12.3260
  65   2.0000      -0.449104       -12.2207
  66   2.0000      -0.435905       -11.8616
  67   2.0000      -0.428719       -11.6661
  68   2.0000      -0.422039       -11.4843
  69   2.0000      -0.414282       -11.2732
  70   2.0000      -0.409681       -11.1480
  71   2.0000      -0.401700       -10.9308
  72   2.0000      -0.397178       -10.8078
  73   2.0000      -0.383761       -10.4427
  74   2.0000      -0.379520       -10.3273
  75   2.0000      -0.366386        -9.9699
  76   2.0000      -0.360292        -9.8040
  77   2.0000      -0.356974        -9.7137
  78   2.0000      -0.354026        -9.6335
  79   2.0000      -0.349797        -9.5184
  80   2.0000      -0.343529        -9.3479
  81   2.0000      -0.340774        -9.2729
  82   2.0000      -0.335348        -9.1253
  83   2.0000      -0.334465        -9.1012
  84   2.0000      -0.332242        -9.0408
  85   2.0000      -0.316164        -8.6033
  86   2.0000      -0.315059        -8.5732
  87   2.0000      -0.298488        -8.1223
  88   2.0000      -0.295517        -8.0414
  89   2.0000      -0.292824        -7.9681
  90   2.0000      -0.283034        -7.7017
  91   2.0000      -0.274429        -7.4676
  92   2.0000      -0.267944        -7.2911
  93   2.0000      -0.260685        -7.0936
  94   2.0000      -0.255022        -6.9395
  95   2.0000      -0.235961        -6.4208
  96   2.0000      -0.222358        -6.0507
  97   2.0000      -0.207169        -5.6374
  98   2.0000      -0.201015        -5.4699
  99   2.0000      -0.192353        -5.2342
 100   2.0000      -0.189273        -5.1504
 101   0.0000      -0.046651        -1.2694
 102   0.0000      -0.032719        -0.8903
 103   0.0000      -0.016366        -0.4453
 104   0.0000       0.005821         0.1584
 105   0.0000       0.014870         0.4046

MULLIKEN ATOMIC CHARGES
-----------------------
   0 C :   -0.282185
   1 C :   -0.017765
   2 O :   -0.356730
   3 P :    0.624462
   4 S :   -0.307424
   5 O :   -0.379854
   6 C :   -0.006847
   7 C :   -0.295865
   8 S :   -0.106164
   9 C :   -0.334738
  10 S :   -0.109697
  11 P :    0.636266
  12 S :   -0.321067
  13 O :   -0.378885
  14 C :    0.001951
  15 C :   -0.322430
  16 O :   -0.379624
  17 C :   -0.005911
  18 C :   -0.324800
  19 H :    0.117108
  20 H :    0.108819
  21 H :    0.115552
  22 H :    0.103486
  23 H :    0.124821
  24 H :    0.098783
  25 H :    0.104343
  26 H :    0.129691
  27 H :    0.106448
  28 H :    0.113540
  29 H :    0.199864
  30 H :    0.178607
  31 H :    0.106283
  32 H :    0.114960
  33 H :    0.115198
  34 H :    0.105625
  35 H :    0.134928
  36 H :    0.105030
  37 H :    0.112277
  38 H :    0.117256
  39 H :    0.132159
  40 H :    0.122530
Sum of atomic charges:   -0.0000000

LOEWDIN ATOMIC CHARGES
----------------------
   0 C :   -0.358566
   1 C :   -0.118033
   2 O :   -0.225534
   3 P :    0.577237
   4 S :   -0.287273
   5 O :   -0.245894
   6 C :   -0.118930
   7 C :   -0.365415
   8 S :    0.077695
   9 C :   -0.481004
  10 S :    0.067374
  11 P :    0.573619
  12 S :   -0.310668
  13 O :   -0.243343
  14 C :   -0.113342
  15 C :   -0.366792
  16 O :   -0.241127
  17 C :   -0.122213
  18 C :   -0.370073
  19 H :    0.124259
  20 H :    0.129454
  21 H :    0.126559
  22 H :    0.106920
  23 H :    0.115700
  24 H :    0.101738
  25 H :    0.117514
  26 H :    0.123104
  27 H :    0.128298
  28 H :    0.126203
  29 H :    0.122691
  30 H :    0.137160
  31 H :    0.111169
  32 H :    0.115906
  33 H :    0.118187
  34 H :    0.127484
  35 H :    0.129528
  36 H :    0.118557
  37 H :    0.109506
  38 H :    0.133584
  39 H :    0.122082
  40 H :    0.126679

  Mayer bond orders larger than 0.100000
B(  0-C ,  1-C ) :   1.1618 B(  0-C , 19-H ) :   0.9415 B(  0-C , 20-H ) :   0.9405
B(  0-C , 21-H ) :   0.9484 B(  1-C ,  2-O ) :   0.8748 B(  1-C , 22-H ) :   0.9211
B(  1-C , 23-H ) :   0.9178 B(  2-O ,  3-P ) :   1.1390 B(  3-P ,  4-S ) :   1.6176
B(  3-P ,  5-O ) :   1.0705 B(  3-P ,  8-S ) :   0.9563 B(  4-S ,  8-S ) :   0.1187
B(  4-S , 29-H ) :   0.1177 B(  5-O ,  6-C ) :   0.9099 B(  6-C ,  7-C ) :   1.1657
B(  6-C , 24-H ) :   0.9106 B(  6-C , 25-H ) :   0.9363 B(  7-C , 26-H ) :   0.9304
B(  7-C , 27-H ) :   0.9387 B(  7-C , 28-H ) :   0.9477 B(  8-S ,  9-C ) :   1.0083
B(  9-C , 10-S ) :   0.9960 B(  9-C , 29-H ) :   0.8475 B(  9-C , 30-H ) :   0.9124
B( 10-S , 11-P ) :   0.9529 B( 10-S , 12-S ) :   0.1150 B( 11-P , 12-S ) :   1.6361
B( 11-P , 13-O ) :   1.1077 B( 11-P , 16-O ) :   1.0738 B( 13-O , 14-C ) :   0.8912
B( 14-C , 15-C ) :   1.1721 B( 14-C , 31-H ) :   0.9277 B( 14-C , 32-H ) :   0.9145
B( 15-C , 33-H ) :   0.9364 B( 15-C , 34-H ) :   0.9375 B( 15-C , 35-H ) :   0.9373
B( 16-O , 17-C ) :   0.9077 B( 17-C , 18-C ) :   1.1658 B( 17-C , 36-H ) :   0.9316
B( 17-C , 37-H ) :   0.9101 B( 18-C , 38-H ) :   0.9383 B( 18-C , 39-H ) :   0.9309
B( 18-C , 40-H ) :   0.9444

Dispersion correction           -0.068927441
FINAL SINGLE POINT ENERGY     -2929.514468429169

DIPOLE MOMENT
-------------

Method             : SCF
Type of density    : Electron Density
Multiplicity       :   1
Irrep              :   0
Energy             : -2929.6341948328572471 Eh
Relativity type    :
Basis              : AO
                                X                 Y                 Z
Electronic contribution:     -5.032351887      -9.710878364       2.967870144
Nuclear contribution   :      5.078008532       9.672976508      -3.116434785
                        -----------------------------------------
Total Dipole Moment    :      0.045656644      -0.037901856      -0.148564641
                        -----------------------------------------
Magnitude (a.u.)       :      0.159976662
Magnitude (Debye)      :      0.406628360

Rotational constants in cm-1:             0.013196             0.005532             0.005097
Rotational constants in MHz :           395.592813           165.853188           152.813031

                             ****ORCA TERMINATED NORMALLY****
TOTAL RUN TIME: 0 days 0 hours 0 minutes 21 seconds 909 msec
