                         Program Version 6.0.1  -  RELEASE   -
|  1> ! pbe def2-sv(p) def2/J RI DEFGRID1 loosescf d4 GCP(DFT/SV(P)) printgap
|  2> %output
|  3>     printlevel normal
|  4> end
|  5> * xyz 0 1
|  6> C 4.7619961341 -4.3871318981 -0.9399882738
|  7> C 3.7783934889 -3.4486932383 -1.610512695
|  8> O 3.4198279222 -2.427043878 -0.6591079865
|  9> C 2.5411833343 -1.5212615864 -1.0307491002
| 10> O 2.013363206 -1.4883992001 -2.1208792095
| 11> C 2.2881539054 -0.5103939864 0.0723875884
| 12> C 0.8905620016 0.0734653278 -0.0636062142
| 13> H 0.701495626 0.3082590784 -1.1198121011
| 14> C 0.6578932792 1.335296171 0.7377273743
| 15> O -0.387851644 1.5238394249 1.3323856247
| 16> O 1.6557332622 2.1662684862 0.6929324503
| 17> C 1.4946087076 3.4669337659 1.3072219468
| 18> C 0.8193217254 4.4267257878 0.3421670712
| 19> S -0.3795249868 -1.1413096763 0.4616391742
| 20> P -2.0847675907 0.0707757439 0.1939063891
| 21> S -2.1220753253 1.5736054217 -1.0787298914
| 22> O -2.9342809085 -1.1807166051 -0.3474826506
| 23> C -4.3001784848 -1.0330411512 -0.7467369746
| 24> O -2.8687494589 0.3028739527 1.5657439901
| 25> C -2.9714376654 1.5303605067 2.288191825
| 26> H 5.0480824499 -5.1660768239 -1.6387081301
| 27> H 5.6468809945 -3.839506137 -0.63051948
| 28> H 4.3055744341 -4.8399828876 -0.0651364783
| 29> H 2.8647251987 -3.9655808157 -1.9197084702
| 30> H 4.2121051284 -2.9630891454 -2.4901582152
| 31> H 3.0203313406 0.2939407089 -0.0315805269
| 32> H 2.4250222408 -0.9964192409 1.0373237966
| 33> H 0.9064735452 3.3516071427 2.2206697315
| 34> H 2.5116332604 3.7809581679 1.5397517966
| 35> H 1.4097720398 4.5279939789 -0.5640324447
| 36> H -0.1689433259 4.0585361844 0.0714103762
| 37> H 0.715867 5.3982179843 0.8134442923
| 38> H -4.935919525 -0.921532663 0.130984936
| 39> H -4.5481620329 -1.9427639478 -1.2876523772
| 40> H -4.4084665516 -0.1622555498 -1.3971467996
| 41> H -3.95680215 1.5212370308 2.7490957529
| 42> H -2.8742441028 2.3763062338 1.606584099
| 43> H -2.189112245 1.5734629909 3.042432419
| 44> *
| 45>
| 46>                          ****END OF INPUT****

CARTESIAN COORDINATES (ANGSTROEM)
---------------------------------
  C      4.761996   -4.387132   -0.939988
  C      3.778393   -3.448693   -1.610513
  O      3.419828   -2.427044   -0.659108
  C      2.541183   -1.521262   -1.030749
  O      2.013363   -1.488399   -2.120879
  C      2.288154   -0.510394    0.072388
  C      0.890562    0.073465   -0.063606
  H      0.701496    0.308259   -1.119812
  C      0.657893    1.335296    0.737727
  O     -0.387852    1.523839    1.332386
  O      1.655733    2.166268    0.692932
  C      1.494609    3.466934    1.307222
  C      0.819322    4.426726    0.342167
  S     -0.379525   -1.141310    0.461639
  P     -2.084768    0.070776    0.193906
  S     -2.122075    1.573605   -1.078730
  O     -2.934281   -1.180717   -0.347483
  C     -4.300178   -1.033041   -0.746737
  O     -2.868749    0.302874    1.565744
  C     -2.971438    1.530361    2.288192
  H      5.048082   -5.166077   -1.638708
  H      5.646881   -3.839506   -0.630519
  H      4.305574   -4.839983   -0.065136
  H      2.864725   -3.965581   -1.919708
  H      4.212105   -2.963089   -2.490158
  H      3.020331    0.293941   -0.031581
  H      2.425022   -0.996419    1.037324
  H      0.906474    3.351607    2.220670
  H      2.511633    3.780958    1.539752
  H      1.409772    4.527994   -0.564032
  H     -0.168943    4.058536    0.071410
  H      0.715867    5.398218    0.813444
  H     -4.935920   -0.921533    0.130985
  H     -4.548162   -1.942764   -1.287652
  H     -4.408467   -0.162256   -1.397147
  H     -3.956802    1.521237    2.749096
  H     -2.874244    2.376306    1.606584
  H     -2.189112    1.573463    3.042432

 Total Charge           Charge          ....    0
 Multiplicity           Mult            ....    1
 Number of Electrons    NEL             ....  174
 Basis Dimension        Dim             ....  316

ORBITAL ENERGIES
----------------

  NO   OCC          E(Eh)            E(eV)
   0   2.0000     -88.028972     -2395.3901
   1   2.0000     -87.968305     -2393.7393
   2   2.0000     -76.414009     -2079.3309
   3   2.0000     -18.827872      -512.3324
   4   2.0000     -18.807667      -511.7826
   5   2.0000     -18.778595      -510.9916
   6   2.0000     -18.766443      -510.6609
   7   2.0000     -18.759115      -510.4615
   8   2.0000     -18.742916      -510.0207
   9   2.0000     -10.029796      -272.9246
  10   2.0000     -10.014025      -272.4955
  11   2.0000      -9.962207      -271.0854
  12   2.0000      -9.952299      -270.8158
  13   2.0000      -9.944684      -270.6086
  14   2.0000      -9.930579      -270.2248
  15   2.0000      -9.926890      -270.1244
  16   2.0000      -9.918873      -269.9063
  17   2.0000      -9.892708      -269.1943
  18   2.0000      -9.891646      -269.1654
  19   2.0000      -7.674321      -208.8289
  20   2.0000      -7.613403      -207.1712
  21   2.0000      -6.409885      -174.4218
  22   2.0000      -5.702406      -155.1704
  23   2.0000      -5.699303      -155.0859
  24   2.0000      -5.690575      -154.8484
  25   2.0000      -5.642497      -153.5402
  26   2.0000      -5.634288      -153.3168
  27   2.0000      -5.633095      -153.2843
  28   2.0000      -4.632490      -126.0565
  29   2.0000      -4.631855      -126.0392
  30   2.0000      -4.630522      -126.0029
  31   2.0000      -1.036796       -28.2127
  32   2.0000      -1.016132       -27.6504
  33   2.0000      -0.966402       -26.2971
  34   2.0000      -0.939613       -25.5682
  35   2.0000      -0.920996       -25.0616
  36   2.0000      -0.919617       -25.0240
  37   2.0000      -0.765250       -20.8235
  38   2.0000      -0.719044       -19.5662
  39   2.0000      -0.713959       -19.4278
  40   2.0000      -0.689200       -18.7541
  41   2.0000      -0.650728       -17.7072
  42   2.0000      -0.627495       -17.0750
  43   2.0000      -0.616833       -16.7849
  44   2.0000      -0.613394       -16.6913
  45   2.0000      -0.592595       -16.1253
  46   2.0000      -0.562301       -15.3010
  47   2.0000      -0.515450       -14.0261
  48   2.0000      -0.511880       -13.9290
  49   2.0000      -0.501666       -13.6510
  50   2.0000      -0.482046       -13.1171
  51   2.0000      -0.466830       -12.7031
  52   2.0000      -0.461328       -12.5534
  53   2.0000      -0.450398       -12.2559
  54   2.0000      -0.443366       -12.0646
  55   2.0000      -0.439229       -11.9520
  56   2.0000      -0.421560       -11.4712
  57   2.0000      -0.417856       -11.3704
  58   2.0000      -0.410076       -11.1587
  59   2.0000      -0.409072       -11.1314
  60   2.0000      -0.401362       -10.9216
  61   2.0000      -0.395762       -10.7692
  62   2.0000      -0.386056       -10.5051
  63   2.0000      -0.381465       -10.3802
  64   2.0000      -0.370030       -10.0690
  65   2.0000      -0.367193        -9.9918
  66   2.0000      -0.363499        -9.8913
  67   2.0000      -0.357826        -9.7369
  68   2.0000      -0.352999        -9.6056
  69   2.0000      -0.344222        -9.3667
  70   2.0000      -0.338156        -9.2017
  71   2.0000      -0.332509        -9.0480
  72   2.0000      -0.320180        -8.7125
  73   2.0000      -0.309316        -8.4169
  74   2.0000      -0.308220        -8.3871
  75   2.0000      -0.301217        -8.1965
  76   2.0000      -0.290304        -7.8996
  77   2.0000      -0.283303        -7.7091
  78   2.0000      -0.273089        -7.4311
  79   2.0000      -0.265799        -7.2328
  80   2.0000      -0.257513        -7.0073
  81   2.0000      -0.252219        -6.8632
  82   2.0000      -0.242928        -6.6104
  83   2.0000      -0.228656        -6.2221
  84   2.0000      -0.205517        -5.5924
  85   2.0000      -0.190597        -5.1864
  86   2.0000      -0.181519        -4.9394
  87   0.0000      -0.046205        -1.2573
  88   0.0000      -0.037927        -1.0320
  89   0.0000      -0.020630        -0.5614
  90   0.0000       0.012707         0.3458
  91   0.0000       0.036248         0.9863

MULLIKEN ATOMIC CHARGES
-----------------------
   0 C :   -0.272105
   1 C :   -0.031480
   2 O :   -0.229837
   3 C :    0.130064
   4 O :   -0.196524
   5 C :   -0.122249
   6 C :   -0.308108
   7 H :    0.173028
   8 C :    0.243233
   9 O :   -0.200364
  10 O :   -0.218078
  11 C :   -0.013617
  12 C :   -0.313906
  13 S :   -0.076363
  14 P :    0.653990
  15 S :   -0.361061
  16 O :   -0.388201
  17 C :   -0.095315
  18 O :   -0.390404
  19 C :   -0.083241
  20 H :    0.113705
  21 H :    0.114741
  22 H :    0.117998
  23 H :    0.114745
  24 H :    0.107509
  25 H :    0.139131
  26 H :    0.115318
  27 H :    0.112696
  28 H :    0.108520
  29 H :    0.118989
  30 H :    0.144470
  31 H :    0.115342
  32 H :    0.105542
  33 H :    0.120413
  34 H :    0.111839
  35 H :    0.113187
  36 H :    0.112332
  37 H :    0.114061
Sum of atomic charges:    0.0000000

LOEWDIN ATOMIC CHARGES
----------------------
   0 C :   -0.350350
   1 C :   -0.105589
   2 O :   -0.061122
   3 C :    0.028449
   4 O :   -0.155294
   5 C :   -0.253535
   6 C :   -0.265844
   7 H :    0.155300
   8 C :    0.028363
   9 O :   -0.157338
  10 O :   -0.032731
  11 C :   -0.104966
  12 C :   -0.357997
  13 S :    0.114435
  14 P :    0.592321
  15 S :   -0.351859
  16 O :   -0.268280
  17 C :   -0.215794
  18 O :   -0.251338
  19 C :   -0.211341
  20 H :    0.131916
  21 H :    0.126675
  22 H :    0.128179
  23 H :    0.121111
  24 H :    0.117622
  25 H :    0.154635
  26 H :    0.137951
  27 H :    0.121895
  28 H :    0.120567
  29 H :    0.128075
  30 H :    0.134651
  31 H :    0.132483
  32 H :    0.107965
  33 H :    0.119813
  34 H :    0.107498
  35 H :    0.114163
  36 H :    0.107394
  37 H :    0.111918

  Mayer bond orders larger than 0.100000
B(  0-C ,  1-C ) :   1.1523 B(  0-C , 20-H ) :   0.9437 B(  0-C , 21-H ) :   0.9496
B(  0-C , 22-H ) :   0.9499 B(  1-C ,  2-O ) :   0.9013 B(  1-C , 23-H ) :   0.9309
B(  1-C , 24-H ) :   0.9326 B(  2-O ,  3-C ) :   1.2443 B(  3-C ,  4-O ) :   2.0493
B(  3-C ,  5-C ) :   1.0023 B(  5-C ,  6-C ) :   1.0953 B(  5-C , 25-H ) :   0.8707
B(  5-C , 26-H ) :   0.9029 B(  6-C ,  7-H ) :   0.8287 B(  6-C ,  8-C ) :   0.9101
B(  6-C , 13-S ) :   1.0263 B(  8-C ,  9-O ) :   1.9159 B(  8-C , 10-O ) :   1.2877
B(  9-O , 14-P ) :   0.1231 B( 10-O , 11-C ) :   0.8933 B( 11-C , 12-C ) :   1.1784
B( 11-C , 27-H ) :   0.9149 B( 11-C , 28-H ) :   0.9361 B( 12-C , 29-H ) :   0.9477
B( 12-C , 30-H ) :   0.9331 B( 12-C , 31-H ) :   0.9414 B( 13-S , 14-P ) :   0.9360
B( 13-S , 15-S ) :   0.1082 B( 14-P , 15-S ) :   1.5649 B( 14-P , 16-O ) :   1.0838
B( 14-P , 18-O ) :   1.0948 B( 16-O , 17-C ) :   0.9415 B( 17-C , 32-H ) :   0.9509
B( 17-C , 33-H ) :   0.9611 B( 17-C , 34-H ) :   0.9334 B( 18-O , 19-C ) :   0.9312
B( 19-C , 35-H ) :   0.9542 B( 19-C , 36-H ) :   0.9350 B( 19-C , 37-H ) :   0.9533

Dispersion correction           -0.049308589
FINAL SINGLE POINT ENERGY     -1979.013502545480

DIPOLE MOMENT
-------------

Method             : SCF
Type of density    : Electron Density
Multiplicity       :   1
Irrep              :   0
Energy             : -1979.1460844963921772 Eh
Relativity type    :
Basis              : AO
                                X                 Y                 Z
Electronic contribution:    -10.647918404      -1.834230892      -0.726979458
Nuclear contribution   :     11.974064343       2.153245766       1.790900733
                        -----------------------------------------
Total Dipole Moment    :      1.326145939       0.319014874       1.063921275
                        -----------------------------------------
Magnitude (a.u.)       :      1.729844508
Magnitude (Debye)      :      4.396915310

Rotational constants in cm-1:             0.012505             0.006064             0.004669
Rotational constants in MHz :           374.876841           181.800352           139.964440

                             ****ORCA TERMINATED NORMALLY****
TOTAL RUN TIME: 0 days 0 hours 0 minutes 31 seconds 865 msec
