                         Program Version 6.0.0  -   RELEASE  -
|  1> ! pbe def2-sv(p) def2/J RI DEFGRID1 loosescf d4 GCP(DFT/SV(P)) printgap
|  2> %output
|  3>     printlevel normal
|  4> end
|  5> * xyz 0 1
|  6> C 3.9772501495 -1.0110626646 -2.507338919
|  7> C 4.1784511861 0.3240437928 -1.8207995299
|  8> O 3.6488953035 0.3335089873 -0.4833971562
|  9> P 2.094407161 0.2074529403 -0.1767770086
| 10> S 0.9503674425 1.2250719851 -1.3961049038
| 11> O 1.9668501723 0.7259321305 1.3037315261
| 12> C 2.7239459648 0.2161477266 2.4301303714
| 13> C 3.9854252792 1.0259168068 2.6462094425
| 14> S 1.8302816256 -1.9016261115 -0.0460271162
| 15> C 0.1354068093 -1.9677375381 0.581890188
| 16> S -1.1465640566 -1.7392896284 -0.7038154373
| 17> P -2.0728004103 0.0283638306 -0.0146080558
| 18> S -1.2984086296 0.8705322244 1.5835244863
| 19> O -3.5910295261 -0.4124452688 0.1900157668
| 20> C -3.99349575 -1.2206251382 1.3115471631
| 21> C -5.5073195592 -1.2058767529 1.3777904861
| 22> O -2.2073352333 0.8646809541 -1.3427979532
| 23> C -2.3557147786 2.2981301734 -1.3495926711
| 24> C -3.6850559788 2.7263963064 -0.7661769816
| 25> H 2.9172034039 -1.1766290324 -2.6959659289
| 26> H 4.5052161624 -1.0100040805 -3.4555393905
| 27> H 4.3526688341 -1.8186358556 -1.8837543913
| 28> H 3.6955160633 1.1259695415 -2.3878457155
| 29> H 5.2363658505 0.5516308209 -1.6829289983
| 30> H 2.0374271494 0.3127930683 3.2739830933
| 31> H 2.9569298943 -0.8376224199 2.2538275937
| 32> H 4.6566553989 0.9122258892 1.7993941843
| 33> H 3.7371602792 2.0777799527 2.7595690549
| 34> H 4.479542178 0.6749945137 3.5468327619
| 35> H -0.0065103786 -1.200614683 1.3490350623
| 36> H 0.013888904 -2.9678614556 0.9884525145
| 37> H -3.6116950563 -2.2345170603 1.1581393179
| 38> H -3.5461858803 -0.8018541571 2.2196447997
| 39> H -5.865566402 -0.1923742873 1.533578355
| 40> H -5.9206593887 -1.5858264382 0.4481121657
| 41> H -5.8337254923 -1.8325179179 2.2011341167
| 42> H -1.5187305978 2.7363184245 -0.7956696102
| 43> H -2.262870175 2.5610100855 -2.4041539461
| 44> H -3.7921384916 3.801805365 -0.8671553958
| 45> H -4.4984541088 2.2271145329 -1.2859128822
| 46> H -3.7262794856 2.4625107513 0.2902614832
| 47> *
| 48>
| 49>                          ****END OF INPUT****

CARTESIAN COORDINATES (ANGSTROEM)
---------------------------------
  C      3.977250   -1.011063   -2.507339
  C      4.178451    0.324044   -1.820800
  O      3.648895    0.333509   -0.483397
  P      2.094407    0.207453   -0.176777
  S      0.950367    1.225072   -1.396105
  O      1.966850    0.725932    1.303732
  C      2.723946    0.216148    2.430130
  C      3.985425    1.025917    2.646209
  S      1.830282   -1.901626   -0.046027
  C      0.135407   -1.967738    0.581890
  S     -1.146564   -1.739290   -0.703815
  P     -2.072800    0.028364   -0.014608
  S     -1.298409    0.870532    1.583524
  O     -3.591030   -0.412445    0.190016
  C     -3.993496   -1.220625    1.311547
  C     -5.507320   -1.205877    1.377790
  O     -2.207335    0.864681   -1.342798
  C     -2.355715    2.298130   -1.349593
  C     -3.685056    2.726396   -0.766177
  H      2.917203   -1.176629   -2.695966
  H      4.505216   -1.010004   -3.455539
  H      4.352669   -1.818636   -1.883754
  H      3.695516    1.125970   -2.387846
  H      5.236366    0.551631   -1.682929
  H      2.037427    0.312793    3.273983
  H      2.956930   -0.837622    2.253828
  H      4.656655    0.912226    1.799394
  H      3.737160    2.077780    2.759569
  H      4.479542    0.674995    3.546833
  H     -0.006510   -1.200615    1.349035
  H      0.013889   -2.967861    0.988453
  H     -3.611695   -2.234517    1.158139
  H     -3.546186   -0.801854    2.219645
  H     -5.865566   -0.192374    1.533578
  H     -5.920659   -1.585826    0.448112
  H     -5.833725   -1.832518    2.201134
  H     -1.518731    2.736318   -0.795670
  H     -2.262870    2.561010   -2.404154
  H     -3.792138    3.801805   -0.867155
  H     -4.498454    2.227115   -1.285913
  H     -3.726279    2.462511    0.290261

 Total Charge           Charge          ....    0
 Multiplicity           Mult            ....    1
 Number of Electrons    NEL             ....  202
 Basis Dimension        Dim             ....  334

ORBITAL ENERGIES
----------------

  NO   OCC          E(Eh)            E(eV)
   0   2.0000     -88.041771     -2395.7384
   1   2.0000     -88.036330     -2395.5903
   2   2.0000     -87.983376     -2394.1494
   3   2.0000     -87.977200     -2393.9813
   4   2.0000     -76.421987     -2079.5480
   5   2.0000     -76.419764     -2079.4875
   6   2.0000     -18.791442      -511.3411
   7   2.0000     -18.787861      -511.2437
   8   2.0000     -18.782523      -511.0984
   9   2.0000     -18.780879      -511.0537
  10   2.0000      -9.955035      -270.8903
  11   2.0000      -9.952374      -270.8179
  12   2.0000      -9.951942      -270.8061
  13   2.0000      -9.946514      -270.6584
  14   2.0000      -9.943399      -270.5736
  15   2.0000      -9.884683      -268.9759
  16   2.0000      -9.883698      -268.9491
  17   2.0000      -9.883555      -268.9452
  18   2.0000      -9.876612      -268.7563
  19   2.0000      -7.686757      -209.1673
  20   2.0000      -7.681767      -209.0315
  21   2.0000      -7.628224      -207.5745
  22   2.0000      -7.622175      -207.4099
  23   2.0000      -6.419477      -174.6829
  24   2.0000      -6.417263      -174.6226
  25   2.0000      -5.714464      -155.4985
  26   2.0000      -5.711144      -155.4081
  27   2.0000      -5.709638      -155.3671
  28   2.0000      -5.706365      -155.2781
  29   2.0000      -5.704017      -155.2142
  30   2.0000      -5.698595      -155.0666
  31   2.0000      -5.656992      -153.9346
  32   2.0000      -5.651187      -153.7766
  33   2.0000      -5.649333      -153.7262
  34   2.0000      -5.648038      -153.6909
  35   2.0000      -5.642655      -153.5444
  36   2.0000      -5.642372      -153.5367
  37   2.0000      -4.642510      -126.3291
  38   2.0000      -4.641316      -126.2966
  39   2.0000      -4.639449      -126.2458
  40   2.0000      -4.639444      -126.2457
  41   2.0000      -4.638917      -126.2314
  42   2.0000      -4.638164      -126.2109
  43   2.0000      -0.985418       -26.8146
  44   2.0000      -0.979341       -26.6492
  45   2.0000      -0.943665       -25.6784
  46   2.0000      -0.936611       -25.4865
  47   2.0000      -0.758001       -20.6263
  48   2.0000      -0.717341       -19.5198
  49   2.0000      -0.707288       -19.2463
  50   2.0000      -0.688903       -18.7460
  51   2.0000      -0.682448       -18.5704
  52   2.0000      -0.671472       -18.2717
  53   2.0000      -0.647394       -17.6165
  54   2.0000      -0.631871       -17.1941
  55   2.0000      -0.596952       -16.2439
  56   2.0000      -0.588108       -16.0032
  57   2.0000      -0.574106       -15.6222
  58   2.0000      -0.560658       -15.2563
  59   2.0000      -0.556126       -15.1329
  60   2.0000      -0.499370       -13.5886
  61   2.0000      -0.495957       -13.4957
  62   2.0000      -0.473417       -12.8823
  63   2.0000      -0.468974       -12.7614
  64   2.0000      -0.450406       -12.2562
  65   2.0000      -0.444957       -12.1079
  66   2.0000      -0.439056       -11.9473
  67   2.0000      -0.428814       -11.6686
  68   2.0000      -0.427082       -11.6215
  69   2.0000      -0.418841       -11.3972
  70   2.0000      -0.408154       -11.1064
  71   2.0000      -0.391954       -10.6656
  72   2.0000      -0.389170       -10.5899
  73   2.0000      -0.380642       -10.3578
  74   2.0000      -0.378175       -10.2907
  75   2.0000      -0.369134       -10.0447
  76   2.0000      -0.361590        -9.8394
  77   2.0000      -0.355957        -9.6861
  78   2.0000      -0.352986        -9.6052
  79   2.0000      -0.350843        -9.5469
  80   2.0000      -0.345464        -9.4005
  81   2.0000      -0.341193        -9.2843
  82   2.0000      -0.337832        -9.1929
  83   2.0000      -0.336149        -9.1471
  84   2.0000      -0.329591        -8.9686
  85   2.0000      -0.314059        -8.5460
  86   2.0000      -0.306553        -8.3417
  87   2.0000      -0.294770        -8.0211
  88   2.0000      -0.293406        -7.9840
  89   2.0000      -0.288836        -7.8596
  90   2.0000      -0.278834        -7.5875
  91   2.0000      -0.268887        -7.3168
  92   2.0000      -0.266843        -7.2612
  93   2.0000      -0.259871        -7.0715
  94   2.0000      -0.253451        -6.8968
  95   2.0000      -0.236183        -6.4269
  96   2.0000      -0.219179        -5.9642
  97   2.0000      -0.205287        -5.5861
  98   2.0000      -0.202566        -5.5121
  99   2.0000      -0.189016        -5.1434
 100   2.0000      -0.184890        -5.0311
 101   0.0000      -0.035417        -0.9638
 102   0.0000      -0.026781        -0.7288
 103   0.0000      -0.010857        -0.2954
 104   0.0000       0.004719         0.1284
 105   0.0000       0.028942         0.7875

MULLIKEN ATOMIC CHARGES
-----------------------
   0 C :   -0.327949
   1 C :    0.000533
   2 O :   -0.381770
   3 P :    0.603681
   4 S :   -0.305558
   5 O :   -0.345656
   6 C :   -0.016092
   7 C :   -0.288652
   8 S :   -0.105366
   9 C :   -0.357769
  10 S :   -0.074282
  11 P :    0.616911
  12 S :   -0.321086
  13 O :   -0.374294
  14 C :   -0.005520
  15 C :   -0.278978
  16 O :   -0.360282
  17 C :   -0.005877
  18 C :   -0.302822
  19 H :    0.136502
  20 H :    0.115545
  21 H :    0.118353
  22 H :    0.113751
  23 H :    0.103537
  24 H :    0.110328
  25 H :    0.098097
  26 H :    0.122016
  27 H :    0.121086
  28 H :    0.107672
  29 H :    0.195285
  30 H :    0.179761
  31 H :    0.090469
  32 H :    0.097313
  33 H :    0.118073
  34 H :    0.116849
  35 H :    0.108566
  36 H :    0.124421
  37 H :    0.105772
  38 H :    0.109779
  39 H :    0.114746
  40 H :    0.122907
Sum of atomic charges:    0.0000000

LOEWDIN ATOMIC CHARGES
----------------------
   0 C :   -0.373335
   1 C :   -0.118242
   2 O :   -0.247805
   3 P :    0.567218
   4 S :   -0.301179
   5 O :   -0.226696
   6 C :   -0.116895
   7 C :   -0.359800
   8 S :    0.075477
   9 C :   -0.484119
  10 S :    0.082787
  11 P :    0.573482
  12 S :   -0.305684
  13 O :   -0.252151
  14 C :   -0.124914
  15 C :   -0.350114
  16 O :   -0.229830
  17 C :   -0.115330
  18 C :   -0.365648
  19 H :    0.124911
  20 H :    0.132567
  21 H :    0.122842
  22 H :    0.112966
  23 H :    0.117700
  24 H :    0.120587
  25 H :    0.101226
  26 H :    0.125854
  27 H :    0.129383
  28 H :    0.128726
  29 H :    0.120172
  30 H :    0.135756
  31 H :    0.103307
  32 H :    0.103734
  33 H :    0.127377
  34 H :    0.127098
  35 H :    0.129027
  36 H :    0.112776
  37 H :    0.120037
  38 H :    0.129655
  39 H :    0.125478
  40 H :    0.121599

  Mayer bond orders larger than 0.100000
B(  0-C ,  1-C ) :   1.1655 B(  0-C , 19-H ) :   0.9327 B(  0-C , 20-H ) :   0.9372
B(  0-C , 21-H ) :   0.9426 B(  1-C ,  2-O ) :   0.9060 B(  1-C , 22-H ) :   0.9162
B(  1-C , 23-H ) :   0.9334 B(  2-O ,  3-P ) :   1.0776 B(  3-P ,  4-S ) :   1.6574
B(  3-P ,  5-O ) :   1.1387 B(  3-P ,  8-S ) :   0.9495 B(  4-S ,  8-S ) :   0.1104
B(  5-O ,  6-C ) :   0.8967 B(  6-C ,  7-C ) :   1.1681 B(  6-C , 24-H ) :   0.9326
B(  6-C , 25-H ) :   0.9074 B(  7-C , 26-H ) :   0.9411 B(  7-C , 27-H ) :   0.9475
B(  7-C , 28-H ) :   0.9394 B(  8-S ,  9-C ) :   0.9918 B(  9-C , 10-S ) :   1.0057
B(  9-C , 29-H ) :   0.8483 B(  9-C , 30-H ) :   0.9120 B( 10-S , 11-P ) :   0.9551
B( 10-S , 12-S ) :   0.1185 B( 11-P , 12-S ) :   1.5877 B( 11-P , 13-O ) :   1.0868
B( 11-P , 16-O ) :   1.1575 B( 12-S , 29-H ) :   0.1151 B( 13-O , 14-C ) :   0.9165
B( 14-C , 15-C ) :   1.1613 B( 14-C , 31-H ) :   0.9221 B( 14-C , 32-H ) :   0.9094
B( 15-C , 33-H ) :   0.9522 B( 15-C , 34-H ) :   0.9506 B( 15-C , 35-H ) :   0.9425
B( 16-O , 17-C ) :   0.8953 B( 17-C , 18-C ) :   1.1635 B( 17-C , 36-H ) :   0.9148
B( 17-C , 37-H ) :   0.9356 B( 18-C , 38-H ) :   0.9386 B( 18-C , 39-H ) :   0.9452
B( 18-C , 40-H ) :   0.9349

Dispersion correction           -0.066049345
FINAL SINGLE POINT ENERGY     -2929.517965664793

DIPOLE MOMENT
-------------

Method             : SCF
Type of density    : Electron Density
Multiplicity       :   1
Irrep              :   0
Energy             : -2929.6364088225236628 Eh
Relativity type    :
Basis              : AO
                                X                 Y                 Z
Electronic contribution:      2.294247677      -3.981654551      -5.598978843
Nuclear contribution   :     -1.902668162       3.408050012       6.151983493
                        -----------------------------------------
Total Dipole Moment    :      0.391579515      -0.573604539       0.553004650
                        -----------------------------------------
Magnitude (a.u.)       :      0.887789855
Magnitude (Debye)      :      2.256582478

Rotational constants in cm-1:             0.012959             0.004833             0.004712
Rotational constants in MHz :           388.515126           144.876193           141.253341

                             ****ORCA TERMINATED NORMALLY****
TOTAL RUN TIME: 0 days 0 hours 0 minutes 20 seconds 878 msec
