                         Program Version 6.0.0  -   RELEASE  -
|  1> ! pbe def2-sv(p) def2/J RI DEFGRID1 loosescf d4 GCP(DFT/SV(P)) printgap
|  2> %output
|  3>     printlevel normal
|  4> end
|  5> * xyz 0 1
|  6> C 0.8480026818 1.3897366976 -0.6306712539
|  7> C 1.5951772455 0.1827186424 -0.047903025
|  8> H 2.5750719917 0.1043926104 -0.5421739937
|  9> C 0.7852919359 -1.1011256673 -0.3347610131
| 10> H 1.225090192 -1.9256316463 0.2438705781
| 11> C -0.6644808927 -0.9180241522 0.1443933967
| 12> H -1.2677916354 -1.7598289146 -0.2115214767
| 13> C -1.2614940816 0.3775497043 -0.448834496
| 14> H -1.3138250123 0.290120465 -1.5456309973
| 15> O -0.4571206729 1.4916484665 -0.1004059814
| 16> O -2.5397793857 0.60162628 0.0110014967
| 17> O -0.7728867813 -0.9041182134 1.5436294379
| 18> O 0.7501931518 -1.3915182531 -1.708719084
| 19> O 1.7537680279 0.2707358886 1.3495613549
| 20> H 0.8043202354 1.2848245145 -1.7228431266
| 21> H 1.3389376628 2.3274223432 -0.3674255798
| 22> H -2.5463426581 0.4683197443 0.9758616501
| 23> H -0.0545802429 -0.3490169998 1.899209878
| 24> H 1.588842336 -1.7890435194 -1.9854813428
| 25> H 2.222318935 1.0870585493 1.5767948833
| 26> *
| 27>
| 28>                          ****END OF INPUT****

CARTESIAN COORDINATES (ANGSTROEM)
---------------------------------
  C      0.848003    1.389737   -0.630671
  C      1.595177    0.182719   -0.047903
  H      2.575072    0.104393   -0.542174
  C      0.785292   -1.101126   -0.334761
  H      1.225090   -1.925632    0.243871
  C     -0.664481   -0.918024    0.144393
  H     -1.267792   -1.759829   -0.211521
  C     -1.261494    0.377550   -0.448834
  H     -1.313825    0.290120   -1.545631
  O     -0.457121    1.491648   -0.100406
  O     -2.539779    0.601626    0.011001
  O     -0.772887   -0.904118    1.543629
  O      0.750193   -1.391518   -1.708719
  O      1.753768    0.270736    1.349561
  H      0.804320    1.284825   -1.722843
  H      1.338938    2.327422   -0.367426
  H     -2.546343    0.468320    0.975862
  H     -0.054580   -0.349017    1.899210
  H      1.588842   -1.789044   -1.985481
  H      2.222319    1.087059    1.576795

 Total Charge           Charge          ....    0
 Multiplicity           Mult            ....    1
 Number of Electrons    NEL             ....   80
 Basis Dimension        Dim             ....  160

ORBITAL ENERGIES
----------------

  NO   OCC          E(Eh)            E(eV)
   0   2.0000     -18.782473      -511.0971
   1   2.0000     -18.770078      -510.7598
   2   2.0000     -18.755197      -510.3548
   3   2.0000     -18.745828      -510.0999
   4   2.0000     -18.742670      -510.0140
   5   2.0000      -9.969482      -271.2834
   6   2.0000      -9.956101      -270.9193
   7   2.0000      -9.951378      -270.7908
   8   2.0000      -9.939937      -270.4794
   9   2.0000      -9.933638      -270.3080
  10   2.0000      -0.975472       -26.5440
  11   2.0000      -0.953303       -25.9407
  12   2.0000      -0.943743       -25.6805
  13   2.0000      -0.919137       -25.0110
  14   2.0000      -0.900945       -24.5160
  15   2.0000      -0.702946       -19.1281
  16   2.0000      -0.669481       -18.2175
  17   2.0000      -0.594778       -16.1847
  18   2.0000      -0.578560       -15.7434
  19   2.0000      -0.534472       -14.5437
  20   2.0000      -0.497808       -13.5460
  21   2.0000      -0.490554       -13.3487
  22   2.0000      -0.466584       -12.6964
  23   2.0000      -0.439456       -11.9582
  24   2.0000      -0.433426       -11.7941
  25   2.0000      -0.424839       -11.5604
  26   2.0000      -0.414149       -11.2696
  27   2.0000      -0.386220       -10.5096
  28   2.0000      -0.371253       -10.1023
  29   2.0000      -0.353591        -9.6217
  30   2.0000      -0.326308        -8.8793
  31   2.0000      -0.316925        -8.6240
  32   2.0000      -0.294790        -8.0216
  33   2.0000      -0.282869        -7.6973
  34   2.0000      -0.270772        -7.3681
  35   2.0000      -0.255102        -6.9417
  36   2.0000      -0.245536        -6.6814
  37   2.0000      -0.235440        -6.4066
  38   2.0000      -0.221864        -6.0372
  39   2.0000      -0.196136        -5.3371
  40   0.0000       0.004192         0.1141
  41   0.0000       0.006919         0.1883
  42   0.0000       0.057513         1.5650
  43   0.0000       0.071274         1.9395
  44   0.0000       0.076845         2.0911

MULLIKEN ATOMIC CHARGES
-----------------------
   0 C :    0.055371
   1 C :    0.015289
   2 H :    0.054886
   3 C :    0.002607
   4 H :    0.081969
   5 C :    0.055755
   6 H :    0.081100
   7 C :    0.166943
   8 H :    0.060958
   9 O :   -0.306152
  10 O :   -0.376699
  11 O :   -0.440952
  12 O :   -0.407534
  13 O :   -0.425221
  14 H :    0.073985
  15 H :    0.084632
  16 H :    0.299722
  17 H :    0.303957
  18 H :    0.307689
  19 H :    0.311693
Sum of atomic charges:   -0.0000000

LOEWDIN ATOMIC CHARGES
----------------------
   0 C :   -0.126625
   1 C :   -0.091607
   2 H :    0.097701
   3 C :   -0.073642
   4 H :    0.106784
   5 C :   -0.084924
   6 H :    0.121137
   7 C :   -0.007435
   8 H :    0.098430
   9 O :   -0.169827
  10 O :   -0.288507
  11 O :   -0.318311
  12 O :   -0.311525
  13 O :   -0.310089
  14 H :    0.108227
  15 H :    0.110728
  16 H :    0.280718
  17 H :    0.272899
  18 H :    0.292401
  19 H :    0.293468

  Mayer bond orders larger than 0.100000
B(  0-C ,  1-C ) :   1.0480 B(  0-C ,  9-O ) :   1.0474 B(  0-C , 14-H ) :   0.8855
B(  0-C , 15-H ) :   0.9238 B(  1-C ,  2-H ) :   0.8945 B(  1-C ,  3-C ) :   0.9794
B(  1-C , 13-O ) :   1.0087 B(  3-C ,  4-H ) :   0.9082 B(  3-C ,  5-C ) :   0.9989
B(  3-C , 12-O ) :   1.0743 B(  5-C ,  6-H ) :   0.8877 B(  5-C ,  7-C ) :   0.9829
B(  5-C , 11-O ) :   1.0439 B(  7-C ,  8-H ) :   0.8880 B(  7-C ,  9-O ) :   0.9852
B(  7-C , 10-O ) :   1.1856 B( 10-O , 16-H ) :   0.8240 B( 11-O , 17-H ) :   0.8060
B( 12-O , 18-H ) :   0.8451 B( 13-O , 17-H ) :   0.1004 B( 13-O , 19-H ) :   0.8398

Dispersion correction           -0.019868560
FINAL SINGLE POINT ENERGY      -571.419777910881

DIPOLE MOMENT
-------------

Method             : SCF
Type of density    : Electron Density
Multiplicity       :   1
Irrep              :   0
Energy             :  -571.5292657058200803 Eh
Relativity type    :
Basis              : AO
                                X                 Y                 Z
Electronic contribution:     -2.371134268       0.290280136       1.461534325
Nuclear contribution   :      4.270600436      -0.244208654      -1.559283299
                        -----------------------------------------
Total Dipole Moment    :      1.899466168       0.046071482      -0.097748973
                        -----------------------------------------
Magnitude (a.u.)       :      1.902537560
Magnitude (Debye)      :      4.835866164

Rotational constants in cm-1:             0.058020             0.040851             0.038800
Rotational constants in MHz :          1739.389598          1224.689610          1163.188930

                             ****ORCA TERMINATED NORMALLY****
TOTAL RUN TIME: 0 days 0 hours 0 minutes 11 seconds 813 msec
