                         Program Version 6.0.0  -   RELEASE  -
|  1> ! pbe def2-sv(p) def2/J RI DEFGRID1 loosescf d4 GCP(DFT/SV(P)) printgap
|  2> %output
|  3>     printlevel normal
|  4> end
|  5> * xyz 0 1
|  6> C 3.7138128693 0.0271163779 2.2229744609
|  7> C 4.1544718463 -0.7131934088 0.9775974363
|  8> O 3.6356739582 -0.1250338009 -0.2382507663
|  9> P 2.1056883307 0.0454839185 -0.6252205168
| 10> S 1.9275042296 0.2482329352 -2.5609479645
| 11> O 1.5194821594 1.2447762219 0.2576139224
| 12> C 1.5207151886 2.59923288 -0.2155297888
| 13> C 2.9170691015 3.185092619 -0.2242249452
| 14> S 1.1891684476 -1.6178242192 0.2777738137
| 15> C -0.1714365155 -1.9386526286 -0.8954829196
| 16> S -1.7759564898 -1.9750887477 -0.0801225785
| 17> P -1.9826885183 0.1257708908 0.2041804463
| 18> S -1.4202889935 1.2350510367 -1.3125025137
| 19> O -1.1603558447 0.5411274519 1.479954954
| 20> C -1.0300576431 -0.186519599 2.7294306622
| 21> C -2.3516555208 -0.6206940677 3.3242689197
| 22> O -3.483967608 0.2949419231 0.6853494902
| 23> C -4.6339258793 -0.3064022428 0.0630750565
| 24> C -4.7480096911 0.023141023 -1.4104476932
| 25> H 2.6291786506 0.0006573148 2.3104321907
| 26> H 4.1512251122 -0.4530309016 3.0926392123
| 27> H 4.0394027132 1.0632901724 2.1841385693
| 28> H 3.8363181933 -1.7582582204 1.0142655418
| 29> H 5.2353013081 -0.6608051912 0.8372779852
| 30> H 1.0831740832 2.6201267927 -1.2196923932
| 31> H 0.8555667122 3.122632421 0.4734836993
| 32> H 3.3443424148 3.1617129095 0.7746555998
| 33> H 3.5503827762 2.6072856606 -0.8976762941
| 34> H 2.8726661348 4.2117263943 -0.573814853
| 35> H -0.0197650162 -2.9256539995 -1.3248026102
| 36> H -0.1581336955 -1.1641528936 -1.6685490302
| 37> H -0.3823871863 -1.0493883594 2.5481045306
| 38> H -0.5168479273 0.5291849847 3.373849261
| 39> H -3.0253945302 0.2277900817 3.4099648604
| 40> H -2.8174827716 -1.3843674184 2.7051540365
| 41> H -2.1677868215 -1.0339745565 4.3113889831
| 42> H -4.5758243872 -1.3880960882 0.212353438
| 43> H -5.4734490175 0.1028178026 0.6277000796
| 44> H -4.7402217213 1.1002187854 -1.5609442182
| 45> H -3.9095421567 -0.4034415564 -1.9593372624
| 46> H -5.6725787421 -0.3884894305 -1.8021277102
| 47> *
| 48>
| 49>                          ****END OF INPUT****

CARTESIAN COORDINATES (ANGSTROEM)
---------------------------------
  C      3.713813    0.027116    2.222974
  C      4.154472   -0.713193    0.977597
  O      3.635674   -0.125034   -0.238251
  P      2.105688    0.045484   -0.625221
  S      1.927504    0.248233   -2.560948
  O      1.519482    1.244776    0.257614
  C      1.520715    2.599233   -0.215530
  C      2.917069    3.185093   -0.224225
  S      1.189168   -1.617824    0.277774
  C     -0.171437   -1.938653   -0.895483
  S     -1.775956   -1.975089   -0.080123
  P     -1.982689    0.125771    0.204180
  S     -1.420289    1.235051   -1.312503
  O     -1.160356    0.541127    1.479955
  C     -1.030058   -0.186520    2.729431
  C     -2.351656   -0.620694    3.324269
  O     -3.483968    0.294942    0.685349
  C     -4.633926   -0.306402    0.063075
  C     -4.748010    0.023141   -1.410448
  H      2.629179    0.000657    2.310432
  H      4.151225   -0.453031    3.092639
  H      4.039403    1.063290    2.184139
  H      3.836318   -1.758258    1.014266
  H      5.235301   -0.660805    0.837278
  H      1.083174    2.620127   -1.219692
  H      0.855567    3.122632    0.473484
  H      3.344342    3.161713    0.774656
  H      3.550383    2.607286   -0.897676
  H      2.872666    4.211726   -0.573815
  H     -0.019765   -2.925654   -1.324803
  H     -0.158134   -1.164153   -1.668549
  H     -0.382387   -1.049388    2.548105
  H     -0.516848    0.529185    3.373849
  H     -3.025395    0.227790    3.409965
  H     -2.817483   -1.384367    2.705154
  H     -2.167787   -1.033975    4.311389
  H     -4.575824   -1.388096    0.212353
  H     -5.473449    0.102818    0.627700
  H     -4.740222    1.100219   -1.560944
  H     -3.909542   -0.403442   -1.959337
  H     -5.672579   -0.388489   -1.802128

 Total Charge           Charge          ....    0
 Multiplicity           Mult            ....    1
 Number of Electrons    NEL             ....  202
 Basis Dimension        Dim             ....  334

ORBITAL ENERGIES
----------------

  NO   OCC          E(Eh)            E(eV)
   0   2.0000     -88.049672     -2395.9534
   1   2.0000     -88.044061     -2395.8007
   2   2.0000     -87.976383     -2393.9591
   3   2.0000     -87.975554     -2393.9365
   4   2.0000     -76.425280     -2079.6376
   5   2.0000     -76.418910     -2079.4643
   6   2.0000     -18.794167      -511.4153
   7   2.0000     -18.788818      -511.2697
   8   2.0000     -18.787562      -511.2356
   9   2.0000     -18.777090      -510.9506
  10   2.0000      -9.960512      -271.0393
  11   2.0000      -9.958174      -270.9757
  12   2.0000      -9.958058      -270.9725
  13   2.0000      -9.954279      -270.8697
  14   2.0000      -9.934490      -270.3312
  15   2.0000      -9.891382      -269.1582
  16   2.0000      -9.889504      -269.1071
  17   2.0000      -9.882669      -268.9211
  18   2.0000      -9.875160      -268.7168
  19   2.0000      -7.694582      -209.3802
  20   2.0000      -7.689164      -209.2328
  21   2.0000      -7.621277      -207.3855
  22   2.0000      -7.620795      -207.3724
  23   2.0000      -6.422287      -174.7593
  24   2.0000      -6.416724      -174.6079
  25   2.0000      -5.722296      -155.7116
  26   2.0000      -5.718900      -155.6192
  27   2.0000      -5.716990      -155.5672
  28   2.0000      -5.713642      -155.4761
  29   2.0000      -5.711955      -155.4302
  30   2.0000      -5.706140      -155.2720
  31   2.0000      -5.650388      -153.7549
  32   2.0000      -5.649974      -153.7436
  33   2.0000      -5.641885      -153.5235
  34   2.0000      -5.641750      -153.5198
  35   2.0000      -5.641233      -153.5058
  36   2.0000      -5.640303      -153.4804
  37   2.0000      -4.645024      -126.3975
  38   2.0000      -4.644591      -126.3857
  39   2.0000      -4.642139      -126.3190
  40   2.0000      -4.639483      -126.2468
  41   2.0000      -4.638284      -126.2141
  42   2.0000      -4.637206      -126.1848
  43   2.0000      -0.986615       -26.8472
  44   2.0000      -0.976038       -26.5593
  45   2.0000      -0.944161       -25.6919
  46   2.0000      -0.935876       -25.4665
  47   2.0000      -0.765771       -20.8377
  48   2.0000      -0.720620       -19.6091
  49   2.0000      -0.711031       -19.3481
  50   2.0000      -0.692141       -18.8341
  51   2.0000      -0.689499       -18.7622
  52   2.0000      -0.672863       -18.3095
  53   2.0000      -0.648744       -17.6532
  54   2.0000      -0.633266       -17.2321
  55   2.0000      -0.593965       -16.1626
  56   2.0000      -0.588122       -16.0036
  57   2.0000      -0.579325       -15.7642
  58   2.0000      -0.575227       -15.6527
  59   2.0000      -0.562084       -15.2951
  60   2.0000      -0.497779       -13.5453
  61   2.0000      -0.488121       -13.2824
  62   2.0000      -0.472299       -12.8519
  63   2.0000      -0.467632       -12.7249
  64   2.0000      -0.454420       -12.3654
  65   2.0000      -0.451852       -12.2955
  66   2.0000      -0.439449       -11.9580
  67   2.0000      -0.437591       -11.9075
  68   2.0000      -0.424371       -11.5477
  69   2.0000      -0.413514       -11.2523
  70   2.0000      -0.409493       -11.1429
  71   2.0000      -0.405476       -11.0336
  72   2.0000      -0.401873       -10.9355
  73   2.0000      -0.392209       -10.6726
  74   2.0000      -0.380696       -10.3593
  75   2.0000      -0.364042        -9.9061
  76   2.0000      -0.361786        -9.8447
  77   2.0000      -0.354011        -9.6331
  78   2.0000      -0.353661        -9.6236
  79   2.0000      -0.349743        -9.5170
  80   2.0000      -0.348048        -9.4709
  81   2.0000      -0.344628        -9.3778
  82   2.0000      -0.341852        -9.3023
  83   2.0000      -0.338691        -9.2163
  84   2.0000      -0.333346        -9.0708
  85   2.0000      -0.320122        -8.7110
  86   2.0000      -0.307950        -8.3798
  87   2.0000      -0.301643        -8.2081
  88   2.0000      -0.295920        -8.0524
  89   2.0000      -0.286149        -7.7865
  90   2.0000      -0.277664        -7.5556
  91   2.0000      -0.270915        -7.3720
  92   2.0000      -0.264938        -7.2093
  93   2.0000      -0.262146        -7.1334
  94   2.0000      -0.255027        -6.9396
  95   2.0000      -0.239428        -6.5152
  96   2.0000      -0.221712        -6.0331
  97   2.0000      -0.206914        -5.6304
  98   2.0000      -0.195710        -5.3255
  99   2.0000      -0.190890        -5.1944
 100   2.0000      -0.179173        -4.8755
 101   0.0000      -0.044117        -1.2005
 102   0.0000      -0.030667        -0.8345
 103   0.0000      -0.015064        -0.4099
 104   0.0000       0.008600         0.2340
 105   0.0000       0.023825         0.6483

MULLIKEN ATOMIC CHARGES
-----------------------
   0 C :   -0.327662
   1 C :   -0.016767
   2 O :   -0.374944
   3 P :    0.620747
   4 S :   -0.303202
   5 O :   -0.370552
   6 C :   -0.009183
   7 C :   -0.311283
   8 S :   -0.131090
   9 C :   -0.333073
  10 S :   -0.126782
  11 P :    0.590970
  12 S :   -0.294968
  13 O :   -0.348340
  14 C :   -0.007354
  15 C :   -0.306122
  16 O :   -0.372682
  17 C :   -0.014716
  18 C :   -0.305658
  19 H :    0.134805
  20 H :    0.112453
  21 H :    0.127540
  22 H :    0.117571
  23 H :    0.113959
  24 H :    0.125450
  25 H :    0.101021
  26 H :    0.110984
  27 H :    0.126382
  28 H :    0.109296
  29 H :    0.186190
  30 H :    0.215042
  31 H :    0.117084
  32 H :    0.108779
  33 H :    0.123473
  34 H :    0.113954
  35 H :    0.112290
  36 H :    0.110873
  37 H :    0.109799
  38 H :    0.128042
  39 H :    0.127473
  40 H :    0.110200
Sum of atomic charges:   -0.0000000

LOEWDIN ATOMIC CHARGES
----------------------
   0 C :   -0.368430
   1 C :   -0.117887
   2 O :   -0.245881
   3 P :    0.570910
   4 S :   -0.302136
   5 O :   -0.242810
   6 C :   -0.125769
   7 C :   -0.366529
   8 S :    0.078402
   9 C :   -0.473068
  10 S :    0.062649
  11 P :    0.565075
  12 S :   -0.286578
  13 O :   -0.228822
  14 C :   -0.114647
  15 C :   -0.367694
  16 O :   -0.241342
  17 C :   -0.114652
  18 C :   -0.368957
  19 H :    0.122090
  20 H :    0.131001
  21 H :    0.127875
  22 H :    0.108323
  23 H :    0.124007
  24 H :    0.108238
  25 H :    0.117014
  26 H :    0.118287
  27 H :    0.124091
  28 H :    0.129701
  29 H :    0.138740
  30 H :    0.128545
  31 H :    0.102223
  32 H :    0.121474
  33 H :    0.128315
  34 H :    0.116243
  35 H :    0.130917
  36 H :    0.106379
  37 H :    0.121597
  38 H :    0.131338
  39 H :    0.122197
  40 H :    0.129573

  Mayer bond orders larger than 0.100000
B(  0-C ,  1-C ) :   1.1620 B(  0-C , 19-H ) :   0.9354 B(  0-C , 20-H ) :   0.9353
B(  0-C , 21-H ) :   0.9404 B(  1-C ,  2-O ) :   0.9128 B(  1-C , 22-H ) :   0.9184
B(  1-C , 23-H ) :   0.9346 B(  2-O ,  3-P ) :   1.1027 B(  3-P ,  4-S ) :   1.6397
B(  3-P ,  5-O ) :   1.0947 B(  3-P ,  8-S ) :   0.9508 B(  4-S ,  8-S ) :   0.1048
B(  5-O ,  6-C ) :   0.9053 B(  6-C ,  7-C ) :   1.1538 B(  6-C , 24-H ) :   0.9077
B(  6-C , 25-H ) :   0.9346 B(  7-C , 26-H ) :   0.9412 B(  7-C , 27-H ) :   0.9356
B(  7-C , 28-H ) :   0.9396 B(  8-S ,  9-C ) :   0.9944 B(  9-C , 10-S ) :   1.0129
B(  9-C , 29-H ) :   0.9105 B(  9-C , 30-H ) :   0.8400 B( 10-S , 11-P ) :   0.9182
B( 10-S , 12-S ) :   0.1059 B( 11-P , 12-S ) :   1.6507 B( 11-P , 13-O ) :   1.1494
B( 11-P , 16-O ) :   1.0916 B( 13-O , 14-C ) :   0.9015 B( 14-C , 15-C ) :   1.1671
B( 14-C , 31-H ) :   0.9098 B( 14-C , 32-H ) :   0.9354 B( 15-C , 33-H ) :   0.9420
B( 15-C , 34-H ) :   0.9398 B( 15-C , 35-H ) :   0.9356 B( 16-O , 17-C ) :   0.9130
B( 17-C , 18-C ) :   1.1670 B( 17-C , 36-H ) :   0.9257 B( 17-C , 37-H ) :   0.9336
B( 18-C , 38-H ) :   0.9425 B( 18-C , 39-H ) :   0.9325 B( 18-C , 40-H ) :   0.9347

Dispersion correction           -0.069071946
FINAL SINGLE POINT ENERGY     -2929.509646338042

DIPOLE MOMENT
-------------

Method             : SCF
Type of density    : Electron Density
Multiplicity       :   1
Irrep              :   0
Energy             : -2929.6279475210312739 Eh
Relativity type    :
Basis              : AO
                                X                 Y                 Z
Electronic contribution:      1.398521381      -6.343274878     -14.330933997
Nuclear contribution   :     -1.846772769       5.695313258      16.340478037
                        -----------------------------------------
Total Dipole Moment    :     -0.448251388      -0.647961619       2.009544040
                        -----------------------------------------
Magnitude (a.u.)       :      2.158483452
Magnitude (Debye)      :      5.486428923

Rotational constants in cm-1:             0.012529             0.005591             0.005198
Rotational constants in MHz :           375.620021           167.606114           155.817637

                             ****ORCA TERMINATED NORMALLY****
TOTAL RUN TIME: 0 days 0 hours 0 minutes 22 seconds 146 msec
