                         Program Version 6.0.0  -   RELEASE  -
|  1> ! pbe def2-sv(p) def2/J RI DEFGRID1 loosescf d4 GCP(DFT/SV(P)) printgap
|  2> %output
|  3>     printlevel normal
|  4> end
|  5> * xyz 0 1
|  6> C 5.6312952954 1.0710476523 -1.2842146796
|  7> C 4.3807167058 1.406656611 -0.4970660354
|  8> O 3.3555722039 0.4569431342 -0.8561242189
|  9> P 2.1623212183 0.081876627 0.1253988119
| 10> S 2.7278566152 -0.2444745257 1.9772106921
| 11> O 1.491079623 -1.1224344607 -0.6459246813
| 12> C 1.9336235371 -2.4904253593 -0.4991696009
| 13> C 0.9348828259 -3.2724956929 0.3304722072
| 14> S 0.7552076369 1.6032275444 -0.1965566542
| 15> C -0.2241367575 1.3222522765 1.3117199594
| 16> S -0.9548935328 -0.3300733598 1.4042916899
| 17> P -2.1328269651 -0.3277142856 -0.367042072
| 18> S -1.3603069003 -0.609337146 -2.1411270807
| 19> O -2.9443119937 1.0385394071 -0.2086159886
| 20> C -3.1243962416 2.017333321 -1.2494875833
| 21> C -2.4164369221 3.3110823432 -0.8984575423
| 22> O -3.1390747412 -1.513545412 -0.0754709551
| 23> C -3.7706250799 -1.84431243 1.1841277914
| 24> C -4.6518007001 -0.7293584048 1.7053914782
| 25> H 5.4156127444 1.0939677743 -2.34861377
| 26> H 6.4007958084 1.8011150494 -1.0558493321
| 27> H 5.9876341488 0.0795004831 -1.0188995445
| 28> H 4.0119079894 2.4060108757 -0.7410464001
| 29> H 4.5563622635 1.3391018225 0.5821311098
| 30> H 1.9968846687 -2.8757326927 -1.518153474
| 31> H 2.9240592219 -2.5013254423 -0.0352407325
| 32> H -0.056295441 -3.1892961146 -0.1115529898
| 33> H 1.2294717484 -4.3164740475 0.3567291746
| 34> H 0.9007247073 -2.8821307879 1.3458756017
| 35> H -1.0055068317 2.0777532171 1.3254305944
| 36> H 0.4247989555 1.4036988153 2.1838933526
| 37> H -2.7491043323 1.6060634036 -2.1924908517
| 38> H -4.2034857022 2.1662073285 -1.321451141
| 39> H -2.7477761478 3.6705690421 0.0719080241
| 40> H -1.3375330497 3.1643887267 -0.8822084238
| 41> H -2.6551848979 4.0548812966 -1.6517080618
| 42> H -4.3507892604 -2.736701773 0.9429623355
| 43> H -2.9895396381 -2.0961215277 1.905659471
| 44> H -5.3847042589 -0.4468513388 0.954180081
| 45> H -5.1671574111 -1.0743297087 2.5964442581
| 46> H -4.050011258 0.1405109232 1.9573206154
| 47> *
| 48>
| 49>                          ****END OF INPUT****

CARTESIAN COORDINATES (ANGSTROEM)
---------------------------------
  C      5.631295    1.071048   -1.284215
  C      4.380717    1.406657   -0.497066
  O      3.355572    0.456943   -0.856124
  P      2.162321    0.081877    0.125399
  S      2.727857   -0.244475    1.977211
  O      1.491080   -1.122434   -0.645925
  C      1.933624   -2.490425   -0.499170
  C      0.934883   -3.272496    0.330472
  S      0.755208    1.603228   -0.196557
  C     -0.224137    1.322252    1.311720
  S     -0.954894   -0.330073    1.404292
  P     -2.132827   -0.327714   -0.367042
  S     -1.360307   -0.609337   -2.141127
  O     -2.944312    1.038539   -0.208616
  C     -3.124396    2.017333   -1.249488
  C     -2.416437    3.311082   -0.898458
  O     -3.139075   -1.513545   -0.075471
  C     -3.770625   -1.844312    1.184128
  C     -4.651801   -0.729358    1.705391
  H      5.415613    1.093968   -2.348614
  H      6.400796    1.801115   -1.055849
  H      5.987634    0.079500   -1.018900
  H      4.011908    2.406011   -0.741046
  H      4.556362    1.339102    0.582131
  H      1.996885   -2.875733   -1.518153
  H      2.924059   -2.501325   -0.035241
  H     -0.056295   -3.189296   -0.111553
  H      1.229472   -4.316474    0.356729
  H      0.900725   -2.882131    1.345876
  H     -1.005507    2.077753    1.325431
  H      0.424799    1.403699    2.183893
  H     -2.749104    1.606063   -2.192491
  H     -4.203486    2.166207   -1.321451
  H     -2.747776    3.670569    0.071908
  H     -1.337533    3.164389   -0.882208
  H     -2.655185    4.054881   -1.651708
  H     -4.350789   -2.736702    0.942962
  H     -2.989540   -2.096122    1.905659
  H     -5.384704   -0.446851    0.954180
  H     -5.167157   -1.074330    2.596444
  H     -4.050011    0.140511    1.957321

 Total Charge           Charge          ....    0
 Multiplicity           Mult            ....    1
 Number of Electrons    NEL             ....  202
 Basis Dimension        Dim             ....  334

ORBITAL ENERGIES
----------------

  NO   OCC          E(Eh)            E(eV)
   0   2.0000     -88.043653     -2395.7896
   1   2.0000     -88.043392     -2395.7825
   2   2.0000     -87.985122     -2394.1969
   3   2.0000     -87.974591     -2393.9103
   4   2.0000     -76.423414     -2079.5868
   5   2.0000     -76.422964     -2079.5746
   6   2.0000     -18.792835      -511.3790
   7   2.0000     -18.789415      -511.2860
   8   2.0000     -18.789345      -511.2841
   9   2.0000     -18.780770      -511.0507
  10   2.0000      -9.960753      -271.0459
  11   2.0000      -9.957004      -270.9439
  12   2.0000      -9.951087      -270.7828
  13   2.0000      -9.950070      -270.7552
  14   2.0000      -9.944561      -270.6053
  15   2.0000      -9.889873      -269.1171
  16   2.0000      -9.887545      -269.0538
  17   2.0000      -9.886191      -269.0169
  18   2.0000      -9.871612      -268.6202
  19   2.0000      -7.688761      -209.2218
  20   2.0000      -7.687972      -209.2003
  21   2.0000      -7.630146      -207.6268
  22   2.0000      -7.619984      -207.3503
  23   2.0000      -6.421053      -174.7257
  24   2.0000      -6.420066      -174.6989
  25   2.0000      -5.716642      -155.5577
  26   2.0000      -5.715972      -155.5395
  27   2.0000      -5.713374      -155.4688
  28   2.0000      -5.712341      -155.4407
  29   2.0000      -5.705579      -155.2567
  30   2.0000      -5.704979      -155.2404
  31   2.0000      -5.658909      -153.9867
  32   2.0000      -5.650953      -153.7702
  33   2.0000      -5.650291      -153.7522
  34   2.0000      -5.649086      -153.7194
  35   2.0000      -5.640333      -153.4813
  36   2.0000      -5.640150      -153.4763
  37   2.0000      -4.643473      -126.3553
  38   2.0000      -4.643123      -126.3458
  39   2.0000      -4.642791      -126.3368
  40   2.0000      -4.641797      -126.3097
  41   2.0000      -4.641678      -126.3065
  42   2.0000      -4.640172      -126.2655
  43   2.0000      -0.981741       -26.7145
  44   2.0000      -0.980962       -26.6933
  45   2.0000      -0.944432       -25.6993
  46   2.0000      -0.938775       -25.5454
  47   2.0000      -0.766146       -20.8479
  48   2.0000      -0.721340       -19.6287
  49   2.0000      -0.709660       -19.3108
  50   2.0000      -0.693929       -18.8828
  51   2.0000      -0.682525       -18.5725
  52   2.0000      -0.669920       -18.2294
  53   2.0000      -0.646147       -17.5825
  54   2.0000      -0.637462       -17.3462
  55   2.0000      -0.593507       -16.1501
  56   2.0000      -0.588787       -16.0217
  57   2.0000      -0.576746       -15.6941
  58   2.0000      -0.568809       -15.4781
  59   2.0000      -0.558029       -15.1847
  60   2.0000      -0.504731       -13.7344
  61   2.0000      -0.497359       -13.5338
  62   2.0000      -0.479236       -13.0407
  63   2.0000      -0.471090       -12.8190
  64   2.0000      -0.459119       -12.4933
  65   2.0000      -0.444720       -12.1014
  66   2.0000      -0.438181       -11.9235
  67   2.0000      -0.433530       -11.7970
  68   2.0000      -0.426675       -11.6104
  69   2.0000      -0.413308       -11.2467
  70   2.0000      -0.403291       -10.9741
  71   2.0000      -0.398576       -10.8458
  72   2.0000      -0.387310       -10.5392
  73   2.0000      -0.385543       -10.4912
  74   2.0000      -0.376450       -10.2437
  75   2.0000      -0.375466       -10.2170
  76   2.0000      -0.371862       -10.1189
  77   2.0000      -0.357448        -9.7267
  78   2.0000      -0.352756        -9.5990
  79   2.0000      -0.351285        -9.5590
  80   2.0000      -0.346310        -9.4236
  81   2.0000      -0.342392        -9.3170
  82   2.0000      -0.341904        -9.3037
  83   2.0000      -0.334716        -9.1081
  84   2.0000      -0.333022        -9.0620
  85   2.0000      -0.319174        -8.6852
  86   2.0000      -0.304130        -8.2758
  87   2.0000      -0.301702        -8.2097
  88   2.0000      -0.296903        -8.0791
  89   2.0000      -0.283077        -7.7029
  90   2.0000      -0.282475        -7.6865
  91   2.0000      -0.273747        -7.4490
  92   2.0000      -0.269439        -7.3318
  93   2.0000      -0.262245        -7.1360
  94   2.0000      -0.259337        -7.0569
  95   2.0000      -0.236868        -6.4455
  96   2.0000      -0.218442        -5.9441
  97   2.0000      -0.206187        -5.6106
  98   2.0000      -0.201019        -5.4700
  99   2.0000      -0.190875        -5.1940
 100   2.0000      -0.186025        -5.0620
 101   0.0000      -0.049403        -1.3443
 102   0.0000      -0.025283        -0.6880
 103   0.0000      -0.010052        -0.2735
 104   0.0000       0.003228         0.0878
 105   0.0000       0.019519         0.5311

MULLIKEN ATOMIC CHARGES
-----------------------
   0 C :   -0.281736
   1 C :   -0.009529
   2 O :   -0.375139
   3 P :    0.631093
   4 S :   -0.347180
   5 O :   -0.346075
   6 C :    0.005108
   7 C :   -0.298269
   8 S :   -0.094992
   9 C :   -0.357669
  10 S :   -0.103302
  11 P :    0.619040
  12 S :   -0.292782
  13 O :   -0.391417
  14 C :   -0.006135
  15 C :   -0.317471
  16 O :   -0.366514
  17 C :   -0.019263
  18 C :   -0.302724
  19 H :    0.118476
  20 H :    0.110981
  21 H :    0.117765
  22 H :    0.100161
  23 H :    0.104826
  24 H :    0.108808
  25 H :    0.098484
  26 H :    0.121623
  27 H :    0.102618
  28 H :    0.123654
  29 H :    0.186407
  30 H :    0.194254
  31 H :    0.116589
  32 H :    0.101326
  33 H :    0.117123
  34 H :    0.133547
  35 H :    0.115377
  36 H :    0.111802
  37 H :    0.119925
  38 H :    0.116550
  39 H :    0.112167
  40 H :    0.122491
Sum of atomic charges:   -0.0000000

LOEWDIN ATOMIC CHARGES
----------------------
   0 C :   -0.350737
   1 C :   -0.120812
   2 O :   -0.249033
   3 P :    0.569257
   4 S :   -0.333808
   5 O :   -0.228670
   6 C :   -0.108548
   7 C :   -0.362679
   8 S :    0.092335
   9 C :   -0.475292
  10 S :    0.092264
  11 P :    0.561046
  12 S :   -0.296031
  13 O :   -0.255358
  14 C :   -0.120411
  15 C :   -0.361987
  16 O :   -0.242650
  17 C :   -0.116325
  18 C :   -0.365943
  19 H :    0.127605
  20 H :    0.130355
  21 H :    0.127727
  22 H :    0.110469
  23 H :    0.106309
  24 H :    0.120435
  25 H :    0.106354
  26 H :    0.123614
  27 H :    0.125516
  28 H :    0.122315
  29 H :    0.130537
  30 H :    0.133299
  31 H :    0.109149
  32 H :    0.115618
  33 H :    0.123059
  34 H :    0.116604
  35 H :    0.133791
  36 H :    0.122855
  37 H :    0.109088
  38 H :    0.126928
  39 H :    0.130581
  40 H :    0.121176

  Mayer bond orders larger than 0.100000
B(  0-C ,  1-C ) :   1.1619 B(  0-C , 19-H ) :   0.9505 B(  0-C , 20-H ) :   0.9419
B(  0-C , 21-H ) :   0.9511 B(  1-C ,  2-O ) :   0.9060 B(  1-C , 22-H ) :   0.9310
B(  1-C , 23-H ) :   0.9051 B(  2-O ,  3-P ) :   1.1132 B(  3-P ,  4-S ) :   1.5885
B(  3-P ,  5-O ) :   1.1603 B(  3-P ,  8-S ) :   0.9602 B(  4-S ,  8-S ) :   0.1071
B(  5-O ,  6-C ) :   0.8901 B(  6-C ,  7-C ) :   1.1734 B(  6-C , 24-H ) :   0.9320
B(  6-C , 25-H ) :   0.9139 B(  7-C , 26-H ) :   0.9413 B(  7-C , 27-H ) :   0.9397
B(  7-C , 28-H ) :   0.9398 B(  8-S ,  9-C ) :   1.0090 B(  9-C , 10-S ) :   1.0076
B(  9-C , 29-H ) :   0.8964 B(  9-C , 30-H ) :   0.8858 B( 10-S , 11-P ) :   0.9404
B( 10-S , 12-S ) :   0.1051 B( 11-P , 12-S ) :   1.6644 B( 11-P , 13-O ) :   1.0598
B( 11-P , 16-O ) :   1.1274 B( 13-O , 14-C ) :   0.9083 B( 14-C , 15-C ) :   1.1678
B( 14-C , 31-H ) :   0.8951 B( 14-C , 32-H ) :   0.9329 B( 15-C , 33-H ) :   0.9426
B( 15-C , 34-H ) :   0.9311 B( 15-C , 35-H ) :   0.9371 B( 16-O , 17-C ) :   0.9066
B( 17-C , 18-C ) :   1.1674 B( 17-C , 36-H ) :   0.9338 B( 17-C , 37-H ) :   0.9215
B( 18-C , 38-H ) :   0.9459 B( 18-C , 39-H ) :   0.9369 B( 18-C , 40-H ) :   0.9356

Dispersion correction           -0.066512405
FINAL SINGLE POINT ENERGY     -2929.516898094964

DIPOLE MOMENT
-------------

Method             : SCF
Type of density    : Electron Density
Multiplicity       :   1
Irrep              :   0
Energy             : -2929.6343724328557983 Eh
Relativity type    :
Basis              : AO
                                X                 Y                 Z
Electronic contribution:      2.226484056      -2.219302725      -1.046055611
Nuclear contribution   :     -2.751173500       2.897070425       1.421382020
                        -----------------------------------------
Total Dipole Moment    :     -0.524689444       0.677767700       0.375326409
                        -----------------------------------------
Magnitude (a.u.)       :      0.935701865
Magnitude (Debye)      :      2.378365130

Rotational constants in cm-1:             0.012684             0.005230             0.004705
Rotational constants in MHz :           380.262003           156.803647           141.039786

                             ****ORCA TERMINATED NORMALLY****
TOTAL RUN TIME: 0 days 0 hours 0 minutes 21 seconds 303 msec
