                         Program Version 6.0.0  -   RELEASE  -
|  1> ! pbe def2-sv(p) def2/J RI DEFGRID1 loosescf d4 GCP(DFT/SV(P)) printgap
|  2> %output
|  3>     printlevel normal
|  4> end
|  5> * xyz 0 1
|  6> C 5.2857410095 -1.2616573376 -1.2357346577
|  7> C 3.8714640898 -1.6104064384 -1.6582986318
|  8> O 2.9854011267 -1.6450650951 -0.5222667967
|  9> P 2.1584396415 -0.3789530687 -0.0374764253
| 10> S 3.1554982277 1.2643982277 0.370103769
| 11> O 1.3369100872 -0.9949743259 1.1641307343
| 12> C 1.7630733109 -0.8393162398 2.5345513788
| 13> C 3.0257048165 -1.6267454844 2.8108707678
| 14> S 0.6760149365 -0.1903752263 -1.5405298415
| 15> C 0.0935456595 1.4467121559 -1.0280321282
| 16> S -0.8252355197 1.4041095573 0.5257230603
| 17> P -2.5463683916 0.4150285507 -0.2688980682
| 18> S -3.0319528677 0.9076348749 -2.0975326067
| 19> O -3.6202093585 0.6005763113 0.8878779682
| 20> C -3.9733999919 1.8507286597 1.5108566761
| 21> C -4.383144626 2.9105549982 0.5103565084
| 22> O -2.2821419914 -1.1357543782 -0.1943101137
| 23> C -1.9855215889 -1.8408220081 1.0373674085
| 24> C -1.2427056382 -3.1106713037 0.6780359397
| 25> H 5.936745946 -1.2973507561 -2.1032591446
| 26> H 5.3176410962 -0.2607161268 -0.8109523702
| 27> H 5.639153591 -1.9705848497 -0.4922297122
| 28> H 3.818442267 -2.6176129537 -2.0759044609
| 29> H 3.4910492031 -0.8934708731 -2.3918595226
| 30> H 1.9168887997 0.2263291924 2.7322479276
| 31> H 0.9184311078 -1.207020175 3.118346119
| 32> H 2.8853340047 -2.6701007503 2.5416778022
| 33> H 3.8466299524 -1.2191016157 2.2218678097
| 34> H 3.2758163763 -1.5526927668 3.8644722108
| 35> H -0.5596965877 1.8097458361 -1.8223657632
| 36> H 0.9483397917 2.106222876 -0.8746933883
| 37> H -4.8009075912 1.582003423 2.1697884959
| 38> H -3.1187006809 2.1880351461 2.10377805
| 39> H -4.721112558 3.7951943367 1.0403275275
| 40> H -3.5381987477 3.1771168636 -0.1230117929
| 41> H -5.1844339534 2.5426176098 -0.126077065
| 42> H -1.3812920664 -1.1900913705 1.6766535768
| 43> H -2.9356775853 -2.0534880842 1.5308243367
| 44> H -0.286209038 -2.8699073605 0.2200922529
| 45> H -1.0725596803 -3.6921272251 1.5784260923
| 46> H -1.8289935123 -3.6950290858 -0.0252789396
| 47> *
| 48>
| 49>                          ****END OF INPUT****

CARTESIAN COORDINATES (ANGSTROEM)
---------------------------------
  C      5.285741   -1.261657   -1.235735
  C      3.871464   -1.610406   -1.658299
  O      2.985401   -1.645065   -0.522267
  P      2.158440   -0.378953   -0.037476
  S      3.155498    1.264398    0.370104
  O      1.336910   -0.994974    1.164131
  C      1.763073   -0.839316    2.534551
  C      3.025705   -1.626745    2.810871
  S      0.676015   -0.190375   -1.540530
  C      0.093546    1.446712   -1.028032
  S     -0.825236    1.404110    0.525723
  P     -2.546368    0.415029   -0.268898
  S     -3.031953    0.907635   -2.097533
  O     -3.620209    0.600576    0.887878
  C     -3.973400    1.850729    1.510857
  C     -4.383145    2.910555    0.510357
  O     -2.282142   -1.135754   -0.194310
  C     -1.985522   -1.840822    1.037367
  C     -1.242706   -3.110671    0.678036
  H      5.936746   -1.297351   -2.103259
  H      5.317641   -0.260716   -0.810952
  H      5.639154   -1.970585   -0.492230
  H      3.818442   -2.617613   -2.075904
  H      3.491049   -0.893471   -2.391860
  H      1.916889    0.226329    2.732248
  H      0.918431   -1.207020    3.118346
  H      2.885334   -2.670101    2.541678
  H      3.846630   -1.219102    2.221868
  H      3.275816   -1.552693    3.864472
  H     -0.559697    1.809746   -1.822366
  H      0.948340    2.106223   -0.874693
  H     -4.800908    1.582003    2.169788
  H     -3.118701    2.188035    2.103778
  H     -4.721113    3.795194    1.040328
  H     -3.538199    3.177117   -0.123012
  H     -5.184434    2.542618   -0.126077
  H     -1.381292   -1.190091    1.676654
  H     -2.935678   -2.053488    1.530824
  H     -0.286209   -2.869907    0.220092
  H     -1.072560   -3.692127    1.578426
  H     -1.828994   -3.695029   -0.025279

 Total Charge           Charge          ....    0
 Multiplicity           Mult            ....    1
 Number of Electrons    NEL             ....  202
 Basis Dimension        Dim             ....  334

ORBITAL ENERGIES
----------------

  NO   OCC          E(Eh)            E(eV)
   0   2.0000     -88.043308     -2395.7802
   1   2.0000     -88.042916     -2395.7696
   2   2.0000     -87.993728     -2394.4311
   3   2.0000     -87.981402     -2394.0957
   4   2.0000     -76.431505     -2079.8070
   5   2.0000     -76.424523     -2079.6170
   6   2.0000     -18.799273      -511.5542
   7   2.0000     -18.797269      -511.4997
   8   2.0000     -18.795300      -511.4461
   9   2.0000     -18.786763      -511.2138
  10   2.0000      -9.959549      -271.0131
  11   2.0000      -9.959485      -271.0114
  12   2.0000      -9.957277      -270.9513
  13   2.0000      -9.951768      -270.8014
  14   2.0000      -9.950121      -270.7565
  15   2.0000      -9.888588      -269.0822
  16   2.0000      -9.885134      -268.9882
  17   2.0000      -9.883238      -268.9366
  18   2.0000      -9.880703      -268.8676
  19   2.0000      -7.688439      -209.2131
  20   2.0000      -7.687640      -209.1913
  21   2.0000      -7.638574      -207.8562
  22   2.0000      -7.626773      -207.5351
  23   2.0000      -6.429068      -174.9438
  24   2.0000      -6.421733      -174.7442
  25   2.0000      -5.716235      -155.5467
  26   2.0000      -5.715282      -155.5207
  27   2.0000      -5.713048      -155.4599
  28   2.0000      -5.712153      -155.4356
  29   2.0000      -5.705386      -155.2514
  30   2.0000      -5.704921      -155.2388
  31   2.0000      -5.667368      -154.2169
  32   2.0000      -5.659152      -153.9933
  33   2.0000      -5.658921      -153.9871
  34   2.0000      -5.655859      -153.9037
  35   2.0000      -5.647280      -153.6703
  36   2.0000      -5.646824      -153.6579
  37   2.0000      -4.651544      -126.5749
  38   2.0000      -4.650861      -126.5564
  39   2.0000      -4.649565      -126.5211
  40   2.0000      -4.644597      -126.3859
  41   2.0000      -4.643736      -126.3625
  42   2.0000      -4.641761      -126.3088
  43   2.0000      -0.993908       -27.0456
  44   2.0000      -0.987175       -26.8624
  45   2.0000      -0.952679       -25.9237
  46   2.0000      -0.942398       -25.6440
  47   2.0000      -0.765600       -20.8330
  48   2.0000      -0.723309       -19.6823
  49   2.0000      -0.711640       -19.3647
  50   2.0000      -0.691456       -18.8155
  51   2.0000      -0.688875       -18.7453
  52   2.0000      -0.676857       -18.4182
  53   2.0000      -0.652179       -17.7467
  54   2.0000      -0.639028       -17.3888
  55   2.0000      -0.602759       -16.4019
  56   2.0000      -0.589165       -16.0320
  57   2.0000      -0.574705       -15.6385
  58   2.0000      -0.568665       -15.4742
  59   2.0000      -0.564665       -15.3653
  60   2.0000      -0.509313       -13.8591
  61   2.0000      -0.500165       -13.6102
  62   2.0000      -0.481392       -13.0993
  63   2.0000      -0.473738       -12.8911
  64   2.0000      -0.460413       -12.5285
  65   2.0000      -0.449430       -12.2296
  66   2.0000      -0.443491       -12.0680
  67   2.0000      -0.435330       -11.8459
  68   2.0000      -0.428643       -11.6640
  69   2.0000      -0.416621       -11.3368
  70   2.0000      -0.409243       -11.1361
  71   2.0000      -0.403650       -10.9839
  72   2.0000      -0.395877       -10.7724
  73   2.0000      -0.390306       -10.6208
  74   2.0000      -0.383178       -10.4268
  75   2.0000      -0.376978       -10.2581
  76   2.0000      -0.362571        -9.8661
  77   2.0000      -0.357174        -9.7192
  78   2.0000      -0.351550        -9.5662
  79   2.0000      -0.350774        -9.5450
  80   2.0000      -0.347531        -9.4568
  81   2.0000      -0.345265        -9.3951
  82   2.0000      -0.341988        -9.3060
  83   2.0000      -0.338692        -9.2163
  84   2.0000      -0.336660        -9.1610
  85   2.0000      -0.323876        -8.8131
  86   2.0000      -0.313740        -8.5373
  87   2.0000      -0.302181        -8.2228
  88   2.0000      -0.297046        -8.0830
  89   2.0000      -0.293046        -7.9742
  90   2.0000      -0.292519        -7.9598
  91   2.0000      -0.280693        -7.6380
  92   2.0000      -0.274186        -7.4610
  93   2.0000      -0.269109        -7.3228
  94   2.0000      -0.256904        -6.9907
  95   2.0000      -0.236179        -6.4268
  96   2.0000      -0.221683        -6.0323
  97   2.0000      -0.213330        -5.8050
  98   2.0000      -0.206387        -5.6161
  99   2.0000      -0.199405        -5.4261
 100   2.0000      -0.196820        -5.3557
 101   0.0000      -0.045233        -1.2309
 102   0.0000      -0.024250        -0.6599
 103   0.0000      -0.005234        -0.1424
 104   0.0000      -0.002774        -0.0755
 105   0.0000       0.014558         0.3961

MULLIKEN ATOMIC CHARGES
-----------------------
   0 C :   -0.297171
   1 C :   -0.013429
   2 O :   -0.373778
   3 P :    0.611584
   4 S :   -0.332895
   5 O :   -0.360337
   6 C :   -0.008714
   7 C :   -0.306074
   8 S :   -0.057574
   9 C :   -0.374452
  10 S :   -0.108906
  11 P :    0.600702
  12 S :   -0.309412
  13 O :   -0.384353
  14 C :   -0.010341
  15 C :   -0.308286
  16 O :   -0.350446
  17 C :   -0.014379
  18 C :   -0.283594
  19 H :    0.110399
  20 H :    0.131288
  21 H :    0.114585
  22 H :    0.110896
  23 H :    0.106558
  24 H :    0.115363
  25 H :    0.105146
  26 H :    0.117075
  27 H :    0.126394
  28 H :    0.113245
  29 H :    0.195896
  30 H :    0.193880
  31 H :    0.108525
  32 H :    0.112083
  33 H :    0.111193
  34 H :    0.125896
  35 H :    0.127601
  36 H :    0.106020
  37 H :    0.103819
  38 H :    0.128046
  39 H :    0.100240
  40 H :    0.117709
Sum of atomic charges:   -0.0000000

LOEWDIN ATOMIC CHARGES
----------------------
   0 C :   -0.364026
   1 C :   -0.115374
   2 O :   -0.243554
   3 P :    0.570784
   4 S :   -0.317850
   5 O :   -0.231929
   6 C :   -0.117606
   7 C :   -0.364969
   8 S :    0.097581
   9 C :   -0.488842
  10 S :    0.064154
  11 P :    0.568192
  12 S :   -0.305958
  13 O :   -0.247803
  14 C :   -0.114245
  15 C :   -0.368764
  16 O :   -0.232213
  17 C :   -0.114452
  18 C :   -0.353468
  19 H :    0.130195
  20 H :    0.124808
  21 H :    0.125437
  22 H :    0.120685
  23 H :    0.109009
  24 H :    0.111797
  25 H :    0.115237
  26 H :    0.126616
  27 H :    0.123277
  28 H :    0.131257
  29 H :    0.128818
  30 H :    0.127791
  31 H :    0.120903
  32 H :    0.107914
  33 H :    0.130056
  34 H :    0.121772
  35 H :    0.130906
  36 H :    0.102646
  37 H :    0.113002
  38 H :    0.124243
  39 H :    0.125603
  40 H :    0.128369

  Mayer bond orders larger than 0.100000
B(  0-C ,  1-C ) :   1.1678 B(  0-C , 19-H ) :   0.9392 B(  0-C , 20-H ) :   0.9318
B(  0-C , 21-H ) :   0.9464 B(  1-C ,  2-O ) :   0.9030 B(  1-C , 22-H ) :   0.9354
B(  1-C , 23-H ) :   0.9162 B(  2-O ,  3-P ) :   1.1090 B(  3-P ,  4-S ) :   1.5909
B(  3-P ,  5-O ) :   1.1136 B(  3-P ,  8-S ) :   0.9698 B(  4-S ,  8-S ) :   0.1108
B(  5-O ,  6-C ) :   0.9003 B(  6-C ,  7-C ) :   1.1660 B(  6-C , 24-H ) :   0.9147
B(  6-C , 25-H ) :   0.9296 B(  7-C , 26-H ) :   0.9463 B(  7-C , 27-H ) :   0.9330
B(  7-C , 28-H ) :   0.9383 B(  8-S ,  9-C ) :   1.0066 B(  9-C , 10-S ) :   1.0066
B(  9-C , 29-H ) :   0.8686 B(  9-C , 30-H ) :   0.8716 B( 10-S , 11-P ) :   0.9348
B( 10-S , 12-S ) :   0.1097 B( 11-P , 12-S ) :   1.6468 B( 11-P , 13-O ) :   1.0849
B( 11-P , 16-O ) :   1.1431 B( 13-O , 14-C ) :   0.9136 B( 14-C , 15-C ) :   1.1674
B( 14-C , 31-H ) :   0.9334 B( 14-C , 32-H ) :   0.9266 B( 15-C , 33-H ) :   0.9349
B( 15-C , 34-H ) :   0.9322 B( 15-C , 35-H ) :   0.9432 B( 16-O , 17-C ) :   0.8870
B( 17-C , 18-C ) :   1.1688 B( 17-C , 36-H ) :   0.9090 B( 17-C , 37-H ) :   0.9318
B( 18-C , 38-H ) :   0.9393 B( 18-C , 39-H ) :   0.9411 B( 18-C , 40-H ) :   0.9478

Dispersion correction           -0.065785305
FINAL SINGLE POINT ENERGY     -2929.523564768037

DIPOLE MOMENT
-------------

Method             : SCF
Type of density    : Electron Density
Multiplicity       :   1
Irrep              :   0
Energy             : -2929.6432225588723668 Eh
Relativity type    :
Basis              : AO
                                X                 Y                 Z
Electronic contribution:     -7.920968106       8.686400831     -12.028492084
Nuclear contribution   :      8.360985970      -9.335727836      13.463094637
                        -----------------------------------------
Total Dipole Moment    :      0.440017864      -0.649327005       1.434602554
                        -----------------------------------------
Magnitude (a.u.)       :      1.635030815
Magnitude (Debye)      :      4.155918056

Rotational constants in cm-1:             0.013647             0.004677             0.004513
Rotational constants in MHz :           409.137995           140.201856           135.288723

                             ****ORCA TERMINATED NORMALLY****
TOTAL RUN TIME: 0 days 0 hours 0 minutes 22 seconds 270 msec
