                         Program Version 6.0.0  -   RELEASE  -
|  1> ! pbe def2-sv(p) def2/J RI DEFGRID1 loosescf d4 GCP(DFT/SV(P)) printgap
|  2> %output
|  3>     printlevel normal
|  4> end
|  5> * xyz 0 1
|  6> C 5.3830556772 -0.6913274763 -1.3683498074
|  7> C 3.9879062135 -0.9748668106 -1.8836040776
|  8> O 3.0639061461 -1.2368623356 -0.8078734778
|  9> P 2.6047873415 -0.1007750371 0.2001832639
| 10> S 2.4488703476 1.7003849062 -0.5773914227
| 11> O 3.6668514913 -0.2198702445 1.3751972196
| 12> C 3.844609893 0.8171583535 2.3555902736
| 13> C 2.6108395647 0.9935081109 3.2166337372
| 14> S 0.9082016161 -1.0777521514 0.9905659612
| 15> C -0.0490510962 -1.2238899096 -0.5399456928
| 16> S -0.6957349 0.3697013241 -1.1602933421
| 17> P -2.7090669072 0.1488949904 -0.561710438
| 18> S -3.9048211081 1.6585809059 -0.9122686688
| 19> O -2.6763313492 -0.3505283198 0.9535957179
| 20> C -2.8169616829 0.5573748559 2.0571277262
| 21> C -1.5527351133 1.3577186475 2.2944668855
| 22> O -3.0334797467 -1.2041499321 -1.3293421429
| 23> C -4.3884731761 -1.5977280047 -1.6322348898
| 24> C -5.1670634468 -1.9582445702 -0.3846039383
| 25> H 5.7079575397 -1.4899357693 -0.7067368653
| 26> H 6.067845367 -0.6128341803 -2.2069518054
| 27> H 5.3888558794 0.2480110549 -0.8172054017
| 28> H 3.9556572468 -1.8845298213 -2.4850562748
| 29> H 3.6114185964 -0.1272890191 -2.4658887169
| 30> H 4.7037083402 0.4831902835 2.9385503632
| 31> H 4.0837009105 1.7495037471 1.8341112088
| 32> H 2.3125538864 0.0415280509 3.6488790667
| 33> H 2.8198075033 1.7034803177 4.010305151
| 34> H 1.7925443528 1.3774953034 2.6076050509
| 35> H -0.8836029335 -1.884984469 -0.3252303178
| 36> H 0.5879830418 -1.6335084888 -1.3192926576
| 37> H -3.6611780077 1.2241395653 1.8514191427
| 38> H -3.0467251979 -0.0881825573 2.9055875292
| 39> H -0.7143354767 0.6891023117 2.4737037965
| 40> H -1.3336854794 1.9761701784 1.4231383713
| 41> H -1.6902328108 2.0030027871 3.1560234847
| 42> H -4.875179294 -0.7754560342 -2.1659600458
| 43> H -4.267040548 -2.45309797 -2.2981603614
| 44> H -6.1406497956 -2.3446982563 -0.6694200213
| 45> H -4.6331901065 -2.7096384113 0.1910226147
| 46> H -5.3060054334 -1.0719219644 0.2327005312
| 47> *
| 48>
| 49>                          ****END OF INPUT****

CARTESIAN COORDINATES (ANGSTROEM)
---------------------------------
  C      5.383056   -0.691327   -1.368350
  C      3.987906   -0.974867   -1.883604
  O      3.063906   -1.236862   -0.807873
  P      2.604787   -0.100775    0.200183
  S      2.448870    1.700385   -0.577391
  O      3.666851   -0.219870    1.375197
  C      3.844610    0.817158    2.355590
  C      2.610840    0.993508    3.216634
  S      0.908202   -1.077752    0.990566
  C     -0.049051   -1.223890   -0.539946
  S     -0.695735    0.369701   -1.160293
  P     -2.709067    0.148895   -0.561710
  S     -3.904821    1.658581   -0.912269
  O     -2.676331   -0.350528    0.953596
  C     -2.816962    0.557375    2.057128
  C     -1.552735    1.357719    2.294467
  O     -3.033480   -1.204150   -1.329342
  C     -4.388473   -1.597728   -1.632235
  C     -5.167063   -1.958245   -0.384604
  H      5.707958   -1.489936   -0.706737
  H      6.067845   -0.612834   -2.206952
  H      5.388856    0.248011   -0.817205
  H      3.955657   -1.884530   -2.485056
  H      3.611419   -0.127289   -2.465889
  H      4.703708    0.483190    2.938550
  H      4.083701    1.749504    1.834111
  H      2.312554    0.041528    3.648879
  H      2.819808    1.703480    4.010305
  H      1.792544    1.377495    2.607605
  H     -0.883603   -1.884984   -0.325230
  H      0.587983   -1.633508   -1.319293
  H     -3.661178    1.224140    1.851419
  H     -3.046725   -0.088183    2.905588
  H     -0.714335    0.689102    2.473704
  H     -1.333685    1.976170    1.423138
  H     -1.690233    2.003003    3.156023
  H     -4.875179   -0.775456   -2.165960
  H     -4.267041   -2.453098   -2.298160
  H     -6.140650   -2.344698   -0.669420
  H     -4.633190   -2.709638    0.191023
  H     -5.306005   -1.071922    0.232701

 Total Charge           Charge          ....    0
 Multiplicity           Mult            ....    1
 Number of Electrons    NEL             ....  202
 Basis Dimension        Dim             ....  334

ORBITAL ENERGIES
----------------

  NO   OCC          E(Eh)            E(eV)
   0   2.0000     -88.045812     -2395.8483
   1   2.0000     -88.036247     -2395.5881
   2   2.0000     -87.991305     -2394.3651
   3   2.0000     -87.985696     -2394.2125
   4   2.0000     -76.430894     -2079.7904
   5   2.0000     -76.421879     -2079.5451
   6   2.0000     -18.799037      -511.5478
   7   2.0000     -18.796853      -511.4884
   8   2.0000     -18.790524      -511.3162
   9   2.0000     -18.788819      -511.2698
  10   2.0000      -9.958498      -270.9845
  11   2.0000      -9.957752      -270.9642
  12   2.0000      -9.955270      -270.8967
  13   2.0000      -9.951143      -270.7844
  14   2.0000      -9.947677      -270.6901
  15   2.0000      -9.889884      -269.1174
  16   2.0000      -9.887102      -269.0417
  17   2.0000      -9.884048      -268.9586
  18   2.0000      -9.875822      -268.7348
  19   2.0000      -7.691061      -209.2844
  20   2.0000      -7.681313      -209.0192
  21   2.0000      -7.636011      -207.7864
  22   2.0000      -7.630854      -207.6461
  23   2.0000      -6.428488      -174.9281
  24   2.0000      -6.419954      -174.6958
  25   2.0000      -5.718878      -155.6186
  26   2.0000      -5.715667      -155.5312
  27   2.0000      -5.709612      -155.3664
  28   2.0000      -5.707916      -155.3203
  29   2.0000      -5.705744      -155.2612
  30   2.0000      -5.697908      -155.0480
  31   2.0000      -5.664806      -154.1472
  32   2.0000      -5.659803      -154.0111
  33   2.0000      -5.656603      -153.9240
  34   2.0000      -5.656426      -153.9192
  35   2.0000      -5.651449      -153.7837
  36   2.0000      -5.651006      -153.7717
  37   2.0000      -4.651086      -126.5625
  38   2.0000      -4.650280      -126.5405
  39   2.0000      -4.648889      -126.5027
  40   2.0000      -4.642328      -126.3242
  41   2.0000      -4.641911      -126.3128
  42   2.0000      -4.640346      -126.2702
  43   2.0000      -0.992514       -27.0077
  44   2.0000      -0.984302       -26.7842
  45   2.0000      -0.952860       -25.9286
  46   2.0000      -0.943453       -25.6727
  47   2.0000      -0.763458       -20.7748
  48   2.0000      -0.723123       -19.6772
  49   2.0000      -0.707986       -19.2653
  50   2.0000      -0.691980       -18.8297
  51   2.0000      -0.683642       -18.6028
  52   2.0000      -0.672888       -18.3102
  53   2.0000      -0.656546       -17.8655
  54   2.0000      -0.640301       -17.4235
  55   2.0000      -0.603817       -16.4307
  56   2.0000      -0.594089       -16.1660
  57   2.0000      -0.578153       -15.7323
  58   2.0000      -0.568999       -15.4832
  59   2.0000      -0.562249       -15.2996
  60   2.0000      -0.497913       -13.5489
  61   2.0000      -0.492070       -13.3899
  62   2.0000      -0.479103       -13.0371
  63   2.0000      -0.471162       -12.8210
  64   2.0000      -0.459862       -12.5135
  65   2.0000      -0.448275       -12.1982
  66   2.0000      -0.444527       -12.0962
  67   2.0000      -0.437364       -11.9013
  68   2.0000      -0.428217       -11.6524
  69   2.0000      -0.418880       -11.3983
  70   2.0000      -0.408609       -11.1188
  71   2.0000      -0.397650       -10.8206
  72   2.0000      -0.393960       -10.7202
  73   2.0000      -0.392642       -10.6843
  74   2.0000      -0.388225       -10.5641
  75   2.0000      -0.381596       -10.3838
  76   2.0000      -0.366795        -9.9810
  77   2.0000      -0.360771        -9.8171
  78   2.0000      -0.354573        -9.6484
  79   2.0000      -0.351909        -9.5759
  80   2.0000      -0.348531        -9.4840
  81   2.0000      -0.345504        -9.4016
  82   2.0000      -0.342962        -9.3325
  83   2.0000      -0.338438        -9.2094
  84   2.0000      -0.328156        -8.9296
  85   2.0000      -0.319808        -8.7024
  86   2.0000      -0.313881        -8.5411
  87   2.0000      -0.301521        -8.2048
  88   2.0000      -0.292328        -7.9546
  89   2.0000      -0.288301        -7.8451
  90   2.0000      -0.285272        -7.7627
  91   2.0000      -0.278825        -7.5872
  92   2.0000      -0.271866        -7.3979
  93   2.0000      -0.267974        -7.2919
  94   2.0000      -0.263102        -7.1594
  95   2.0000      -0.236679        -6.4404
  96   2.0000      -0.215038        -5.8515
  97   2.0000      -0.210197        -5.7198
  98   2.0000      -0.205553        -5.5934
  99   2.0000      -0.201557        -5.4847
 100   2.0000      -0.199243        -5.4217
 101   0.0000      -0.041971        -1.1421
 102   0.0000      -0.024560        -0.6683
 103   0.0000      -0.014263        -0.3881
 104   0.0000      -0.006024        -0.1639
 105   0.0000       0.021217         0.5773

MULLIKEN ATOMIC CHARGES
-----------------------
   0 C :   -0.306069
   1 C :   -0.006824
   2 O :   -0.373169
   3 P :    0.596512
   4 S :   -0.307251
   5 O :   -0.371033
   6 C :    0.001330
   7 C :   -0.344773
   8 S :   -0.076920
   9 C :   -0.355910
  10 S :   -0.039440
  11 P :    0.596961
  12 S :   -0.319483
  13 O :   -0.383475
  14 C :   -0.006211
  15 C :   -0.337622
  16 O :   -0.382809
  17 C :   -0.003467
  18 C :   -0.306292
  19 H :    0.118649
  20 H :    0.114118
  21 H :    0.122560
  22 H :    0.105840
  23 H :    0.113910
  24 H :    0.108033
  25 H :    0.112989
  26 H :    0.122218
  27 H :    0.117630
  28 H :    0.148566
  29 H :    0.194184
  30 H :    0.190435
  31 H :    0.109935
  32 H :    0.100499
  33 H :    0.139676
  34 H :    0.132625
  35 H :    0.106589
  36 H :    0.113992
  37 H :    0.104127
  38 H :    0.111975
  39 H :    0.113668
  40 H :    0.123730
Sum of atomic charges:   -0.0000000

LOEWDIN ATOMIC CHARGES
----------------------
   0 C :   -0.364099
   1 C :   -0.119253
   2 O :   -0.243144
   3 P :    0.566055
   4 S :   -0.310417
   5 O :   -0.242171
   6 C :   -0.118430
   7 C :   -0.372527
   8 S :    0.102560
   9 C :   -0.473797
  10 S :    0.102303
  11 P :    0.565255
  12 S :   -0.317570
  13 O :   -0.250471
  14 C :   -0.121902
  15 C :   -0.373655
  16 O :   -0.252461
  17 C :   -0.116117
  18 C :   -0.365105
  19 H :    0.127361
  20 H :    0.131468
  21 H :    0.122855
  22 H :    0.118741
  23 H :    0.111653
  24 H :    0.120163
  25 H :    0.111939
  26 H :    0.124853
  27 H :    0.133838
  28 H :    0.126195
  29 H :    0.137570
  30 H :    0.135051
  31 H :    0.107458
  32 H :    0.116506
  33 H :    0.116583
  34 H :    0.125247
  35 H :    0.128351
  36 H :    0.112527
  37 H :    0.118229
  38 H :    0.130363
  39 H :    0.124825
  40 H :    0.123171

  Mayer bond orders larger than 0.100000
B(  0-C ,  1-C ) :   1.1669 B(  0-C , 19-H ) :   0.9459 B(  0-C , 20-H ) :   0.9388
B(  0-C , 21-H ) :   0.9369 B(  1-C ,  2-O ) :   0.9022 B(  1-C , 22-H ) :   0.9338
B(  1-C , 23-H ) :   0.9148 B(  2-O ,  3-P ) :   1.1059 B(  3-P ,  4-S ) :   1.6211
B(  3-P ,  5-O ) :   1.1068 B(  3-P ,  8-S ) :   0.9672 B(  4-S ,  8-S ) :   0.1146
B(  5-O ,  6-C ) :   0.9047 B(  6-C ,  7-C ) :   1.1644 B(  6-C , 24-H ) :   0.9328
B(  6-C , 25-H ) :   0.9156 B(  7-C , 26-H ) :   0.9437 B(  7-C , 27-H ) :   0.9365
B(  7-C , 28-H ) :   0.9272 B(  8-S ,  9-C ) :   0.9944 B(  9-C , 10-S ) :   0.9793
B(  9-C , 29-H ) :   0.8922 B(  9-C , 30-H ) :   0.8961 B( 10-S , 11-P ) :   0.9933
B( 11-P , 12-S ) :   1.6370 B( 11-P , 13-O ) :   1.0672 B( 11-P , 16-O ) :   1.0869
B( 13-O , 14-C ) :   0.9099 B( 14-C , 15-C ) :   1.1643 B( 14-C , 31-H ) :   0.9117
B( 14-C , 32-H ) :   0.9326 B( 15-C , 33-H ) :   0.9258 B( 15-C , 34-H ) :   0.9378
B( 15-C , 35-H ) :   0.9370 B( 16-O , 17-C ) :   0.9094 B( 17-C , 18-C ) :   1.1621
B( 17-C , 36-H ) :   0.9175 B( 17-C , 37-H ) :   0.9360 B( 18-C , 38-H ) :   0.9383
B( 18-C , 39-H ) :   0.9468 B( 18-C , 40-H ) :   0.9364

Dispersion correction           -0.063979971
FINAL SINGLE POINT ENERGY     -2929.518986046702

DIPOLE MOMENT
-------------

Method             : SCF
Type of density    : Electron Density
Multiplicity       :   1
Irrep              :   0
Energy             : -2929.6406772907748746 Eh
Relativity type    :
Basis              : AO
                                X                 Y                 Z
Electronic contribution:     -3.600109980       4.059074968     -10.653178488
Nuclear contribution   :      4.347494559      -5.399755462      11.456656839
                        -----------------------------------------
Total Dipole Moment    :      0.747384579      -1.340680494       0.803478351
                        -----------------------------------------
Magnitude (a.u.)       :      1.732508401
Magnitude (Debye)      :      4.403686387

Rotational constants in cm-1:             0.014308             0.004163             0.003834
Rotational constants in MHz :           428.957654           124.789202           114.941293

                             ****ORCA TERMINATED NORMALLY****
TOTAL RUN TIME: 0 days 0 hours 0 minutes 20 seconds 407 msec
