                         Program Version 6.0.0  -   RELEASE  -
|  1> ! pbe def2-sv(p) def2/J RI DEFGRID1 loosescf d4 GCP(DFT/SV(P)) printgap
|  2> %output
|  3>     printlevel normal
|  4> end
|  5> * xyz 0 1
|  6> C 5.4700867015 -1.2704403287 -1.262140181
|  7> C 4.0612139949 -1.725320413 -1.5909952428
|  8> O 3.2057182783 -1.6188774009 -0.4349681841
|  9> P 2.2922292822 -0.346855315 -0.1590395364
| 10> S 3.1950244253 1.3985323953 -0.1610447879
| 11> O 1.6098942641 -0.7696316825 1.2022650875
| 12> C 2.1019944052 -0.3583551023 2.5005716835
| 13> C 0.9667504493 0.2554913236 3.294692871
| 14> S 0.7169043953 -0.5863975347 -1.5430180987
| 15> C 0.0504032529 1.0955381386 -1.3927880864
| 16> S -0.7620004805 1.3933072762 0.1890942598
| 17> P -2.6298585926 0.4192001911 -0.2024431199
| 18> S -2.9917429843 0.1003184392 -2.1011263837
| 19> O -3.7540671539 1.3393158824 0.4000614527
| 20> C -4.0614959267 1.5072983852 1.8064342476
| 21> C -2.9007851918 2.0786048717 2.5919268572
| 22> O -2.6816566549 -0.8166373633 0.8025845441
| 23> C -1.7526025145 -1.9106768171 0.8511748066
| 24> C -1.9220876945 -2.865667583 -0.3130860897
| 25> H 5.4738281063 -0.2152499439 -0.9977212861
| 26> H 5.8606666469 -1.8427800526 -0.4254935774
| 27> H 6.1058644402 -1.4199928143 -2.1288010673
| 28> H 4.0358526823 -2.7840603577 -1.8553553751
| 29> H 3.6387226599 -1.1364568472 -2.4101249557
| 30> H 2.4890902742 -1.2590768414 2.9801312658
| 31> H 2.9151938829 0.3607780276 2.3603282048
| 32> H 0.6078992225 1.1538934066 2.7978451794
| 33> H 0.1477413911 -0.4524122482 3.3857148807
| 34> H 1.3277318443 0.5153309242 4.2844865287
| 35> H -0.6715743086 1.2150823332 -2.2011694601
| 36> H 0.8669100085 1.8136331236 -1.4682095248
| 37> H -4.9126371383 2.1897342374 1.7923914386
| 38> H -4.3675538435 0.5385832658 2.2051852858
| 39> H -2.5632454132 3.0117703905 2.1481401842
| 40> H -3.2190168184 2.2625979515 3.6133212374
| 41> H -2.0688353398 1.3767487766 2.6025720597
| 42> H -0.732649548 -1.5156473501 0.8850111245
| 43> H -1.9839088345 -2.4020455935 1.7986878093
| 44> H -1.2610810832 -3.7155371646 -0.1763231734
| 45> H -2.9507854498 -3.2123162654 -0.368557505
| 46> H -1.6708883 -2.37408233 -1.2511251113
| 47> *
| 48>
| 49>                          ****END OF INPUT****

CARTESIAN COORDINATES (ANGSTROEM)
---------------------------------
  C      5.470087   -1.270440   -1.262140
  C      4.061214   -1.725320   -1.590995
  O      3.205718   -1.618877   -0.434968
  P      2.292229   -0.346855   -0.159040
  S      3.195024    1.398532   -0.161045
  O      1.609894   -0.769632    1.202265
  C      2.101994   -0.358355    2.500572
  C      0.966750    0.255491    3.294693
  S      0.716904   -0.586398   -1.543018
  C      0.050403    1.095538   -1.392788
  S     -0.762000    1.393307    0.189094
  P     -2.629859    0.419200   -0.202443
  S     -2.991743    0.100318   -2.101126
  O     -3.754067    1.339316    0.400061
  C     -4.061496    1.507298    1.806434
  C     -2.900785    2.078605    2.591927
  O     -2.681657   -0.816637    0.802585
  C     -1.752603   -1.910677    0.851175
  C     -1.922088   -2.865668   -0.313086
  H      5.473828   -0.215250   -0.997721
  H      5.860667   -1.842780   -0.425494
  H      6.105864   -1.419993   -2.128801
  H      4.035853   -2.784060   -1.855355
  H      3.638723   -1.136457   -2.410125
  H      2.489090   -1.259077    2.980131
  H      2.915194    0.360778    2.360328
  H      0.607899    1.153893    2.797845
  H      0.147741   -0.452412    3.385715
  H      1.327732    0.515331    4.284487
  H     -0.671574    1.215082   -2.201169
  H      0.866910    1.813633   -1.468210
  H     -4.912637    2.189734    1.792391
  H     -4.367554    0.538583    2.205185
  H     -2.563245    3.011770    2.148140
  H     -3.219017    2.262598    3.613321
  H     -2.068835    1.376749    2.602572
  H     -0.732650   -1.515647    0.885011
  H     -1.983909   -2.402046    1.798688
  H     -1.261081   -3.715537   -0.176323
  H     -2.950785   -3.212316   -0.368558
  H     -1.670888   -2.374082   -1.251125

 Total Charge           Charge          ....    0
 Multiplicity           Mult            ....    1
 Number of Electrons    NEL             ....  202
 Basis Dimension        Dim             ....  334

ORBITAL ENERGIES
----------------

  NO   OCC          E(Eh)            E(eV)
   0   2.0000     -88.046879     -2395.8774
   1   2.0000     -88.042398     -2395.7555
   2   2.0000     -87.993357     -2394.4210
   3   2.0000     -87.983712     -2394.1585
   4   2.0000     -76.431455     -2079.8056
   5   2.0000     -76.427113     -2079.6875
   6   2.0000     -18.797015      -511.4928
   7   2.0000     -18.795900      -511.4624
   8   2.0000     -18.793080      -511.3857
   9   2.0000     -18.792132      -511.3599
  10   2.0000      -9.959248      -271.0049
  11   2.0000      -9.957914      -270.9686
  12   2.0000      -9.957280      -270.9514
  13   2.0000      -9.951475      -270.7934
  14   2.0000      -9.949326      -270.7349
  15   2.0000      -9.894170      -269.2340
  16   2.0000      -9.889689      -269.1121
  17   2.0000      -9.883949      -268.9559
  18   2.0000      -9.875016      -268.7128
  19   2.0000      -7.691787      -209.3042
  20   2.0000      -7.686852      -209.1699
  21   2.0000      -7.638259      -207.8476
  22   2.0000      -7.628904      -207.5930
  23   2.0000      -6.429105      -174.9448
  24   2.0000      -6.424206      -174.8115
  25   2.0000      -5.719551      -155.6369
  26   2.0000      -5.716294      -155.5483
  27   2.0000      -5.714799      -155.5076
  28   2.0000      -5.711270      -155.4116
  29   2.0000      -5.708890      -155.3468
  30   2.0000      -5.703963      -155.2127
  31   2.0000      -5.666994      -154.2067
  32   2.0000      -5.658940      -153.9876
  33   2.0000      -5.658558      -153.9772
  34   2.0000      -5.657992      -153.9618
  35   2.0000      -5.649258      -153.7241
  36   2.0000      -5.649115      -153.7202
  37   2.0000      -4.651600      -126.5765
  38   2.0000      -4.650903      -126.5575
  39   2.0000      -4.649572      -126.5213
  40   2.0000      -4.647093      -126.4538
  41   2.0000      -4.645990      -126.4238
  42   2.0000      -4.644447      -126.3818
  43   2.0000      -0.991492       -26.9799
  44   2.0000      -0.988386       -26.8953
  45   2.0000      -0.949789       -25.8451
  46   2.0000      -0.943248       -25.6671
  47   2.0000      -0.765501       -20.8303
  48   2.0000      -0.725272       -19.7357
  49   2.0000      -0.714221       -19.4350
  50   2.0000      -0.690356       -18.7855
  51   2.0000      -0.689891       -18.7729
  52   2.0000      -0.676577       -18.4106
  53   2.0000      -0.652782       -17.7631
  54   2.0000      -0.639953       -17.4140
  55   2.0000      -0.600111       -16.3298
  56   2.0000      -0.591453       -16.0942
  57   2.0000      -0.579327       -15.7643
  58   2.0000      -0.575572       -15.6621
  59   2.0000      -0.560943       -15.2640
  60   2.0000      -0.510866       -13.9014
  61   2.0000      -0.496052       -13.4983
  62   2.0000      -0.483601       -13.1595
  63   2.0000      -0.473003       -12.8711
  64   2.0000      -0.457583       -12.4515
  65   2.0000      -0.448117       -12.1939
  66   2.0000      -0.445773       -12.1301
  67   2.0000      -0.434305       -11.8180
  68   2.0000      -0.426085       -11.5944
  69   2.0000      -0.424235       -11.5440
  70   2.0000      -0.409543       -11.1442
  71   2.0000      -0.401461       -10.9243
  72   2.0000      -0.399652       -10.8751
  73   2.0000      -0.390897       -10.6369
  74   2.0000      -0.383488       -10.4352
  75   2.0000      -0.377194       -10.2640
  76   2.0000      -0.365964        -9.9584
  77   2.0000      -0.359050        -9.7702
  78   2.0000      -0.356929        -9.7125
  79   2.0000      -0.352386        -9.5889
  80   2.0000      -0.351198        -9.5566
  81   2.0000      -0.346241        -9.4217
  82   2.0000      -0.340792        -9.2734
  83   2.0000      -0.337873        -9.1940
  84   2.0000      -0.332549        -9.0491
  85   2.0000      -0.325445        -8.8558
  86   2.0000      -0.310789        -8.4570
  87   2.0000      -0.302500        -8.2315
  88   2.0000      -0.297750        -8.1022
  89   2.0000      -0.295154        -8.0315
  90   2.0000      -0.287956        -7.8357
  91   2.0000      -0.281603        -7.6628
  92   2.0000      -0.275899        -7.5076
  93   2.0000      -0.267368        -7.2755
  94   2.0000      -0.258708        -7.0398
  95   2.0000      -0.238829        -6.4989
  96   2.0000      -0.220069        -5.9884
  97   2.0000      -0.213073        -5.7980
  98   2.0000      -0.207331        -5.6418
  99   2.0000      -0.200398        -5.4531
 100   2.0000      -0.198633        -5.4051
 101   0.0000      -0.046424        -1.2633
 102   0.0000      -0.028729        -0.7818
 103   0.0000      -0.004943        -0.1345
 104   0.0000      -0.003171        -0.0863
 105   0.0000       0.006347         0.1727

MULLIKEN ATOMIC CHARGES
-----------------------
   0 C :   -0.292160
   1 C :   -0.009360
   2 O :   -0.372860
   3 P :    0.609410
   4 S :   -0.334513
   5 O :   -0.359169
   6 C :   -0.004772
   7 C :   -0.309330
   8 S :   -0.079671
   9 C :   -0.351023
  10 S :   -0.119786
  11 P :    0.618572
  12 S :   -0.311152
  13 O :   -0.360874
  14 C :    0.009683
  15 C :   -0.348351
  16 O :   -0.384047
  17 C :   -0.047783
  18 C :   -0.300012
  19 H :    0.129525
  20 H :    0.111825
  21 H :    0.109300
  22 H :    0.108872
  23 H :    0.104108
  24 H :    0.105582
  25 H :    0.109878
  26 H :    0.141524
  27 H :    0.120675
  28 H :    0.110534
  29 H :    0.196110
  30 H :    0.193911
  31 H :    0.112815
  32 H :    0.111081
  33 H :    0.132283
  34 H :    0.118497
  35 H :    0.137726
  36 H :    0.141397
  37 H :    0.098073
  38 H :    0.104613
  39 H :    0.112338
  40 H :    0.136533
Sum of atomic charges:    0.0000000

LOEWDIN ATOMIC CHARGES
----------------------
   0 C :   -0.362705
   1 C :   -0.115515
   2 O :   -0.248565
   3 P :    0.566439
   4 S :   -0.318848
   5 O :   -0.237931
   6 C :   -0.113951
   7 C :   -0.358426
   8 S :    0.099383
   9 C :   -0.488474
  10 S :    0.080845
  11 P :    0.569455
  12 S :   -0.299823
  13 O :   -0.235915
  14 C :   -0.107403
  15 C :   -0.373098
  16 O :   -0.246262
  17 C :   -0.126069
  18 C :   -0.367176
  19 H :    0.124964
  20 H :    0.125161
  21 H :    0.129554
  22 H :    0.119540
  23 H :    0.108523
  24 H :    0.116292
  25 H :    0.108525
  26 H :    0.124875
  27 H :    0.124318
  28 H :    0.130047
  29 H :    0.129459
  30 H :    0.129893
  31 H :    0.123889
  32 H :    0.115622
  33 H :    0.130201
  34 H :    0.134218
  35 H :    0.118503
  36 H :    0.104711
  37 H :    0.114881
  38 H :    0.128253
  39 H :    0.125075
  40 H :    0.117537

  Mayer bond orders larger than 0.100000
B(  0-C ,  1-C ) :   1.1672 B(  0-C , 19-H ) :   0.9330 B(  0-C , 20-H ) :   0.9476
B(  0-C , 21-H ) :   0.9397 B(  1-C ,  2-O ) :   0.9012 B(  1-C , 22-H ) :   0.9359
B(  1-C , 23-H ) :   0.9155 B(  2-O ,  3-P ) :   1.1194 B(  3-P ,  4-S ) :   1.5989
B(  3-P ,  5-O ) :   1.1257 B(  3-P ,  8-S ) :   0.9726 B(  4-S ,  8-S ) :   0.1083
B(  5-O ,  6-C ) :   0.8935 B(  6-C ,  7-C ) :   1.1674 B(  6-C , 24-H ) :   0.9334
B(  6-C , 25-H ) :   0.9024 B(  7-C , 26-H ) :   0.9362 B(  7-C , 27-H ) :   0.9470
B(  7-C , 28-H ) :   0.9379 B(  8-S ,  9-C ) :   0.9980 B(  9-C , 10-S ) :   1.0149
B(  9-C , 29-H ) :   0.8645 B(  9-C , 30-H ) :   0.8719 B( 10-S , 11-P ) :   0.9306
B( 10-S , 12-S ) :   0.1134 B( 11-P , 12-S ) :   1.6519 B( 11-P , 13-O ) :   1.1440
B( 11-P , 16-O ) :   1.0736 B( 13-O , 14-C ) :   0.8996 B( 14-C , 15-C ) :   1.1692
B( 14-C , 31-H ) :   0.9337 B( 14-C , 32-H ) :   0.9270 B( 15-C , 33-H ) :   0.9414
B( 15-C , 34-H ) :   0.9351 B( 15-C , 35-H ) :   0.9278 B( 16-O , 17-C ) :   0.9060
B( 17-C , 18-C ) :   1.1671 B( 17-C , 36-H ) :   0.8947 B( 17-C , 37-H ) :   0.9341
B( 18-C , 38-H ) :   0.9384 B( 18-C , 39-H ) :   0.9451 B( 18-C , 40-H ) :   0.9279

Dispersion correction           -0.065841486
FINAL SINGLE POINT ENERGY     -2929.523028343442

DIPOLE MOMENT
-------------

Method             : SCF
Type of density    : Electron Density
Multiplicity       :   1
Irrep              :   0
Energy             : -2929.6426255569890600 Eh
Relativity type    :
Basis              : AO
                                X                 Y                 Z
Electronic contribution:     -6.347494079       6.855554647     -15.352822707
Nuclear contribution   :      6.903465502      -7.562607082      16.941392800
                        -----------------------------------------
Total Dipole Moment    :      0.555971423      -0.707052435       1.588570093
                        -----------------------------------------
Magnitude (a.u.)       :      1.825536170
Magnitude (Debye)      :      4.640144187

Rotational constants in cm-1:             0.012905             0.004986             0.004535
Rotational constants in MHz :           386.888595           149.474510           135.943744

                             ****ORCA TERMINATED NORMALLY****
TOTAL RUN TIME: 0 days 0 hours 0 minutes 21 seconds 384 msec
