                         Program Version 6.0.0  -   RELEASE  -
|  1> ! r2scan-3c def2/J RI DEFGRID2 scfconv6 printgap
|  2> %output
|  3>     printlevel normal
|  4> end
|  5> * xyz 0 1
|  6> C 5.2825012283 -2.3703033966 -0.9001941605
|  7> C 4.2126124746 -1.3664386926 -1.2796341098
|  8> O 3.2287859945 -1.3491743441 -0.2260395487
|  9> P 2.2055812136 -0.1483981537 -0.0595635152
| 10> S 3.0006414036 1.648082981 -0.0964735588
| 11> O 1.4430635736 -0.5583579612 1.2646173999
| 12> C 1.8229052265 -0.0349798026 2.5559428123
| 13> C 3.1682456189 -0.5702556831 2.9966155487
| 14> S 0.7405103928 -0.5487935381 -1.5297022485
| 15> C -0.0464507468 1.0856478456 -1.4694056936
| 16> S -0.8792178501 1.4122447567 0.097505491
| 17> P -2.723325671 0.3846179321 -0.2808858783
| 18> S -3.0785172206 0.0380243824 -2.1749862997
| 19> O -3.867388558 1.2845297186 0.3143604095
| 20> C -4.1715352405 1.4665356827 1.719274926
| 21> C -3.0388560137 2.1242894401 2.4780256405
| 22> O -2.7449267431 -0.8414735999 0.7368073907
| 23> C -1.7973997463 -1.919849843 0.7923466095
| 24> C -1.9248428599 -2.8665283321 -0.3838866091
| 25> H 5.7742489 -2.0658600511 0.0192753316
| 26> H 4.8348062969 -3.3487768325 -0.7535115268
| 27> H 6.0168038637 -2.4260229963 -1.6970317094
| 28> H 3.7120232153 -1.648428844 -2.2099155256
| 29> H 4.6268811821 -0.3581805225 -1.387900881
| 30> H 1.8372033007 1.0578019731 2.4954923908
| 31> H 1.0190637964 -0.359583279 3.2175809832
| 32> H 3.9454230561 -0.2059255385 2.3256961278
| 33> H 3.3820935918 -0.2265764833 4.0037637249
| 34> H 3.1659988256 -1.6567201951 2.9745857947
| 35> H -0.7756269404 1.1108423415 -2.2804368822
| 36> H 0.7163356802 1.8547951138 -1.5870035551
| 37> H -5.0609148829 2.0981414133 1.6989149391
| 38> H -4.4164811287 0.4916324872 2.1442182049
| 39> H -3.3578728408 2.315038778 3.498002545
| 40> H -2.1654864676 1.4744407461 2.4959155625
| 41> H -2.7612900306 3.0641460669 2.0075757473
| 42> H -0.786040049 -1.5061170446 0.851146841
| 43> H -2.0388838275 -2.4235613406 1.7306360995
| 44> H -1.6506842169 -2.3657677722 -1.3105548662
| 45> H -1.2607148933 -3.7116923205 -0.234250917
| 46> H -2.9484713968 -3.2215267529 -0.4717560845
| 47> *
| 48>
| 49>                          ****END OF INPUT****

CARTESIAN COORDINATES (ANGSTROEM)
---------------------------------
  C      5.282501   -2.370303   -0.900194
  C      4.212612   -1.366439   -1.279634
  O      3.228786   -1.349174   -0.226040
  P      2.205581   -0.148398   -0.059564
  S      3.000641    1.648083   -0.096474
  O      1.443064   -0.558358    1.264617
  C      1.822905   -0.034980    2.555943
  C      3.168246   -0.570256    2.996616
  S      0.740510   -0.548794   -1.529702
  C     -0.046451    1.085648   -1.469406
  S     -0.879218    1.412245    0.097505
  P     -2.723326    0.384618   -0.280886
  S     -3.078517    0.038024   -2.174986
  O     -3.867389    1.284530    0.314360
  C     -4.171535    1.466536    1.719275
  C     -3.038856    2.124289    2.478026
  O     -2.744927   -0.841474    0.736807
  C     -1.797400   -1.919850    0.792347
  C     -1.924843   -2.866528   -0.383887
  H      5.774249   -2.065860    0.019275
  H      4.834806   -3.348777   -0.753512
  H      6.016804   -2.426023   -1.697032
  H      3.712023   -1.648429   -2.209916
  H      4.626881   -0.358181   -1.387901
  H      1.837203    1.057802    2.495492
  H      1.019064   -0.359583    3.217581
  H      3.945423   -0.205926    2.325696
  H      3.382094   -0.226576    4.003764
  H      3.165999   -1.656720    2.974586
  H     -0.775627    1.110842   -2.280437
  H      0.716336    1.854795   -1.587004
  H     -5.060915    2.098141    1.698915
  H     -4.416481    0.491632    2.144218
  H     -3.357873    2.315039    3.498003
  H     -2.165486    1.474441    2.495916
  H     -2.761290    3.064146    2.007576
  H     -0.786040   -1.506117    0.851147
  H     -2.038884   -2.423561    1.730636
  H     -1.650684   -2.365768   -1.310555
  H     -1.260715   -3.711692   -0.234251
  H     -2.948471   -3.221527   -0.471756

 Total Charge           Charge          ....    0
 Multiplicity           Mult            ....    1
 Number of Electrons    NEL             ....  202
 Basis Dimension        Dim             ....  539

ORBITAL ENERGIES
----------------

  NO   OCC          E(Eh)            E(eV)
   0   2.0000     -88.577338     -2410.3119
   1   2.0000     -88.573277     -2410.2014
   2   2.0000     -88.525276     -2408.8952
   3   2.0000     -88.516119     -2408.6461
   4   2.0000     -76.917921     -2093.0430
   5   2.0000     -76.913735     -2092.9291
   6   2.0000     -18.997971      -516.9611
   7   2.0000     -18.996697      -516.9264
   8   2.0000     -18.991271      -516.7788
   9   2.0000     -18.990585      -516.7601
  10   2.0000     -10.104986      -274.9707
  11   2.0000     -10.103538      -274.9313
  12   2.0000     -10.103229      -274.9228
  13   2.0000     -10.100861      -274.8584
  14   2.0000     -10.095460      -274.7114
  15   2.0000     -10.037904      -273.1452
  16   2.0000     -10.037370      -273.1307
  17   2.0000     -10.033758      -273.0324
  18   2.0000     -10.020105      -272.6609
  19   2.0000      -7.871581      -214.1966
  20   2.0000      -7.867439      -214.0839
  21   2.0000      -7.819977      -212.7924
  22   2.0000      -7.811005      -212.5483
  23   2.0000      -6.596646      -179.5039
  24   2.0000      -6.591710      -179.3696
  25   2.0000      -5.818358      -158.3256
  26   2.0000      -5.815455      -158.2466
  27   2.0000      -5.814422      -158.2185
  28   2.0000      -5.811167      -158.1299
  29   2.0000      -5.808809      -158.0657
  30   2.0000      -5.804605      -157.9513
  31   2.0000      -5.767561      -156.9433
  32   2.0000      -5.760249      -156.7443
  33   2.0000      -5.760063      -156.7393
  34   2.0000      -5.758799      -156.7049
  35   2.0000      -5.751113      -156.4957
  36   2.0000      -5.751019      -156.4932
  37   2.0000      -4.742015      -129.0368
  38   2.0000      -4.741618      -129.0260
  39   2.0000      -4.740410      -128.9931
  40   2.0000      -4.737548      -128.9152
  41   2.0000      -4.736695      -128.8920
  42   2.0000      -4.735165      -128.8504
  43   2.0000      -1.056237       -28.7417
  44   2.0000      -1.050493       -28.5854
  45   2.0000      -1.017481       -27.6871
  46   2.0000      -1.007855       -27.4251
  47   2.0000      -0.801066       -21.7981
  48   2.0000      -0.762452       -20.7474
  49   2.0000      -0.754115       -20.5205
  50   2.0000      -0.738198       -20.0874
  51   2.0000      -0.733019       -19.9465
  52   2.0000      -0.712056       -19.3760
  53   2.0000      -0.686755       -18.6876
  54   2.0000      -0.669110       -18.2074
  55   2.0000      -0.634658       -17.2699
  56   2.0000      -0.623221       -16.9587
  57   2.0000      -0.611971       -16.6526
  58   2.0000      -0.604784       -16.4570
  59   2.0000      -0.593192       -16.1416
  60   2.0000      -0.533985       -14.5305
  61   2.0000      -0.520634       -14.1672
  62   2.0000      -0.502548       -13.6750
  63   2.0000      -0.491033       -13.3617
  64   2.0000      -0.478128       -13.0105
  65   2.0000      -0.467818       -12.7300
  66   2.0000      -0.461062       -12.5461
  67   2.0000      -0.456334       -12.4175
  68   2.0000      -0.442806       -12.0494
  69   2.0000      -0.440903       -11.9976
  70   2.0000      -0.428180       -11.6514
  71   2.0000      -0.420786       -11.4502
  72   2.0000      -0.416388       -11.3305
  73   2.0000      -0.401143       -10.9157
  74   2.0000      -0.400433       -10.8963
  75   2.0000      -0.391271       -10.6470
  76   2.0000      -0.381861       -10.3910
  77   2.0000      -0.377008       -10.2589
  78   2.0000      -0.372048       -10.1239
  79   2.0000      -0.368176       -10.0186
  80   2.0000      -0.367200        -9.9920
  81   2.0000      -0.364049        -9.9063
  82   2.0000      -0.357738        -9.7346
  83   2.0000      -0.353851        -9.6288
  84   2.0000      -0.347368        -9.4524
  85   2.0000      -0.337662        -9.1883
  86   2.0000      -0.325954        -8.8697
  87   2.0000      -0.319734        -8.7004
  88   2.0000      -0.311173        -8.4675
  89   2.0000      -0.308555        -8.3962
  90   2.0000      -0.302247        -8.2245
  91   2.0000      -0.295487        -8.0406
  92   2.0000      -0.290448        -7.9035
  93   2.0000      -0.281003        -7.6465
  94   2.0000      -0.271929        -7.3996
  95   2.0000      -0.249706        -6.7948
  96   2.0000      -0.230913        -6.2835
  97   2.0000      -0.228006        -6.2043
  98   2.0000      -0.218384        -5.9425
  99   2.0000      -0.213459        -5.8085
 100   2.0000      -0.210804        -5.7363
 101   0.0000      -0.047402        -1.2899
 102   0.0000      -0.027193        -0.7399
 103   0.0000      -0.005255        -0.1430
 104   0.0000      -0.000601        -0.0164
 105   0.0000       0.013653         0.3715

MULLIKEN ATOMIC CHARGES
-----------------------
   0 C :   -0.439206
   1 C :   -0.156792
   2 O :   -0.285681
   3 P :    0.686323
   4 S :   -0.481256
   5 O :   -0.274849
   6 C :   -0.149810
   7 C :   -0.444520
   8 S :   -0.147186
   9 C :   -0.240240
  10 S :   -0.145486
  11 P :    0.658093
  12 S :   -0.445539
  13 O :   -0.276862
  14 C :   -0.116586
  15 C :   -0.478707
  16 O :   -0.272873
  17 C :   -0.181682
  18 C :   -0.417289
  19 H :    0.154547
  20 H :    0.154341
  21 H :    0.148513
  22 H :    0.153764
  23 H :    0.171071
  24 H :    0.175979
  25 H :    0.149223
  26 H :    0.170566
  27 H :    0.148093
  28 H :    0.155934
  29 H :    0.218048
  30 H :    0.220880
  31 H :    0.152114
  32 H :    0.162923
  33 H :    0.152520
  34 H :    0.156873
  35 H :    0.173944
  36 H :    0.178746
  37 H :    0.143942
  38 H :    0.174381
  39 H :    0.142884
  40 H :    0.150866
Sum of atomic charges:   -0.0000000

LOEWDIN ATOMIC CHARGES
----------------------
   0 C :   -0.385056
   1 C :    0.021133
   2 O :   -0.664409
   3 P :    0.371674
   4 S :   -0.132312
   5 O :   -0.688510
   6 C :    0.018163
   7 C :   -0.399247
   8 S :    0.158009
   9 C :   -0.427781
  10 S :    0.144092
  11 P :    0.395323
  12 S :   -0.102769
  13 O :   -0.647452
  14 C :    0.033355
  15 C :   -0.405071
  16 O :   -0.674370
  17 C :    0.019579
  18 C :   -0.409523
  19 H :    0.160003
  20 H :    0.160279
  21 H :    0.160810
  22 H :    0.172899
  23 H :    0.180856
  24 H :    0.182013
  25 H :    0.179051
  26 H :    0.166227
  27 H :    0.160128
  28 H :    0.160787
  29 H :    0.196291
  30 H :    0.191546
  31 H :    0.183458
  32 H :    0.177371
  33 H :    0.160817
  34 H :    0.161254
  35 H :    0.165699
  36 H :    0.191333
  37 H :    0.177522
  38 H :    0.167583
  39 H :    0.158864
  40 H :    0.160376

  Mayer bond orders larger than 0.100000
B(  0-C ,  1-C ) :   0.9569 B(  0-C , 19-H ) :   0.9713 B(  0-C , 20-H ) :   0.9716
B(  0-C , 21-H ) :   0.9639 B(  1-C ,  2-O ) :   0.7781 B(  1-C , 22-H ) :   0.9454
B(  1-C , 23-H ) :   0.9516 B(  2-O ,  3-P ) :   1.0950 B(  3-P ,  4-S ) :   1.7450
B(  3-P ,  5-O ) :   1.1531 B(  3-P ,  8-S ) :   1.0698 B(  5-O ,  6-C ) :   0.7882
B(  6-C ,  7-C ) :   0.9276 B(  6-C , 24-H ) :   0.9635 B(  6-C , 25-H ) :   0.9605
B(  7-C , 26-H ) :   0.9593 B(  7-C , 27-H ) :   0.9616 B(  7-C , 28-H ) :   0.9710
B(  8-S ,  9-C ) :   0.9035 B(  9-C , 10-S ) :   0.9132 B(  9-C , 29-H ) :   0.8975
B(  9-C , 30-H ) :   0.9113 B( 10-S , 11-P ) :   0.9850 B( 11-P , 12-S ) :   1.8188
B( 11-P , 13-O ) :   1.1721 B( 11-P , 16-O ) :   1.0432 B( 13-O , 14-C ) :   0.7979
B( 14-C , 15-C ) :   0.9165 B( 14-C , 31-H ) :   0.9532 B( 14-C , 32-H ) :   0.9758
B( 15-C , 33-H ) :   0.9580 B( 15-C , 34-H ) :   0.9638 B( 15-C , 35-H ) :   0.9665
B( 16-O , 17-C ) :   0.8016 B( 17-C , 18-C ) :   0.9355 B( 17-C , 36-H ) :   0.9482
B( 17-C , 37-H ) :   0.9662 B( 18-C , 38-H ) :   0.9497 B( 18-C , 39-H ) :   0.9648
B( 18-C , 40-H ) :   0.9685

Dispersion correction           -0.021392769
FINAL SINGLE POINT ENERGY     -2932.461687656236

DIPOLE MOMENT
-------------

Method             : SCF
Type of density    : Electron Density
Multiplicity       :   1
Irrep              :   0
Energy             : -2932.4869317830148248 Eh
Relativity type    :
Basis              : AO
                                X                 Y                 Z
Electronic contribution:    -10.729077281      10.752780870     -15.123730199
Nuclear contribution   :     11.518460188     -11.618938198      16.888920176
                        -----------------------------------------
Total Dipole Moment    :      0.789382907      -0.866157328       1.765189977
                        -----------------------------------------
Magnitude (a.u.)       :      2.118784922
Magnitude (Debye)      :      5.385523277

Rotational constants in cm-1:             0.012807             0.004767             0.004413
Rotational constants in MHz :           383.934409           142.908113           132.286360

                             ****ORCA TERMINATED NORMALLY****
TOTAL RUN TIME: 0 days 0 hours 1 minutes 19 seconds 879 msec
