                         Program Version 6.0.0  -   RELEASE  -
|  1> ! r2scan-3c def2/J RI DEFGRID2 scfconv6 printgap
|  2> %output
|  3>     printlevel normal
|  4> end
|  5> %cpcm
|  6>     smd true
|  7>     smdsolvent "water"
|  8> end
|  9> * xyz 0 1
| 10> C 5.2825012283 -2.3703033966 -0.9001941605
| 11> C 4.2126124746 -1.3664386926 -1.2796341098
| 12> O 3.2287859945 -1.3491743441 -0.2260395487
| 13> P 2.2055812136 -0.1483981537 -0.0595635152
| 14> S 3.0006414036 1.648082981 -0.0964735588
| 15> O 1.4430635736 -0.5583579612 1.2646173999
| 16> C 1.8229052265 -0.0349798026 2.5559428123
| 17> C 3.1682456189 -0.5702556831 2.9966155487
| 18> S 0.7405103928 -0.5487935381 -1.5297022485
| 19> C -0.0464507468 1.0856478456 -1.4694056936
| 20> S -0.8792178501 1.4122447567 0.097505491
| 21> P -2.723325671 0.3846179321 -0.2808858783
| 22> S -3.0785172206 0.0380243824 -2.1749862997
| 23> O -3.867388558 1.2845297186 0.3143604095
| 24> C -4.1715352405 1.4665356827 1.719274926
| 25> C -3.0388560137 2.1242894401 2.4780256405
| 26> O -2.7449267431 -0.8414735999 0.7368073907
| 27> C -1.7973997463 -1.919849843 0.7923466095
| 28> C -1.9248428599 -2.8665283321 -0.3838866091
| 29> H 5.7742489 -2.0658600511 0.0192753316
| 30> H 4.8348062969 -3.3487768325 -0.7535115268
| 31> H 6.0168038637 -2.4260229963 -1.6970317094
| 32> H 3.7120232153 -1.648428844 -2.2099155256
| 33> H 4.6268811821 -0.3581805225 -1.387900881
| 34> H 1.8372033007 1.0578019731 2.4954923908
| 35> H 1.0190637964 -0.359583279 3.2175809832
| 36> H 3.9454230561 -0.2059255385 2.3256961278
| 37> H 3.3820935918 -0.2265764833 4.0037637249
| 38> H 3.1659988256 -1.6567201951 2.9745857947
| 39> H -0.7756269404 1.1108423415 -2.2804368822
| 40> H 0.7163356802 1.8547951138 -1.5870035551
| 41> H -5.0609148829 2.0981414133 1.6989149391
| 42> H -4.4164811287 0.4916324872 2.1442182049
| 43> H -3.3578728408 2.315038778 3.498002545
| 44> H -2.1654864676 1.4744407461 2.4959155625
| 45> H -2.7612900306 3.0641460669 2.0075757473
| 46> H -0.786040049 -1.5061170446 0.851146841
| 47> H -2.0388838275 -2.4235613406 1.7306360995
| 48> H -1.6506842169 -2.3657677722 -1.3105548662
| 49> H -1.2607148933 -3.7116923205 -0.234250917
| 50> H -2.9484713968 -3.2215267529 -0.4717560845
| 51> *
| 52>
| 53>                          ****END OF INPUT****

CARTESIAN COORDINATES (ANGSTROEM)
---------------------------------
  C      5.282501   -2.370303   -0.900194
  C      4.212612   -1.366439   -1.279634
  O      3.228786   -1.349174   -0.226040
  P      2.205581   -0.148398   -0.059564
  S      3.000641    1.648083   -0.096474
  O      1.443064   -0.558358    1.264617
  C      1.822905   -0.034980    2.555943
  C      3.168246   -0.570256    2.996616
  S      0.740510   -0.548794   -1.529702
  C     -0.046451    1.085648   -1.469406
  S     -0.879218    1.412245    0.097505
  P     -2.723326    0.384618   -0.280886
  S     -3.078517    0.038024   -2.174986
  O     -3.867389    1.284530    0.314360
  C     -4.171535    1.466536    1.719275
  C     -3.038856    2.124289    2.478026
  O     -2.744927   -0.841474    0.736807
  C     -1.797400   -1.919850    0.792347
  C     -1.924843   -2.866528   -0.383887
  H      5.774249   -2.065860    0.019275
  H      4.834806   -3.348777   -0.753512
  H      6.016804   -2.426023   -1.697032
  H      3.712023   -1.648429   -2.209916
  H      4.626881   -0.358181   -1.387901
  H      1.837203    1.057802    2.495492
  H      1.019064   -0.359583    3.217581
  H      3.945423   -0.205926    2.325696
  H      3.382094   -0.226576    4.003764
  H      3.165999   -1.656720    2.974586
  H     -0.775627    1.110842   -2.280437
  H      0.716336    1.854795   -1.587004
  H     -5.060915    2.098141    1.698915
  H     -4.416481    0.491632    2.144218
  H     -3.357873    2.315039    3.498003
  H     -2.165486    1.474441    2.495916
  H     -2.761290    3.064146    2.007576
  H     -0.786040   -1.506117    0.851147
  H     -2.038884   -2.423561    1.730636
  H     -1.650684   -2.365768   -1.310555
  H     -1.260715   -3.711692   -0.234251
  H     -2.948471   -3.221527   -0.471756

 Total Charge           Charge          ....    0
 Multiplicity           Mult            ....    1
 Number of Electrons    NEL             ....  202
 Basis Dimension        Dim             ....  539

ORBITAL ENERGIES
----------------

  NO   OCC          E(Eh)            E(eV)
   0   2.0000     -88.580157     -2410.3886
   1   2.0000     -88.578691     -2410.3487
   2   2.0000     -88.529886     -2409.0207
   3   2.0000     -88.529124     -2408.9999
   4   2.0000     -76.921964     -2093.1530
   5   2.0000     -76.920031     -2093.1005
   6   2.0000     -18.997073      -516.9366
   7   2.0000     -18.995436      -516.8921
   8   2.0000     -18.995031      -516.8811
   9   2.0000     -18.994879      -516.8769
  10   2.0000     -10.102442      -274.9014
  11   2.0000     -10.092963      -274.6435
  12   2.0000     -10.090975      -274.5894
  13   2.0000     -10.090283      -274.5706
  14   2.0000     -10.089218      -274.5416
  15   2.0000     -10.022571      -272.7280
  16   2.0000     -10.019966      -272.6571
  17   2.0000     -10.019053      -272.6323
  18   2.0000     -10.015707      -272.5413
  19   2.0000      -7.874474      -214.2753
  20   2.0000      -7.872802      -214.2298
  21   2.0000      -7.824873      -212.9256
  22   2.0000      -7.824387      -212.9124
  23   2.0000      -6.600019      -179.5957
  24   2.0000      -6.598777      -179.5619
  25   2.0000      -5.821227      -158.4036
  26   2.0000      -5.819796      -158.3647
  27   2.0000      -5.818351      -158.3254
  28   2.0000      -5.816523      -158.2756
  29   2.0000      -5.811713      -158.1447
  30   2.0000      -5.809974      -158.0974
  31   2.0000      -5.772392      -157.0748
  32   2.0000      -5.772045      -157.0653
  33   2.0000      -5.765143      -156.8775
  34   2.0000      -5.764973      -156.8729
  35   2.0000      -5.764513      -156.8604
  36   2.0000      -5.764446      -156.8585
  37   2.0000      -4.745802      -129.1398
  38   2.0000      -4.744949      -129.1166
  39   2.0000      -4.744082      -129.0930
  40   2.0000      -4.743738      -129.0837
  41   2.0000      -4.743621      -129.0805
  42   2.0000      -4.742652      -129.0541
  43   2.0000      -1.054645       -28.6983
  44   2.0000      -1.054365       -28.6907
  45   2.0000      -1.015011       -27.6199
  46   2.0000      -1.011053       -27.5121
  47   2.0000      -0.803922       -21.8758
  48   2.0000      -0.758072       -20.6282
  49   2.0000      -0.746587       -20.3157
  50   2.0000      -0.726658       -19.7734
  51   2.0000      -0.725004       -19.7284
  52   2.0000      -0.711031       -19.3481
  53   2.0000      -0.689408       -18.7597
  54   2.0000      -0.674919       -18.3655
  55   2.0000      -0.629899       -17.1404
  56   2.0000      -0.621354       -16.9079
  57   2.0000      -0.607749       -16.5377
  58   2.0000      -0.594279       -16.1711
  59   2.0000      -0.590778       -16.0759
  60   2.0000      -0.528557       -14.3828
  61   2.0000      -0.517032       -14.0692
  62   2.0000      -0.496234       -13.5032
  63   2.0000      -0.487667       -13.2701
  64   2.0000      -0.476349       -12.9621
  65   2.0000      -0.463034       -12.5998
  66   2.0000      -0.455989       -12.4081
  67   2.0000      -0.446424       -12.1478
  68   2.0000      -0.440290       -11.9809
  69   2.0000      -0.435685       -11.8556
  70   2.0000      -0.424212       -11.5434
  71   2.0000      -0.419160       -11.4059
  72   2.0000      -0.409751       -11.1499
  73   2.0000      -0.397958       -10.8290
  74   2.0000      -0.397011       -10.8032
  75   2.0000      -0.385278       -10.4840
  76   2.0000      -0.381174       -10.3723
  77   2.0000      -0.366497        -9.9729
  78   2.0000      -0.363394        -9.8885
  79   2.0000      -0.362322        -9.8593
  80   2.0000      -0.355446        -9.6722
  81   2.0000      -0.354164        -9.6373
  82   2.0000      -0.350031        -9.5248
  83   2.0000      -0.349582        -9.5126
  84   2.0000      -0.343918        -9.3585
  85   2.0000      -0.332133        -9.0378
  86   2.0000      -0.321417        -8.7462
  87   2.0000      -0.313878        -8.5411
  88   2.0000      -0.307929        -8.3792
  89   2.0000      -0.303506        -8.2588
  90   2.0000      -0.298726        -8.1287
  91   2.0000      -0.291626        -7.9356
  92   2.0000      -0.288830        -7.8595
  93   2.0000      -0.279505        -7.6057
  94   2.0000      -0.275067        -7.4849
  95   2.0000      -0.252773        -6.8783
  96   2.0000      -0.238108        -6.4792
  97   2.0000      -0.235318        -6.4033
  98   2.0000      -0.225619        -6.1394
  99   2.0000      -0.224079        -6.0975
 100   2.0000      -0.221669        -6.0319
 101   0.0000      -0.052713        -1.4344
 102   0.0000      -0.033661        -0.9160
 103   0.0000      -0.010591        -0.2882
 104   0.0000      -0.003932        -0.1070
 105   0.0000       0.012628         0.3436

MULLIKEN ATOMIC CHARGES
-----------------------
   0 C :   -0.482676
   1 C :   -0.147706
   2 O :   -0.310415
   3 P :    0.719885
   4 S :   -0.529111
   5 O :   -0.296157
   6 C :   -0.141505
   7 C :   -0.485852
   8 S :   -0.154520
   9 C :   -0.251002
  10 S :   -0.149127
  11 P :    0.669148
  12 S :   -0.504111
  13 O :   -0.311451
  14 C :   -0.111950
  15 C :   -0.511445
  16 O :   -0.289501
  17 C :   -0.162280
  18 C :   -0.464466
  19 H :    0.166369
  20 H :    0.166401
  21 H :    0.169911
  22 H :    0.171869
  23 H :    0.172777
  24 H :    0.177748
  25 H :    0.178957
  26 H :    0.168602
  27 H :    0.172941
  28 H :    0.170506
  29 H :    0.229094
  30 H :    0.240517
  31 H :    0.175361
  32 H :    0.178785
  33 H :    0.179233
  34 H :    0.163604
  35 H :    0.180149
  36 H :    0.174975
  37 H :    0.175910
  38 H :    0.165526
  39 H :    0.170472
  40 H :    0.164535
Sum of atomic charges:   -0.0000000

LOEWDIN ATOMIC CHARGES
----------------------
   0 C :   -0.388826
   1 C :    0.025709
   2 O :   -0.675212
   3 P :    0.376718
   4 S :   -0.162339
   5 O :   -0.694956
   6 C :    0.024058
   7 C :   -0.402542
   8 S :    0.153044
   9 C :   -0.425021
  10 S :    0.146020
  11 P :    0.395414
  12 S :   -0.148659
  13 O :   -0.669812
  14 C :    0.040249
  15 C :   -0.404665
  16 O :   -0.677213
  17 C :    0.026580
  18 C :   -0.414704
  19 H :    0.162771
  20 H :    0.163539
  21 H :    0.169138
  22 H :    0.180075
  23 H :    0.181888
  24 H :    0.182598
  25 H :    0.191263
  26 H :    0.162974
  27 H :    0.169318
  28 H :    0.164451
  29 H :    0.199086
  30 H :    0.196898
  31 H :    0.193253
  32 H :    0.184822
  33 H :    0.171931
  34 H :    0.162278
  35 H :    0.165585
  36 H :    0.190879
  37 H :    0.191090
  38 H :    0.161313
  39 H :    0.168697
  40 H :    0.162313

  Mayer bond orders larger than 0.100000
B(  0-C ,  1-C ) :   0.9525 B(  0-C , 19-H ) :   0.9689 B(  0-C , 20-H ) :   0.9689
B(  0-C , 21-H ) :   0.9581 B(  1-C ,  2-O ) :   0.7712 B(  1-C , 22-H ) :   0.9369
B(  1-C , 23-H ) :   0.9484 B(  2-O ,  3-P ) :   1.1034 B(  3-P ,  4-S ) :   1.7037
B(  3-P ,  5-O ) :   1.1643 B(  3-P ,  8-S ) :   1.0796 B(  5-O ,  6-C ) :   0.7765
B(  6-C ,  7-C ) :   0.9159 B(  6-C , 24-H ) :   0.9599 B(  6-C , 25-H ) :   0.9499
B(  7-C , 26-H ) :   0.9592 B(  7-C , 27-H ) :   0.9558 B(  7-C , 28-H ) :   0.9699
B(  8-S ,  9-C ) :   0.8994 B(  9-C , 10-S ) :   0.9019 B(  9-C , 29-H ) :   0.8961
B(  9-C , 30-H ) :   0.9056 B( 10-S , 11-P ) :   1.0035 B( 11-P , 12-S ) :   1.7923
B( 11-P , 13-O ) :   1.1785 B( 11-P , 16-O ) :   1.0536 B( 13-O , 14-C ) :   0.7856
B( 14-C , 15-C ) :   0.9054 B( 14-C , 31-H ) :   0.9448 B( 14-C , 32-H ) :   0.9657
B( 15-C , 33-H ) :   0.9505 B( 15-C , 34-H ) :   0.9584 B( 15-C , 35-H ) :   0.9666
B( 16-O , 17-C ) :   0.7929 B( 17-C , 18-C ) :   0.9171 B( 17-C , 36-H ) :   0.9482
B( 17-C , 37-H ) :   0.9563 B( 18-C , 38-H ) :   0.9532 B( 18-C , 39-H ) :   0.9596
B( 18-C , 40-H ) :   0.9693

Dispersion correction           -0.021392769
FINAL SINGLE POINT ENERGY     -2932.470776774163

DIPOLE MOMENT
-------------

Method             : SCF
Type of density    : Electron Density
Multiplicity       :   1
Irrep              :   0
Energy             : -2932.4960209009414029 Eh
Relativity type    :
Basis              : AO
                                X                 Y                 Z
Electronic contribution:    -10.467371276      10.469791344     -14.409548592
Nuclear contribution   :     11.518460188     -11.618938198      16.888920176
                        -----------------------------------------
Total Dipole Moment    :      1.051088912      -1.149146854       2.479371584
                        -----------------------------------------
Magnitude (a.u.)       :      2.927901953
Magnitude (Debye)      :      7.442135328

Rotational constants in cm-1:             0.012807             0.004767             0.004413
Rotational constants in MHz :           383.934409           142.908113           132.286360

                             ****ORCA TERMINATED NORMALLY****
TOTAL RUN TIME: 0 days 0 hours 1 minutes 49 seconds 11 msec
