                         Program Version 6.0.0  -   RELEASE  -
|  1> ! pbe def2-sv(p) def2/J RI DEFGRID1 loosescf d4 GCP(DFT/SV(P)) printgap
|  2> %output
|  3>     printlevel normal
|  4> end
|  5> * xyz 0 1
|  6> C 3.9015597987 -1.8914531296 -1.6449661787
|  7> C 4.3180413264 -0.5445521967 -1.0884060868
|  8> O 3.5585727525 -0.179663889 0.07261144
|  9> P 2.0267131345 0.2709420368 0.0534025722
| 10> S 1.4866486117 1.0508897599 -1.6640386671
| 11> O 1.9620475047 1.1749555486 1.3489833959
| 12> C 2.0956016432 2.6073664128 1.3050759367
| 13> C 3.4857572279 3.0353306932 0.8831602543
| 14> S 1.0132296507 -1.3644549661 0.9457625149
| 15> C 0.3301992125 -2.2773634904 -0.4669014904
| 16> S -0.9267448505 -1.3906582454 -1.4531764829
| 17> P -1.9377157464 -0.3046551998 0.0485099203
| 18> S -1.203641057 1.3805726904 0.7551958384
| 19> O -2.2162085433 -1.4530401849 1.0930860909
| 20> C -2.4736029179 -1.1810381563 2.4869066397
| 21> C -3.8370045672 -0.5535389709 2.6820743751
| 22> O -3.3607518605 -0.0966801503 -0.6264859669
| 23> C -3.616242616 0.9443016326 -1.5885588986
| 24> C -5.1160368744 1.1432911895 -1.67201914
| 25> H 4.6104546143 -2.2013980611 -2.4061536574
| 26> H 3.8761587883 -2.6350904839 -0.8520854738
| 27> H 2.9160315844 -1.8085129977 -2.102116325
| 28> H 4.195459882 0.2351509823 -1.8467680294
| 29> H 5.3481759775 -0.5586679495 -0.7300477001
| 30> H 1.3351968734 3.0035333433 0.6234694164
| 31> H 1.8627148207 2.9203442263 2.3239706863
| 32> H 3.6664394814 2.7395261454 -0.1498499007
| 33> H 3.5671731393 4.1149081188 0.9607582925
| 34> H 4.2304840213 2.5665021589 1.5211477234
| 35> H -0.1331297942 -3.1601894754 -0.0317218588
| 36> H 1.1152530498 -2.5556487441 -1.1662988273
| 37> H -2.4000872167 -2.1599857609 2.9615892353
| 38> H -1.6831305565 -0.5243780694 2.8651503656
| 39> H -4.0334804798 -0.4366250446 3.7431187889
| 40> H -3.8598907044 0.4264064829 2.2063982145
| 41> H -4.6048564217 -1.1790001301 2.2350104915
| 42> H -3.1049761887 1.8566852692 -1.2612485454
| 43> H -3.1991616955 0.631016747 -2.5499977393
| 44> H -5.50534415 1.4654014585 -0.710427288
| 45> H -5.3326274969 1.900152587 -2.4186416943
| 46> H -5.5956380497 0.2103100935 -1.9528805198
| 47> *
| 48>
| 49>                          ****END OF INPUT****

CARTESIAN COORDINATES (ANGSTROEM)
---------------------------------
  C      3.901560   -1.891453   -1.644966
  C      4.318041   -0.544552   -1.088406
  O      3.558573   -0.179664    0.072611
  P      2.026713    0.270942    0.053403
  S      1.486649    1.050890   -1.664039
  O      1.962048    1.174956    1.348983
  C      2.095602    2.607366    1.305076
  C      3.485757    3.035331    0.883160
  S      1.013230   -1.364455    0.945763
  C      0.330199   -2.277363   -0.466901
  S     -0.926745   -1.390658   -1.453176
  P     -1.937716   -0.304655    0.048510
  S     -1.203641    1.380573    0.755196
  O     -2.216209   -1.453040    1.093086
  C     -2.473603   -1.181038    2.486907
  C     -3.837005   -0.553539    2.682074
  O     -3.360752   -0.096680   -0.626486
  C     -3.616243    0.944302   -1.588559
  C     -5.116037    1.143291   -1.672019
  H      4.610455   -2.201398   -2.406154
  H      3.876159   -2.635090   -0.852085
  H      2.916032   -1.808513   -2.102116
  H      4.195460    0.235151   -1.846768
  H      5.348176   -0.558668   -0.730048
  H      1.335197    3.003533    0.623469
  H      1.862715    2.920344    2.323971
  H      3.666439    2.739526   -0.149850
  H      3.567173    4.114908    0.960758
  H      4.230484    2.566502    1.521148
  H     -0.133130   -3.160189   -0.031722
  H      1.115253   -2.555649   -1.166299
  H     -2.400087   -2.159986    2.961589
  H     -1.683131   -0.524378    2.865150
  H     -4.033480   -0.436625    3.743119
  H     -3.859891    0.426406    2.206398
  H     -4.604856   -1.179000    2.235010
  H     -3.104976    1.856685   -1.261249
  H     -3.199162    0.631017   -2.549998
  H     -5.505344    1.465401   -0.710427
  H     -5.332627    1.900153   -2.418642
  H     -5.595638    0.210310   -1.952881

 Total Charge           Charge          ....    0
 Multiplicity           Mult            ....    1
 Number of Electrons    NEL             ....  202
 Basis Dimension        Dim             ....  334

ORBITAL ENERGIES
----------------

  NO   OCC          E(Eh)            E(eV)
   0   2.0000     -88.039851     -2395.6862
   1   2.0000     -88.032975     -2395.4990
   2   2.0000     -87.982278     -2394.1195
   3   2.0000     -87.976975     -2393.9752
   4   2.0000     -76.421249     -2079.5279
   5   2.0000     -76.420672     -2079.5122
   6   2.0000     -18.789029      -511.2755
   7   2.0000     -18.784845      -511.1616
   8   2.0000     -18.781941      -511.0826
   9   2.0000     -18.780990      -511.0567
  10   2.0000      -9.959927      -271.0234
  11   2.0000      -9.949048      -270.7274
  12   2.0000      -9.947936      -270.6971
  13   2.0000      -9.947247      -270.6783
  14   2.0000      -9.944507      -270.6038
  15   2.0000      -9.887008      -269.0392
  16   2.0000      -9.884173      -268.9620
  17   2.0000      -9.880035      -268.8494
  18   2.0000      -9.877966      -268.7931
  19   2.0000      -7.684690      -209.1111
  20   2.0000      -7.678497      -208.9425
  21   2.0000      -7.627105      -207.5441
  22   2.0000      -7.621625      -207.3950
  23   2.0000      -6.418235      -174.6490
  24   2.0000      -6.417936      -174.6409
  25   2.0000      -5.712733      -155.4514
  26   2.0000      -5.709321      -155.3585
  27   2.0000      -5.706699      -155.2872
  28   2.0000      -5.703054      -155.1880
  29   2.0000      -5.701317      -155.1407
  30   2.0000      -5.694988      -154.9685
  31   2.0000      -5.656050      -153.9090
  32   2.0000      -5.650435      -153.7561
  33   2.0000      -5.648122      -153.6932
  34   2.0000      -5.646887      -153.6596
  35   2.0000      -5.642197      -153.5320
  36   2.0000      -5.641977      -153.5260
  37   2.0000      -4.640556      -126.2759
  38   2.0000      -4.640515      -126.2748
  39   2.0000      -4.639995      -126.2607
  40   2.0000      -4.639846      -126.2566
  41   2.0000      -4.639056      -126.2351
  42   2.0000      -4.638239      -126.2129
  43   2.0000      -0.982613       -26.7383
  44   2.0000      -0.977991       -26.6125
  45   2.0000      -0.942368       -25.6431
  46   2.0000      -0.936731       -25.4897
  47   2.0000      -0.758543       -20.6410
  48   2.0000      -0.716647       -19.5010
  49   2.0000      -0.705598       -19.2003
  50   2.0000      -0.684896       -18.6370
  51   2.0000      -0.683229       -18.5916
  52   2.0000      -0.664577       -18.0841
  53   2.0000      -0.648786       -17.6544
  54   2.0000      -0.633427       -17.2364
  55   2.0000      -0.597755       -16.2657
  56   2.0000      -0.589054       -16.0290
  57   2.0000      -0.571219       -15.5437
  58   2.0000      -0.562319       -15.3015
  59   2.0000      -0.560552       -15.2534
  60   2.0000      -0.499809       -13.6005
  61   2.0000      -0.487440       -13.2639
  62   2.0000      -0.474960       -12.9243
  63   2.0000      -0.466855       -12.7038
  64   2.0000      -0.452547       -12.3144
  65   2.0000      -0.437661       -11.9094
  66   2.0000      -0.435296       -11.8450
  67   2.0000      -0.430966       -11.7272
  68   2.0000      -0.423909       -11.5351
  69   2.0000      -0.410059       -11.1583
  70   2.0000      -0.404673       -11.0117
  71   2.0000      -0.394173       -10.7260
  72   2.0000      -0.388840       -10.5809
  73   2.0000      -0.383251       -10.4288
  74   2.0000      -0.378177       -10.2907
  75   2.0000      -0.373018       -10.1503
  76   2.0000      -0.369113       -10.0441
  77   2.0000      -0.354739        -9.6530
  78   2.0000      -0.353262        -9.6127
  79   2.0000      -0.346202        -9.4206
  80   2.0000      -0.344782        -9.3820
  81   2.0000      -0.343926        -9.3587
  82   2.0000      -0.338690        -9.2162
  83   2.0000      -0.337625        -9.1872
  84   2.0000      -0.325097        -8.8463
  85   2.0000      -0.317176        -8.6308
  86   2.0000      -0.306293        -8.3347
  87   2.0000      -0.295317        -8.0360
  88   2.0000      -0.289875        -7.8879
  89   2.0000      -0.281707        -7.6656
  90   2.0000      -0.278016        -7.5652
  91   2.0000      -0.270015        -7.3475
  92   2.0000      -0.267021        -7.2660
  93   2.0000      -0.259312        -7.0562
  94   2.0000      -0.254730        -6.9316
  95   2.0000      -0.237643        -6.4666
  96   2.0000      -0.214896        -5.8476
  97   2.0000      -0.209615        -5.7039
  98   2.0000      -0.187819        -5.1108
  99   2.0000      -0.186802        -5.0831
 100   2.0000      -0.181007        -4.9254
 101   0.0000      -0.048914        -1.3310
 102   0.0000      -0.027169        -0.7393
 103   0.0000      -0.012381        -0.3369
 104   0.0000       0.009546         0.2598
 105   0.0000       0.022842         0.6216

MULLIKEN ATOMIC CHARGES
-----------------------
   0 C :   -0.328248
   1 C :    0.000831
   2 O :   -0.373408
   3 P :    0.629273
   4 S :   -0.307870
   5 O :   -0.372746
   6 C :   -0.000883
   7 C :   -0.305912
   8 S :   -0.098506
   9 C :   -0.328821
  10 S :   -0.099485
  11 P :    0.618977
  12 S :   -0.323111
  13 O :   -0.370443
  14 C :   -0.002898
  15 C :   -0.303928
  16 O :   -0.375169
  17 C :   -0.012485
  18 C :   -0.281370
  19 H :    0.112463
  20 H :    0.119969
  21 H :    0.128909
  22 H :    0.109050
  23 H :    0.102963
  24 H :    0.120562
  25 H :    0.104115
  26 H :    0.121911
  27 H :    0.109651
  28 H :    0.114711
  29 H :    0.186518
  30 H :    0.184365
  31 H :    0.100519
  32 H :    0.116191
  33 H :    0.110319
  34 H :    0.123085
  35 H :    0.114925
  36 H :    0.107228
  37 H :    0.103642
  38 H :    0.117998
  39 H :    0.110989
  40 H :    0.116119
Sum of atomic charges:    0.0000000

LOEWDIN ATOMIC CHARGES
----------------------
   0 C :   -0.368069
   1 C :   -0.120280
   2 O :   -0.252238
   3 P :    0.567860
   4 S :   -0.303581
   5 O :   -0.238498
   6 C :   -0.114251
   7 C :   -0.366140
   8 S :    0.094627
   9 C :   -0.466734
  10 S :    0.073024
  11 P :    0.564809
  12 S :   -0.311530
  13 O :   -0.239850
  14 C :   -0.117638
  15 C :   -0.364737
  16 O :   -0.249596
  17 C :   -0.120959
  18 C :   -0.350578
  19 H :    0.131738
  20 H :    0.125587
  21 H :    0.118680
  22 H :    0.107543
  23 H :    0.118380
  24 H :    0.111946
  25 H :    0.119449
  26 H :    0.120954
  27 H :    0.129389
  28 H :    0.125409
  29 H :    0.137179
  30 H :    0.128828
  31 H :    0.116695
  32 H :    0.111981
  33 H :    0.129637
  34 H :    0.122414
  35 H :    0.125704
  36 H :    0.107845
  37 H :    0.110793
  38 H :    0.127325
  39 H :    0.130308
  40 H :    0.126579

  Mayer bond orders larger than 0.100000
B(  0-C ,  1-C ) :   1.1616 B(  0-C , 19-H ) :   0.9358 B(  0-C , 20-H ) :   0.9453
B(  0-C , 21-H ) :   0.9200 B(  1-C ,  2-O ) :   0.9247 B(  1-C , 22-H ) :   0.9118
B(  1-C , 23-H ) :   0.9332 B(  2-O ,  3-P ) :   1.0842 B(  3-P ,  4-S ) :   1.6166
B(  3-P ,  5-O ) :   1.1284 B(  3-P ,  8-S ) :   0.9245 B(  4-S ,  8-S ) :   0.1169
B(  5-O ,  6-C ) :   0.9040 B(  6-C ,  7-C ) :   1.1625 B(  6-C , 24-H ) :   0.9167
B(  6-C , 25-H ) :   0.9359 B(  7-C , 26-H ) :   0.9347 B(  7-C , 27-H ) :   0.9390
B(  7-C , 28-H ) :   0.9454 B(  8-S ,  9-C ) :   1.0175 B(  9-C , 10-S ) :   0.9917
B(  9-C , 29-H ) :   0.9089 B(  9-C , 30-H ) :   0.8927 B( 10-S , 11-P ) :   0.9777
B( 10-S , 12-S ) :   0.1114 B( 11-P , 12-S ) :   1.6056 B( 11-P , 13-O ) :   1.1215
B( 11-P , 16-O ) :   1.1018 B( 13-O , 14-C ) :   0.8978 B( 14-C , 15-C ) :   1.1660
B( 14-C , 31-H ) :   0.9347 B( 14-C , 32-H ) :   0.9136 B( 15-C , 33-H ) :   0.9394
B( 15-C , 34-H ) :   0.9339 B( 15-C , 35-H ) :   0.9461 B( 16-O , 17-C ) :   0.9082
B( 17-C , 18-C ) :   1.1602 B( 17-C , 36-H ) :   0.9062 B( 17-C , 37-H ) :   0.9301
B( 18-C , 38-H ) :   0.9517 B( 18-C , 39-H ) :   0.9421 B( 18-C , 40-H ) :   0.9506

Dispersion correction           -0.067767164
FINAL SINGLE POINT ENERGY     -2929.512647035737

DIPOLE MOMENT
-------------

Method             : SCF
Type of density    : Electron Density
Multiplicity       :   1
Irrep              :   0
Energy             : -2929.6278291478242863 Eh
Relativity type    :
Basis              : AO
                                X                 Y                 Z
Electronic contribution:      2.754665476      -5.058250042      -1.010112162
Nuclear contribution   :     -2.651114718       4.581827442       1.162227110
                        -----------------------------------------
Total Dipole Moment    :      0.103550758      -0.476422600       0.152114947
                        -----------------------------------------
Magnitude (a.u.)       :      0.510725181
Magnitude (Debye)      :      1.298160244

Rotational constants in cm-1:             0.012413             0.005242             0.005035
Rotational constants in MHz :           372.135930           157.163547           150.952882

                             ****ORCA TERMINATED NORMALLY****
TOTAL RUN TIME: 0 days 0 hours 0 minutes 21 seconds 100 msec
