                         Program Version 6.0.0  -   RELEASE  -
|  1> ! pbe def2-sv(p) def2/J RI DEFGRID1 loosescf d4 GCP(DFT/SV(P)) printgap
|  2> %output
|  3>     printlevel normal
|  4> end
|  5> * xyz 0 1
|  6> C 2.0522965022 2.2235016002 -0.6690004614
|  7> C 2.1668626945 0.941395159 -1.4686243397
|  8> O 2.8029530794 -0.1213208369 -0.7409781124
|  9> P 2.3295470408 -0.7513574377 0.6401194895
| 10> S 2.5643296782 0.3239561277 2.2669584993
| 11> O 3.1527553908 -2.1032551672 0.6330284
| 12> C 4.4314665721 -2.2255927949 1.2871026549
| 13> C 5.5098206855 -1.4656838512 0.5438964937
| 14> S 0.3941414035 -1.5429066459 0.2762635349
| 15> C -0.5103312012 -0.7149986517 1.6146317452
| 16> S -1.1225883581 0.937963857 1.1768259711
| 17> P -2.295159505 0.4534278247 -0.5232553577
| 18> S -1.4348780313 0.3005981719 -2.2840829339
| 19> O -3.4645936782 1.5295144099 -0.4861922752
| 20> C -3.3499421308 2.8035245228 -1.1406628027
| 21> C -2.3175037411 3.6859364484 -0.4693963376
| 22> O -3.0102124477 -0.8479909915 0.0237065967
| 23> C -3.5867253595 -1.8272948748 -0.8657864508
| 24> C -4.8219253436 -1.2930751492 -1.5593459816
| 25> H 3.025213744 2.5196255715 -0.2844013923
| 26> H 1.66694242 3.0075342944 -1.3134819123
| 27> H 1.3729056127 2.0933501737 0.1725500724
| 28> H 2.8116044291 1.0744029983 -2.3393078216
| 29> H 1.1819020957 0.5991433171 -1.8020632408
| 30> H 4.3347672058 -1.8553594695 2.3129787417
| 31> H 4.6209225021 -3.2995858468 1.2950864497
| 32> H 6.4697821545 -1.6405692703 1.0194093142
| 33> H 5.5515639997 -1.7901228092 -0.4924396672
| 34> H 5.2888118806 -0.3992648253 0.5681272643
| 35> H 0.15653411 -0.5610490006 2.4647095383
| 36> H -1.350023333 -1.3525863768 1.8749297332
| 37> H -3.0857698311 2.6318133649 -2.1895282831
| 38> H -4.3524429528 3.2276308268 -1.0730269289
| 39> H -2.311198308 4.6628862775 -0.9417173802
| 40> H -2.5419815183 3.7951429606 0.5884754609
| 41> H -1.3292793312 3.2365053043 -0.5692074036
| 42> H -2.8262435769 -2.1225728003 -1.5959653793
| 43> H -3.8193290525 -2.6698585692 -0.2133801194
| 44> H -5.2821914056 -2.0876460315 -2.1381845502
| 45> H -5.5315923702 -0.9185701487 -0.8264023415
| 46> H -4.5465915253 -0.4802307361 -2.2301405745
| 47> *
| 48>
| 49>                          ****END OF INPUT****

CARTESIAN COORDINATES (ANGSTROEM)
---------------------------------
  C      2.052297    2.223502   -0.669000
  C      2.166863    0.941395   -1.468624
  O      2.802953   -0.121321   -0.740978
  P      2.329547   -0.751357    0.640119
  S      2.564330    0.323956    2.266958
  O      3.152755   -2.103255    0.633028
  C      4.431467   -2.225593    1.287103
  C      5.509821   -1.465684    0.543896
  S      0.394141   -1.542907    0.276264
  C     -0.510331   -0.714999    1.614632
  S     -1.122588    0.937964    1.176826
  P     -2.295160    0.453428   -0.523255
  S     -1.434878    0.300598   -2.284083
  O     -3.464594    1.529514   -0.486192
  C     -3.349942    2.803525   -1.140663
  C     -2.317504    3.685936   -0.469396
  O     -3.010212   -0.847991    0.023707
  C     -3.586725   -1.827295   -0.865786
  C     -4.821925   -1.293075   -1.559346
  H      3.025214    2.519626   -0.284401
  H      1.666942    3.007534   -1.313482
  H      1.372906    2.093350    0.172550
  H      2.811604    1.074403   -2.339308
  H      1.181902    0.599143   -1.802063
  H      4.334767   -1.855359    2.312979
  H      4.620923   -3.299586    1.295086
  H      6.469782   -1.640569    1.019409
  H      5.551564   -1.790123   -0.492440
  H      5.288812   -0.399265    0.568127
  H      0.156534   -0.561049    2.464710
  H     -1.350023   -1.352586    1.874930
  H     -3.085770    2.631813   -2.189528
  H     -4.352443    3.227631   -1.073027
  H     -2.311198    4.662886   -0.941717
  H     -2.541982    3.795143    0.588475
  H     -1.329279    3.236505   -0.569207
  H     -2.826244   -2.122573   -1.595965
  H     -3.819329   -2.669859   -0.213380
  H     -5.282191   -2.087646   -2.138185
  H     -5.531592   -0.918570   -0.826402
  H     -4.546592   -0.480231   -2.230141

 Total Charge           Charge          ....    0
 Multiplicity           Mult            ....    1
 Number of Electrons    NEL             ....  202
 Basis Dimension        Dim             ....  334

ORBITAL ENERGIES
----------------

  NO   OCC          E(Eh)            E(eV)
   0   2.0000     -88.042420     -2395.7560
   1   2.0000     -88.040447     -2395.7024
   2   2.0000     -87.991267     -2394.3641
   3   2.0000     -87.988596     -2394.2914
   4   2.0000     -76.430790     -2079.7875
   5   2.0000     -76.424586     -2079.6187
   6   2.0000     -18.799667      -511.5649
   7   2.0000     -18.796169      -511.4697
   8   2.0000     -18.786354      -511.2027
   9   2.0000     -18.784385      -511.1491
  10   2.0000      -9.956772      -270.9375
  11   2.0000      -9.956146      -270.9205
  12   2.0000      -9.955125      -270.8927
  13   2.0000      -9.947959      -270.6977
  14   2.0000      -9.941059      -270.5100
  15   2.0000      -9.889724      -269.1131
  16   2.0000      -9.887350      -269.0485
  17   2.0000      -9.879871      -268.8449
  18   2.0000      -9.871418      -268.6149
  19   2.0000      -7.687376      -209.1841
  20   2.0000      -7.685589      -209.1355
  21   2.0000      -7.635823      -207.7813
  22   2.0000      -7.633458      -207.7170
  23   2.0000      -6.428435      -174.9266
  24   2.0000      -6.422071      -174.7534
  25   2.0000      -5.715428      -155.5247
  26   2.0000      -5.713461      -155.4712
  27   2.0000      -5.711889      -155.4284
  28   2.0000      -5.710201      -155.3825
  29   2.0000      -5.704172      -155.2184
  30   2.0000      -5.702419      -155.1707
  31   2.0000      -5.664545      -154.1401
  32   2.0000      -5.662312      -154.0793
  33   2.0000      -5.656505      -153.9213
  34   2.0000      -5.656167      -153.9121
  35   2.0000      -5.654304      -153.8614
  36   2.0000      -5.653471      -153.8388
  37   2.0000      -4.651084      -126.5624
  38   2.0000      -4.650210      -126.5387
  39   2.0000      -4.648799      -126.5003
  40   2.0000      -4.644353      -126.3793
  41   2.0000      -4.643928      -126.3677
  42   2.0000      -4.642749      -126.3356
  43   2.0000      -0.993156       -27.0251
  44   2.0000      -0.981205       -26.7000
  45   2.0000      -0.953243       -25.9391
  46   2.0000      -0.938864       -25.5478
  47   2.0000      -0.762360       -20.7449
  48   2.0000      -0.721797       -19.6411
  49   2.0000      -0.706590       -19.2273
  50   2.0000      -0.691716       -18.8226
  51   2.0000      -0.679505       -18.4903
  52   2.0000      -0.672578       -18.3018
  53   2.0000      -0.655000       -17.8235
  54   2.0000      -0.640820       -17.4376
  55   2.0000      -0.604066       -16.4375
  56   2.0000      -0.593470       -16.1491
  57   2.0000      -0.577716       -15.7204
  58   2.0000      -0.566548       -15.4166
  59   2.0000      -0.560729       -15.2582
  60   2.0000      -0.499633       -13.5957
  61   2.0000      -0.489035       -13.3073
  62   2.0000      -0.478690       -13.0258
  63   2.0000      -0.463009       -12.5991
  64   2.0000      -0.460858       -12.5406
  65   2.0000      -0.445042       -12.1102
  66   2.0000      -0.443708       -12.0739
  67   2.0000      -0.430115       -11.7040
  68   2.0000      -0.423928       -11.5357
  69   2.0000      -0.419321       -11.4103
  70   2.0000      -0.405604       -11.0370
  71   2.0000      -0.398641       -10.8476
  72   2.0000      -0.393588       -10.7101
  73   2.0000      -0.387844       -10.5538
  74   2.0000      -0.386058       -10.5052
  75   2.0000      -0.376324       -10.2403
  76   2.0000      -0.371017       -10.0959
  77   2.0000      -0.360550        -9.8111
  78   2.0000      -0.354864        -9.6563
  79   2.0000      -0.351542        -9.5660
  80   2.0000      -0.346900        -9.4396
  81   2.0000      -0.341782        -9.3004
  82   2.0000      -0.337680        -9.1887
  83   2.0000      -0.335260        -9.1229
  84   2.0000      -0.331715        -9.0264
  85   2.0000      -0.317370        -8.6361
  86   2.0000      -0.308036        -8.3821
  87   2.0000      -0.300643        -8.1809
  88   2.0000      -0.290974        -7.9178
  89   2.0000      -0.289545        -7.8789
  90   2.0000      -0.282325        -7.6825
  91   2.0000      -0.278484        -7.5779
  92   2.0000      -0.270604        -7.3635
  93   2.0000      -0.266691        -7.2570
  94   2.0000      -0.255804        -6.9608
  95   2.0000      -0.241588        -6.5739
  96   2.0000      -0.220362        -5.9963
  97   2.0000      -0.209453        -5.6995
  98   2.0000      -0.204955        -5.5771
  99   2.0000      -0.202140        -5.5005
 100   2.0000      -0.196359        -5.3432
 101   0.0000      -0.049209        -1.3390
 102   0.0000      -0.025986        -0.7071
 103   0.0000      -0.019591        -0.5331
 104   0.0000       0.003276         0.0891
 105   0.0000       0.016678         0.4538

MULLIKEN ATOMIC CHARGES
-----------------------
   0 C :   -0.333760
   1 C :   -0.024846
   2 O :   -0.371130
   3 P :    0.627532
   4 S :   -0.335969
   5 O :   -0.367973
   6 C :   -0.006531
   7 C :   -0.303631
   8 S :   -0.084776
   9 C :   -0.348294
  10 S :   -0.087619
  11 P :    0.612104
  12 S :   -0.318808
  13 O :   -0.366636
  14 C :   -0.003189
  15 C :   -0.336873
  16 O :   -0.373883
  17 C :   -0.007958
  18 C :   -0.305690
  19 H :    0.113952
  20 H :    0.110292
  21 H :    0.146090
  22 H :    0.099434
  23 H :    0.136808
  24 H :    0.111544
  25 H :    0.104741
  26 H :    0.109741
  27 H :    0.117059
  28 H :    0.124064
  29 H :    0.193504
  30 H :    0.190512
  31 H :    0.110203
  32 H :    0.107981
  33 H :    0.118185
  34 H :    0.126350
  35 H :    0.136779
  36 H :    0.117658
  37 H :    0.106396
  38 H :    0.114400
  39 H :    0.118792
  40 H :    0.123442
Sum of atomic charges:    0.0000000

LOEWDIN ATOMIC CHARGES
----------------------
   0 C :   -0.374225
   1 C :   -0.122246
   2 O :   -0.240145
   3 P :    0.575007
   4 S :   -0.310440
   5 O :   -0.244685
   6 C :   -0.117316
   7 C :   -0.363739
   8 S :    0.088508
   9 C :   -0.479904
  10 S :    0.094444
  11 P :    0.572123
  12 S :   -0.307723
  13 O :   -0.241597
  14 C :   -0.120963
  15 C :   -0.371186
  16 O :   -0.239608
  17 C :   -0.117661
  18 C :   -0.364293
  19 H :    0.124136
  20 H :    0.127867
  21 H :    0.114357
  22 H :    0.117789
  23 H :    0.103913
  24 H :    0.109039
  25 H :    0.118637
  26 H :    0.129214
  27 H :    0.126745
  28 H :    0.123465
  29 H :    0.128680
  30 H :    0.134465
  31 H :    0.109208
  32 H :    0.120241
  33 H :    0.133838
  34 H :    0.127889
  35 H :    0.121566
  36 H :    0.113165
  37 H :    0.119026
  38 H :    0.131792
  39 H :    0.127620
  40 H :    0.122999

  Mayer bond orders larger than 0.100000
B(  0-C ,  1-C ) :   1.1669 B(  0-C , 19-H ) :   0.9427 B(  0-C , 20-H ) :   0.9336
B(  0-C , 21-H ) :   0.9208 B(  1-C ,  2-O ) :   0.9022 B(  1-C , 22-H ) :   0.9342
B(  1-C , 23-H ) :   0.9016 B(  2-O ,  3-P ) :   1.1236 B(  3-P ,  4-S ) :   1.5939
B(  3-P ,  5-O ) :   1.1333 B(  3-P ,  8-S ) :   0.9436 B(  4-S ,  8-S ) :   0.1143
B(  5-O ,  6-C ) :   0.9110 B(  6-C ,  7-C ) :   1.1631 B(  6-C , 24-H ) :   0.9139
B(  6-C , 25-H ) :   0.9346 B(  7-C , 26-H ) :   0.9389 B(  7-C , 27-H ) :   0.9466
B(  7-C , 28-H ) :   0.9370 B(  8-S ,  9-C ) :   1.0181 B(  9-C , 10-S ) :   0.9970
B(  9-C , 29-H ) :   0.8658 B(  9-C , 30-H ) :   0.8984 B( 10-S , 11-P ) :   0.9662
B( 10-S , 12-S ) :   0.1051 B( 11-P , 12-S ) :   1.5995 B( 11-P , 13-O ) :   1.1058
B( 11-P , 16-O ) :   1.1152 B( 13-O , 14-C ) :   0.9095 B( 14-C , 15-C ) :   1.1631
B( 14-C , 31-H ) :   0.9132 B( 14-C , 32-H ) :   0.9322 B( 15-C , 33-H ) :   0.9380
B( 15-C , 34-H ) :   0.9429 B( 15-C , 35-H ) :   0.9298 B( 16-O , 17-C ) :   0.8984
B( 17-C , 18-C ) :   1.1653 B( 17-C , 36-H ) :   0.9159 B( 17-C , 37-H ) :   0.9338
B( 18-C , 38-H ) :   0.9386 B( 18-C , 39-H ) :   0.9457 B( 18-C , 40-H ) :   0.9358

Dispersion correction           -0.065889161
FINAL SINGLE POINT ENERGY     -2929.522335100959

DIPOLE MOMENT
-------------

Method             : SCF
Type of density    : Electron Density
Multiplicity       :   1
Irrep              :   0
Energy             : -2929.6413296510136206 Eh
Relativity type    :
Basis              : AO
                                X                 Y                 Z
Electronic contribution:     -0.158765344      -7.483067117       7.059612193
Nuclear contribution   :     -0.515066594       7.439139731      -7.390535002
                        -----------------------------------------
Total Dipole Moment    :     -0.673831938      -0.043927386      -0.330922809
                        -----------------------------------------
Magnitude (a.u.)       :      0.751990028
Magnitude (Debye)      :      1.911406748

Rotational constants in cm-1:             0.014254             0.004604             0.004258
Rotational constants in MHz :           427.321054           138.015360           127.658753

                             ****ORCA TERMINATED NORMALLY****
TOTAL RUN TIME: 0 days 0 hours 0 minutes 20 seconds 956 msec
