                         Program Version 6.0.0  -   RELEASE  -
|  1> ! pbe def2-sv(p) def2/J RI DEFGRID1 loosescf d4 GCP(DFT/SV(P)) printgap
|  2> %output
|  3>     printlevel normal
|  4> end
|  5> * xyz 0 1
|  6> C 5.3255173525 -1.9418780206 -1.2450083667
|  7> C 4.0387503898 -1.373853942 -1.8115521863
|  8> O 2.9792011524 -1.5588042442 -0.8505955587
|  9> P 2.0856926989 -0.358398123 -0.3091814353
| 10> S 3.0907966367 1.2783026676 0.0976036114
| 11> O 1.331809714 -1.0712846961 0.8834830538
| 12> C 1.8464133986 -1.0811663 2.2350823036
| 13> C 1.085577331 -0.0912052531 3.0943469416
| 14> S 0.5515493522 -0.2186146827 -1.7457202615
| 15> C -0.0106787609 1.4584003996 -1.3342720838
| 16> S -0.5527768981 1.625745902 0.3826720082
| 17> P -2.238176637 0.3577110687 0.2786363463
| 18> S -3.2085845226 0.2718159441 -1.427213454
| 19> O -3.0770729636 0.7801345896 1.5631353744
| 20> C -3.4904451457 2.1169234733 1.903638853
| 21> C -4.1844263928 2.8335210359 0.7640543513
| 22> O -1.6767653892 -1.033156448 0.789253208
| 23> C -2.229705095 -2.311792971 0.4102648254
| 24> C -1.3574874287 -2.9925638984 -0.6260235489
| 25> H 5.1835086028 -2.9831691019 -0.9704933802
| 26> H 6.1075470152 -1.869270606 -1.9936900707
| 27> H 5.6242239405 -1.3806948526 -0.3627781842
| 28> H 3.7314263355 -1.9002567206 -2.7171624139
| 29> H 4.1471042554 -0.3063956128 -2.0267306903
| 30> H 1.7030989389 -2.1056664323 2.5820850825
| 31> H 2.9138600062 -0.8439306699 2.2170500305
| 32> H 1.4018299223 -0.1950395837 4.1272665563
| 33> H 1.2819401813 0.9257139292 2.760419826
| 34> H 0.0172885245 -0.2815785814 3.021062342
| 35> H -0.8400233459 1.6726509947 -2.0081234921
| 36> H 0.8078107033 2.1646422232 -1.4665094067
| 37> H -4.1639077625 1.9679147162 2.7496412337
| 38> H -2.6056146597 2.6718609085 2.2276627401
| 39> H -5.0177071922 2.2412269969 0.3932146672
| 40> H -4.5529254802 3.7923101733 1.114431878
| 41> H -3.4878324945 3.0001142321 -0.0563855841
| 42> H -2.2659145053 -2.8837072081 1.3389276207
| 43> H -3.2438347125 -2.1665498048 0.0270304984
| 44> H -0.3244185234 -3.016709774 -0.2874056502
| 45> H -1.7116241021 -4.0068979671 -0.7792169667
| 46> H -1.401774455 -2.4532103088 -1.5699674126
| 47> *
| 48>
| 49>                          ****END OF INPUT****

CARTESIAN COORDINATES (ANGSTROEM)
---------------------------------
  C      5.325517   -1.941878   -1.245008
  C      4.038750   -1.373854   -1.811552
  O      2.979201   -1.558804   -0.850596
  P      2.085693   -0.358398   -0.309181
  S      3.090797    1.278303    0.097604
  O      1.331810   -1.071285    0.883483
  C      1.846413   -1.081166    2.235082
  C      1.085577   -0.091205    3.094347
  S      0.551549   -0.218615   -1.745720
  C     -0.010679    1.458400   -1.334272
  S     -0.552777    1.625746    0.382672
  P     -2.238177    0.357711    0.278636
  S     -3.208585    0.271816   -1.427213
  O     -3.077073    0.780135    1.563135
  C     -3.490445    2.116923    1.903639
  C     -4.184426    2.833521    0.764054
  O     -1.676765   -1.033156    0.789253
  C     -2.229705   -2.311793    0.410265
  C     -1.357487   -2.992564   -0.626024
  H      5.183509   -2.983169   -0.970493
  H      6.107547   -1.869271   -1.993690
  H      5.624224   -1.380695   -0.362778
  H      3.731426   -1.900257   -2.717162
  H      4.147104   -0.306396   -2.026731
  H      1.703099   -2.105666    2.582085
  H      2.913860   -0.843931    2.217050
  H      1.401830   -0.195040    4.127267
  H      1.281940    0.925714    2.760420
  H      0.017289   -0.281579    3.021062
  H     -0.840023    1.672651   -2.008123
  H      0.807811    2.164642   -1.466509
  H     -4.163908    1.967915    2.749641
  H     -2.605615    2.671861    2.227663
  H     -5.017707    2.241227    0.393215
  H     -4.552925    3.792310    1.114432
  H     -3.487832    3.000114   -0.056386
  H     -2.265915   -2.883707    1.338928
  H     -3.243835   -2.166550    0.027030
  H     -0.324419   -3.016710   -0.287406
  H     -1.711624   -4.006898   -0.779217
  H     -1.401774   -2.453210   -1.569967

 Total Charge           Charge          ....    0
 Multiplicity           Mult            ....    1
 Number of Electrons    NEL             ....  202
 Basis Dimension        Dim             ....  334

ORBITAL ENERGIES
----------------

  NO   OCC          E(Eh)            E(eV)
   0   2.0000     -88.046162     -2395.8579
   1   2.0000     -88.043006     -2395.7720
   2   2.0000     -87.989726     -2394.3222
   3   2.0000     -87.985858     -2394.2169
   4   2.0000     -76.427094     -2079.6870
   5   2.0000     -76.426099     -2079.6599
   6   2.0000     -18.792574      -511.3719
   7   2.0000     -18.790878      -511.3258
   8   2.0000     -18.788518      -511.2616
   9   2.0000     -18.783385      -511.1219
  10   2.0000      -9.956874      -270.9403
  11   2.0000      -9.956526      -270.9309
  12   2.0000      -9.952786      -270.8291
  13   2.0000      -9.951650      -270.7982
  14   2.0000      -9.946291      -270.6523
  15   2.0000      -9.886591      -269.0278
  16   2.0000      -9.882429      -268.9146
  17   2.0000      -9.877019      -268.7674
  18   2.0000      -9.872207      -268.6364
  19   2.0000      -7.690882      -209.2795
  20   2.0000      -7.688133      -209.2047
  21   2.0000      -7.634681      -207.7502
  22   2.0000      -7.630831      -207.6455
  23   2.0000      -6.424638      -174.8233
  24   2.0000      -6.423238      -174.7852
  25   2.0000      -5.718698      -155.6137
  26   2.0000      -5.716038      -155.5413
  27   2.0000      -5.715348      -155.5225
  28   2.0000      -5.712686      -155.4501
  29   2.0000      -5.707943      -155.3210
  30   2.0000      -5.704971      -155.2401
  31   2.0000      -5.663523      -154.1123
  32   2.0000      -5.659703      -154.0083
  33   2.0000      -5.655331      -153.8894
  34   2.0000      -5.654927      -153.8784
  35   2.0000      -5.651660      -153.7895
  36   2.0000      -5.650850      -153.7674
  37   2.0000      -4.647102      -126.4541
  38   2.0000      -4.646352      -126.4337
  39   2.0000      -4.645693      -126.4157
  40   2.0000      -4.645261      -126.4040
  41   2.0000      -4.645170      -126.4015
  42   2.0000      -4.643717      -126.3620
  43   2.0000      -0.985716       -26.8227
  44   2.0000      -0.982356       -26.7313
  45   2.0000      -0.943581       -25.6761
  46   2.0000      -0.939674       -25.5698
  47   2.0000      -0.767341       -20.8804
  48   2.0000      -0.721791       -19.6409
  49   2.0000      -0.708245       -19.2723
  50   2.0000      -0.685774       -18.6609
  51   2.0000      -0.682597       -18.5744
  52   2.0000      -0.671964       -18.2851
  53   2.0000      -0.650460       -17.6999
  54   2.0000      -0.640790       -17.4368
  55   2.0000      -0.597912       -16.2700
  56   2.0000      -0.589092       -16.0300
  57   2.0000      -0.574869       -15.6430
  58   2.0000      -0.568447       -15.4682
  59   2.0000      -0.557043       -15.1579
  60   2.0000      -0.506138       -13.7727
  61   2.0000      -0.497292       -13.5320
  62   2.0000      -0.476652       -12.9704
  63   2.0000      -0.466386       -12.6910
  64   2.0000      -0.458333       -12.4719
  65   2.0000      -0.441423       -12.0117
  66   2.0000      -0.435967       -11.8633
  67   2.0000      -0.432610       -11.7719
  68   2.0000      -0.429216       -11.6796
  69   2.0000      -0.417110       -11.3501
  70   2.0000      -0.408314       -11.1108
  71   2.0000      -0.394286       -10.7291
  72   2.0000      -0.390313       -10.6210
  73   2.0000      -0.384821       -10.4715
  74   2.0000      -0.377804       -10.2806
  75   2.0000      -0.373405       -10.1609
  76   2.0000      -0.368462       -10.0263
  77   2.0000      -0.353046        -9.6069
  78   2.0000      -0.350655        -9.5418
  79   2.0000      -0.348400        -9.4804
  80   2.0000      -0.347015        -9.4428
  81   2.0000      -0.340959        -9.2780
  82   2.0000      -0.338656        -9.2153
  83   2.0000      -0.335962        -9.1420
  84   2.0000      -0.335097        -9.1185
  85   2.0000      -0.316805        -8.6207
  86   2.0000      -0.301975        -8.2172
  87   2.0000      -0.297692        -8.1006
  88   2.0000      -0.296799        -8.0763
  89   2.0000      -0.290775        -7.9124
  90   2.0000      -0.280580        -7.6350
  91   2.0000      -0.278520        -7.5789
  92   2.0000      -0.269886        -7.3440
  93   2.0000      -0.264139        -7.1876
  94   2.0000      -0.256701        -6.9852
  95   2.0000      -0.232239        -6.3196
  96   2.0000      -0.220006        -5.9867
  97   2.0000      -0.213853        -5.8192
  98   2.0000      -0.206471        -5.6184
  99   2.0000      -0.200494        -5.4557
 100   2.0000      -0.197796        -5.3823
 101   0.0000      -0.047077        -1.2810
 102   0.0000      -0.026304        -0.7158
 103   0.0000      -0.002668        -0.0726
 104   0.0000       0.002191         0.0596
 105   0.0000       0.005144         0.1400

MULLIKEN ATOMIC CHARGES
-----------------------
   0 C :   -0.285835
   1 C :   -0.005084
   2 O :   -0.379567
   3 P :    0.617463
   4 S :   -0.338301
   5 O :   -0.355658
   6 C :   -0.001830
   7 C :   -0.296891
   8 S :   -0.075349
   9 C :   -0.352219
  10 S :   -0.087673
  11 P :    0.622226
  12 S :   -0.335053
  13 O :   -0.376843
  14 C :   -0.008189
  15 C :   -0.309801
  16 O :   -0.358729
  17 C :   -0.002988
  18 C :   -0.296109
  19 H :    0.115448
  20 H :    0.110854
  21 H :    0.117981
  22 H :    0.105512
  23 H :    0.103594
  24 H :    0.103990
  25 H :    0.102102
  26 H :    0.103898
  27 H :    0.126973
  28 H :    0.121679
  29 H :    0.190610
  30 H :    0.190919
  31 H :    0.108286
  32 H :    0.111910
  33 H :    0.127137
  34 H :    0.110783
  35 H :    0.122224
  36 H :    0.099827
  37 H :    0.104658
  38 H :    0.119112
  39 H :    0.101304
  40 H :    0.127627
Sum of atomic charges:    0.0000000

LOEWDIN ATOMIC CHARGES
----------------------
   0 C :   -0.353399
   1 C :   -0.118994
   2 O :   -0.252179
   3 P :    0.566598
   4 S :   -0.331046
   5 O :   -0.232092
   6 C :   -0.110008
   7 C :   -0.363583
   8 S :    0.101361
   9 C :   -0.478477
  10 S :    0.102265
  11 P :    0.570821
  12 S :   -0.322385
  13 O :   -0.249098
  14 C :   -0.114265
  15 C :   -0.369849
  16 O :   -0.236113
  17 C :   -0.112578
  18 C :   -0.364813
  19 H :    0.126056
  20 H :    0.130145
  21 H :    0.127258
  22 H :    0.115653
  23 H :    0.106918
  24 H :    0.117435
  25 H :    0.107846
  26 H :    0.126006
  27 H :    0.122932
  28 H :    0.124182
  29 H :    0.130847
  30 H :    0.132216
  31 H :    0.121061
  32 H :    0.108968
  33 H :    0.129514
  34 H :    0.129641
  35 H :    0.119715
  36 H :    0.115495
  37 H :    0.107537
  38 H :    0.122525
  39 H :    0.124943
  40 H :    0.120939

  Mayer bond orders larger than 0.100000
B(  0-C ,  1-C ) :   1.1655 B(  0-C , 19-H ) :   0.9500 B(  0-C , 20-H ) :   0.9413
B(  0-C , 21-H ) :   0.9478 B(  1-C ,  2-O ) :   0.9017 B(  1-C , 22-H ) :   0.9334
B(  1-C , 23-H ) :   0.9048 B(  2-O ,  3-P ) :   1.1092 B(  3-P ,  4-S ) :   1.5811
B(  3-P ,  5-O ) :   1.1317 B(  3-P ,  8-S ) :   0.9706 B(  4-S ,  8-S ) :   0.1093
B(  5-O ,  6-C ) :   0.8934 B(  6-C ,  7-C ) :   1.1727 B(  6-C , 24-H ) :   0.9335
B(  6-C , 25-H ) :   0.9136 B(  7-C , 26-H ) :   0.9391 B(  7-C , 27-H ) :   0.9382
B(  7-C , 28-H ) :   0.9413 B(  8-S ,  9-C ) :   1.0016 B(  9-C , 10-S ) :   1.0116
B(  9-C , 29-H ) :   0.8824 B(  9-C , 30-H ) :   0.8882 B( 10-S , 11-P ) :   0.9495
B( 10-S , 12-S ) :   0.1080 B( 11-P , 12-S ) :   1.5914 B( 11-P , 13-O ) :   1.1103
B( 11-P , 16-O ) :   1.1287 B( 13-O , 14-C ) :   0.9163 B( 14-C , 15-C ) :   1.1652
B( 14-C , 31-H ) :   0.9343 B( 14-C , 32-H ) :   0.9281 B( 15-C , 33-H ) :   0.9420
B( 15-C , 34-H ) :   0.9349 B( 15-C , 35-H ) :   0.9343 B( 16-O , 17-C ) :   0.8985
B( 17-C , 18-C ) :   1.1716 B( 17-C , 36-H ) :   0.9338 B( 17-C , 37-H ) :   0.9114
B( 18-C , 38-H ) :   0.9416 B( 18-C , 39-H ) :   0.9383 B( 18-C , 40-H ) :   0.9378

Dispersion correction           -0.067227664
FINAL SINGLE POINT ENERGY     -2929.525194384277

DIPOLE MOMENT
-------------

Method             : SCF
Type of density    : Electron Density
Multiplicity       :   1
Irrep              :   0
Energy             : -2929.6421790958233942 Eh
Relativity type    :
Basis              : AO
                                X                 Y                 Z
Electronic contribution:     -2.992234618       7.142421862      -7.298240049
Nuclear contribution   :      3.232909028      -7.592387848       7.946461858
                        -----------------------------------------
Total Dipole Moment    :      0.240674410      -0.449965986       0.648221809
                        -----------------------------------------
Magnitude (a.u.)       :      0.824975802
Magnitude (Debye)      :      2.096921844

Rotational constants in cm-1:             0.013493             0.005091             0.004857
Rotational constants in MHz :           404.509079           152.637050           145.612159

                             ****ORCA TERMINATED NORMALLY****
TOTAL RUN TIME: 0 days 0 hours 0 minutes 21 seconds 376 msec
