                         Program Version 6.0.0  -   RELEASE  -
|  1> ! pbe def2-sv(p) def2/J RI DEFGRID1 loosescf d4 GCP(DFT/SV(P)) printgap
|  2> %output
|  3>     printlevel normal
|  4> end
|  5> * xyz 0 1
|  6> C 5.5626686453 0.6465614885 0.4007411054
|  7> C 4.5748367379 1.4211376069 -0.4469212792
|  8> O 3.5077059903 0.5743839563 -0.9201146344
|  9> P 2.2669086932 0.1754441167 -0.0243199996
| 10> S 1.7409917378 1.4990122371 1.3232530005
| 11> O 2.6317867593 -1.2646349448 0.5482608358
| 12> C 2.2259290068 -1.7541790043 1.8448451262
| 13> C 3.2852208881 -1.4670460977 2.8900740651
| 14> S 0.977537023 -0.2283353938 -1.6656230168
| 15> C -0.0514119405 -1.5070286879 -0.8801346123
| 16> S -1.0127784605 -0.8895070937 0.5162086196
| 17> P -2.5600134095 0.0390808753 -0.6288121689
| 18> S -2.9705032591 -0.8421901757 -2.3282681791
| 19> O -2.1543688491 1.5276344767 -0.9347960512
| 20> C -1.5318238926 2.5082952344 -0.0718005515
| 21> C -2.0964104218 2.5472885732 1.3305272551
| 22> O -3.7460529445 0.2036012538 0.4095421209
| 23> C -4.2487339205 -0.8298463953 1.2775667239
| 24> C -4.6420971995 -2.0874969948 0.5316591806
| 25> H 5.9124436613 -0.2285190031 -0.1404387674
| 26> H 6.4076617209 1.2847217128 0.6396256347
| 27> H 5.0880124694 0.3249903631 1.3250672526
| 28> H 5.0363659595 1.8010537331 -1.3596211733
| 29> H 4.1382307405 2.2500475857 0.1207986192
| 30> H 1.2733427964 -1.2953758669 2.125509434
| 31> H 2.0905781369 -2.8279614265 1.7040363654
| 32> H 4.24477504 -1.8681691343 2.5751032681
| 33> H 3.3749232363 -0.3941278908 3.0470801937
| 34> H 2.9921232166 -1.9329489883 3.8254059695
| 35> H 0.5775545391 -2.3159711164 -0.5188885449
| 36> H -0.7390380858 -1.8544156929 -1.6552547337
| 37> H -0.4584761471 2.2984686364 -0.0471852784
| 38> H -1.7020780998 3.447788536 -0.5999381346
| 39> H -3.172029028 2.6997609906 1.3043563024
| 40> H -1.8749793363 1.6201294964 1.8561118534
| 41> H -1.6250656343 3.365404105 1.8670901596
| 42> H -3.4818819288 -1.0478266643 2.0261832762
| 43> H -5.1119476995 -0.3638000119 1.7557675996
| 44> H -3.7653863585 -2.5471304201 0.0777887617
| 45> H -5.0928684714 -2.7907198794 1.2244635792
| 46> H -5.3519190757 -1.8537404226 -0.2582999054
| 47> *
| 48>
| 49>                          ****END OF INPUT****

CARTESIAN COORDINATES (ANGSTROEM)
---------------------------------
  C      5.562669    0.646561    0.400741
  C      4.574837    1.421138   -0.446921
  O      3.507706    0.574384   -0.920115
  P      2.266909    0.175444   -0.024320
  S      1.740992    1.499012    1.323253
  O      2.631787   -1.264635    0.548261
  C      2.225929   -1.754179    1.844845
  C      3.285221   -1.467046    2.890074
  S      0.977537   -0.228335   -1.665623
  C     -0.051412   -1.507029   -0.880135
  S     -1.012778   -0.889507    0.516209
  P     -2.560013    0.039081   -0.628812
  S     -2.970503   -0.842190   -2.328268
  O     -2.154369    1.527634   -0.934796
  C     -1.531824    2.508295   -0.071801
  C     -2.096410    2.547289    1.330527
  O     -3.746053    0.203601    0.409542
  C     -4.248734   -0.829846    1.277567
  C     -4.642097   -2.087497    0.531659
  H      5.912444   -0.228519   -0.140439
  H      6.407662    1.284722    0.639626
  H      5.088012    0.324990    1.325067
  H      5.036366    1.801054   -1.359621
  H      4.138231    2.250048    0.120799
  H      1.273343   -1.295376    2.125509
  H      2.090578   -2.827961    1.704036
  H      4.244775   -1.868169    2.575103
  H      3.374923   -0.394128    3.047080
  H      2.992123   -1.932949    3.825406
  H      0.577555   -2.315971   -0.518889
  H     -0.739038   -1.854416   -1.655255
  H     -0.458476    2.298469   -0.047185
  H     -1.702078    3.447789   -0.599938
  H     -3.172029    2.699761    1.304356
  H     -1.874979    1.620129    1.856112
  H     -1.625066    3.365404    1.867090
  H     -3.481882   -1.047827    2.026183
  H     -5.111948   -0.363800    1.755768
  H     -3.765386   -2.547130    0.077789
  H     -5.092868   -2.790720    1.224464
  H     -5.351919   -1.853740   -0.258300

 Total Charge           Charge          ....    0
 Multiplicity           Mult            ....    1
 Number of Electrons    NEL             ....  202
 Basis Dimension        Dim             ....  334

ORBITAL ENERGIES
----------------

  NO   OCC          E(Eh)            E(eV)
   0   2.0000     -88.046232     -2395.8598
   1   2.0000     -88.040162     -2395.6946
   2   2.0000     -87.994372     -2394.4486
   3   2.0000     -87.978078     -2394.0052
   4   2.0000     -76.431671     -2079.8115
   5   2.0000     -76.425105     -2079.6328
   6   2.0000     -18.800903      -511.5986
   7   2.0000     -18.796309      -511.4736
   8   2.0000     -18.793791      -511.4050
   9   2.0000     -18.782612      -511.1008
  10   2.0000      -9.962608      -271.0964
  11   2.0000      -9.959045      -270.9994
  12   2.0000      -9.956221      -270.9226
  13   2.0000      -9.956146      -270.9205
  14   2.0000      -9.941785      -270.5297
  15   2.0000      -9.891110      -269.1508
  16   2.0000      -9.890943      -269.1463
  17   2.0000      -9.882879      -268.9268
  18   2.0000      -9.879804      -268.8431
  19   2.0000      -7.690685      -209.2742
  20   2.0000      -7.685299      -209.1276
  21   2.0000      -7.639098      -207.8704
  22   2.0000      -7.623461      -207.4449
  23   2.0000      -6.429219      -174.9479
  24   2.0000      -6.422014      -174.7519
  25   2.0000      -5.718284      -155.6024
  26   2.0000      -5.715216      -155.5189
  27   2.0000      -5.713346      -155.4681
  28   2.0000      -5.709980      -155.3764
  29   2.0000      -5.708022      -155.3232
  30   2.0000      -5.701940      -155.1577
  31   2.0000      -5.667838      -154.2297
  32   2.0000      -5.659781      -154.0105
  33   2.0000      -5.659372      -153.9993
  34   2.0000      -5.652536      -153.8133
  35   2.0000      -5.644151      -153.5852
  36   2.0000      -5.643317      -153.5625
  37   2.0000      -4.651855      -126.5834
  38   2.0000      -4.650933      -126.5583
  39   2.0000      -4.649669      -126.5239
  40   2.0000      -4.644701      -126.3887
  41   2.0000      -4.644265      -126.3769
  42   2.0000      -4.642013      -126.3156
  43   2.0000      -0.991487       -26.9797
  44   2.0000      -0.984034       -26.7769
  45   2.0000      -0.953311       -25.9409
  46   2.0000      -0.940437       -25.5906
  47   2.0000      -0.764646       -20.8071
  48   2.0000      -0.725540       -19.7429
  49   2.0000      -0.710825       -19.3425
  50   2.0000      -0.694366       -18.8947
  51   2.0000      -0.687806       -18.7161
  52   2.0000      -0.674050       -18.3418
  53   2.0000      -0.656647       -17.8683
  54   2.0000      -0.637950       -17.3595
  55   2.0000      -0.604891       -16.4599
  56   2.0000      -0.590113       -16.0578
  57   2.0000      -0.578075       -15.7302
  58   2.0000      -0.574778       -15.6405
  59   2.0000      -0.563858       -15.3433
  60   2.0000      -0.509263       -13.8578
  61   2.0000      -0.490398       -13.3444
  62   2.0000      -0.484300       -13.1785
  63   2.0000      -0.464631       -12.6432
  64   2.0000      -0.460663       -12.5353
  65   2.0000      -0.449661       -12.2359
  66   2.0000      -0.441475       -12.0131
  67   2.0000      -0.437380       -11.9017
  68   2.0000      -0.430099       -11.7036
  69   2.0000      -0.413482       -11.2514
  70   2.0000      -0.408231       -11.1085
  71   2.0000      -0.404594       -11.0096
  72   2.0000      -0.398235       -10.8365
  73   2.0000      -0.390014       -10.6128
  74   2.0000      -0.387200       -10.5363
  75   2.0000      -0.377219       -10.2647
  76   2.0000      -0.367209        -9.9923
  77   2.0000      -0.363760        -9.8984
  78   2.0000      -0.356407        -9.6983
  79   2.0000      -0.348093        -9.4721
  80   2.0000      -0.347848        -9.4654
  81   2.0000      -0.344160        -9.3651
  82   2.0000      -0.341286        -9.2869
  83   2.0000      -0.339817        -9.2469
  84   2.0000      -0.336364        -9.1529
  85   2.0000      -0.330004        -8.9799
  86   2.0000      -0.312844        -8.5129
  87   2.0000      -0.303852        -8.2682
  88   2.0000      -0.294548        -8.0150
  89   2.0000      -0.288969        -7.8633
  90   2.0000      -0.281464        -7.6590
  91   2.0000      -0.280056        -7.6207
  92   2.0000      -0.269929        -7.3451
  93   2.0000      -0.268034        -7.2936
  94   2.0000      -0.261201        -7.1076
  95   2.0000      -0.243465        -6.6250
  96   2.0000      -0.219808        -5.9813
  97   2.0000      -0.211682        -5.7602
  98   2.0000      -0.202135        -5.5004
  99   2.0000      -0.197883        -5.3847
 100   2.0000      -0.192180        -5.2295
 101   0.0000      -0.052895        -1.4394
 102   0.0000      -0.024411        -0.6643
 103   0.0000      -0.009392        -0.2556
 104   0.0000      -0.001228        -0.0334
 105   0.0000       0.013989         0.3807

MULLIKEN ATOMIC CHARGES
-----------------------
   0 C :   -0.317501
   1 C :   -0.009217
   2 O :   -0.366888
   3 P :    0.625225
   4 S :   -0.325911
   5 O :   -0.380226
   6 C :   -0.039945
   7 C :   -0.293504
   8 S :   -0.054406
   9 C :   -0.376344
  10 S :   -0.130849
  11 P :    0.613139
  12 S :   -0.313437
  13 O :   -0.352434
  14 C :   -0.002993
  15 C :   -0.313867
  16 O :   -0.373009
  17 C :   -0.009360
  18 C :   -0.305597
  19 H :    0.120473
  20 H :    0.114337
  21 H :    0.127679
  22 H :    0.109450
  23 H :    0.112557
  24 H :    0.124193
  25 H :    0.108158
  26 H :    0.120614
  27 H :    0.133805
  28 H :    0.111941
  29 H :    0.192556
  30 H :    0.196557
  31 H :    0.124358
  32 H :    0.103828
  33 H :    0.119009
  34 H :    0.114408
  35 H :    0.114433
  36 H :    0.108916
  37 H :    0.110010
  38 H :    0.121468
  39 H :    0.109530
  40 H :    0.128846
Sum of atomic charges:    0.0000000

LOEWDIN ATOMIC CHARGES
----------------------
   0 C :   -0.362422
   1 C :   -0.118113
   2 O :   -0.239673
   3 P :    0.569700
   4 S :   -0.308667
   5 O :   -0.248162
   6 C :   -0.122854
   7 C :   -0.362299
   8 S :    0.097338
   9 C :   -0.487166
  10 S :    0.062135
  11 P :    0.574598
  12 S :   -0.308526
  13 O :   -0.229104
  14 C :   -0.115516
  15 C :   -0.366703
  16 O :   -0.238575
  17 C :   -0.114022
  18 C :   -0.369102
  19 H :    0.128453
  20 H :    0.132105
  21 H :    0.124379
  22 H :    0.120707
  23 H :    0.109173
  24 H :    0.105713
  25 H :    0.117174
  26 H :    0.126002
  27 H :    0.124055
  28 H :    0.131975
  29 H :    0.131705
  30 H :    0.128954
  31 H :    0.104511
  32 H :    0.120854
  33 H :    0.124677
  34 H :    0.115433
  35 H :    0.132684
  36 H :    0.106460
  37 H :    0.121754
  38 H :    0.119771
  39 H :    0.129184
  40 H :    0.131411

  Mayer bond orders larger than 0.100000
B(  0-C ,  1-C ) :   1.1605 B(  0-C , 19-H ) :   0.9465 B(  0-C , 20-H ) :   0.9386
B(  0-C , 21-H ) :   0.9350 B(  1-C ,  2-O ) :   0.9071 B(  1-C , 22-H ) :   0.9343
B(  1-C , 23-H ) :   0.9103 B(  2-O ,  3-P ) :   1.1368 B(  3-P ,  4-S ) :   1.5994
B(  3-P ,  5-O ) :   1.0934 B(  3-P ,  8-S ) :   0.9687 B(  4-S ,  8-S ) :   0.1018
B(  5-O ,  6-C ) :   0.8936 B(  6-C ,  7-C ) :   1.1786 B(  6-C , 24-H ) :   0.9037
B(  6-C , 25-H ) :   0.9299 B(  7-C , 26-H ) :   0.9411 B(  7-C , 27-H ) :   0.9265
B(  7-C , 28-H ) :   0.9361 B(  8-S ,  9-C ) :   1.0030 B(  9-C , 10-S ) :   1.0101
B(  9-C , 29-H ) :   0.8950 B(  9-C , 30-H ) :   0.8573 B( 10-S , 11-P ) :   0.9134
B( 10-S , 12-S ) :   0.1065 B( 11-P , 12-S ) :   1.6288 B( 11-P , 13-O ) :   1.1671
B( 11-P , 16-O ) :   1.0982 B( 12-S , 30-H ) :   0.1132 B( 13-O , 14-C ) :   0.8894
B( 14-C , 15-C ) :   1.1730 B( 14-C , 31-H ) :   0.9014 B( 14-C , 32-H ) :   0.9340
B( 15-C , 33-H ) :   0.9424 B( 15-C , 34-H ) :   0.9395 B( 15-C , 35-H ) :   0.9351
B( 16-O , 17-C ) :   0.9113 B( 17-C , 18-C ) :   1.1670 B( 17-C , 36-H ) :   0.9258
B( 17-C , 37-H ) :   0.9334 B( 18-C , 38-H ) :   0.9327 B( 18-C , 39-H ) :   0.9350
B( 18-C , 40-H ) :   0.9424

Dispersion correction           -0.066297002
FINAL SINGLE POINT ENERGY     -2929.516374374971

DIPOLE MOMENT
-------------

Method             : SCF
Type of density    : Electron Density
Multiplicity       :   1
Irrep              :   0
Energy             : -2929.6354547363994243 Eh
Relativity type    :
Basis              : AO
                                X                 Y                 Z
Electronic contribution:     -7.576452562       1.824486638     -18.493106826
Nuclear contribution   :      8.520747844      -2.253483702      20.235531783
                        -----------------------------------------
Total Dipole Moment    :      0.944295281      -0.428997065       1.742424957
                        -----------------------------------------
Magnitude (a.u.)       :      2.027751659
Magnitude (Debye)      :      5.154135111

Rotational constants in cm-1:             0.013999             0.004516             0.004466
Rotational constants in MHz :           419.689113           135.374785           133.895828

                             ****ORCA TERMINATED NORMALLY****
TOTAL RUN TIME: 0 days 0 hours 0 minutes 21 seconds 155 msec
