                         Program Version 6.0.1  -  RELEASE   -
|  1> ! pbe def2-sv(p) def2/J RI DEFGRID1 loosescf d4 GCP(DFT/SV(P)) printgap
|  2> %output
|  3>     printlevel normal
|  4> end
|  5> * xyz 0 1
|  6> C 1.1335487194 -3.908512055 -1.97193068
|  7> C 2.070950172 -3.6516139953 -0.8023831767
|  8> O 1.8309775106 -2.3534294147 -0.2238379701
|  9> C 2.405046045 -1.3054166195 -0.7810518836
| 10> O 3.1639722488 -1.3526270218 -1.7223439076
| 11> C 1.9650629537 -0.015451295 -0.1145404684
| 12> C 0.860828814 0.6143434876 -0.9625291612
| 13> H 1.2338155965 0.793773227 -1.9770142601
| 14> C 0.3460898397 1.9353484756 -0.4147212329
| 15> O -0.8216515209 2.2628027055 -0.5013232835
| 16> O 1.2941219986 2.6668679234 0.0978757143
| 17> C 0.9186613518 3.9361260747 0.6748296731
| 18> C 2.1590228858 4.5555438085 1.2847438921
| 19> S -0.5716355387 -0.487193019 -1.1888447976
| 20> P -1.6261977088 -0.1077733989 0.6215098885
| 21> S -0.6631594732 0.6261672588 2.1605755801
| 22> O -2.9570339093 0.6740248427 0.2990036248
| 23> C -3.8430939541 0.297041439 -0.7727986339
| 24> O -2.2260695193 -1.5685515685 0.9052947397
| 25> C -1.3791761674 -2.6283983878 1.3639928654
| 26> H 0.0979631395 -3.7980372468 -1.6619031045
| 27> H 1.332847096 -3.1999176193 -2.7723843753
| 28> H 1.2921465637 -4.9155027735 -2.342844559
| 29> H 3.1138732818 -3.6980411669 -1.1277358931
| 30> H 1.8954056912 -4.3514407797 0.0147147255
| 31> H 2.8057552624 0.6769318221 -0.0731877724
| 32> H 1.6007447186 -0.222979846 0.892510513
| 33> H 0.4929509242 4.5596847028 -0.1169344622
| 34> H 0.1432940843 3.7471383963 1.4242517269
| 35> H 2.9193962 4.6961930206 0.5226358773
| 36> H 1.9007587173 5.5164982774 1.7165921727
| 37> H 2.5517814501 3.9081072549 2.0627679953
| 38> H -3.3077013388 0.3237586176 -1.72184995
| 39> H -4.6338362469 1.0424082296 -0.7588951434
| 40> H -4.2409208162 -0.6997138592 -0.5909360175
| 41> H -0.5725544577 -2.8025778522 0.6516017856
| 42> H -2.0216233412 -3.5010794368 1.4437127018
| 43> H -0.9569162347 -2.3700924037 2.3358714101
| 44> *
| 45>
| 46>                          ****END OF INPUT****

CARTESIAN COORDINATES (ANGSTROEM)
---------------------------------
  C      1.133549   -3.908512   -1.971931
  C      2.070950   -3.651614   -0.802383
  O      1.830978   -2.353429   -0.223838
  C      2.405046   -1.305417   -0.781052
  O      3.163972   -1.352627   -1.722344
  C      1.965063   -0.015451   -0.114540
  C      0.860829    0.614343   -0.962529
  H      1.233816    0.793773   -1.977014
  C      0.346090    1.935348   -0.414721
  O     -0.821652    2.262803   -0.501323
  O      1.294122    2.666868    0.097876
  C      0.918661    3.936126    0.674830
  C      2.159023    4.555544    1.284744
  S     -0.571636   -0.487193   -1.188845
  P     -1.626198   -0.107773    0.621510
  S     -0.663159    0.626167    2.160576
  O     -2.957034    0.674025    0.299004
  C     -3.843094    0.297041   -0.772799
  O     -2.226070   -1.568552    0.905295
  C     -1.379176   -2.628398    1.363993
  H      0.097963   -3.798037   -1.661903
  H      1.332847   -3.199918   -2.772384
  H      1.292147   -4.915503   -2.342845
  H      3.113873   -3.698041   -1.127736
  H      1.895406   -4.351441    0.014715
  H      2.805755    0.676932   -0.073188
  H      1.600745   -0.222980    0.892511
  H      0.492951    4.559685   -0.116934
  H      0.143294    3.747138    1.424252
  H      2.919396    4.696193    0.522636
  H      1.900759    5.516498    1.716592
  H      2.551781    3.908107    2.062768
  H     -3.307701    0.323759   -1.721850
  H     -4.633836    1.042408   -0.758895
  H     -4.240921   -0.699714   -0.590936
  H     -0.572554   -2.802578    0.651602
  H     -2.021623   -3.501079    1.443713
  H     -0.956916   -2.370092    2.335871

 Total Charge           Charge          ....    0
 Multiplicity           Mult            ....    1
 Number of Electrons    NEL             ....  174
 Basis Dimension        Dim             ....  316

ORBITAL ENERGIES
----------------

  NO   OCC          E(Eh)            E(eV)
   0   2.0000     -88.040358     -2395.6999
   1   2.0000     -87.982911     -2394.1367
   2   2.0000     -76.425459     -2079.6425
   3   2.0000     -18.813751      -511.9482
   4   2.0000     -18.804739      -511.7030
   5   2.0000     -18.788461      -511.2600
   6   2.0000     -18.788254      -511.2544
   7   2.0000     -18.739428      -509.9258
   8   2.0000     -18.739251      -509.9210
   9   2.0000     -10.019626      -272.6479
  10   2.0000     -10.009566      -272.3741
  11   2.0000      -9.953549      -270.8498
  12   2.0000      -9.950438      -270.7652
  13   2.0000      -9.950050      -270.7546
  14   2.0000      -9.945412      -270.6284
  15   2.0000      -9.940643      -270.4987
  16   2.0000      -9.903174      -269.4791
  17   2.0000      -9.889943      -269.1190
  18   2.0000      -9.888064      -269.0679
  19   2.0000      -7.685112      -209.1225
  20   2.0000      -7.628064      -207.5702
  21   2.0000      -6.422083      -174.7538
  22   2.0000      -5.713108      -155.4616
  23   2.0000      -5.709661      -155.3678
  24   2.0000      -5.701897      -155.1565
  25   2.0000      -5.657211      -153.9405
  26   2.0000      -5.648665      -153.7080
  27   2.0000      -5.647914      -153.6876
  28   2.0000      -4.644786      -126.3910
  29   2.0000      -4.644042      -126.3708
  30   2.0000      -4.642485      -126.3284
  31   2.0000      -1.022313       -27.8186
  32   2.0000      -1.012134       -27.5416
  33   2.0000      -0.982982       -26.7483
  34   2.0000      -0.938542       -25.5390
  35   2.0000      -0.921866       -25.0852
  36   2.0000      -0.916868       -24.9492
  37   2.0000      -0.767401       -20.8820
  38   2.0000      -0.713022       -19.4023
  39   2.0000      -0.709973       -19.3194
  40   2.0000      -0.691861       -18.8265
  41   2.0000      -0.656813       -17.8728
  42   2.0000      -0.632904       -17.2222
  43   2.0000      -0.624671       -16.9982
  44   2.0000      -0.618893       -16.8409
  45   2.0000      -0.593002       -16.1364
  46   2.0000      -0.563995       -15.3471
  47   2.0000      -0.516805       -14.0630
  48   2.0000      -0.508040       -13.8245
  49   2.0000      -0.499679       -13.5970
  50   2.0000      -0.484678       -13.1888
  51   2.0000      -0.471338       -12.8258
  52   2.0000      -0.456503       -12.4221
  53   2.0000      -0.450200       -12.2506
  54   2.0000      -0.437382       -11.9018
  55   2.0000      -0.431955       -11.7541
  56   2.0000      -0.426805       -11.6140
  57   2.0000      -0.420178       -11.4336
  58   2.0000      -0.412703       -11.2302
  59   2.0000      -0.410752       -11.1771
  60   2.0000      -0.400274       -10.8920
  61   2.0000      -0.397137       -10.8067
  62   2.0000      -0.389342       -10.5945
  63   2.0000      -0.387710       -10.5501
  64   2.0000      -0.374310       -10.1855
  65   2.0000      -0.368373       -10.0239
  66   2.0000      -0.360880        -9.8200
  67   2.0000      -0.358069        -9.7435
  68   2.0000      -0.347734        -9.4623
  69   2.0000      -0.339667        -9.2428
  70   2.0000      -0.336225        -9.1491
  71   2.0000      -0.328618        -8.9421
  72   2.0000      -0.323336        -8.7984
  73   2.0000      -0.310824        -8.4580
  74   2.0000      -0.308463        -8.3937
  75   2.0000      -0.300808        -8.1854
  76   2.0000      -0.297668        -8.1000
  77   2.0000      -0.290734        -7.9113
  78   2.0000      -0.271841        -7.3972
  79   2.0000      -0.264212        -7.1896
  80   2.0000      -0.263549        -7.1715
  81   2.0000      -0.257722        -7.0130
  82   2.0000      -0.237038        -6.4501
  83   2.0000      -0.222861        -6.0644
  84   2.0000      -0.217081        -5.9071
  85   2.0000      -0.199947        -5.4408
  86   2.0000      -0.197711        -5.3800
  87   0.0000      -0.045143        -1.2284
  88   0.0000      -0.031196        -0.8489
  89   0.0000      -0.020431        -0.5560
  90   0.0000       0.003984         0.1084
  91   0.0000       0.020695         0.5631

MULLIKEN ATOMIC CHARGES
-----------------------
   0 C :   -0.308312
   1 C :   -0.009893
   2 O :   -0.224261
   3 C :    0.110539
   4 O :   -0.204547
   5 C :   -0.037116
   6 C :   -0.333763
   7 H :    0.161193
   8 C :    0.197264
   9 O :   -0.191144
  10 O :   -0.218502
  11 C :   -0.030568
  12 C :   -0.274116
  13 S :   -0.095917
  14 P :    0.615633
  15 S :   -0.317441
  16 O :   -0.349545
  17 C :   -0.104322
  18 O :   -0.390090
  19 C :   -0.129616
  20 H :    0.119374
  21 H :    0.126296
  22 H :    0.112120
  23 H :    0.111548
  24 H :    0.101897
  25 H :    0.114508
  26 H :    0.113594
  27 H :    0.106802
  28 H :    0.123118
  29 H :    0.114663
  30 H :    0.113720
  31 H :    0.121451
  32 H :    0.124065
  33 H :    0.132604
  34 H :    0.120840
  35 H :    0.139219
  36 H :    0.119691
  37 H :    0.119013
Sum of atomic charges:    0.0000000

LOEWDIN ATOMIC CHARGES
----------------------
   0 C :   -0.357329
   1 C :   -0.112053
   2 O :   -0.054127
   3 C :    0.023386
   4 O :   -0.169830
   5 C :   -0.255348
   6 C :   -0.256603
   7 H :    0.154584
   8 C :   -0.003348
   9 O :   -0.168031
  10 O :   -0.038763
  11 C :   -0.104034
  12 C :   -0.350656
  13 S :    0.107126
  14 P :    0.589670
  15 S :   -0.300513
  16 O :   -0.227708
  17 C :   -0.207789
  18 O :   -0.263564
  19 C :   -0.223322
  20 H :    0.122643
  21 H :    0.130548
  22 H :    0.129968
  23 H :    0.121147
  24 H :    0.116292
  25 H :    0.144618
  26 H :    0.128145
  27 H :    0.117773
  28 H :    0.123935
  29 H :    0.126313
  30 H :    0.132589
  31 H :    0.129766
  32 H :    0.112380
  33 H :    0.127420
  34 H :    0.114243
  35 H :    0.107477
  36 H :    0.119781
  37 H :    0.113216

  Mayer bond orders larger than 0.100000
B(  0-C ,  1-C ) :   1.1769 B(  0-C , 20-H ) :   0.9493 B(  0-C , 21-H ) :   0.9419
B(  0-C , 22-H ) :   0.9426 B(  1-C ,  2-O ) :   0.9033 B(  1-C , 23-H ) :   0.9136
B(  1-C , 24-H ) :   0.9367 B(  2-O ,  3-C ) :   1.2186 B(  3-C ,  4-O ) :   2.0493
B(  3-C ,  5-C ) :   1.0040 B(  5-C ,  6-C ) :   1.0674 B(  5-C , 25-H ) :   0.8713
B(  5-C , 26-H ) :   0.8757 B(  6-C ,  7-H ) :   0.8566 B(  6-C ,  8-C ) :   0.9053
B(  6-C , 13-S ) :   1.0234 B(  8-C ,  9-O ) :   2.0233 B(  8-C , 10-O ) :   1.2725
B( 10-O , 11-C ) :   0.8910 B( 11-C , 12-C ) :   1.1546 B( 11-C , 27-H ) :   0.9324
B( 11-C , 28-H ) :   0.9233 B( 12-C , 29-H ) :   0.9495 B( 12-C , 30-H ) :   0.9426
B( 12-C , 31-H ) :   0.9492 B( 13-S , 14-P ) :   0.9472 B( 13-S , 15-S ) :   0.1135
B( 14-P , 15-S ) :   1.5914 B( 14-P , 16-O ) :   1.1493 B( 14-P , 18-O ) :   1.0668
B( 16-O , 17-C ) :   0.9185 B( 17-C , 32-H ) :   0.9390 B( 17-C , 33-H ) :   0.9598
B( 17-C , 34-H ) :   0.9470 B( 18-O , 19-C ) :   0.9318 B( 19-C , 35-H ) :   0.9237
B( 19-C , 36-H ) :   0.9567 B( 19-C , 37-H ) :   0.9399

Dispersion correction           -0.053454126
FINAL SINGLE POINT ENERGY     -1979.017011315340

DIPOLE MOMENT
-------------

Method             : SCF
Type of density    : Electron Density
Multiplicity       :   1
Irrep              :   0
Energy             : -1979.1459438015876913 Eh
Relativity type    :
Basis              : AO
                                X                 Y                 Z
Electronic contribution:     -6.908460915       3.437524731       2.205252521
Nuclear contribution   :      6.790997165      -3.932195198      -2.550899061
                        -----------------------------------------
Total Dipole Moment    :     -0.117463750      -0.494670467      -0.345646541
                        -----------------------------------------
Magnitude (a.u.)       :      0.614791131
Magnitude (Debye)      :      1.562674867

Rotational constants in cm-1:             0.011289             0.008647             0.006043
Rotational constants in MHz :           338.434589           259.216393           181.163636

                             ****ORCA TERMINATED NORMALLY****
TOTAL RUN TIME: 0 days 0 hours 0 minutes 44 seconds 399 msec
