                         Program Version 6.0.1  -  RELEASE   -
|  1> ! r2scan-3c def2/J RI DEFGRID2 scfconv6 printgap
|  2> %output
|  3>     printlevel normal
|  4> end
|  5> * xyz 0 1
|  6> C 4.9188563917 -3.7180650031 -1.8117189729
|  7> C 4.0840990519 -2.8934782126 -0.8524412504
|  8> O 3.1567491501 -2.1096009027 -1.6309659204
|  9> C 2.3702824448 -1.2744653634 -0.9934094455
| 10> O 2.3670427433 -1.1226036435 0.2123082683
| 11> C 1.4712684467 -0.5022323755 -1.9349175214
| 12> C 0.4163803072 0.2444240291 -1.1302266325
| 13> H -0.1266522535 0.9531509195 -1.7648728574
| 14> C 1.0858165149 1.0421355061 -0.0225709093
| 15> O 2.0537429376 1.7380144845 -0.2310182991
| 16> O 0.4656185549 0.9322580012 1.1339888417
| 17> C 0.9918728492 1.6601016048 2.2604601705
| 18> C 0.3847831073 3.0498965281 2.343990463
| 19> S -0.8060012367 -0.9298251312 -0.458285476
| 20> P -2.185627142 0.4845650231 0.326814749
| 21> S -2.1291144989 2.2810865748 -0.4474300938
| 22> O -3.5801639482 -0.2763083835 0.1090211019
| 23> C -4.1165464222 -0.4790679829 -1.2028717563
| 24> O -2.1258414645 0.4816569903 1.9050792217
| 25> C -2.1563112994 -0.7368621421 2.6723169221
| 26> H 5.6212357377 -4.3220094143 -1.2472150199
| 27> H 4.276716987 -4.3674444138 -2.3985538473
| 28> H 5.4667223092 -3.0653737043 -2.4844578859
| 29> H 4.6978935154 -2.2100205613 -0.2574957388
| 30> H 3.508143074 -3.5231760791 -0.1675390828
| 31> H 1.0179486463 -1.1827237793 -2.6546623821
| 32> H 2.0925917195 0.2183651053 -2.4715738488
| 33> H 0.7239539363 1.0543585504 3.1264360497
| 34> H 2.0785251202 1.7090309534 2.1486094076
| 35> H -0.6999494136 2.9812220155 2.3890829094
| 36> H 0.7522764549 3.5495917 3.2338119336
| 37> H 0.6586023788 3.6329440955 1.4671477524
| 38> H -4.1191911492 0.4615860987 -1.7557634191
| 39> H -5.1329208798 -0.8333562057 -1.0515427181
| 40> H -3.5232876507 -1.2230151813 -1.7341348355
| 41> H -2.1402765594 -0.4187510888 3.711513253
| 42> H -1.2791322046 -1.3409158673 2.4396259819
| 43> H -3.0646239884 -1.2946920527 2.4529313699
| 44> *
| 45>
| 46>                          ****END OF INPUT****

CARTESIAN COORDINATES (ANGSTROEM)
---------------------------------
  C      4.918856   -3.718065   -1.811719
  C      4.084099   -2.893478   -0.852441
  O      3.156749   -2.109601   -1.630966
  C      2.370282   -1.274465   -0.993409
  O      2.367043   -1.122604    0.212308
  C      1.471268   -0.502232   -1.934918
  C      0.416380    0.244424   -1.130227
  H     -0.126652    0.953151   -1.764873
  C      1.085817    1.042136   -0.022571
  O      2.053743    1.738014   -0.231018
  O      0.465619    0.932258    1.133989
  C      0.991873    1.660102    2.260460
  C      0.384783    3.049897    2.343990
  S     -0.806001   -0.929825   -0.458285
  P     -2.185627    0.484565    0.326815
  S     -2.129114    2.281087   -0.447430
  O     -3.580164   -0.276308    0.109021
  C     -4.116546   -0.479068   -1.202872
  O     -2.125841    0.481657    1.905079
  C     -2.156311   -0.736862    2.672317
  H      5.621236   -4.322009   -1.247215
  H      4.276717   -4.367444   -2.398554
  H      5.466722   -3.065374   -2.484458
  H      4.697894   -2.210021   -0.257496
  H      3.508143   -3.523176   -0.167539
  H      1.017949   -1.182724   -2.654662
  H      2.092592    0.218365   -2.471574
  H      0.723954    1.054359    3.126436
  H      2.078525    1.709031    2.148609
  H     -0.699949    2.981222    2.389083
  H      0.752276    3.549592    3.233812
  H      0.658602    3.632944    1.467148
  H     -4.119191    0.461586   -1.755763
  H     -5.132921   -0.833356   -1.051543
  H     -3.523288   -1.223015   -1.734135
  H     -2.140277   -0.418751    3.711513
  H     -1.279132   -1.340916    2.439626
  H     -3.064624   -1.294692    2.452931

 Total Charge           Charge          ....    0
 Multiplicity           Mult            ....    1
 Number of Electrons    NEL             ....  174
 Basis Dimension        Dim             ....  510

ORBITAL ENERGIES
----------------

  NO   OCC          E(Eh)            E(eV)
   0   2.0000     -88.571603     -2410.1558
   1   2.0000     -88.515903     -2408.6402
   2   2.0000     -76.912053     -2092.8834
   3   2.0000     -19.010124      -517.2918
   4   2.0000     -18.992658      -516.8165
   5   2.0000     -18.990026      -516.7449
   6   2.0000     -18.988873      -516.7135
   7   2.0000     -18.941567      -515.4262
   8   2.0000     -18.923654      -514.9388
   9   2.0000     -10.165940      -276.6293
  10   2.0000     -10.153972      -276.3036
  11   2.0000     -10.101153      -274.8663
  12   2.0000     -10.096545      -274.7410
  13   2.0000     -10.091040      -274.5912
  14   2.0000     -10.089919      -274.5606
  15   2.0000     -10.082579      -274.3609
  16   2.0000     -10.065728      -273.9024
  17   2.0000     -10.038623      -273.1648
  18   2.0000     -10.013170      -272.4722
  19   2.0000      -7.865920      -214.0426
  20   2.0000      -7.810675      -212.5393
  21   2.0000      -6.590221      -179.3290
  22   2.0000      -5.812707      -158.1718
  23   2.0000      -5.809909      -158.0957
  24   2.0000      -5.802993      -157.9075
  25   2.0000      -5.758558      -156.6983
  26   2.0000      -5.750865      -156.4890
  27   2.0000      -5.750535      -156.4800
  28   2.0000      -4.735904      -128.8705
  29   2.0000      -4.735286      -128.8537
  30   2.0000      -4.733730      -128.8113
  31   2.0000      -1.087836       -29.6015
  32   2.0000      -1.069654       -29.1068
  33   2.0000      -1.049011       -28.5450
  34   2.0000      -1.006919       -27.3997
  35   2.0000      -0.990415       -26.9506
  36   2.0000      -0.974311       -26.5123
  37   2.0000      -0.809265       -22.0212
  38   2.0000      -0.762445       -20.7472
  39   2.0000      -0.734371       -19.9833
  40   2.0000      -0.731696       -19.9105
  41   2.0000      -0.698027       -18.9943
  42   2.0000      -0.674731       -18.3604
  43   2.0000      -0.656493       -17.8641
  44   2.0000      -0.645036       -17.5523
  45   2.0000      -0.625612       -17.0238
  46   2.0000      -0.590990       -16.0817
  47   2.0000      -0.544721       -14.8226
  48   2.0000      -0.539307       -14.6753
  49   2.0000      -0.519413       -14.1339
  50   2.0000      -0.499714       -13.5979
  51   2.0000      -0.492012       -13.3883
  52   2.0000      -0.485148       -13.2016
  53   2.0000      -0.471405       -12.8276
  54   2.0000      -0.455124       -12.3846
  55   2.0000      -0.450608       -12.2617
  56   2.0000      -0.441706       -12.0194
  57   2.0000      -0.437497       -11.9049
  58   2.0000      -0.436201       -11.8696
  59   2.0000      -0.430774       -11.7220
  60   2.0000      -0.426316       -11.6007
  61   2.0000      -0.417324       -11.3560
  62   2.0000      -0.404702       -11.0125
  63   2.0000      -0.402143       -10.9429
  64   2.0000      -0.385239       -10.4829
  65   2.0000      -0.382096       -10.3974
  66   2.0000      -0.374329       -10.1860
  67   2.0000      -0.365946        -9.9579
  68   2.0000      -0.360566        -9.8115
  69   2.0000      -0.354165        -9.6373
  70   2.0000      -0.344126        -9.3641
  71   2.0000      -0.334706        -9.1078
  72   2.0000      -0.332399        -9.0450
  73   2.0000      -0.330051        -8.9811
  74   2.0000      -0.325954        -8.8696
  75   2.0000      -0.320606        -8.7241
  76   2.0000      -0.313574        -8.5328
  77   2.0000      -0.301002        -8.1907
  78   2.0000      -0.285382        -7.7656
  79   2.0000      -0.283796        -7.7225
  80   2.0000      -0.274872        -7.4797
  81   2.0000      -0.264388        -7.1944
  82   2.0000      -0.254818        -6.9340
  83   2.0000      -0.247505        -6.7350
  84   2.0000      -0.221529        -6.0281
  85   2.0000      -0.214954        -5.8492
  86   2.0000      -0.210671        -5.7326
  87   0.0000      -0.041462        -1.1282
  88   0.0000      -0.022760        -0.6193
  89   0.0000      -0.008654        -0.2355
  90   0.0000       0.008215         0.2236
  91   0.0000       0.017957         0.4886

MULLIKEN ATOMIC CHARGES
-----------------------
   0 C :   -0.442292
   1 C :   -0.150806
   2 O :   -0.141063
   3 C :    0.366142
   4 O :   -0.383147
   5 C :   -0.463281
   6 C :    0.037952
   7 H :    0.246777
   8 C :    0.236533
   9 O :   -0.385784
  10 O :   -0.119196
  11 C :   -0.127928
  12 C :   -0.482394
  13 S :   -0.226716
  14 P :    0.780828
  15 S :   -0.444091
  16 O :   -0.347919
  17 C :   -0.297521
  18 O :   -0.310548
  19 C :   -0.302252
  20 H :    0.150089
  21 H :    0.153005
  22 H :    0.155165
  23 H :    0.162649
  24 H :    0.156846
  25 H :    0.190550
  26 H :    0.201408
  27 H :    0.141807
  28 H :    0.171838
  29 H :    0.172735
  30 H :    0.142644
  31 H :    0.172201
  32 H :    0.174630
  33 H :    0.151029
  34 H :    0.157961
  35 H :    0.156001
  36 H :    0.178182
  37 H :    0.167965
Sum of atomic charges:   -0.0000000

LOEWDIN ATOMIC CHARGES
----------------------
   0 C :   -0.384456
   1 C :    0.037710
   2 O :   -0.576846
   3 C :    0.365468
   4 O :   -0.418747
   5 C :   -0.207693
   6 C :   -0.198016
   7 H :    0.208495
   8 C :    0.349701
   9 O :   -0.419969
  10 O :   -0.620633
  11 C :    0.036777
  12 C :   -0.392480
  13 S :    0.209750
  14 P :    0.398164
  15 S :   -0.086370
  16 O :   -0.687299
  17 C :   -0.061778
  18 O :   -0.649725
  19 C :   -0.052860
  20 H :    0.160879
  21 H :    0.160077
  22 H :    0.160874
  23 H :    0.182403
  24 H :    0.179659
  25 H :    0.189699
  26 H :    0.205470
  27 H :    0.177920
  28 H :    0.193254
  29 H :    0.166195
  30 H :    0.155388
  31 H :    0.167081
  32 H :    0.176380
  33 H :    0.176534
  34 H :    0.168520
  35 H :    0.179945
  36 H :    0.176161
  37 H :    0.174367

  Mayer bond orders larger than 0.100000
B(  0-C ,  1-C ) :   0.9452 B(  0-C , 20-H ) :   0.9680 B(  0-C , 21-H ) :   0.9718
B(  0-C , 22-H ) :   0.9720 B(  1-C ,  2-O ) :   0.7822 B(  1-C , 23-H ) :   0.9516
B(  1-C , 24-H ) :   0.9503 B(  2-O ,  3-C ) :   1.1765 B(  3-C ,  4-O ) :   1.7764
B(  3-C ,  5-C ) :   0.9639 B(  4-O ,  8-C ) :   0.1200 B(  5-C ,  6-C ) :   0.9118
B(  5-C ,  9-O ) :   0.1124 B(  5-C , 25-H ) :   0.9781 B(  5-C , 26-H ) :   0.9160
B(  6-C ,  7-H ) :   0.9153 B(  6-C ,  8-C ) :   0.8152 B(  6-C , 13-S ) :   0.8683
B(  8-C ,  9-O ) :   1.8958 B(  8-C , 10-O ) :   1.1443 B( 10-O , 11-C ) :   0.7747
B( 11-C , 12-C ) :   0.9224 B( 11-C , 27-H ) :   0.9643 B( 11-C , 28-H ) :   0.9660
B( 12-C , 29-H ) :   0.9653 B( 12-C , 30-H ) :   0.9691 B( 12-C , 31-H ) :   0.9697
B( 13-S , 14-P ) :   0.9880 B( 14-P , 15-S ) :   1.7962 B( 14-P , 16-O ) :   1.0324
B( 14-P , 18-O ) :   1.1512 B( 16-O , 17-C ) :   0.8336 B( 17-C , 32-H ) :   0.9595
B( 17-C , 33-H ) :   0.9673 B( 17-C , 34-H ) :   0.9570 B( 18-O , 19-C ) :   0.7922
B( 19-C , 35-H ) :   0.9652 B( 19-C , 36-H ) :   0.9559 B( 19-C , 37-H ) :   0.9610

Dispersion correction           -0.017547117
FINAL SINGLE POINT ENERGY     -1981.454926462316

DIPOLE MOMENT
-------------

Method             : SCF
Type of density    : Electron Density
Multiplicity       :   1
Irrep              :   0
Energy             : -1981.4747995448119582 Eh
Relativity type    :
Basis              : AO
                                X                 Y                 Z
Electronic contribution:    -12.021779054       7.138040519      -2.508843274
Nuclear contribution   :     12.212748971      -9.128452954       2.553414212
                        -----------------------------------------
Total Dipole Moment    :      0.190969917      -1.990412434       0.044570938
                        -----------------------------------------
Magnitude (a.u.)       :      2.000049434
Magnitude (Debye)      :      5.083721650

Rotational constants in cm-1:             0.015295             0.006119             0.005362
Rotational constants in MHz :           458.538743           183.452044           160.760592

                             ****ORCA TERMINATED NORMALLY****
TOTAL RUN TIME: 0 days 0 hours 1 minutes 31 seconds 716 msec
