                         Program Version 6.0.1  -  RELEASE   -
|  1> ! r2scan-3c def2/J RI DEFGRID2 scfconv6 printgap
|  2> %output
|  3>     printlevel normal
|  4> end
|  5> %cpcm
|  6>     smd true
|  7>     smdsolvent "water"
|  8> end
|  9> * xyz 0 1
| 10> C 4.9188563917 -3.7180650031 -1.8117189729
| 11> C 4.0840990519 -2.8934782126 -0.8524412504
| 12> O 3.1567491501 -2.1096009027 -1.6309659204
| 13> C 2.3702824448 -1.2744653634 -0.9934094455
| 14> O 2.3670427433 -1.1226036435 0.2123082683
| 15> C 1.4712684467 -0.5022323755 -1.9349175214
| 16> C 0.4163803072 0.2444240291 -1.1302266325
| 17> H -0.1266522535 0.9531509195 -1.7648728574
| 18> C 1.0858165149 1.0421355061 -0.0225709093
| 19> O 2.0537429376 1.7380144845 -0.2310182991
| 20> O 0.4656185549 0.9322580012 1.1339888417
| 21> C 0.9918728492 1.6601016048 2.2604601705
| 22> C 0.3847831073 3.0498965281 2.343990463
| 23> S -0.8060012367 -0.9298251312 -0.458285476
| 24> P -2.185627142 0.4845650231 0.326814749
| 25> S -2.1291144989 2.2810865748 -0.4474300938
| 26> O -3.5801639482 -0.2763083835 0.1090211019
| 27> C -4.1165464222 -0.4790679829 -1.2028717563
| 28> O -2.1258414645 0.4816569903 1.9050792217
| 29> C -2.1563112994 -0.7368621421 2.6723169221
| 30> H 5.6212357377 -4.3220094143 -1.2472150199
| 31> H 4.276716987 -4.3674444138 -2.3985538473
| 32> H 5.4667223092 -3.0653737043 -2.4844578859
| 33> H 4.6978935154 -2.2100205613 -0.2574957388
| 34> H 3.508143074 -3.5231760791 -0.1675390828
| 35> H 1.0179486463 -1.1827237793 -2.6546623821
| 36> H 2.0925917195 0.2183651053 -2.4715738488
| 37> H 0.7239539363 1.0543585504 3.1264360497
| 38> H 2.0785251202 1.7090309534 2.1486094076
| 39> H -0.6999494136 2.9812220155 2.3890829094
| 40> H 0.7522764549 3.5495917 3.2338119336
| 41> H 0.6586023788 3.6329440955 1.4671477524
| 42> H -4.1191911492 0.4615860987 -1.7557634191
| 43> H -5.1329208798 -0.8333562057 -1.0515427181
| 44> H -3.5232876507 -1.2230151813 -1.7341348355
| 45> H -2.1402765594 -0.4187510888 3.711513253
| 46> H -1.2791322046 -1.3409158673 2.4396259819
| 47> H -3.0646239884 -1.2946920527 2.4529313699
| 48> *
| 49>
| 50>                          ****END OF INPUT****

CARTESIAN COORDINATES (ANGSTROEM)
---------------------------------
  C      4.918856   -3.718065   -1.811719
  C      4.084099   -2.893478   -0.852441
  O      3.156749   -2.109601   -1.630966
  C      2.370282   -1.274465   -0.993409
  O      2.367043   -1.122604    0.212308
  C      1.471268   -0.502232   -1.934918
  C      0.416380    0.244424   -1.130227
  H     -0.126652    0.953151   -1.764873
  C      1.085817    1.042136   -0.022571
  O      2.053743    1.738014   -0.231018
  O      0.465619    0.932258    1.133989
  C      0.991873    1.660102    2.260460
  C      0.384783    3.049897    2.343990
  S     -0.806001   -0.929825   -0.458285
  P     -2.185627    0.484565    0.326815
  S     -2.129114    2.281087   -0.447430
  O     -3.580164   -0.276308    0.109021
  C     -4.116546   -0.479068   -1.202872
  O     -2.125841    0.481657    1.905079
  C     -2.156311   -0.736862    2.672317
  H      5.621236   -4.322009   -1.247215
  H      4.276717   -4.367444   -2.398554
  H      5.466722   -3.065374   -2.484458
  H      4.697894   -2.210021   -0.257496
  H      3.508143   -3.523176   -0.167539
  H      1.017949   -1.182724   -2.654662
  H      2.092592    0.218365   -2.471574
  H      0.723954    1.054359    3.126436
  H      2.078525    1.709031    2.148609
  H     -0.699949    2.981222    2.389083
  H      0.752276    3.549592    3.233812
  H      0.658602    3.632944    1.467148
  H     -4.119191    0.461586   -1.755763
  H     -5.132921   -0.833356   -1.051543
  H     -3.523288   -1.223015   -1.734135
  H     -2.140277   -0.418751    3.711513
  H     -1.279132   -1.340916    2.439626
  H     -3.064624   -1.294692    2.452931

 Total Charge           Charge          ....    0
 Multiplicity           Mult            ....    1
 Number of Electrons    NEL             ....  174
 Basis Dimension        Dim             ....  510

ORBITAL ENERGIES
----------------

  NO   OCC          E(Eh)            E(eV)
   0   2.0000     -88.577539     -2410.3174
   1   2.0000     -88.528271     -2408.9767
   2   2.0000     -76.919994     -2093.0995
   3   2.0000     -19.010489      -517.3017
   4   2.0000     -19.005262      -517.1595
   5   2.0000     -18.997002      -516.9347
   6   2.0000     -18.992914      -516.8235
   7   2.0000     -18.952561      -515.7254
   8   2.0000     -18.947335      -515.5832
   9   2.0000     -10.173229      -276.8276
  10   2.0000     -10.172799      -276.8159
  11   2.0000     -10.095478      -274.7119
  12   2.0000     -10.087752      -274.5017
  13   2.0000     -10.085808      -274.4488
  14   2.0000     -10.084625      -274.4166
  15   2.0000     -10.080854      -274.3140
  16   2.0000     -10.060988      -273.7734
  17   2.0000     -10.019995      -272.6579
  18   2.0000     -10.017495      -272.5899
  19   2.0000      -7.871814      -214.2029
  20   2.0000      -7.823392      -212.8853
  21   2.0000      -6.598257      -179.5477
  22   2.0000      -5.818644      -158.3334
  23   2.0000      -5.815831      -158.2568
  24   2.0000      -5.808821      -158.0660
  25   2.0000      -5.771150      -157.0410
  26   2.0000      -5.763627      -156.8363
  27   2.0000      -5.763262      -156.8263
  28   2.0000      -4.743884      -129.0876
  29   2.0000      -4.743282      -129.0713
  30   2.0000      -4.741891      -129.0334
  31   2.0000      -1.091185       -29.6927
  32   2.0000      -1.085652       -29.5421
  33   2.0000      -1.053087       -28.6559
  34   2.0000      -1.010143       -27.4874
  35   2.0000      -1.000216       -27.2173
  36   2.0000      -0.995210       -27.0810
  37   2.0000      -0.813117       -22.1260
  38   2.0000      -0.755549       -20.5595
  39   2.0000      -0.737612       -20.0714
  40   2.0000      -0.732729       -19.9386
  41   2.0000      -0.696130       -18.9427
  42   2.0000      -0.669561       -18.2197
  43   2.0000      -0.659482       -17.9454
  44   2.0000      -0.650561       -17.7027
  45   2.0000      -0.623248       -16.9594
  46   2.0000      -0.589574       -16.0431
  47   2.0000      -0.540336       -14.7033
  48   2.0000      -0.538789       -14.6612
  49   2.0000      -0.526426       -14.3248
  50   2.0000      -0.505096       -13.7444
  51   2.0000      -0.491267       -13.3681
  52   2.0000      -0.485661       -13.2155
  53   2.0000      -0.468299       -12.7431
  54   2.0000      -0.466264       -12.6877
  55   2.0000      -0.457511       -12.4495
  56   2.0000      -0.448535       -12.2053
  57   2.0000      -0.443557       -12.0698
  58   2.0000      -0.436864       -11.8877
  59   2.0000      -0.428887       -11.6706
  60   2.0000      -0.426143       -11.5959
  61   2.0000      -0.411766       -11.2047
  62   2.0000      -0.410366       -11.1666
  63   2.0000      -0.402384       -10.9494
  64   2.0000      -0.388171       -10.5627
  65   2.0000      -0.376421       -10.2429
  66   2.0000      -0.368771       -10.0348
  67   2.0000      -0.364665        -9.9230
  68   2.0000      -0.357875        -9.7383
  69   2.0000      -0.354310        -9.6413
  70   2.0000      -0.350748        -9.5443
  71   2.0000      -0.340432        -9.2636
  72   2.0000      -0.333498        -9.0749
  73   2.0000      -0.328454        -8.9377
  74   2.0000      -0.323282        -8.7969
  75   2.0000      -0.321000        -8.7349
  76   2.0000      -0.315330        -8.5806
  77   2.0000      -0.306565        -8.3421
  78   2.0000      -0.287676        -7.8281
  79   2.0000      -0.286217        -7.7884
  80   2.0000      -0.279706        -7.6112
  81   2.0000      -0.278274        -7.5722
  82   2.0000      -0.269967        -7.3462
  83   2.0000      -0.260304        -7.0832
  84   2.0000      -0.235532        -6.4092
  85   2.0000      -0.228633        -6.2214
  86   2.0000      -0.222755        -6.0615
  87   0.0000      -0.048477        -1.3191
  88   0.0000      -0.028114        -0.7650
  89   0.0000      -0.025271        -0.6876
  90   0.0000       0.004190         0.1140
  91   0.0000       0.011008         0.2995

MULLIKEN ATOMIC CHARGES
-----------------------
   0 C :   -0.491416
   1 C :   -0.151977
   2 O :   -0.146923
   3 C :    0.403736
   4 O :   -0.453875
   5 C :   -0.499503
   6 C :    0.053271
   7 H :    0.270870
   8 C :    0.226929
   9 O :   -0.453603
  10 O :   -0.133722
  11 C :   -0.132550
  12 C :   -0.509755
  13 S :   -0.219783
  14 P :    0.801834
  15 S :   -0.497290
  16 O :   -0.376072
  17 C :   -0.307064
  18 O :   -0.348388
  19 C :   -0.301717
  20 H :    0.171398
  21 H :    0.165945
  22 H :    0.166368
  23 H :    0.175269
  24 H :    0.175981
  25 H :    0.227131
  26 H :    0.236080
  27 H :    0.179435
  28 H :    0.176392
  29 H :    0.169691
  30 H :    0.171883
  31 H :    0.170465
  32 H :    0.176445
  33 H :    0.179023
  34 H :    0.174995
  35 H :    0.183848
  36 H :    0.181760
  37 H :    0.184887
Sum of atomic charges:   -0.0000000

LOEWDIN ATOMIC CHARGES
----------------------
   0 C :   -0.387753
   1 C :    0.041237
   2 O :   -0.574410
   3 C :    0.373611
   4 O :   -0.468780
   5 C :   -0.198819
   6 C :   -0.194195
   7 H :    0.216841
   8 C :    0.349977
   9 O :   -0.471906
  10 O :   -0.625752
  11 C :    0.040272
  12 C :   -0.394809
  13 S :    0.221067
  14 P :    0.399693
  15 S :   -0.126237
  16 O :   -0.697569
  17 C :   -0.056462
  18 O :   -0.668827
  19 C :   -0.043725
  20 H :    0.169338
  21 H :    0.163446
  22 H :    0.163388
  23 H :    0.186849
  24 H :    0.186489
  25 H :    0.205342
  26 H :    0.215986
  27 H :    0.192177
  28 H :    0.194754
  29 H :    0.163646
  30 H :    0.166696
  31 H :    0.163101
  32 H :    0.177153
  33 H :    0.188441
  34 H :    0.175882
  35 H :    0.192025
  36 H :    0.179865
  37 H :    0.181971

  Mayer bond orders larger than 0.100000
B(  0-C ,  1-C ) :   0.9417 B(  0-C , 20-H ) :   0.9617 B(  0-C , 21-H ) :   0.9697
B(  0-C , 22-H ) :   0.9708 B(  1-C ,  2-O ) :   0.7705 B(  1-C , 23-H ) :   0.9450
B(  1-C , 24-H ) :   0.9424 B(  2-O ,  3-C ) :   1.1952 B(  3-C ,  4-O ) :   1.7225
B(  3-C ,  5-C ) :   0.9380 B(  4-O ,  8-C ) :   0.1191 B(  5-C ,  6-C ) :   0.8845
B(  5-C , 25-H ) :   0.9656 B(  5-C , 26-H ) :   0.9249 B(  6-C ,  7-H ) :   0.9032
B(  6-C ,  8-C ) :   0.8192 B(  6-C , 13-S ) :   0.8656 B(  8-C ,  9-O ) :   1.8335
B(  8-C , 10-O ) :   1.1544 B( 10-O , 11-C ) :   0.7586 B( 11-C , 12-C ) :   0.9128
B( 11-C , 27-H ) :   0.9538 B( 11-C , 28-H ) :   0.9567 B( 12-C , 29-H ) :   0.9669
B( 12-C , 30-H ) :   0.9622 B( 12-C , 31-H ) :   0.9708 B( 13-S , 14-P ) :   1.0021
B( 14-P , 15-S ) :   1.7683 B( 14-P , 16-O ) :   1.0399 B( 14-P , 18-O ) :   1.1550
B( 16-O , 17-C ) :   0.8256 B( 17-C , 32-H ) :   0.9555 B( 17-C , 33-H ) :   0.9571
B( 17-C , 34-H ) :   0.9505 B( 18-O , 19-C ) :   0.7857 B( 19-C , 35-H ) :   0.9542
B( 19-C , 36-H ) :   0.9490 B( 19-C , 37-H ) :   0.9524

Dispersion correction           -0.017547117
FINAL SINGLE POINT ENERGY     -1981.470302380048

DIPOLE MOMENT
-------------

Method             : SCF
Type of density    : Electron Density
Multiplicity       :   1
Irrep              :   0
Energy             : -1981.4901754625439025 Eh
Relativity type    :
Basis              : AO
                                X                 Y                 Z
Electronic contribution:    -12.133222699       6.353811311      -2.656647431
Nuclear contribution   :     12.212748971      -9.128452954       2.553414212
                        -----------------------------------------
Total Dipole Moment    :      0.079526272      -2.774641642      -0.103233219
                        -----------------------------------------
Magnitude (a.u.)       :      2.777700086
Magnitude (Debye)      :      7.060352523

Rotational constants in cm-1:             0.015295             0.006119             0.005362
Rotational constants in MHz :           458.538743           183.452044           160.760592

                             ****ORCA TERMINATED NORMALLY****
TOTAL RUN TIME: 0 days 0 hours 2 minutes 0 seconds 950 msec
