                         Program Version 6.0.0  -   RELEASE  -
|  1> ! pbe def2-sv(p) def2/J RI DEFGRID1 loosescf d4 GCP(DFT/SV(P)) printgap
|  2> %output
|  3>     printlevel normal
|  4> end
|  5> * xyz 0 1
|  6> C 5.5594594582 1.4975494839 -0.5172655407
|  7> C 4.2863520127 0.8467514872 -1.0180300628
|  8> O 3.4070801165 0.6696588403 0.1124856814
|  9> P 1.8715812514 0.3268747673 -0.0901608778
| 10> S 0.8854327398 1.5541556455 -1.2578640522
| 11> O 1.3241355148 0.334130285 1.3831619592
| 12> C 2.0403389936 -0.0923191751 2.5711200243
| 13> C 2.3710888772 -1.5696884743 2.559557616
| 14> S 1.9356940913 -1.6721240205 -0.8268373032
| 15> C 0.1799567215 -1.8728602204 -1.1785063918
| 16> S -0.8488441715 -1.867014971 0.3319372147
| 17> P -2.0751868636 -0.2102932721 -0.0442927335
| 18> S -2.3954542711 0.2334975516 -1.9317174355
| 19> O -1.4560845594 0.9059508996 0.8872583894
| 20> C -1.9244901862 2.2723002612 0.819318691
| 21> C -1.052850077 3.1031226355 1.7356490025
| 22> O -3.39233334 -0.5608233312 0.7818545808
| 23> C -4.397443152 -1.4617128607 0.2718923619
| 24> C -5.5750535057 -0.6834964588 -0.2816280504
| 25> H 6.2393621303 1.6338839855 -1.3516804154
| 26> H 5.3363810816 2.464830446 -0.0757657421
| 27> H 6.0303458463 0.8668169291 0.2309053131
| 28> H 4.4820931135 -0.1365343572 -1.4534317249
| 29> H 3.777525739 1.4715675986 -1.7592788879
| 30> H 2.9432603662 0.5140562243 2.6577319684
| 31> H 1.3438041415 0.154533215 3.3740061221
| 32> H 3.1091778715 -1.7917003569 1.7921129904
| 33> H 2.7762971239 -1.8442835275 3.5286092406
| 34> H 1.4755930152 -2.1573624876 2.3683614386
| 35> H 0.0754995737 -2.8454275488 -1.6523333275
| 36> H -0.1680605699 -1.0727686883 -1.8385131815
| 37> H -1.8473587504 2.6090953767 -0.2204755114
| 38> H -2.9727677421 2.2914396262 1.1280704697
| 39> H -0.0186013337 3.0476976152 1.4046165552
| 40> H -1.3849732636 4.1355758418 1.7027562131
| 41> H -1.1195290413 2.728663109 2.7527950628
| 42> H -3.9547933914 -2.0969451395 -0.5003347217
| 43> H -4.6871489231 -2.0734035959 1.1279719687
| 44> H -5.2578359897 -0.0817231137 -1.1308284121
| 45> H -6.3415409154 -1.3790848702 -0.6072618658
| 46> H -5.9833631378 -0.0279596071 0.4823467626
| 47> *
| 48>
| 49>                          ****END OF INPUT****

CARTESIAN COORDINATES (ANGSTROEM)
---------------------------------
  C      5.559459    1.497549   -0.517266
  C      4.286352    0.846751   -1.018030
  O      3.407080    0.669659    0.112486
  P      1.871581    0.326875   -0.090161
  S      0.885433    1.554156   -1.257864
  O      1.324136    0.334130    1.383162
  C      2.040339   -0.092319    2.571120
  C      2.371089   -1.569688    2.559558
  S      1.935694   -1.672124   -0.826837
  C      0.179957   -1.872860   -1.178506
  S     -0.848844   -1.867015    0.331937
  P     -2.075187   -0.210293   -0.044293
  S     -2.395454    0.233498   -1.931717
  O     -1.456085    0.905951    0.887258
  C     -1.924490    2.272300    0.819319
  C     -1.052850    3.103123    1.735649
  O     -3.392333   -0.560823    0.781855
  C     -4.397443   -1.461713    0.271892
  C     -5.575054   -0.683496   -0.281628
  H      6.239362    1.633884   -1.351680
  H      5.336381    2.464830   -0.075766
  H      6.030346    0.866817    0.230905
  H      4.482093   -0.136534   -1.453432
  H      3.777526    1.471568   -1.759279
  H      2.943260    0.514056    2.657732
  H      1.343804    0.154533    3.374006
  H      3.109178   -1.791700    1.792113
  H      2.776297   -1.844284    3.528609
  H      1.475593   -2.157362    2.368361
  H      0.075500   -2.845428   -1.652333
  H     -0.168061   -1.072769   -1.838513
  H     -1.847359    2.609095   -0.220476
  H     -2.972768    2.291440    1.128070
  H     -0.018601    3.047698    1.404617
  H     -1.384973    4.135576    1.702756
  H     -1.119529    2.728663    2.752795
  H     -3.954793   -2.096945   -0.500335
  H     -4.687149   -2.073404    1.127972
  H     -5.257836   -0.081723   -1.130828
  H     -6.341541   -1.379085   -0.607262
  H     -5.983363   -0.027960    0.482347

 Total Charge           Charge          ....    0
 Multiplicity           Mult            ....    1
 Number of Electrons    NEL             ....  202
 Basis Dimension        Dim             ....  334

ORBITAL ENERGIES
----------------

  NO   OCC          E(Eh)            E(eV)
   0   2.0000     -88.040916     -2395.7151
   1   2.0000     -88.040852     -2395.7134
   2   2.0000     -87.978110     -2394.0061
   3   2.0000     -87.977608     -2393.9924
   4   2.0000     -76.424384     -2079.6132
   5   2.0000     -76.418105     -2079.4424
   6   2.0000     -18.797815      -511.5146
   7   2.0000     -18.789910      -511.2994
   8   2.0000     -18.784731      -511.1585
   9   2.0000     -18.777667      -510.9663
  10   2.0000      -9.956298      -270.9247
  11   2.0000      -9.956218      -270.9225
  12   2.0000      -9.952740      -270.8278
  13   2.0000      -9.947967      -270.6979
  14   2.0000      -9.939081      -270.4562
  15   2.0000      -9.891766      -269.1686
  16   2.0000      -9.885575      -269.0002
  17   2.0000      -9.877123      -268.7702
  18   2.0000      -9.872723      -268.6504
  19   2.0000      -7.686147      -209.1507
  20   2.0000      -7.686103      -209.1495
  21   2.0000      -7.623059      -207.4340
  22   2.0000      -7.622633      -207.4224
  23   2.0000      -6.421669      -174.7425
  24   2.0000      -6.415828      -174.5836
  25   2.0000      -5.713970      -155.4850
  26   2.0000      -5.713949      -155.4845
  27   2.0000      -5.710572      -155.3926
  28   2.0000      -5.710559      -155.3922
  29   2.0000      -5.703160      -155.1909
  30   2.0000      -5.703153      -155.1907
  31   2.0000      -5.652037      -153.7998
  32   2.0000      -5.651502      -153.7852
  33   2.0000      -5.643779      -153.5750
  34   2.0000      -5.643363      -153.5637
  35   2.0000      -5.643034      -153.5548
  36   2.0000      -5.642715      -153.5461
  37   2.0000      -4.644753      -126.3902
  38   2.0000      -4.643400      -126.3533
  39   2.0000      -4.641683      -126.3066
  40   2.0000      -4.638210      -126.2121
  41   2.0000      -4.637442      -126.1912
  42   2.0000      -4.636581      -126.1678
  43   2.0000      -0.990152       -26.9434
  44   2.0000      -0.977514       -26.5995
  45   2.0000      -0.945755       -25.7353
  46   2.0000      -0.933871       -25.4119
  47   2.0000      -0.761174       -20.7126
  48   2.0000      -0.720395       -19.6030
  49   2.0000      -0.707216       -19.2443
  50   2.0000      -0.694203       -18.8902
  51   2.0000      -0.678948       -18.4751
  52   2.0000      -0.671789       -18.2803
  53   2.0000      -0.645475       -17.5643
  54   2.0000      -0.628108       -17.0917
  55   2.0000      -0.592421       -16.1206
  56   2.0000      -0.583487       -15.8775
  57   2.0000      -0.575132       -15.6501
  58   2.0000      -0.565192       -15.3796
  59   2.0000      -0.553576       -15.0636
  60   2.0000      -0.508024       -13.8240
  61   2.0000      -0.498088       -13.5537
  62   2.0000      -0.474778       -12.9194
  63   2.0000      -0.471633       -12.8338
  64   2.0000      -0.449010       -12.2182
  65   2.0000      -0.444980       -12.1085
  66   2.0000      -0.436317       -11.8728
  67   2.0000      -0.432680       -11.7738
  68   2.0000      -0.427944       -11.6449
  69   2.0000      -0.417596       -11.3634
  70   2.0000      -0.405151       -11.0247
  71   2.0000      -0.400015       -10.8850
  72   2.0000      -0.390198       -10.6178
  73   2.0000      -0.378704       -10.3051
  74   2.0000      -0.374383       -10.1875
  75   2.0000      -0.367913       -10.0114
  76   2.0000      -0.362106        -9.8534
  77   2.0000      -0.355136        -9.6637
  78   2.0000      -0.351056        -9.5527
  79   2.0000      -0.348605        -9.4860
  80   2.0000      -0.343611        -9.3501
  81   2.0000      -0.341307        -9.2874
  82   2.0000      -0.337713        -9.1896
  83   2.0000      -0.328011        -8.9256
  84   2.0000      -0.324558        -8.8317
  85   2.0000      -0.320604        -8.7241
  86   2.0000      -0.308470        -8.3939
  87   2.0000      -0.304770        -8.2932
  88   2.0000      -0.296680        -8.0731
  89   2.0000      -0.290979        -7.9180
  90   2.0000      -0.278749        -7.5851
  91   2.0000      -0.274068        -7.4578
  92   2.0000      -0.261901        -7.1267
  93   2.0000      -0.260228        -7.0812
  94   2.0000      -0.255458        -6.9514
  95   2.0000      -0.233600        -6.3566
  96   2.0000      -0.220030        -5.9873
  97   2.0000      -0.210634        -5.7316
  98   2.0000      -0.199056        -5.4166
  99   2.0000      -0.187908        -5.1132
 100   2.0000      -0.180562        -4.9133
 101   0.0000      -0.041792        -1.1372
 102   0.0000      -0.029108        -0.7921
 103   0.0000      -0.004330        -0.1178
 104   0.0000       0.013561         0.3690
 105   0.0000       0.020292         0.5522

MULLIKEN ATOMIC CHARGES
-----------------------
   0 C :   -0.280761
   1 C :   -0.013229
   2 O :   -0.389091
   3 P :    0.605714
   4 S :   -0.297506
   5 O :   -0.344478
   6 C :    0.005952
   7 C :   -0.319921
   8 S :   -0.116064
   9 C :   -0.356721
  10 S :   -0.093990
  11 P :    0.607006
  12 S :   -0.320382
  13 O :   -0.354029
  14 C :   -0.002510
  15 C :   -0.277956
  16 O :   -0.381952
  17 C :   -0.002124
  18 C :   -0.287993
  19 H :    0.114598
  20 H :    0.121738
  21 H :    0.113933
  22 H :    0.106381
  23 H :    0.108767
  24 H :    0.108768
  25 H :    0.110235
  26 H :    0.120786
  27 H :    0.110898
  28 H :    0.130029
  29 H :    0.181395
  30 H :    0.211762
  31 H :    0.113538
  32 H :    0.095832
  33 H :    0.123666
  34 H :    0.103413
  35 H :    0.104630
  36 H :    0.096553
  37 H :    0.102796
  38 H :    0.124977
  39 H :    0.105611
  40 H :    0.109728
Sum of atomic charges:    0.0000000

LOEWDIN ATOMIC CHARGES
----------------------
   0 C :   -0.350403
   1 C :   -0.119896
   2 O :   -0.252244
   3 P :    0.562474
   4 S :   -0.294471
   5 O :   -0.224431
   6 C :   -0.105876
   7 C :   -0.370954
   8 S :    0.066143
   9 C :   -0.479293
  10 S :    0.080095
  11 P :    0.565807
  12 S :   -0.312224
  13 O :   -0.233173
  14 C :   -0.116046
  15 C :   -0.352873
  16 O :   -0.253821
  17 C :   -0.117544
  18 C :   -0.361114
  19 H :    0.132326
  20 H :    0.129513
  21 H :    0.125449
  22 H :    0.109327
  23 H :    0.111417
  24 H :    0.113778
  25 H :    0.122656
  26 H :    0.116639
  27 H :    0.129957
  28 H :    0.124417
  29 H :    0.137134
  30 H :    0.126514
  31 H :    0.110886
  32 H :    0.107117
  33 H :    0.125618
  34 H :    0.127231
  35 H :    0.121303
  36 H :    0.106019
  37 H :    0.116106
  38 H :    0.125100
  39 H :    0.127792
  40 H :    0.123546

  Mayer bond orders larger than 0.100000
B(  0-C ,  1-C ) :   1.1600 B(  0-C , 19-H ) :   0.9416 B(  0-C , 20-H ) :   0.9507
B(  0-C , 21-H ) :   0.9512 B(  1-C ,  2-O ) :   0.9017 B(  1-C , 22-H ) :   0.9287
B(  1-C , 23-H ) :   0.9097 B(  2-O ,  3-P ) :   1.0722 B(  3-P ,  4-S ) :   1.6550
B(  3-P ,  5-O ) :   1.1458 B(  3-P ,  8-S ) :   0.9355 B(  4-S ,  8-S ) :   0.1055
B(  5-O ,  6-C ) :   0.8954 B(  6-C ,  7-C ) :   1.1713 B(  6-C , 24-H ) :   0.9284
B(  6-C , 25-H ) :   0.9333 B(  7-C , 26-H ) :   0.9394 B(  7-C , 27-H ) :   0.9351
B(  7-C , 28-H ) :   0.9379 B(  8-S ,  9-C ) :   1.0075 B(  9-C , 10-S ) :   0.9934
B(  9-C , 29-H ) :   0.9117 B(  9-C , 30-H ) :   0.8442 B( 10-S , 11-P ) :   0.9740
B( 10-S , 12-S ) :   0.1180 B( 11-P , 12-S ) :   1.6039 B( 11-P , 13-O ) :   1.1521
B( 11-P , 16-O ) :   1.0947 B( 13-O , 14-C ) :   0.8931 B( 14-C , 15-C ) :   1.1657
B( 14-C , 31-H ) :   0.9133 B( 14-C , 32-H ) :   0.9278 B( 15-C , 33-H ) :   0.9413
B( 15-C , 34-H ) :   0.9412 B( 15-C , 35-H ) :   0.9498 B( 16-O , 17-C ) :   0.9047
B( 17-C , 18-C ) :   1.1664 B( 17-C , 36-H ) :   0.9117 B( 17-C , 37-H ) :   0.9356
B( 18-C , 38-H ) :   0.9348 B( 18-C , 39-H ) :   0.9406 B( 18-C , 40-H ) :   0.9480

Dispersion correction           -0.066854056
FINAL SINGLE POINT ENERGY     -2929.518356021265

DIPOLE MOMENT
-------------

Method             : SCF
Type of density    : Electron Density
Multiplicity       :   1
Irrep              :   0
Energy             : -2929.6363615398731781 Eh
Relativity type    :
Basis              : AO
                                X                 Y                 Z
Electronic contribution:     -3.020376389      -6.483923842     -10.352567089
Nuclear contribution   :      3.807556780       5.981100314      11.494552828
                        -----------------------------------------
Total Dipole Moment    :      0.787180390      -0.502823528       1.141985739
                        -----------------------------------------
Magnitude (a.u.)       :      1.475335858
Magnitude (Debye)      :      3.750005734

Rotational constants in cm-1:             0.013461             0.005101             0.004892
Rotational constants in MHz :           403.565228           152.926890           146.649963

                             ****ORCA TERMINATED NORMALLY****
TOTAL RUN TIME: 0 days 0 hours 0 minutes 21 seconds 390 msec
