                         Program Version 6.0.1  -  RELEASE   -
|  1> ! pbe def2-sv(p) def2/J RI DEFGRID1 loosescf d4 GCP(DFT/SV(P)) printgap
|  2> %output
|  3>     printlevel normal
|  4> end
|  5> * xyz 0 1
|  6> C 3.4312022964 -3.8640998952 0.1457283286
|  7> C 3.8607768516 -2.868881331 -0.9199239038
|  8> O 2.7129390586 -2.2796977258 -1.5668791287
|  9> C 2.1570142471 -1.2211367962 -1.0268717992
| 10> O 2.5578721534 -0.662810888 -0.0238919296
| 11> C 0.9260310964 -0.7829650478 -1.7866258847
| 12> C 0.5504543757 0.6606790977 -1.44920527
| 13> H 1.0421905308 1.3772770907 -2.1068239967
| 14> C 0.8471332729 1.0191742508 -0.007601263
| 15> O 0.1775399961 0.5465973242 0.9011120952
| 16> O 1.7346651044 1.956035126 0.1266052394
| 17> C 2.0665702331 2.3918426043 1.4635120818
| 18> C 2.8080702617 3.7087833007 1.3556132963
| 19> S -1.2483139766 0.9234960869 -1.6258654602
| 20> P -2.0625536709 0.1978363096 0.2033924315
| 21> S -2.41992087 1.2683188942 1.8183364911
| 22> O -3.4357840828 -0.0142828737 -0.615837681
| 23> C -4.6704766878 -0.3428990123 0.0215846781
| 24> O -1.6809690656 -1.3461189407 0.4432609669
| 25> C -0.9985027467 -1.8457003747 1.5901674308
| 26> H 2.779923986 -4.6185965626 -0.28658632
| 27> H 4.3101287058 -4.3459231262 0.5608669606
| 28> H 2.9002676246 -3.3533828886 0.9464767485
| 29> H 4.402089788 -3.3602685448 -1.7280240772
| 30> H 4.4649158581 -2.0684442284 -0.4842196931
| 31> H 0.1180098531 -1.4586553009 -1.488258863
| 32> H 1.0773215245 -0.9075587963 -2.8575109022
| 33> H 1.1387743135 2.4831873801 2.0377127507
| 34> H 2.6839458733 1.609304305 1.9142206721
| 35> H 3.0874518099 4.0414096512 2.3495968632
| 36> H 3.7021595694 3.5817570142 0.753207871
| 37> H 2.1736928663 4.45912214 0.8931224804
| 38> H -4.7017669931 -1.4098403838 0.2404997256
| 39> H -5.4510312966 -0.0736716717 -0.6857548899
| 40> H -4.781504453 0.2284671077 0.946272386
| 41> H -1.373370395 -2.8549808143 1.743894245
| 42> H -1.2098197213 -1.2175389257 2.4571127354
| 43> H 0.0763876872 -1.8516371614 1.4113334326
| 44> *
| 45>
| 46>                          ****END OF INPUT****

CARTESIAN COORDINATES (ANGSTROEM)
---------------------------------
  C      3.431202   -3.864100    0.145728
  C      3.860777   -2.868881   -0.919924
  O      2.712939   -2.279698   -1.566879
  C      2.157014   -1.221137   -1.026872
  O      2.557872   -0.662811   -0.023892
  C      0.926031   -0.782965   -1.786626
  C      0.550454    0.660679   -1.449205
  H      1.042191    1.377277   -2.106824
  C      0.847133    1.019174   -0.007601
  O      0.177540    0.546597    0.901112
  O      1.734665    1.956035    0.126605
  C      2.066570    2.391843    1.463512
  C      2.808070    3.708783    1.355613
  S     -1.248314    0.923496   -1.625865
  P     -2.062554    0.197836    0.203392
  S     -2.419921    1.268319    1.818336
  O     -3.435784   -0.014283   -0.615838
  C     -4.670477   -0.342899    0.021585
  O     -1.680969   -1.346119    0.443261
  C     -0.998503   -1.845700    1.590167
  H      2.779924   -4.618597   -0.286586
  H      4.310129   -4.345923    0.560867
  H      2.900268   -3.353383    0.946477
  H      4.402090   -3.360269   -1.728024
  H      4.464916   -2.068444   -0.484220
  H      0.118010   -1.458655   -1.488259
  H      1.077322   -0.907559   -2.857511
  H      1.138774    2.483187    2.037713
  H      2.683946    1.609304    1.914221
  H      3.087452    4.041410    2.349597
  H      3.702160    3.581757    0.753208
  H      2.173693    4.459122    0.893122
  H     -4.701767   -1.409840    0.240500
  H     -5.451031   -0.073672   -0.685755
  H     -4.781504    0.228467    0.946272
  H     -1.373370   -2.854981    1.743894
  H     -1.209820   -1.217539    2.457113
  H      0.076388   -1.851637    1.411333

 Total Charge           Charge          ....    0
 Multiplicity           Mult            ....    1
 Number of Electrons    NEL             ....  174
 Basis Dimension        Dim             ....  316

ORBITAL ENERGIES
----------------

  NO   OCC          E(Eh)            E(eV)
   0   2.0000     -88.030970     -2395.4445
   1   2.0000     -87.958638     -2393.4762
   2   2.0000     -76.410973     -2079.2483
   3   2.0000     -18.822178      -512.1775
   4   2.0000     -18.812480      -511.9136
   5   2.0000     -18.777368      -510.9581
   6   2.0000     -18.762121      -510.5433
   7   2.0000     -18.761965      -510.5390
   8   2.0000     -18.753296      -510.3031
   9   2.0000     -10.030538      -272.9448
  10   2.0000     -10.024470      -272.7797
  11   2.0000      -9.963547      -271.1219
  12   2.0000      -9.948238      -270.7053
  13   2.0000      -9.948185      -270.7039
  14   2.0000      -9.928873      -270.1784
  15   2.0000      -9.922401      -270.0023
  16   2.0000      -9.920477      -269.9499
  17   2.0000      -9.900185      -269.3977
  18   2.0000      -9.889027      -269.0941
  19   2.0000      -7.675800      -208.8691
  20   2.0000      -7.603854      -206.9114
  21   2.0000      -6.406219      -174.3221
  22   2.0000      -5.704341      -155.2230
  23   2.0000      -5.700161      -155.1093
  24   2.0000      -5.692287      -154.8950
  25   2.0000      -5.633104      -153.2846
  26   2.0000      -5.624684      -153.0554
  27   2.0000      -5.623455      -153.0220
  28   2.0000      -4.629154      -125.9657
  29   2.0000      -4.628262      -125.9414
  30   2.0000      -4.626594      -125.8960
  31   2.0000      -1.032427       -28.0938
  32   2.0000      -1.023989       -27.8642
  33   2.0000      -0.961898       -26.1746
  34   2.0000      -0.938926       -25.5495
  35   2.0000      -0.930436       -25.3185
  36   2.0000      -0.918319       -24.9887
  37   2.0000      -0.765797       -20.8384
  38   2.0000      -0.725369       -19.7383
  39   2.0000      -0.709922       -19.3180
  40   2.0000      -0.688330       -18.7304
  41   2.0000      -0.656137       -17.8544
  42   2.0000      -0.621150       -16.9024
  43   2.0000      -0.609173       -16.5764
  44   2.0000      -0.607409       -16.5284
  45   2.0000      -0.605651       -16.4806
  46   2.0000      -0.557586       -15.1727
  47   2.0000      -0.516221       -14.0471
  48   2.0000      -0.512652       -13.9500
  49   2.0000      -0.499630       -13.5956
  50   2.0000      -0.485901       -13.2220
  51   2.0000      -0.468242       -12.7415
  52   2.0000      -0.460536       -12.5318
  53   2.0000      -0.454758       -12.3746
  54   2.0000      -0.444288       -12.0897
  55   2.0000      -0.439304       -11.9541
  56   2.0000      -0.434600       -11.8261
  57   2.0000      -0.413970       -11.2647
  58   2.0000      -0.411636       -11.2012
  59   2.0000      -0.406555       -11.0629
  60   2.0000      -0.402367       -10.9490
  61   2.0000      -0.394801       -10.7431
  62   2.0000      -0.385935       -10.5018
  63   2.0000      -0.384098       -10.4519
  64   2.0000      -0.379303       -10.3214
  65   2.0000      -0.368720       -10.0334
  66   2.0000      -0.361909        -9.8480
  67   2.0000      -0.359859        -9.7923
  68   2.0000      -0.353768        -9.6265
  69   2.0000      -0.346536        -9.4297
  70   2.0000      -0.339487        -9.2379
  71   2.0000      -0.328025        -8.9260
  72   2.0000      -0.322411        -8.7733
  73   2.0000      -0.312893        -8.5142
  74   2.0000      -0.309971        -8.4347
  75   2.0000      -0.294157        -8.0044
  76   2.0000      -0.288397        -7.8477
  77   2.0000      -0.282800        -7.6954
  78   2.0000      -0.268050        -7.2940
  79   2.0000      -0.264110        -7.1868
  80   2.0000      -0.254736        -6.9317
  81   2.0000      -0.251476        -6.8430
  82   2.0000      -0.245428        -6.6784
  83   2.0000      -0.235869        -6.4183
  84   2.0000      -0.211672        -5.7599
  85   2.0000      -0.179223        -4.8769
  86   2.0000      -0.170631        -4.6431
  87   0.0000      -0.050977        -1.3872
  88   0.0000      -0.042995        -1.1700
  89   0.0000      -0.015548        -0.4231
  90   0.0000       0.012052         0.3280
  91   0.0000       0.028277         0.7695

MULLIKEN ATOMIC CHARGES
-----------------------
   0 C :   -0.311367
   1 C :   -0.015134
   2 O :   -0.220163
   3 C :    0.130567
   4 O :   -0.209670
   5 C :   -0.065929
   6 C :   -0.293104
   7 H :    0.131605
   8 C :    0.220822
   9 O :   -0.227639
  10 O :   -0.206214
  11 C :   -0.034619
  12 C :   -0.276591
  13 S :   -0.066294
  14 P :    0.650365
  15 S :   -0.341792
  16 O :   -0.403203
  17 C :   -0.094734
  18 O :   -0.396309
  19 C :   -0.102466
  20 H :    0.120290
  21 H :    0.119109
  22 H :    0.131778
  23 H :    0.110034
  24 H :    0.112881
  25 H :    0.147538
  26 H :    0.124362
  27 H :    0.129359
  28 H :    0.110962
  29 H :    0.114206
  30 H :    0.114145
  31 H :    0.120542
  32 H :    0.102423
  33 H :    0.115091
  34 H :    0.112184
  35 H :    0.111982
  36 H :    0.118998
  37 H :    0.115986
Sum of atomic charges:   -0.0000000

LOEWDIN ATOMIC CHARGES
----------------------
   0 C :   -0.355636
   1 C :   -0.108724
   2 O :   -0.049613
   3 C :    0.042545
   4 O :   -0.153071
   5 C :   -0.255344
   6 C :   -0.262849
   7 H :    0.141441
   8 C :    0.019191
   9 O :   -0.164635
  10 O :   -0.029525
  11 C :   -0.103820
  12 C :   -0.350061
  13 S :    0.125685
  14 P :    0.588958
  15 S :   -0.339718
  16 O :   -0.277852
  17 C :   -0.218623
  18 O :   -0.260772
  19 C :   -0.220309
  20 H :    0.127868
  21 H :    0.134058
  22 H :    0.130619
  23 H :    0.121503
  24 H :    0.121701
  25 H :    0.154233
  26 H :    0.146450
  27 H :    0.126779
  28 H :    0.121248
  29 H :    0.132626
  30 H :    0.126155
  31 H :    0.129169
  32 H :    0.107396
  33 H :    0.117148
  34 H :    0.104662
  35 H :    0.113922
  36 H :    0.111210
  37 H :    0.105988

  Mayer bond orders larger than 0.100000
B(  0-C ,  1-C ) :   1.1757 B(  0-C , 20-H ) :   0.9483 B(  0-C , 21-H ) :   0.9426
B(  0-C , 22-H ) :   0.9445 B(  1-C ,  2-O ) :   0.9055 B(  1-C , 23-H ) :   0.9363
B(  1-C , 24-H ) :   0.9150 B(  2-O ,  3-C ) :   1.2603 B(  3-C ,  4-O ) :   1.9362
B(  3-C ,  5-C ) :   1.0135 B(  4-O ,  8-C ) :   0.1294 B(  5-C ,  6-C ) :   0.9974
B(  5-C , 25-H ) :   0.8667 B(  5-C , 26-H ) :   0.9031 B(  6-C ,  7-H ) :   0.8832
B(  6-C ,  8-C ) :   0.9231 B(  6-C , 13-S ) :   1.0275 B(  8-C ,  9-O ) :   1.8155
B(  8-C , 10-O ) :   1.2941 B(  9-O , 14-P ) :   0.1840 B( 10-O , 11-C ) :   0.8917
B( 11-C , 12-C ) :   1.1571 B( 11-C , 27-H ) :   0.9207 B( 11-C , 28-H ) :   0.9301
B( 12-C , 29-H ) :   0.9432 B( 12-C , 30-H ) :   0.9488 B( 12-C , 31-H ) :   0.9511
B( 13-S , 14-P ) :   0.9165 B( 14-P , 15-S ) :   1.5766 B( 14-P , 16-O ) :   1.0465
B( 14-P , 18-O ) :   1.0483 B( 16-O , 17-C ) :   0.9444 B( 17-C , 32-H ) :   0.9534
B( 17-C , 33-H ) :   0.9605 B( 17-C , 34-H ) :   0.9255 B( 18-O , 19-C ) :   0.9327
B( 19-C , 35-H ) :   0.9535 B( 19-C , 36-H ) :   0.9312 B( 19-C , 37-H ) :   0.9431

Dispersion correction           -0.051303795
FINAL SINGLE POINT ENERGY     -1979.003167776705

DIPOLE MOMENT
-------------

Method             : SCF
Type of density    : Electron Density
Multiplicity       :   1
Irrep              :   0
Energy             : -1979.1365826478390773 Eh
Relativity type    :
Basis              : AO
                                X                 Y                 Z
Electronic contribution:    -15.362013300       8.177426461      -6.495748850
Nuclear contribution   :     17.403015570      -9.404644842       6.009810103
                        -----------------------------------------
Total Dipole Moment    :      2.041002270      -1.227218381      -0.485938747
                        -----------------------------------------
Magnitude (a.u.)       :      2.430615495
Magnitude (Debye)      :      6.178133604

Rotational constants in cm-1:             0.012401             0.007061             0.005670
Rotational constants in MHz :           371.773992           211.677851           169.983773

                             ****ORCA TERMINATED NORMALLY****
TOTAL RUN TIME: 0 days 0 hours 0 minutes 41 seconds 297 msec
