                         Program Version 6.0.1  -  RELEASE   -
|  1> ! pbe def2-sv(p) def2/J RI DEFGRID1 loosescf d4 GCP(DFT/SV(P)) printgap
|  2> %output
|  3>     printlevel normal
|  4> end
|  5> * xyz 0 1
|  6> C 3.3113553468 -1.7743407801 1.4741862777
|  7> C 3.0872628863 -2.2948648353 0.064428718
|  8> O 2.7662550298 -1.216324503 -0.836127664
|  9> C 1.5116702179 -0.9901605793 -1.1552973298
| 10> O 0.5655222671 -1.6249508121 -0.7274353083
| 11> C 1.3859601268 0.1378749128 -2.1568567017
| 12> C 0.229630854 1.0804745434 -1.8239158659
| 13> H 0.1155200059 1.8089285168 -2.6320668716
| 14> C 0.4357294976 1.8377791524 -0.5248589385
| 15> O -0.4434002979 1.9291015373 0.3120703148
| 16> O 1.6215469419 2.3689841623 -0.4409429361
| 17> C 1.9846434615 3.0818093625 0.7635936162
| 18> C 2.6283285044 2.1349277222 1.761685881
| 19> S -1.3925387319 0.2501585211 -1.7214545497
| 20> P -1.5316175479 -0.3275988139 0.3167695695
| 21> S -0.2888375576 -0.5341930386 1.8208340734
| 22> O -2.7618136097 0.5198377093 0.9111328453
| 23> C -3.9065970778 0.8735385818 0.1250916719
| 24> O -2.2319798249 -1.7273929659 -0.100041237
| 25> C -2.5606580164 -2.7008327727 0.8886807045
| 26> H 4.0904282383 -1.0178529824 1.4768285275
| 27> H 2.3921247024 -1.3426593369 1.8671662256
| 28> H 3.6095818397 -2.5975777067 2.1145610415
| 29> H 2.2698208232 -3.0208145232 0.0454775526
| 30> H 3.9979251086 -2.733864488 -0.3455255165
| 31> H 1.19360494 -0.3131449696 -3.1325554253
| 32> H 2.3235128855 0.6928717219 -2.1870550721
| 33> H 2.6860157501 3.8433262569 0.4226594656
| 34> H 1.0868150221 3.5411162621 1.1843559687
| 35> H 2.9393013259 2.6933258676 2.6379726669
| 36> H 1.9168259648 1.3695889811 2.0695006701
| 37> H 3.4936138284 1.652502898 1.3161393604
| 38> H -4.7160372933 1.0208417018 0.8363980249
| 39> H -4.1522093186 0.0766324306 -0.579083686
| 40> H -3.7006894895 1.7963073479 -0.4163671312
| 41> H -1.6548337597 -3.0346379012 1.3973805047
| 42> H -3.0198798978 -3.5236070049 0.346628186
| 43> H -3.2538103959 -2.2849617835 1.622909735
| 44> *
| 45>
| 46>                          ****END OF INPUT****

CARTESIAN COORDINATES (ANGSTROEM)
---------------------------------
  C      3.311355   -1.774341    1.474186
  C      3.087263   -2.294865    0.064429
  O      2.766255   -1.216325   -0.836128
  C      1.511670   -0.990161   -1.155297
  O      0.565522   -1.624951   -0.727435
  C      1.385960    0.137875   -2.156857
  C      0.229631    1.080475   -1.823916
  H      0.115520    1.808929   -2.632067
  C      0.435729    1.837779   -0.524859
  O     -0.443400    1.929102    0.312070
  O      1.621547    2.368984   -0.440943
  C      1.984643    3.081809    0.763594
  C      2.628329    2.134928    1.761686
  S     -1.392539    0.250159   -1.721455
  P     -1.531618   -0.327599    0.316770
  S     -0.288838   -0.534193    1.820834
  O     -2.761814    0.519838    0.911133
  C     -3.906597    0.873539    0.125092
  O     -2.231980   -1.727393   -0.100041
  C     -2.560658   -2.700833    0.888681
  H      4.090428   -1.017853    1.476829
  H      2.392125   -1.342659    1.867166
  H      3.609582   -2.597578    2.114561
  H      2.269821   -3.020815    0.045478
  H      3.997925   -2.733864   -0.345526
  H      1.193605   -0.313145   -3.132555
  H      2.323513    0.692872   -2.187055
  H      2.686016    3.843326    0.422659
  H      1.086815    3.541116    1.184356
  H      2.939301    2.693326    2.637973
  H      1.916826    1.369589    2.069501
  H      3.493614    1.652503    1.316139
  H     -4.716037    1.020842    0.836398
  H     -4.152209    0.076632   -0.579084
  H     -3.700689    1.796307   -0.416367
  H     -1.654834   -3.034638    1.397381
  H     -3.019880   -3.523607    0.346628
  H     -3.253810   -2.284962    1.622910

 Total Charge           Charge          ....    0
 Multiplicity           Mult            ....    1
 Number of Electrons    NEL             ....  174
 Basis Dimension        Dim             ....  316

ORBITAL ENERGIES
----------------

  NO   OCC          E(Eh)            E(eV)
   0   2.0000     -88.027323     -2395.3452
   1   2.0000     -87.960546     -2393.5281
   2   2.0000     -76.409646     -2079.2122
   3   2.0000     -18.820640      -512.1356
   4   2.0000     -18.804006      -511.6830
   5   2.0000     -18.762866      -510.5635
   6   2.0000     -18.762450      -510.5522
   7   2.0000     -18.756047      -510.3780
   8   2.0000     -18.738176      -509.8917
   9   2.0000     -10.025428      -272.8058
  10   2.0000     -10.010557      -272.4011
  11   2.0000      -9.955370      -270.8994
  12   2.0000      -9.954322      -270.8709
  13   2.0000      -9.944082      -270.5922
  14   2.0000      -9.929465      -270.1945
  15   2.0000      -9.922848      -270.0144
  16   2.0000      -9.915943      -269.8265
  17   2.0000      -9.884742      -268.9775
  18   2.0000      -9.878617      -268.8108
  19   2.0000      -7.672348      -208.7752
  20   2.0000      -7.605807      -206.9645
  21   2.0000      -6.404629      -174.2788
  22   2.0000      -5.700759      -155.1255
  23   2.0000      -5.697317      -155.0319
  24   2.0000      -5.688237      -154.7848
  25   2.0000      -5.635311      -153.3446
  26   2.0000      -5.626510      -153.1051
  27   2.0000      -5.625137      -153.0678
  28   2.0000      -4.627611      -125.9237
  29   2.0000      -4.626756      -125.9004
  30   2.0000      -4.625012      -125.8530
  31   2.0000      -1.030265       -28.0349
  32   2.0000      -1.010845       -27.5065
  33   2.0000      -0.956065       -26.0158
  34   2.0000      -0.934629       -25.4326
  35   2.0000      -0.916277       -24.9332
  36   2.0000      -0.912107       -24.8197
  37   2.0000      -0.765334       -20.8258
  38   2.0000      -0.711042       -19.3484
  39   2.0000      -0.707779       -19.2597
  40   2.0000      -0.680692       -18.5226
  41   2.0000      -0.651841       -17.7375
  42   2.0000      -0.625334       -17.0162
  43   2.0000      -0.613568       -16.6960
  44   2.0000      -0.598135       -16.2761
  45   2.0000      -0.592198       -16.1145
  46   2.0000      -0.565489       -15.3877
  47   2.0000      -0.510144       -13.8817
  48   2.0000      -0.499322       -13.5872
  49   2.0000      -0.496800       -13.5186
  50   2.0000      -0.485307       -13.2059
  51   2.0000      -0.455730       -12.4010
  52   2.0000      -0.455014       -12.3816
  53   2.0000      -0.452117       -12.3027
  54   2.0000      -0.431319       -11.7368
  55   2.0000      -0.427490       -11.6326
  56   2.0000      -0.420498       -11.4423
  57   2.0000      -0.413321       -11.2470
  58   2.0000      -0.409973       -11.1559
  59   2.0000      -0.398918       -10.8551
  60   2.0000      -0.395775       -10.7696
  61   2.0000      -0.390803       -10.6343
  62   2.0000      -0.385313       -10.4849
  63   2.0000      -0.380645       -10.3579
  64   2.0000      -0.374662       -10.1951
  65   2.0000      -0.363859        -9.9011
  66   2.0000      -0.358055        -9.7432
  67   2.0000      -0.351836        -9.5739
  68   2.0000      -0.343980        -9.3602
  69   2.0000      -0.337618        -9.1871
  70   2.0000      -0.335105        -9.1187
  71   2.0000      -0.325850        -8.8668
  72   2.0000      -0.319062        -8.6821
  73   2.0000      -0.306160        -8.3310
  74   2.0000      -0.300320        -8.1721
  75   2.0000      -0.294185        -8.0052
  76   2.0000      -0.291525        -7.9328
  77   2.0000      -0.275535        -7.4977
  78   2.0000      -0.263890        -7.1808
  79   2.0000      -0.259620        -7.0646
  80   2.0000      -0.251160        -6.8344
  81   2.0000      -0.245775        -6.6879
  82   2.0000      -0.235361        -6.4045
  83   2.0000      -0.226167        -6.1543
  84   2.0000      -0.193027        -5.2525
  85   2.0000      -0.180175        -4.9028
  86   2.0000      -0.168976        -4.5981
  87   0.0000      -0.045167        -1.2290
  88   0.0000      -0.043451        -1.1824
  89   0.0000      -0.026452        -0.7198
  90   0.0000       0.006832         0.1859
  91   0.0000       0.035817         0.9746

MULLIKEN ATOMIC CHARGES
-----------------------
   0 C :   -0.320415
   1 C :   -0.017208
   2 O :   -0.225936
   3 C :    0.101646
   4 O :   -0.186422
   5 C :   -0.042730
   6 C :   -0.310622
   7 H :    0.152080
   8 C :    0.206703
   9 O :   -0.178392
  10 O :   -0.221080
  11 C :   -0.010378
  12 C :   -0.331444
  13 S :   -0.065521
  14 P :    0.639263
  15 S :   -0.336786
  16 O :   -0.375581
  17 C :   -0.106110
  18 O :   -0.396329
  19 C :   -0.095879
  20 H :    0.111234
  21 H :    0.152086
  22 H :    0.107405
  23 H :    0.114055
  24 H :    0.100273
  25 H :    0.127428
  26 H :    0.117153
  27 H :    0.105200
  28 H :    0.119312
  29 H :    0.112600
  30 H :    0.157190
  31 H :    0.116634
  32 H :    0.120238
  33 H :    0.109806
  34 H :    0.115001
  35 H :    0.118965
  36 H :    0.112700
  37 H :    0.103860
Sum of atomic charges:    0.0000000

LOEWDIN ATOMIC CHARGES
----------------------
   0 C :   -0.360464
   1 C :   -0.109289
   2 O :   -0.052119
   3 C :    0.027277
   4 O :   -0.161794
   5 C :   -0.251776
   6 C :   -0.263595
   7 H :    0.152459
   8 C :    0.013739
   9 O :   -0.146672
  10 O :   -0.038211
  11 C :   -0.104136
  12 C :   -0.361822
  13 S :    0.123811
  14 P :    0.607245
  15 S :   -0.304824
  16 O :   -0.258732
  17 C :   -0.220194
  18 O :   -0.272847
  19 C :   -0.217138
  20 H :    0.120295
  21 H :    0.127071
  22 H :    0.129630
  23 H :    0.122571
  24 H :    0.115971
  25 H :    0.149952
  26 H :    0.139395
  27 H :    0.118871
  28 H :    0.125434
  29 H :    0.132000
  30 H :    0.131302
  31 H :    0.123203
  32 H :    0.119074
  33 H :    0.103421
  34 H :    0.109815
  35 H :    0.110187
  36 H :    0.115454
  37 H :    0.105437

  Mayer bond orders larger than 0.100000
B(  0-C ,  1-C ) :   1.1816 B(  0-C , 20-H ) :   0.9441 B(  0-C , 21-H ) :   0.9232
B(  0-C , 22-H ) :   0.9402 B(  1-C ,  2-O ) :   0.9052 B(  1-C , 23-H ) :   0.9075
B(  1-C , 24-H ) :   0.9363 B(  2-O ,  3-C ) :   1.2475 B(  3-C ,  4-O ) :   1.9783
B(  3-C ,  5-C ) :   0.9989 B(  5-C ,  6-C ) :   1.0157 B(  5-C , 25-H ) :   0.8845
B(  5-C , 26-H ) :   0.8870 B(  6-C ,  7-H ) :   0.8714 B(  6-C ,  8-C ) :   0.8946
B(  6-C , 13-S ) :   1.0628 B(  8-C ,  9-O ) :   1.9674 B(  8-C , 10-O ) :   1.2733
B(  9-O , 14-P ) :   0.1134 B( 10-O , 11-C ) :   0.8920 B( 11-C , 12-C ) :   1.1795
B( 11-C , 27-H ) :   0.9364 B( 11-C , 28-H ) :   0.9118 B( 12-C , 29-H ) :   0.9391
B( 12-C , 30-H ) :   0.9222 B( 12-C , 31-H ) :   0.9432 B( 13-S , 14-P ) :   0.9111
B( 13-S , 15-S ) :   0.1113 B( 14-P , 15-S ) :   1.5227 B( 14-P , 16-O ) :   1.0768
B( 14-P , 18-O ) :   1.0403 B( 16-O , 17-C ) :   0.9421 B( 17-C , 32-H ) :   0.9569
B( 17-C , 33-H ) :   0.9399 B( 17-C , 34-H ) :   0.9488 B( 18-O , 19-C ) :   0.9456
B( 19-C , 35-H ) :   0.9406 B( 19-C , 36-H ) :   0.9572 B( 19-C , 37-H ) :   0.9481

Dispersion correction           -0.056128329
FINAL SINGLE POINT ENERGY     -1978.993097136338

DIPOLE MOMENT
-------------

Method             : SCF
Type of density    : Electron Density
Multiplicity       :   1
Irrep              :   0
Energy             : -1979.1208635623102055 Eh
Relativity type    :
Basis              : AO
                                X                 Y                 Z
Electronic contribution:    -11.401861875       1.485229853      -8.010145008
Nuclear contribution   :     12.309345411      -0.984120335       7.248927048
                        -----------------------------------------
Total Dipole Moment    :      0.907483537       0.501109518      -0.761217961
                        -----------------------------------------
Magnitude (a.u.)       :      1.286114265
Magnitude (Debye)      :      3.269042665

Rotational constants in cm-1:             0.012969             0.009008             0.007677
Rotational constants in MHz :           388.786621           270.048698           230.145796

                             ****ORCA TERMINATED NORMALLY****
TOTAL RUN TIME: 0 days 0 hours 0 minutes 37 seconds 796 msec
