                         Program Version 6.0.0  -   RELEASE  -
|  1> ! r2scan-3c def2/J RI DEFGRID2 scfconv6 printgap
|  2> %output
|  3>     printlevel normal
|  4> end
|  5> * xyz 0 1
|  6> C 5.4338039502 1.4598690198 -1.7917269228
|  7> C 4.1137128202 0.7165909617 -1.8365214281
|  8> O 3.8695128172 0.1603585471 -0.5295199202
|  9> P 2.4072646431 -0.0830954752 0.0118030347
| 10> S 1.1623469473 1.4028080848 -0.3314553104
| 11> O 2.8497450908 -0.3767844841 1.4989665074
| 12> C 2.045793127 -1.025790896 2.5005482024
| 13> C 1.1079177781 -0.0514946321 3.1860025102
| 14> S 1.8355631583 -1.9543918993 -0.8263947895
| 15> C 0.0778529404 -1.6616448845 -1.1225263224
| 16> S -0.9011486677 -1.6216544652 0.4236722142
| 17> P -2.1194094695 0.06867713 0.0674739262
| 18> S -2.1616531563 0.7322539683 -1.7807707484
| 19> O -1.6607163291 1.078217946 1.1948093186
| 20> C -1.8362483698 2.5011934089 1.0652036283
| 21> C -3.2993533023 2.8849239323 1.109718289
| 22> O -3.509973283 -0.3964468741 0.6876437262
| 23> C -4.323926699 -1.4312015213 0.1055704685
| 24> C -5.3185099432 -0.859234548 -0.8864964491
| 25> H 6.227477585 0.7832052919 -1.4892650362
| 26> H 5.6528643164 1.8578387472 -2.7771163298
| 27> H 5.3777187018 2.2772196093 -1.0781448035
| 28> H 4.1466427603 -0.1098028811 -2.5512679571
| 29> H 3.2880097231 1.3882802229 -2.0988712471
| 30> H 1.4882165364 -1.8506721396 2.0441840844
| 31> H 2.7792901781 -1.4266632948 3.202650394
| 32> H 0.3721011921 0.3331340772 2.4818641074
| 33> H 0.5865785992 -0.5622875111 3.9891710809
| 34> H 1.6693574708 0.7855796933 3.5923321151
| 35> H -0.2608274978 -2.4996902907 -1.7260070462
| 36> H -0.0676029589 -0.7126984718 -1.6456618688
| 37> H -1.2775673961 2.912672579 1.9069656194
| 38> H -1.3688573966 2.8243905141 0.1286553948
| 39> H -3.7592619095 2.4982295705 2.0152900581
| 40> H -3.3900069364 3.9662414305 1.0859656263
| 41> H -3.8139205899 2.4657045554 0.2455709729
| 42> H -3.6767627626 -2.173867504 -0.3708506563
| 43> H -4.8314825797 -1.8869923752 0.957898148
| 44> H -4.7968245438 -0.3945837278 -1.7202176635
| 45> H -5.946813328 -1.6594747877 -1.2638793279
| 46> H -5.9409536808 -0.1116170362 -0.4028508706
| 47> *
| 48>
| 49>                          ****END OF INPUT****

CARTESIAN COORDINATES (ANGSTROEM)
---------------------------------
  C      5.433804    1.459869   -1.791727
  C      4.113713    0.716591   -1.836521
  O      3.869513    0.160359   -0.529520
  P      2.407265   -0.083095    0.011803
  S      1.162347    1.402808   -0.331455
  O      2.849745   -0.376784    1.498967
  C      2.045793   -1.025791    2.500548
  C      1.107918   -0.051495    3.186003
  S      1.835563   -1.954392   -0.826395
  C      0.077853   -1.661645   -1.122526
  S     -0.901149   -1.621654    0.423672
  P     -2.119409    0.068677    0.067474
  S     -2.161653    0.732254   -1.780771
  O     -1.660716    1.078218    1.194809
  C     -1.836248    2.501193    1.065204
  C     -3.299353    2.884924    1.109718
  O     -3.509973   -0.396447    0.687644
  C     -4.323927   -1.431202    0.105570
  C     -5.318510   -0.859235   -0.886496
  H      6.227478    0.783205   -1.489265
  H      5.652864    1.857839   -2.777116
  H      5.377719    2.277220   -1.078145
  H      4.146643   -0.109803   -2.551268
  H      3.288010    1.388280   -2.098871
  H      1.488217   -1.850672    2.044184
  H      2.779290   -1.426663    3.202650
  H      0.372101    0.333134    2.481864
  H      0.586579   -0.562288    3.989171
  H      1.669357    0.785580    3.592332
  H     -0.260827   -2.499690   -1.726007
  H     -0.067603   -0.712698   -1.645662
  H     -1.277567    2.912673    1.906966
  H     -1.368857    2.824391    0.128655
  H     -3.759262    2.498230    2.015290
  H     -3.390007    3.966241    1.085966
  H     -3.813921    2.465705    0.245571
  H     -3.676763   -2.173868   -0.370851
  H     -4.831483   -1.886992    0.957898
  H     -4.796825   -0.394584   -1.720218
  H     -5.946813   -1.659475   -1.263879
  H     -5.940954   -0.111617   -0.402851

 Total Charge           Charge          ....    0
 Multiplicity           Mult            ....    1
 Number of Electrons    NEL             ....  202
 Basis Dimension        Dim             ....  539

ORBITAL ENERGIES
----------------

  NO   OCC          E(Eh)            E(eV)
   0   2.0000     -88.579680     -2410.3756
   1   2.0000     -88.576646     -2410.2931
   2   2.0000     -88.520163     -2408.7561
   3   2.0000     -88.515810     -2408.6376
   4   2.0000     -76.913834     -2092.9318
   5   2.0000     -76.912207     -2092.8876
   6   2.0000     -18.989282      -516.7246
   7   2.0000     -18.988445      -516.7019
   8   2.0000     -18.988005      -516.6899
   9   2.0000     -18.986494      -516.6488
  10   2.0000     -10.105806      -274.9929
  11   2.0000     -10.098992      -274.8075
  12   2.0000     -10.095988      -274.7258
  13   2.0000     -10.094402      -274.6827
  14   2.0000     -10.093001      -274.6445
  15   2.0000     -10.028571      -272.8913
  16   2.0000     -10.024679      -272.7854
  17   2.0000     -10.024484      -272.7801
  18   2.0000     -10.018821      -272.6260
  19   2.0000      -7.873791      -214.2568
  20   2.0000      -7.870964      -214.1798
  21   2.0000      -7.814968      -212.6561
  22   2.0000      -7.810614      -212.5376
  23   2.0000      -6.592117      -179.3806
  24   2.0000      -6.590545      -179.3379
  25   2.0000      -5.820779      -158.3915
  26   2.0000      -5.817690      -158.3074
  27   2.0000      -5.817304      -158.2969
  28   2.0000      -5.814859      -158.2304
  29   2.0000      -5.811176      -158.1301
  30   2.0000      -5.808177      -158.0485
  31   2.0000      -5.762657      -156.8099
  32   2.0000      -5.758320      -156.6918
  33   2.0000      -5.755395      -156.6123
  34   2.0000      -5.754785      -156.5957
  35   2.0000      -5.750839      -156.4883
  36   2.0000      -5.750621      -156.4824
  37   2.0000      -4.737382      -128.9107
  38   2.0000      -4.737071      -128.9023
  39   2.0000      -4.736082      -128.8754
  40   2.0000      -4.736004      -128.8732
  41   2.0000      -4.735804      -128.8678
  42   2.0000      -4.734008      -128.8189
  43   2.0000      -1.050408       -28.5831
  44   2.0000      -1.048205       -28.5231
  45   2.0000      -1.007687       -27.4205
  46   2.0000      -1.007287       -27.4097
  47   2.0000      -0.798899       -21.7391
  48   2.0000      -0.757754       -20.6195
  49   2.0000      -0.748952       -20.3800
  50   2.0000      -0.727923       -19.8078
  51   2.0000      -0.725067       -19.7301
  52   2.0000      -0.710703       -19.3392
  53   2.0000      -0.684166       -18.6171
  54   2.0000      -0.666713       -18.1422
  55   2.0000      -0.629244       -17.1226
  56   2.0000      -0.622445       -16.9376
  57   2.0000      -0.602120       -16.3845
  58   2.0000      -0.596014       -16.2184
  59   2.0000      -0.591904       -16.1065
  60   2.0000      -0.529765       -14.4156
  61   2.0000      -0.520113       -14.1530
  62   2.0000      -0.491677       -13.3792
  63   2.0000      -0.491236       -13.3672
  64   2.0000      -0.467582       -12.7236
  65   2.0000      -0.460377       -12.5275
  66   2.0000      -0.456129       -12.4119
  67   2.0000      -0.454095       -12.3565
  68   2.0000      -0.443903       -12.0792
  69   2.0000      -0.427197       -11.6246
  70   2.0000      -0.420728       -11.4486
  71   2.0000      -0.419233       -11.4079
  72   2.0000      -0.416731       -11.3398
  73   2.0000      -0.403708       -10.9855
  74   2.0000      -0.393225       -10.7002
  75   2.0000      -0.386929       -10.5289
  76   2.0000      -0.379970       -10.3395
  77   2.0000      -0.370955       -10.0942
  78   2.0000      -0.365826        -9.9546
  79   2.0000      -0.361834        -9.8460
  80   2.0000      -0.358105        -9.7445
  81   2.0000      -0.352900        -9.6029
  82   2.0000      -0.352026        -9.5791
  83   2.0000      -0.347431        -9.4541
  84   2.0000      -0.344902        -9.3853
  85   2.0000      -0.327491        -8.9115
  86   2.0000      -0.325045        -8.8449
  87   2.0000      -0.312000        -8.4900
  88   2.0000      -0.309114        -8.4114
  89   2.0000      -0.304364        -8.2822
  90   2.0000      -0.297881        -8.1057
  91   2.0000      -0.287654        -7.8275
  92   2.0000      -0.281664        -7.6645
  93   2.0000      -0.278152        -7.5689
  94   2.0000      -0.271030        -7.3751
  95   2.0000      -0.252362        -6.8671
  96   2.0000      -0.235745        -6.4149
  97   2.0000      -0.226901        -6.1743
  98   2.0000      -0.215452        -5.8628
  99   2.0000      -0.212211        -5.7746
 100   2.0000      -0.202432        -5.5084
 101   0.0000      -0.047538        -1.2936
 102   0.0000      -0.036366        -0.9896
 103   0.0000      -0.009685        -0.2635
 104   0.0000       0.007494         0.2039
 105   0.0000       0.016407         0.4465

MULLIKEN ATOMIC CHARGES
-----------------------
   0 C :   -0.442158
   1 C :   -0.139947
   2 O :   -0.301572
   3 P :    0.685791
   4 S :   -0.425290
   5 O :   -0.281223
   6 C :   -0.138874
   7 C :   -0.436122
   8 S :   -0.156385
   9 C :   -0.199479
  10 S :   -0.161159
  11 P :    0.665415
  12 S :   -0.462156
  13 O :   -0.283848
  14 C :   -0.145654
  15 C :   -0.455127
  16 O :   -0.278895
  17 C :   -0.137651
  18 C :   -0.454060
  19 H :    0.153081
  20 H :    0.145065
  21 H :    0.159118
  22 H :    0.148570
  23 H :    0.170014
  24 H :    0.153974
  25 H :    0.148991
  26 H :    0.184285
  27 H :    0.143994
  28 H :    0.149052
  29 H :    0.190893
  30 H :    0.217210
  31 H :    0.155912
  32 H :    0.175433
  33 H :    0.156474
  34 H :    0.147542
  35 H :    0.170005
  36 H :    0.150617
  37 H :    0.150246
  38 H :    0.182450
  39 H :    0.144029
  40 H :    0.151439
Sum of atomic charges:   -0.0000000

LOEWDIN ATOMIC CHARGES
----------------------
   0 C :   -0.385785
   1 C :    0.020866
   2 O :   -0.654530
   3 P :    0.384259
   4 S :   -0.084429
   5 O :   -0.641841
   6 C :    0.022557
   7 C :   -0.406125
   8 S :    0.136589
   9 C :   -0.418680
  10 S :    0.143233
  11 P :    0.375999
  12 S :   -0.123275
  13 O :   -0.683189
  14 C :    0.012226
  15 C :   -0.400291
  16 O :   -0.664555
  17 C :    0.019393
  18 C :   -0.404034
  19 H :    0.159463
  20 H :    0.159148
  21 H :    0.161724
  22 H :    0.170980
  23 H :    0.181411
  24 H :    0.174947
  25 H :    0.178885
  26 H :    0.177556
  27 H :    0.159101
  28 H :    0.159344
  29 H :    0.178810
  30 H :    0.201855
  31 H :    0.182446
  32 H :    0.182441
  33 H :    0.160674
  34 H :    0.159749
  35 H :    0.165854
  36 H :    0.174026
  37 H :    0.178997
  38 H :    0.169015
  39 H :    0.157198
  40 H :    0.157986

  Mayer bond orders larger than 0.100000
B(  0-C ,  1-C ) :   0.9617 B(  0-C , 19-H ) :   0.9720 B(  0-C , 20-H ) :   0.9650
B(  0-C , 21-H ) :   0.9717 B(  1-C ,  2-O ) :   0.7767 B(  1-C , 22-H ) :   0.9477
B(  1-C , 23-H ) :   0.9516 B(  2-O ,  3-P ) :   1.1296 B(  3-P ,  4-S ) :   1.7446
B(  3-P ,  5-O ) :   1.1656 B(  3-P ,  8-S ) :   1.0341 B(  5-O ,  6-C ) :   0.7931
B(  6-C ,  7-C ) :   0.9436 B(  6-C , 24-H ) :   0.9583 B(  6-C , 25-H ) :   0.9646
B(  7-C , 26-H ) :   0.9484 B(  7-C , 27-H ) :   0.9671 B(  7-C , 28-H ) :   0.9698
B(  8-S ,  9-C ) :   0.9216 B(  9-C , 10-S ) :   0.8820 B(  9-C , 29-H ) :   0.9135
B(  9-C , 30-H ) :   0.9015 B( 10-S , 11-P ) :   1.1003 B( 11-P , 12-S ) :   1.7435
B( 11-P , 13-O ) :   1.1742 B( 11-P , 16-O ) :   1.0634 B( 13-O , 14-C ) :   0.7977
B( 14-C , 15-C ) :   0.9180 B( 14-C , 31-H ) :   0.9595 B( 14-C , 32-H ) :   0.9620
B( 15-C , 33-H ) :   0.9722 B( 15-C , 34-H ) :   0.9619 B( 15-C , 35-H ) :   0.9598
B( 16-O , 17-C ) :   0.7916 B( 17-C , 18-C ) :   0.9484 B( 17-C , 36-H ) :   0.9649
B( 17-C , 37-H ) :   0.9644 B( 18-C , 38-H ) :   0.9565 B( 18-C , 39-H ) :   0.9652
B( 18-C , 40-H ) :   0.9740

Dispersion correction           -0.021659715
FINAL SINGLE POINT ENERGY     -2932.461106950594

DIPOLE MOMENT
-------------

Method             : SCF
Type of density    : Electron Density
Multiplicity       :   1
Irrep              :   0
Energy             : -2932.4861552817519623 Eh
Relativity type    :
Basis              : AO
                                X                 Y                 Z
Electronic contribution:      7.045845220      -8.723217569      -3.917580075
Nuclear contribution   :     -7.308664681       8.227471737       4.290758350
                        -----------------------------------------
Total Dipole Moment    :     -0.262819461      -0.495745833       0.373178275
                        -----------------------------------------
Magnitude (a.u.)       :      0.673869441
Magnitude (Debye)      :      1.712839999

Rotational constants in cm-1:             0.013010             0.004738             0.004658
Rotational constants in MHz :           390.025900           142.031894           139.642416

                             ****ORCA TERMINATED NORMALLY****
TOTAL RUN TIME: 0 days 0 hours 1 minutes 19 seconds 259 msec
