                         Program Version 6.0.0  -   RELEASE  -
|  1> ! r2scan-3c def2/J RI DEFGRID2 scfconv6 printgap
|  2> %output
|  3>     printlevel normal
|  4> end
|  5> %cpcm
|  6>     smd true
|  7>     smdsolvent "water"
|  8> end
|  9> * xyz 0 1
| 10> C 5.4338039502 1.4598690198 -1.7917269228
| 11> C 4.1137128202 0.7165909617 -1.8365214281
| 12> O 3.8695128172 0.1603585471 -0.5295199202
| 13> P 2.4072646431 -0.0830954752 0.0118030347
| 14> S 1.1623469473 1.4028080848 -0.3314553104
| 15> O 2.8497450908 -0.3767844841 1.4989665074
| 16> C 2.045793127 -1.025790896 2.5005482024
| 17> C 1.1079177781 -0.0514946321 3.1860025102
| 18> S 1.8355631583 -1.9543918993 -0.8263947895
| 19> C 0.0778529404 -1.6616448845 -1.1225263224
| 20> S -0.9011486677 -1.6216544652 0.4236722142
| 21> P -2.1194094695 0.06867713 0.0674739262
| 22> S -2.1616531563 0.7322539683 -1.7807707484
| 23> O -1.6607163291 1.078217946 1.1948093186
| 24> C -1.8362483698 2.5011934089 1.0652036283
| 25> C -3.2993533023 2.8849239323 1.109718289
| 26> O -3.509973283 -0.3964468741 0.6876437262
| 27> C -4.323926699 -1.4312015213 0.1055704685
| 28> C -5.3185099432 -0.859234548 -0.8864964491
| 29> H 6.227477585 0.7832052919 -1.4892650362
| 30> H 5.6528643164 1.8578387472 -2.7771163298
| 31> H 5.3777187018 2.2772196093 -1.0781448035
| 32> H 4.1466427603 -0.1098028811 -2.5512679571
| 33> H 3.2880097231 1.3882802229 -2.0988712471
| 34> H 1.4882165364 -1.8506721396 2.0441840844
| 35> H 2.7792901781 -1.4266632948 3.202650394
| 36> H 0.3721011921 0.3331340772 2.4818641074
| 37> H 0.5865785992 -0.5622875111 3.9891710809
| 38> H 1.6693574708 0.7855796933 3.5923321151
| 39> H -0.2608274978 -2.4996902907 -1.7260070462
| 40> H -0.0676029589 -0.7126984718 -1.6456618688
| 41> H -1.2775673961 2.912672579 1.9069656194
| 42> H -1.3688573966 2.8243905141 0.1286553948
| 43> H -3.7592619095 2.4982295705 2.0152900581
| 44> H -3.3900069364 3.9662414305 1.0859656263
| 45> H -3.8139205899 2.4657045554 0.2455709729
| 46> H -3.6767627626 -2.173867504 -0.3708506563
| 47> H -4.8314825797 -1.8869923752 0.957898148
| 48> H -4.7968245438 -0.3945837278 -1.7202176635
| 49> H -5.946813328 -1.6594747877 -1.2638793279
| 50> H -5.9409536808 -0.1116170362 -0.4028508706
| 51> *
| 52>
| 53>                          ****END OF INPUT****

CARTESIAN COORDINATES (ANGSTROEM)
---------------------------------
  C      5.433804    1.459869   -1.791727
  C      4.113713    0.716591   -1.836521
  O      3.869513    0.160359   -0.529520
  P      2.407265   -0.083095    0.011803
  S      1.162347    1.402808   -0.331455
  O      2.849745   -0.376784    1.498967
  C      2.045793   -1.025791    2.500548
  C      1.107918   -0.051495    3.186003
  S      1.835563   -1.954392   -0.826395
  C      0.077853   -1.661645   -1.122526
  S     -0.901149   -1.621654    0.423672
  P     -2.119409    0.068677    0.067474
  S     -2.161653    0.732254   -1.780771
  O     -1.660716    1.078218    1.194809
  C     -1.836248    2.501193    1.065204
  C     -3.299353    2.884924    1.109718
  O     -3.509973   -0.396447    0.687644
  C     -4.323927   -1.431202    0.105570
  C     -5.318510   -0.859235   -0.886496
  H      6.227478    0.783205   -1.489265
  H      5.652864    1.857839   -2.777116
  H      5.377719    2.277220   -1.078145
  H      4.146643   -0.109803   -2.551268
  H      3.288010    1.388280   -2.098871
  H      1.488217   -1.850672    2.044184
  H      2.779290   -1.426663    3.202650
  H      0.372101    0.333134    2.481864
  H      0.586579   -0.562288    3.989171
  H      1.669357    0.785580    3.592332
  H     -0.260827   -2.499690   -1.726007
  H     -0.067603   -0.712698   -1.645662
  H     -1.277567    2.912673    1.906966
  H     -1.368857    2.824391    0.128655
  H     -3.759262    2.498230    2.015290
  H     -3.390007    3.966241    1.085966
  H     -3.813921    2.465705    0.245571
  H     -3.676763   -2.173868   -0.370851
  H     -4.831483   -1.886992    0.957898
  H     -4.796825   -0.394584   -1.720218
  H     -5.946813   -1.659475   -1.263879
  H     -5.940954   -0.111617   -0.402851

 Total Charge           Charge          ....    0
 Multiplicity           Mult            ....    1
 Number of Electrons    NEL             ....  202
 Basis Dimension        Dim             ....  539

ORBITAL ENERGIES
----------------

  NO   OCC          E(Eh)            E(eV)
   0   2.0000     -88.583719     -2410.4855
   1   2.0000     -88.578921     -2410.3550
   2   2.0000     -88.527321     -2408.9509
   3   2.0000     -88.525102     -2408.8905
   4   2.0000     -76.919284     -2093.0801
   5   2.0000     -76.918958     -2093.0713
   6   2.0000     -18.995768      -516.9011
   7   2.0000     -18.994427      -516.8646
   8   2.0000     -18.992392      -516.8093
   9   2.0000     -18.990843      -516.7671
  10   2.0000     -10.104626      -274.9608
  11   2.0000     -10.091624      -274.6071
  12   2.0000     -10.089594      -274.5518
  13   2.0000     -10.089188      -274.5408
  14   2.0000     -10.089051      -274.5370
  15   2.0000     -10.019086      -272.6332
  16   2.0000     -10.018090      -272.6061
  17   2.0000     -10.015729      -272.5418
  18   2.0000     -10.015401      -272.5329
  19   2.0000      -7.877771      -214.3651
  20   2.0000      -7.873219      -214.2412
  21   2.0000      -7.822410      -212.8586
  22   2.0000      -7.820091      -212.7955
  23   2.0000      -6.597781      -179.5347
  24   2.0000      -6.597296      -179.5215
  25   2.0000      -5.824774      -158.5001
  26   2.0000      -5.821305      -158.4058
  27   2.0000      -5.819972      -158.3695
  28   2.0000      -5.817134      -158.2923
  29   2.0000      -5.815141      -158.2380
  30   2.0000      -5.810389      -158.1087
  31   2.0000      -5.770036      -157.0107
  32   2.0000      -5.767731      -156.9480
  33   2.0000      -5.762816      -156.8142
  34   2.0000      -5.762258      -156.7990
  35   2.0000      -5.760299      -156.7457
  36   2.0000      -5.760143      -156.7415
  37   2.0000      -4.743197      -129.0690
  38   2.0000      -4.743064      -129.0653
  39   2.0000      -4.742547      -129.0513
  40   2.0000      -4.742224      -129.0425
  41   2.0000      -4.741325      -129.0180
  42   2.0000      -4.741258      -129.0162
  43   2.0000      -1.057274       -28.7699
  44   2.0000      -1.051747       -28.6195
  45   2.0000      -1.013254       -27.5720
  46   2.0000      -1.010528       -27.4979
  47   2.0000      -0.800391       -21.7798
  48   2.0000      -0.757269       -20.6063
  49   2.0000      -0.746257       -20.3067
  50   2.0000      -0.721877       -19.6433
  51   2.0000      -0.720676       -19.6106
  52   2.0000      -0.711263       -19.3544
  53   2.0000      -0.689279       -18.7562
  54   2.0000      -0.672519       -18.3002
  55   2.0000      -0.629496       -17.1294
  56   2.0000      -0.622434       -16.9373
  57   2.0000      -0.599545       -16.3145
  58   2.0000      -0.593385       -16.1468
  59   2.0000      -0.588665       -16.0184
  60   2.0000      -0.529332       -14.4039
  61   2.0000      -0.518211       -14.1013
  62   2.0000      -0.492987       -13.4149
  63   2.0000      -0.490381       -13.3439
  64   2.0000      -0.469167       -12.7667
  65   2.0000      -0.460954       -12.5432
  66   2.0000      -0.454888       -12.3781
  67   2.0000      -0.452243       -12.3062
  68   2.0000      -0.442111       -12.0304
  69   2.0000      -0.425747       -11.5852
  70   2.0000      -0.422075       -11.4853
  71   2.0000      -0.417753       -11.3676
  72   2.0000      -0.415656       -11.3106
  73   2.0000      -0.401593       -10.9279
  74   2.0000      -0.392297       -10.6749
  75   2.0000      -0.385786       -10.4978
  76   2.0000      -0.379859       -10.3365
  77   2.0000      -0.366167        -9.9639
  78   2.0000      -0.362222        -9.8565
  79   2.0000      -0.356241        -9.6938
  80   2.0000      -0.353975        -9.6321
  81   2.0000      -0.350829        -9.5466
  82   2.0000      -0.349181        -9.5017
  83   2.0000      -0.343960        -9.3596
  84   2.0000      -0.343920        -9.3585
  85   2.0000      -0.327820        -8.9204
  86   2.0000      -0.324000        -8.8165
  87   2.0000      -0.312340        -8.4992
  88   2.0000      -0.305568        -8.3149
  89   2.0000      -0.304291        -8.2802
  90   2.0000      -0.298036        -8.1100
  91   2.0000      -0.288983        -7.8636
  92   2.0000      -0.284306        -7.7364
  93   2.0000      -0.280080        -7.6214
  94   2.0000      -0.275074        -7.4851
  95   2.0000      -0.255225        -6.9450
  96   2.0000      -0.241355        -6.5676
  97   2.0000      -0.235175        -6.3994
  98   2.0000      -0.221399        -6.0246
  99   2.0000      -0.220724        -6.0062
 100   2.0000      -0.211621        -5.7585
 101   0.0000      -0.052144        -1.4189
 102   0.0000      -0.040996        -1.1156
 103   0.0000      -0.013363        -0.3636
 104   0.0000       0.001847         0.0502
 105   0.0000       0.012200         0.3320

MULLIKEN ATOMIC CHARGES
-----------------------
   0 C :   -0.483249
   1 C :   -0.134848
   2 O :   -0.330987
   3 P :    0.701196
   4 S :   -0.466201
   5 O :   -0.313515
   6 C :   -0.126627
   7 C :   -0.484970
   8 S :   -0.159663
   9 C :   -0.198487
  10 S :   -0.159015
  11 P :    0.700443
  12 S :   -0.512669
  13 O :   -0.306616
  14 C :   -0.140092
  15 C :   -0.498175
  16 O :   -0.311237
  17 C :   -0.131436
  18 C :   -0.493522
  19 H :    0.165660
  20 H :    0.169174
  21 H :    0.166157
  22 H :    0.171371
  23 H :    0.171109
  24 H :    0.161955
  25 H :    0.176086
  26 H :    0.173183
  27 H :    0.171395
  28 H :    0.164658
  29 H :    0.232589
  30 H :    0.212176
  31 H :    0.180096
  32 H :    0.174685
  33 H :    0.170979
  34 H :    0.172643
  35 H :    0.168772
  36 H :    0.164046
  37 H :    0.175494
  38 H :    0.172072
  39 H :    0.168908
  40 H :    0.166463
Sum of atomic charges:   -0.0000000

LOEWDIN ATOMIC CHARGES
----------------------
   0 C :   -0.390084
   1 C :    0.024753
   2 O :   -0.673875
   3 P :    0.383869
   4 S :   -0.110180
   5 O :   -0.661092
   6 C :    0.027806
   7 C :   -0.411131
   8 S :    0.141318
   9 C :   -0.411716
  10 S :    0.148012
  11 P :    0.380580
  12 S :   -0.153907
  13 O :   -0.696043
  14 C :    0.014543
  15 C :   -0.403414
  16 O :   -0.679278
  17 C :    0.024692
  18 C :   -0.407953
  19 H :    0.162830
  20 H :    0.168671
  21 H :    0.162326
  22 H :    0.180326
  23 H :    0.181981
  24 H :    0.178627
  25 H :    0.190473
  26 H :    0.171033
  27 H :    0.169019
  28 H :    0.162611
  29 H :    0.195224
  30 H :    0.199804
  31 H :    0.191291
  32 H :    0.181788
  33 H :    0.164436
  34 H :    0.169013
  35 H :    0.163021
  36 H :    0.179593
  37 H :    0.189760
  38 H :    0.162911
  39 H :    0.166694
  40 H :    0.161667

  Mayer bond orders larger than 0.100000
B(  0-C ,  1-C ) :   0.9557 B(  0-C , 19-H ) :   0.9694 B(  0-C , 20-H ) :   0.9589
B(  0-C , 21-H ) :   0.9700 B(  1-C ,  2-O ) :   0.7698 B(  1-C , 22-H ) :   0.9382
B(  1-C , 23-H ) :   0.9488 B(  2-O ,  3-P ) :   1.1265 B(  3-P ,  4-S ) :   1.7269
B(  3-P ,  5-O ) :   1.1604 B(  3-P ,  8-S ) :   1.0526 B(  5-O ,  6-C ) :   0.7842
B(  6-C ,  7-C ) :   0.9244 B(  6-C , 24-H ) :   0.9537 B(  6-C , 25-H ) :   0.9546
B(  7-C , 26-H ) :   0.9547 B(  7-C , 27-H ) :   0.9614 B(  7-C , 28-H ) :   0.9695
B(  8-S ,  9-C ) :   0.9166 B(  9-C , 10-S ) :   0.8786 B(  9-C , 29-H ) :   0.8981
B(  9-C , 30-H ) :   0.9049 B( 10-S , 11-P ) :   1.1187 B( 11-P , 12-S ) :   1.6975
B( 11-P , 13-O ) :   1.1768 B( 11-P , 16-O ) :   1.0678 B( 13-O , 14-C ) :   0.7846
B( 14-C , 15-C ) :   0.9106 B( 14-C , 31-H ) :   0.9493 B( 14-C , 32-H ) :   0.9584
B( 15-C , 33-H ) :   0.9704 B( 15-C , 34-H ) :   0.9557 B( 15-C , 35-H ) :   0.9605
B( 16-O , 17-C ) :   0.7801 B( 17-C , 18-C ) :   0.9383 B( 17-C , 36-H ) :   0.9573
B( 17-C , 37-H ) :   0.9544 B( 18-C , 38-H ) :   0.9612 B( 18-C , 39-H ) :   0.9597
B( 18-C , 40-H ) :   0.9720

Dispersion correction           -0.021659715
FINAL SINGLE POINT ENERGY     -2932.467764978614

DIPOLE MOMENT
-------------

Method             : SCF
Type of density    : Electron Density
Multiplicity       :   1
Irrep              :   0
Energy             : -2932.4928133097719183 Eh
Relativity type    :
Basis              : AO
                                X                 Y                 Z
Electronic contribution:      6.881156267      -9.198838742      -3.858865788
Nuclear contribution   :     -7.308664681       8.227471737       4.290758350
                        -----------------------------------------
Total Dipole Moment    :     -0.427508414      -0.971367005       0.431892562
                        -----------------------------------------
Magnitude (a.u.)       :      1.145796006
Magnitude (Debye)      :      2.912381997

Rotational constants in cm-1:             0.013010             0.004738             0.004658
Rotational constants in MHz :           390.025900           142.031894           139.642416

                             ****ORCA TERMINATED NORMALLY****
TOTAL RUN TIME: 0 days 0 hours 1 minutes 53 seconds 644 msec
