                         Program Version 6.0.0  -   RELEASE  -
|  1> ! pbe def2-sv(p) def2/J RI DEFGRID1 loosescf d4 GCP(DFT/SV(P)) printgap
|  2> %output
|  3>     printlevel normal
|  4> end
|  5> * xyz 0 1
|  6> C 4.3543215937 1.9813534712 -0.2480657344
|  7> C 3.1519898823 1.3194220325 -0.8888806424
|  8> O 2.048519357 1.2509868444 0.0494741065
|  9> P 1.7067634215 -0.0634507729 0.8481287122
| 10> S 0.2689197554 0.1378606152 2.1558828981
| 11> O 3.1237744062 -0.4172105931 1.4854121251
| 12> C 3.2802870991 -1.5580532752 2.3505285473
| 13> C 4.6573064104 -1.4800108551 2.9779868242
| 14> S 1.4797224147 -1.6339732158 -0.5825476881
| 15> C -0.2615384114 -2.062714429 -0.3466179797
| 16> S -1.321792878 -1.5865722199 -1.7506536459
| 17> P -2.0518075757 0.2669694163 -1.0801318441
| 18> S -3.3840327687 1.1248226985 -2.2278287484
| 19> O -0.679658475 1.0587472713 -0.8928847633
| 20> C -0.6840008366 2.5033776151 -0.8936040961
| 21> C -1.4047261777 3.0739570181 0.3086824083
| 22> O -2.5081333613 0.0379971611 0.4288489622
| 23> C -3.8601231695 -0.3041534488 0.7734641415
| 24> C -4.1855608292 -1.7431157262 0.4258587282
| 25> H 4.0853301556 2.9678269152 0.11944925
| 26> H 4.7127500861 1.3827454122 0.5847569994
| 27> H 5.1425417373 2.076692205 -0.9882885455
| 28> H 3.3902652656 0.3092995167 -1.2335244162
| 29> H 2.7714221676 1.9079762525 -1.7264183594
| 30> H 2.4908072735 -1.5298237961 3.1086132103
| 31> H 3.1671451203 -2.4640488892 1.7482169989
| 32> H 5.4199382592 -1.4909995518 2.2047044731
| 33> H 4.7529794333 -0.5655577113 3.5565883388
| 34> H 4.7985509999 -2.3335408687 3.632687682
| 35> H -0.6218625051 -1.5817921646 0.5666553776
| 36> H -0.3203259556 -3.1457438364 -0.2845296833
| 37> H 0.3728885495 2.7692119018 -0.8870525857
| 38> H -1.1537038163 2.8403999885 -1.8232173583
| 39> H -2.4678270179 2.844172397 0.2495605565
| 40> H -1.0034651796 2.644977565 1.2243087526
| 41> H -1.2755959418 4.1514890664 0.3264930842
| 42> H -3.9093263627 -0.1256989636 1.8486621367
| 43> H -4.5344384052 0.3805058693 0.2483714223
| 44> H -3.4825497295 -2.4182030286 0.9070608901
| 45> H -5.1908298801 -1.9726955679 0.7642529024
| 46> H -4.1346905749 -1.8864328416 -0.6531707117
| 47> *
| 48>
| 49>                          ****END OF INPUT****

CARTESIAN COORDINATES (ANGSTROEM)
---------------------------------
  C      4.354322    1.981353   -0.248066
  C      3.151990    1.319422   -0.888881
  O      2.048519    1.250987    0.049474
  P      1.706763   -0.063451    0.848129
  S      0.268920    0.137861    2.155883
  O      3.123774   -0.417211    1.485412
  C      3.280287   -1.558053    2.350529
  C      4.657306   -1.480011    2.977987
  S      1.479722   -1.633973   -0.582548
  C     -0.261538   -2.062714   -0.346618
  S     -1.321793   -1.586572   -1.750654
  P     -2.051808    0.266969   -1.080132
  S     -3.384033    1.124823   -2.227829
  O     -0.679658    1.058747   -0.892885
  C     -0.684001    2.503378   -0.893604
  C     -1.404726    3.073957    0.308682
  O     -2.508133    0.037997    0.428849
  C     -3.860123   -0.304153    0.773464
  C     -4.185561   -1.743116    0.425859
  H      4.085330    2.967827    0.119449
  H      4.712750    1.382745    0.584757
  H      5.142542    2.076692   -0.988289
  H      3.390265    0.309300   -1.233524
  H      2.771422    1.907976   -1.726418
  H      2.490807   -1.529824    3.108613
  H      3.167145   -2.464049    1.748217
  H      5.419938   -1.491000    2.204704
  H      4.752979   -0.565558    3.556588
  H      4.798551   -2.333541    3.632688
  H     -0.621863   -1.581792    0.566655
  H     -0.320326   -3.145744   -0.284530
  H      0.372889    2.769212   -0.887053
  H     -1.153704    2.840400   -1.823217
  H     -2.467827    2.844172    0.249561
  H     -1.003465    2.644978    1.224309
  H     -1.275596    4.151489    0.326493
  H     -3.909326   -0.125699    1.848662
  H     -4.534438    0.380506    0.248371
  H     -3.482550   -2.418203    0.907061
  H     -5.190830   -1.972696    0.764253
  H     -4.134691   -1.886433   -0.653171

 Total Charge           Charge          ....    0
 Multiplicity           Mult            ....    1
 Number of Electrons    NEL             ....  202
 Basis Dimension        Dim             ....  334

ORBITAL ENERGIES
----------------

  NO   OCC          E(Eh)            E(eV)
   0   2.0000     -88.044930     -2395.8243
   1   2.0000     -88.039234     -2395.6694
   2   2.0000     -87.990802     -2394.3514
   3   2.0000     -87.983107     -2394.1421
   4   2.0000     -76.430153     -2079.7702
   5   2.0000     -76.420003     -2079.4940
   6   2.0000     -18.798536      -511.5342
   7   2.0000     -18.797563      -511.5077
   8   2.0000     -18.786643      -511.2106
   9   2.0000     -18.780407      -511.0409
  10   2.0000      -9.963674      -271.1253
  11   2.0000      -9.956831      -270.9391
  12   2.0000      -9.956207      -270.9222
  13   2.0000      -9.947233      -270.6780
  14   2.0000      -9.938230      -270.4330
  15   2.0000      -9.893336      -269.2114
  16   2.0000      -9.891614      -269.1645
  17   2.0000      -9.881599      -268.8920
  18   2.0000      -9.868110      -268.5249
  19   2.0000      -7.690054      -209.2570
  20   2.0000      -7.684777      -209.1134
  21   2.0000      -7.635802      -207.7807
  22   2.0000      -7.628309      -207.5768
  23   2.0000      -6.427700      -174.9066
  24   2.0000      -6.417958      -174.6415
  25   2.0000      -5.717885      -155.5916
  26   2.0000      -5.714411      -155.4970
  27   2.0000      -5.713012      -155.4590
  28   2.0000      -5.708982      -155.3493
  29   2.0000      -5.707235      -155.3018
  30   2.0000      -5.701591      -155.1482
  31   2.0000      -5.664739      -154.1454
  32   2.0000      -5.657225      -153.9409
  33   2.0000      -5.656556      -153.9227
  34   2.0000      -5.655715      -153.8998
  35   2.0000      -5.648910      -153.7147
  36   2.0000      -5.648467      -153.7026
  37   2.0000      -4.650466      -126.5456
  38   2.0000      -4.649394      -126.5164
  39   2.0000      -4.648016      -126.4789
  40   2.0000      -4.640200      -126.2663
  41   2.0000      -4.639932      -126.2590
  42   2.0000      -4.638487      -126.2196
  43   2.0000      -0.995018       -27.0758
  44   2.0000      -0.978356       -26.6224
  45   2.0000      -0.950591       -25.8669
  46   2.0000      -0.937382       -25.5075
  47   2.0000      -0.761482       -20.7210
  48   2.0000      -0.724299       -19.7092
  49   2.0000      -0.706273       -19.2187
  50   2.0000      -0.697451       -18.9786
  51   2.0000      -0.681138       -18.5347
  52   2.0000      -0.671259       -18.2659
  53   2.0000      -0.652179       -17.7467
  54   2.0000      -0.638950       -17.3867
  55   2.0000      -0.594542       -16.1783
  56   2.0000      -0.590962       -16.0809
  57   2.0000      -0.575119       -15.6498
  58   2.0000      -0.567873       -15.4526
  59   2.0000      -0.560668       -15.2565
  60   2.0000      -0.513611       -13.9761
  61   2.0000      -0.489007       -13.3065
  62   2.0000      -0.484969       -13.1967
  63   2.0000      -0.465448       -12.6655
  64   2.0000      -0.456074       -12.4104
  65   2.0000      -0.452674       -12.3179
  66   2.0000      -0.440301       -11.9812
  67   2.0000      -0.435657       -11.8548
  68   2.0000      -0.430375       -11.7111
  69   2.0000      -0.415609       -11.3093
  70   2.0000      -0.410053       -11.1581
  71   2.0000      -0.394899       -10.7458
  72   2.0000      -0.390297       -10.6205
  73   2.0000      -0.389788       -10.6067
  74   2.0000      -0.382785       -10.4161
  75   2.0000      -0.370790       -10.0897
  76   2.0000      -0.363303        -9.8860
  77   2.0000      -0.360416        -9.8074
  78   2.0000      -0.359405        -9.7799
  79   2.0000      -0.350542        -9.5387
  80   2.0000      -0.347593        -9.4585
  81   2.0000      -0.344270        -9.3681
  82   2.0000      -0.338327        -9.2063
  83   2.0000      -0.334223        -9.0947
  84   2.0000      -0.325158        -8.8480
  85   2.0000      -0.323075        -8.7913
  86   2.0000      -0.313541        -8.5319
  87   2.0000      -0.305299        -8.3076
  88   2.0000      -0.296522        -8.0688
  89   2.0000      -0.288595        -7.8531
  90   2.0000      -0.281852        -7.6696
  91   2.0000      -0.275530        -7.4976
  92   2.0000      -0.265759        -7.2317
  93   2.0000      -0.262671        -7.1476
  94   2.0000      -0.260515        -7.0890
  95   2.0000      -0.234163        -6.3719
  96   2.0000      -0.218244        -5.9387
  97   2.0000      -0.210578        -5.7301
  98   2.0000      -0.204987        -5.5780
  99   2.0000      -0.201245        -5.4762
 100   2.0000      -0.198832        -5.4105
 101   0.0000      -0.039238        -1.0677
 102   0.0000      -0.026338        -0.7167
 103   0.0000      -0.016814        -0.4575
 104   0.0000       0.001899         0.0517
 105   0.0000       0.010854         0.2954

MULLIKEN ATOMIC CHARGES
-----------------------
   0 C :   -0.289285
   1 C :   -0.017059
   2 O :   -0.358150
   3 P :    0.607269
   4 S :   -0.291362
   5 O :   -0.383937
   6 C :   -0.007897
   7 C :   -0.283165
   8 S :   -0.100456
   9 C :   -0.368624
  10 S :   -0.069937
  11 P :    0.614188
  12 S :   -0.325548
  13 O :   -0.381258
  14 C :   -0.010028
  15 C :   -0.316350
  16 O :   -0.364630
  17 C :   -0.007058
  18 C :   -0.313409
  19 H :    0.119377
  20 H :    0.125290
  21 H :    0.112012
  22 H :    0.108121
  23 H :    0.116977
  24 H :    0.103626
  25 H :    0.098539
  26 H :    0.115816
  27 H :    0.122150
  28 H :    0.113893
  29 H :    0.209501
  30 H :    0.182162
  31 H :    0.108485
  32 H :    0.109212
  33 H :    0.115198
  34 H :    0.132702
  35 H :    0.103041
  36 H :    0.106625
  37 H :    0.111061
  38 H :    0.113857
  39 H :    0.111957
  40 H :    0.127092
Sum of atomic charges:    0.0000000

LOEWDIN ATOMIC CHARGES
----------------------
   0 C :   -0.358954
   1 C :   -0.111176
   2 O :   -0.227359
   3 P :    0.574447
   4 S :   -0.280804
   5 O :   -0.251797
   6 C :   -0.123875
   7 C :   -0.350716
   8 S :    0.065838
   9 C :   -0.484187
  10 S :    0.089187
  11 P :    0.571634
  12 S :   -0.319847
  13 O :   -0.248615
  14 C :   -0.122270
  15 C :   -0.370872
  16 O :   -0.235456
  17 C :   -0.121133
  18 C :   -0.367110
  19 H :    0.128969
  20 H :    0.127338
  21 H :    0.130676
  22 H :    0.106581
  23 H :    0.121288
  24 H :    0.108534
  25 H :    0.104840
  26 H :    0.125581
  27 H :    0.128971
  28 H :    0.131815
  29 H :    0.125049
  30 H :    0.137641
  31 H :    0.114551
  32 H :    0.107674
  33 H :    0.118137
  34 H :    0.124858
  35 H :    0.126809
  36 H :    0.119386
  37 H :    0.108960
  38 H :    0.122897
  39 H :    0.130540
  40 H :    0.121971

  Mayer bond orders larger than 0.100000
B(  0-C ,  1-C ) :   1.1665 B(  0-C , 19-H ) :   0.9467 B(  0-C , 20-H ) :   0.9404
B(  0-C , 21-H ) :   0.9394 B(  1-C ,  2-O ) :   0.8868 B(  1-C , 22-H ) :   0.9159
B(  1-C , 23-H ) :   0.9302 B(  2-O ,  3-P ) :   1.1260 B(  3-P ,  4-S ) :   1.6486
B(  3-P ,  5-O ) :   1.0650 B(  3-P ,  8-S ) :   0.9591 B(  4-S ,  8-S ) :   0.1159
B(  4-S , 29-H ) :   0.1021 B(  5-O ,  6-C ) :   0.9093 B(  6-C ,  7-C ) :   1.1594
B(  6-C , 24-H ) :   0.9123 B(  6-C , 25-H ) :   0.9211 B(  7-C , 26-H ) :   0.9507
B(  7-C , 27-H ) :   0.9511 B(  7-C , 28-H ) :   0.9420 B(  8-S ,  9-C ) :   1.0020
B(  9-C , 10-S ) :   0.9816 B(  9-C , 29-H ) :   0.8414 B(  9-C , 30-H ) :   0.9103
B( 10-S , 11-P ) :   0.9863 B( 11-P , 12-S ) :   1.6322 B( 11-P , 13-O ) :   1.1059
B( 11-P , 16-O ) :   1.0809 B( 13-O , 14-C ) :   0.9010 B( 14-C , 15-C ) :   1.1704
B( 14-C , 31-H ) :   0.9182 B( 14-C , 32-H ) :   0.9183 B( 15-C , 33-H ) :   0.9346
B( 15-C , 34-H ) :   0.9333 B( 15-C , 35-H ) :   0.9377 B( 16-O , 17-C ) :   0.9110
B( 17-C , 18-C ) :   1.1641 B( 17-C , 36-H ) :   0.9326 B( 17-C , 37-H ) :   0.9118
B( 18-C , 38-H ) :   0.9474 B( 18-C , 39-H ) :   0.9394 B( 18-C , 40-H ) :   0.9360

Dispersion correction           -0.066554263
FINAL SINGLE POINT ENERGY     -2929.519908706903

DIPOLE MOMENT
-------------

Method             : SCF
Type of density    : Electron Density
Multiplicity       :   1
Irrep              :   0
Energy             : -2929.6418328683562322 Eh
Relativity type    :
Basis              : AO
                                X                 Y                 Z
Electronic contribution:    -11.094751479      -4.891707681     -12.165129362
Nuclear contribution   :     12.628910387       4.369831779      12.952637253
                        -----------------------------------------
Total Dipole Moment    :      1.534158907      -0.521875902       0.787507891
                        -----------------------------------------
Magnitude (a.u.)       :      1.801712155
Magnitude (Debye)      :      4.579588352

Rotational constants in cm-1:             0.012878             0.005212             0.004756
Rotational constants in MHz :           386.081814           156.256112           142.591368

                             ****ORCA TERMINATED NORMALLY****
TOTAL RUN TIME: 0 days 0 hours 0 minutes 21 seconds 865 msec
