                         Program Version 6.0.0  -   RELEASE  -
|  1> ! pbe def2-sv(p) def2/J RI DEFGRID1 loosescf d4 GCP(DFT/SV(P)) printgap
|  2> %output
|  3>     printlevel normal
|  4> end
|  5> * xyz 0 1
|  6> C 3.522058893 -2.8014147882 -2.0935292081
|  7> C 3.8856997642 -1.6959221274 -1.1228933912
|  8> O 3.0193382118 -0.5483574354 -1.3118831049
|  9> P 1.8499934321 -0.1571080651 -0.315780783
| 10> S 1.1215129454 1.5641908192 -0.9133282485
| 11> O 2.4542464139 -0.1818430881 1.1672391795
| 12> C 2.9016505804 1.0078605511 1.8388114097
| 13> C 4.227187262 1.4870419453 1.282757595
| 14> S 0.7311817927 -1.9374101637 -0.2226156139
| 15> C -0.3287179266 -1.6664572515 1.243654664
| 16> S -0.6290819435 0.0685317541 1.6698114158
| 17> P -2.0781754088 0.5604983277 0.2234270486
| 18> S -2.5393363422 2.4499299643 0.0038220567
| 19> O -3.3382301698 -0.3703455406 0.5528870913
| 20> C -4.41284377 0.0699879794 1.3970687099
| 21> C -3.9828853015 0.1799082928 2.846130962
| 22> O -1.4936635565 -0.2133353023 -1.0282395854
| 23> C -2.0692960946 -0.0561431978 -2.3442661472
| 24> C -1.1025734314 -0.661146137 -3.3405264684
| 25> H 2.5213890116 -3.1743610312 -1.8870470777
| 26> H 3.5536708419 -2.42541998 -3.1122662934
| 27> H 4.2345425278 -3.6133825579 -1.9882372267
| 28> H 4.8906490322 -1.3164768744 -1.3164013379
| 29> H 3.8107343021 -2.0338005857 -0.0867059944
| 30> H 2.1334507601 1.780933817 1.7315289235
| 31> H 2.9789011767 0.7104664976 2.8853871628
| 32> H 4.5547263483 2.3623513461 1.8346409421
| 33> H 4.9776238683 0.7052935926 1.3660771995
| 34> H 4.1077131136 1.7555715708 0.2331295547
| 35> H 0.1694459551 -2.0957050618 2.1098516002
| 36> H -1.2742608862 -2.1645345498 1.0391566361
| 37> H -4.7653935697 1.0382203559 1.02757476
| 38> H -5.1856528371 -0.6872802132 1.2586297164
| 39> H -3.5709958283 -0.7630683756 3.1957697233
| 40> H -3.223341944 0.9554218617 2.9461015401
| 41> H -4.8400704156 0.4473754004 3.4554154315
| 42> H -3.0352312994 -0.567176871 -2.3545307325
| 43> H -2.222719161 1.0127805976 -2.5279519296
| 44> H -0.9459277607 -1.7127700463 -3.1165804493
| 45> H -1.5090379969 -0.5561930017 -4.3408748018
| 46> H -0.1465248375 -0.1441613796 -3.2867804336
| 47> *
| 48>
| 49>                          ****END OF INPUT****

CARTESIAN COORDINATES (ANGSTROEM)
---------------------------------
  C      3.522059   -2.801415   -2.093529
  C      3.885700   -1.695922   -1.122893
  O      3.019338   -0.548357   -1.311883
  P      1.849993   -0.157108   -0.315781
  S      1.121513    1.564191   -0.913328
  O      2.454246   -0.181843    1.167239
  C      2.901651    1.007861    1.838811
  C      4.227187    1.487042    1.282758
  S      0.731182   -1.937410   -0.222616
  C     -0.328718   -1.666457    1.243655
  S     -0.629082    0.068532    1.669811
  P     -2.078175    0.560498    0.223427
  S     -2.539336    2.449930    0.003822
  O     -3.338230   -0.370346    0.552887
  C     -4.412844    0.069988    1.397069
  C     -3.982885    0.179908    2.846131
  O     -1.493664   -0.213335   -1.028240
  C     -2.069296   -0.056143   -2.344266
  C     -1.102573   -0.661146   -3.340526
  H      2.521389   -3.174361   -1.887047
  H      3.553671   -2.425420   -3.112266
  H      4.234543   -3.613383   -1.988237
  H      4.890649   -1.316477   -1.316401
  H      3.810734   -2.033801   -0.086706
  H      2.133451    1.780934    1.731529
  H      2.978901    0.710466    2.885387
  H      4.554726    2.362351    1.834641
  H      4.977624    0.705294    1.366077
  H      4.107713    1.755572    0.233130
  H      0.169446   -2.095705    2.109852
  H     -1.274261   -2.164535    1.039157
  H     -4.765394    1.038220    1.027575
  H     -5.185653   -0.687280    1.258630
  H     -3.570996   -0.763068    3.195770
  H     -3.223342    0.955422    2.946102
  H     -4.840070    0.447375    3.455415
  H     -3.035231   -0.567177   -2.354531
  H     -2.222719    1.012781   -2.527952
  H     -0.945928   -1.712770   -3.116580
  H     -1.509038   -0.556193   -4.340875
  H     -0.146525   -0.144161   -3.286780

 Total Charge           Charge          ....    0
 Multiplicity           Mult            ....    1
 Number of Electrons    NEL             ....  202
 Basis Dimension        Dim             ....  334

ORBITAL ENERGIES
----------------

  NO   OCC          E(Eh)            E(eV)
   0   2.0000     -88.047062     -2395.8824
   1   2.0000     -88.040186     -2395.6953
   2   2.0000     -87.981883     -2394.1087
   3   2.0000     -87.974861     -2393.9177
   4   2.0000     -76.421802     -2079.5430
   5   2.0000     -76.421080     -2079.5233
   6   2.0000     -18.790780      -511.3231
   7   2.0000     -18.789365      -511.2846
   8   2.0000     -18.785921      -511.1909
   9   2.0000     -18.781210      -511.0627
  10   2.0000      -9.963153      -271.1112
  11   2.0000      -9.955622      -270.9063
  12   2.0000      -9.947671      -270.6899
  13   2.0000      -9.947105      -270.6745
  14   2.0000      -9.943577      -270.5785
  15   2.0000      -9.888213      -269.0720
  16   2.0000      -9.882546      -268.9177
  17   2.0000      -9.881993      -268.9027
  18   2.0000      -9.873620      -268.6749
  19   2.0000      -7.691665      -209.3008
  20   2.0000      -7.685211      -209.1252
  21   2.0000      -7.627032      -207.5421
  22   2.0000      -7.619811      -207.3456
  23   2.0000      -6.418921      -174.6677
  24   2.0000      -6.418647      -174.6603
  25   2.0000      -5.720012      -155.6494
  26   2.0000      -5.715949      -155.5389
  27   2.0000      -5.713388      -155.4692
  28   2.0000      -5.709684      -155.3684
  29   2.0000      -5.708366      -155.3325
  30   2.0000      -5.701871      -155.1558
  31   2.0000      -5.656012      -153.9079
  32   2.0000      -5.649132      -153.7207
  33   2.0000      -5.647847      -153.6857
  34   2.0000      -5.646962      -153.6616
  35   2.0000      -5.640217      -153.4781
  36   2.0000      -5.639770      -153.4659
  37   2.0000      -4.642036      -126.3162
  38   2.0000      -4.641009      -126.2883
  39   2.0000      -4.640608      -126.2774
  40   2.0000      -4.640507      -126.2746
  41   2.0000      -4.639143      -126.2375
  42   2.0000      -4.639130      -126.2372
  43   2.0000      -0.981892       -26.7186
  44   2.0000      -0.980209       -26.6728
  45   2.0000      -0.942291       -25.6410
  46   2.0000      -0.937127       -25.5005
  47   2.0000      -0.764688       -20.8082
  48   2.0000      -0.718628       -19.5548
  49   2.0000      -0.706560       -19.2265
  50   2.0000      -0.689619       -18.7655
  51   2.0000      -0.681237       -18.5374
  52   2.0000      -0.670492       -18.2450
  53   2.0000      -0.649630       -17.6773
  54   2.0000      -0.634187       -17.2571
  55   2.0000      -0.591987       -16.1088
  56   2.0000      -0.583534       -15.8788
  57   2.0000      -0.574968       -15.6457
  58   2.0000      -0.570066       -15.5123
  59   2.0000      -0.558094       -15.1865
  60   2.0000      -0.499889       -13.6027
  61   2.0000      -0.497484       -13.5372
  62   2.0000      -0.477024       -12.9805
  63   2.0000      -0.467493       -12.7211
  64   2.0000      -0.455150       -12.3852
  65   2.0000      -0.442869       -12.0511
  66   2.0000      -0.438867       -11.9422
  67   2.0000      -0.431409       -11.7392
  68   2.0000      -0.421327       -11.4649
  69   2.0000      -0.416549       -11.3349
  70   2.0000      -0.409533       -11.1440
  71   2.0000      -0.398257       -10.8371
  72   2.0000      -0.392289       -10.6747
  73   2.0000      -0.383527       -10.4363
  74   2.0000      -0.376200       -10.2369
  75   2.0000      -0.372734       -10.1426
  76   2.0000      -0.364114        -9.9081
  77   2.0000      -0.356508        -9.7011
  78   2.0000      -0.353342        -9.6149
  79   2.0000      -0.349322        -9.5055
  80   2.0000      -0.344888        -9.3849
  81   2.0000      -0.343056        -9.3350
  82   2.0000      -0.339636        -9.2420
  83   2.0000      -0.329297        -8.9606
  84   2.0000      -0.323249        -8.7961
  85   2.0000      -0.317568        -8.6415
  86   2.0000      -0.313657        -8.5350
  87   2.0000      -0.302763        -8.2386
  88   2.0000      -0.294057        -8.0017
  89   2.0000      -0.288592        -7.8530
  90   2.0000      -0.276587        -7.5263
  91   2.0000      -0.269675        -7.3382
  92   2.0000      -0.265572        -7.2266
  93   2.0000      -0.264624        -7.2008
  94   2.0000      -0.259130        -7.0513
  95   2.0000      -0.231169        -6.2904
  96   2.0000      -0.217892        -5.9292
  97   2.0000      -0.204975        -5.5776
  98   2.0000      -0.196927        -5.3586
  99   2.0000      -0.189668        -5.1611
 100   2.0000      -0.182157        -4.9567
 101   0.0000      -0.051249        -1.3946
 102   0.0000      -0.025132        -0.6839
 103   0.0000      -0.011750        -0.3197
 104   0.0000      -0.001941        -0.0528
 105   0.0000       0.020599         0.5605

MULLIKEN ATOMIC CHARGES
-----------------------
   0 C :   -0.291718
   1 C :   -0.026257
   2 O :   -0.364283
   3 P :    0.614661
   4 S :   -0.289422
   5 O :   -0.393526
   6 C :   -0.007219
   7 C :   -0.308782
   8 S :   -0.115038
   9 C :   -0.304865
  10 S :   -0.086116
  11 P :    0.631295
  12 S :   -0.309655
  13 O :   -0.385750
  14 C :   -0.005462
  15 C :   -0.307664
  16 O :   -0.373307
  17 C :   -0.002694
  18 C :   -0.284655
  19 H :    0.128024
  20 H :    0.121512
  21 H :    0.109536
  22 H :    0.109284
  23 H :    0.106476
  24 H :    0.119206
  25 H :    0.098187
  26 H :    0.112825
  27 H :    0.107366
  28 H :    0.130245
  29 H :    0.184272
  30 H :    0.182441
  31 H :    0.110159
  32 H :    0.100617
  33 H :    0.108471
  34 H :    0.123577
  35 H :    0.111556
  36 H :    0.095586
  37 H :    0.109198
  38 H :    0.109387
  39 H :    0.103856
  40 H :    0.128674
Sum of atomic charges:    0.0000000

LOEWDIN ATOMIC CHARGES
----------------------
   0 C :   -0.360162
   1 C :   -0.121427
   2 O :   -0.243329
   3 P :    0.558831
   4 S :   -0.293034
   5 O :   -0.259447
   6 C :   -0.123506
   7 C :   -0.364816
   8 S :    0.082224
   9 C :   -0.465738
  10 S :    0.112692
  11 P :    0.569971
  12 S :   -0.307344
  13 O :   -0.256362
  14 C :   -0.123657
  15 C :   -0.367212
  16 O :   -0.242328
  17 C :   -0.111600
  18 C :   -0.355974
  19 H :    0.119049
  20 H :    0.129613
  21 H :    0.130023
  22 H :    0.119923
  23 H :    0.107918
  24 H :    0.111514
  25 H :    0.114907
  26 H :    0.131086
  27 H :    0.120631
  28 H :    0.126412
  29 H :    0.136903
  30 H :    0.133918
  31 H :    0.108885
  32 H :    0.116020
  33 H :    0.120838
  34 H :    0.119969
  35 H :    0.129944
  36 H :    0.108318
  37 H :    0.111914
  38 H :    0.120854
  39 H :    0.126769
  40 H :    0.126811

  Mayer bond orders larger than 0.100000
B(  0-C ,  1-C ) :   1.1670 B(  0-C , 19-H ) :   0.9372 B(  0-C , 20-H ) :   0.9458
B(  0-C , 21-H ) :   0.9394 B(  1-C ,  2-O ) :   0.8991 B(  1-C , 22-H ) :   0.9321
B(  1-C , 23-H ) :   0.9144 B(  2-O ,  3-P ) :   1.1152 B(  3-P ,  4-S ) :   1.6177
B(  3-P ,  5-O ) :   1.0574 B(  3-P ,  8-S ) :   0.9771 B(  4-S ,  8-S ) :   0.1131
B(  5-O ,  6-C ) :   0.9041 B(  6-C ,  7-C ) :   1.1643 B(  6-C , 24-H ) :   0.9105
B(  6-C , 25-H ) :   0.9345 B(  7-C , 26-H ) :   0.9404 B(  7-C , 27-H ) :   0.9473
B(  7-C , 28-H ) :   0.9350 B(  8-S ,  9-C ) :   0.9642 B(  9-C , 10-S ) :   1.0101
B(  9-C , 29-H ) :   0.9105 B(  9-C , 30-H ) :   0.9031 B( 10-S , 11-P ) :   0.9513
B( 11-P , 12-S ) :   1.6600 B( 11-P , 13-O ) :   1.0609 B( 11-P , 16-O ) :   1.1194
B( 13-O , 14-C ) :   0.9189 B( 14-C , 15-C ) :   1.1631 B( 14-C , 31-H ) :   0.9117
B( 14-C , 32-H ) :   0.9339 B( 15-C , 33-H ) :   0.9466 B( 15-C , 34-H ) :   0.9361
B( 15-C , 35-H ) :   0.9390 B( 16-O , 17-C ) :   0.8939 B( 17-C , 18-C ) :   1.1627
B( 17-C , 36-H ) :   0.9312 B( 17-C , 37-H ) :   0.9156 B( 18-C , 38-H ) :   0.9483
B( 18-C , 39-H ) :   0.9400 B( 18-C , 40-H ) :   0.9402

Dispersion correction           -0.068462378
FINAL SINGLE POINT ENERGY     -2929.511495881341

DIPOLE MOMENT
-------------

Method             : SCF
Type of density    : Electron Density
Multiplicity       :   1
Irrep              :   0
Energy             : -2929.6280851381452521 Eh
Relativity type    :
Basis              : AO
                                X                 Y                 Z
Electronic contribution:     -6.604680301       8.477333947       1.523667987
Nuclear contribution   :      7.019152748     -10.279579069      -0.818586878
                        -----------------------------------------
Total Dipole Moment    :      0.414472447      -1.802245122       0.705081109
                        -----------------------------------------
Magnitude (a.u.)       :      1.979144831
Magnitude (Debye)      :      5.030586372

Rotational constants in cm-1:             0.012520             0.005529             0.005105
Rotational constants in MHz :           375.332727           165.740968           153.036865

                             ****ORCA TERMINATED NORMALLY****
TOTAL RUN TIME: 0 days 0 hours 0 minutes 21 seconds 388 msec
