                         Program Version 6.0.0  -   RELEASE  -
|  1> ! wb97x-v def2-tzvp def2/J RIJCOSX DEFGRID2 scfconv7 GCP(DFT/TZ) printgap
|  2> %output
|  3>     printlevel normal
|  4> end
|  5> %cpcm
|  6>     smd true
|  7>     smdsolvent "water"
|  8> end
|  9> * xyz 0 1
| 10> C 1.8603366860693558 0.11852802966390409 0.25747141794792744
| 11> C 0.7158085214193103 0.1041829679956571 -0.4214470025256859
| 12> C -0.5339386944849365 -0.5630694124472249 0.05728991751281475
| 13> O -1.6372046296813947 0.36666654067331567 0.15201335385456136
| 14> H 2.74902256035947 0.6024199897248154 -0.13797045794026014
| 15> H 1.9458115086738363 -0.36442186956239886 1.2287246501436684
| 16> H 0.6484656303041448 0.5931714255788094 -1.3941150202283386
| 17> H -0.39058833178700836 -0.9729662314260638 1.061261562774497
| 18> H -0.8055776867586851 -1.3888998285646088 -0.6162277323976635
| 19> H -1.8551076339711658 0.6451649157008164 -0.7469505391588291
| 20> *
| 21>
| 22>                          ****END OF INPUT****

CARTESIAN COORDINATES (ANGSTROEM)
---------------------------------
  C      1.860337    0.118528    0.257471
  C      0.715809    0.104183   -0.421447
  C     -0.533939   -0.563069    0.057290
  O     -1.637205    0.366667    0.152013
  H      2.749023    0.602420   -0.137970
  H      1.945812   -0.364422    1.228725
  H      0.648466    0.593171   -1.394115
  H     -0.390588   -0.972966    1.061262
  H     -0.805578   -1.388900   -0.616228
  H     -1.855108    0.645165   -0.746951

 Total Charge           Charge          ....    0
 Multiplicity           Mult            ....    1
 Number of Electrons    NEL             ....   32
 Basis Dimension        Dim             ....  160

ORBITAL ENERGIES
----------------

  NO   OCC          E(Eh)            E(eV)
   0   2.0000     -21.674986      -589.8064
   1   2.0000     -12.090860      -329.0090
   2   2.0000     -12.048946      -327.8685
   3   2.0000     -12.040726      -327.6448
   4   2.0000      -1.671907       -45.4949
   5   2.0000      -1.308694       -35.6114
   6   2.0000      -1.199521       -32.6406
   7   2.0000      -1.065060       -28.9818
   8   2.0000      -1.000945       -27.2371
   9   2.0000      -0.960213       -26.1287
  10   2.0000      -0.936184       -25.4749
  11   2.0000      -0.895467       -24.3669
  12   2.0000      -0.859742       -23.3948
  13   2.0000      -0.807869       -21.9832
  14   2.0000      -0.775589       -21.1048
  15   2.0000      -0.659790       -17.9538
  16   0.0000      -0.219146        -5.9633
  17   0.0000      -0.111334        -3.0295
  18   0.0000      -0.024267        -0.6603
  19   0.0000       0.002814         0.0766
  20   0.0000       0.027048         0.7360

MULLIKEN ATOMIC CHARGES
-----------------------
   0 C :   -0.343884
   1 C :   -0.198781
   2 C :    0.019188
   3 O :   -0.560353
   4 H :    0.160697
   5 H :    0.158561
   6 H :    0.154602
   7 H :    0.127527
   8 H :    0.120575
   9 H :    0.361869
Sum of atomic charges:   -0.0000000

LOEWDIN ATOMIC CHARGES
----------------------
   0 C :   -0.213037
   1 C :   -0.221131
   2 C :   -0.312806
   3 O :   -0.105151
   4 H :    0.127213
   5 H :    0.128601
   6 H :    0.145374
   7 H :    0.134328
   8 H :    0.127580
   9 H :    0.189028

  Mayer bond orders larger than 0.100000
B(  0-C ,  1-C ) :   1.9383 B(  0-C ,  4-H ) :   0.9628 B(  0-C ,  5-H ) :   0.9612
B(  1-C ,  2-C ) :   0.9757 B(  1-C ,  6-H ) :   0.9525 B(  2-C ,  3-O ) :   0.9513
B(  2-C ,  7-H ) :   0.9708 B(  2-C ,  8-H ) :   0.9683 B(  3-O ,  9-H ) :   0.8683

FINAL SINGLE POINT ENERGY      -193.132650639744

DIPOLE MOMENT
-------------

Method             : SCF
Type of density    : Electron Density
Multiplicity       :   1
Irrep              :   0
Energy             :  -193.1384801268442004 Eh
Relativity type    :
Basis              : AO
                                X                 Y                 Z
Electronic contribution:     -1.695305159       0.620653129      -0.177971087
Nuclear contribution   :      2.063369753      -0.911422755      -0.618135238
                        -----------------------------------------
Total Dipole Moment    :      0.368064594      -0.290769627      -0.796106325
                        -----------------------------------------
Magnitude (a.u.)       :      0.924015044
Magnitude (Debye)      :      2.348659591

Rotational constants in cm-1:             0.872392             0.142890             0.138540
Rotational constants in MHz :         26153.656889          4283.743593          4153.317509

                             ****ORCA TERMINATED NORMALLY****
TOTAL RUN TIME: 0 days 0 hours 0 minutes 29 seconds 272 msec
