                         Program Version 6.0.0  -   RELEASE  -
|  1> ! pbe def2-sv(p) def2/J RI DEFGRID1 loosescf d4 GCP(DFT/SV(P)) printgap
|  2> %output
|  3>     printlevel normal
|  4> end
|  5> * xyz 0 1
|  6> C 4.906430676 -2.7408485089 -1.653701542
|  7> C 3.997920999 -1.5293619817 -1.7077155347
|  8> O 3.1008508045 -1.5979097978 -0.5800263658
|  9> P 2.2952703503 -0.3250950593 -0.0841236429
| 10> S 3.3649516955 1.3022519483 0.1770967797
| 11> O 1.5478649691 -0.8904231604 1.1892434142
| 12> C 2.0665471883 -0.7068628858 2.5230181181
| 13> C 3.312003529 -1.5371680615 2.7482403729
| 14> S 0.7115307544 -0.1763013901 -1.4775833009
| 15> C 0.2034489311 1.4985954322 -1.0111068751
| 16> S -0.5949441535 1.5628260524 0.6144435337
| 17> P -2.483641673 0.7934313917 0.0387085516
| 18> S -2.9281815959 1.0102057586 -1.8636304492
| 19> O -3.3145878121 1.5915424816 1.1205604383
| 20> C -4.6156441692 1.1894216998 1.6038162709
| 21> C -5.6599394501 1.1864082464 0.5063837797
| 22> O -2.6221583911 -0.7014422869 0.5709118301
| 23> C -2.3875685245 -1.8809688709 -0.2226325088
| 24> C -1.3149940717 -2.7329318533 0.4253597974
| 25> H 5.5007977657 -2.7246460586 -0.7446793431
| 26> H 4.3116183627 -3.6492158318 -1.6701168481
| 27> H 5.5678681744 -2.7276200741 -2.5137118639
| 28> H 3.3971956158 -1.5200966333 -2.621152525
| 29> H 4.5671893423 -0.5957705243 -1.6445218815
| 30> H 2.2733536292 0.3577990415 2.6715812111
| 31> H 1.2446055358 -1.0160370242 3.1696041962
| 32> H 3.6286346368 -1.4414388331 3.782058091
| 33> H 3.1134070288 -2.5814356527 2.5226908152
| 34> H 4.1110190919 -1.1819004318 2.0983676045
| 35> H -0.4960159793 1.8390865576 -1.775358513
| 36> H 1.0832216227 2.1399956434 -0.9578902146
| 37> H -4.5239691229 0.2018838052 2.0611446691
| 38> H -4.8414685852 1.9341358848 2.3688799373
| 39> H -6.6305785883 0.9510123103 0.9315066839
| 40> H -5.7043037072 2.1603475056 0.0246371555
| 41> H -5.4109413336 0.4417380298 -0.248661551
| 42> H -3.3414123235 -2.4127908069 -0.254843436
| 43> H -2.1095310428 -1.5845521546 -1.2392046991
| 44> H -0.3674889156 -2.20089565 0.4558491194
| 45> H -1.6065410171 -2.9878043252 1.4403814749
| 46> H -1.1894056772 -3.6422495381 -0.153130141
| 47> *
| 48>
| 49>                          ****END OF INPUT****

CARTESIAN COORDINATES (ANGSTROEM)
---------------------------------
  C      4.906431   -2.740849   -1.653702
  C      3.997921   -1.529362   -1.707716
  O      3.100851   -1.597910   -0.580026
  P      2.295270   -0.325095   -0.084124
  S      3.364952    1.302252    0.177097
  O      1.547865   -0.890423    1.189243
  C      2.066547   -0.706863    2.523018
  C      3.312004   -1.537168    2.748240
  S      0.711531   -0.176301   -1.477583
  C      0.203449    1.498595   -1.011107
  S     -0.594944    1.562826    0.614444
  P     -2.483642    0.793431    0.038709
  S     -2.928182    1.010206   -1.863630
  O     -3.314588    1.591542    1.120560
  C     -4.615644    1.189422    1.603816
  C     -5.659939    1.186408    0.506384
  O     -2.622158   -0.701442    0.570912
  C     -2.387569   -1.880969   -0.222633
  C     -1.314994   -2.732932    0.425360
  H      5.500798   -2.724646   -0.744679
  H      4.311618   -3.649216   -1.670117
  H      5.567868   -2.727620   -2.513712
  H      3.397196   -1.520097   -2.621153
  H      4.567189   -0.595771   -1.644522
  H      2.273354    0.357799    2.671581
  H      1.244606   -1.016037    3.169604
  H      3.628635   -1.441439    3.782058
  H      3.113407   -2.581436    2.522691
  H      4.111019   -1.181900    2.098368
  H     -0.496016    1.839087   -1.775359
  H      1.083222    2.139996   -0.957890
  H     -4.523969    0.201884    2.061145
  H     -4.841469    1.934136    2.368880
  H     -6.630579    0.951012    0.931507
  H     -5.704304    2.160348    0.024637
  H     -5.410941    0.441738   -0.248662
  H     -3.341412   -2.412791   -0.254843
  H     -2.109531   -1.584552   -1.239205
  H     -0.367489   -2.200896    0.455849
  H     -1.606541   -2.987804    1.440381
  H     -1.189406   -3.642250   -0.153130

 Total Charge           Charge          ....    0
 Multiplicity           Mult            ....    1
 Number of Electrons    NEL             ....  202
 Basis Dimension        Dim             ....  334

ORBITAL ENERGIES
----------------

  NO   OCC          E(Eh)            E(eV)
   0   2.0000     -88.043313     -2395.7803
   1   2.0000     -88.037312     -2395.6170
   2   2.0000     -87.991568     -2394.3723
   3   2.0000     -87.986852     -2394.2440
   4   2.0000     -76.429383     -2079.7492
   5   2.0000     -76.426006     -2079.6573
   6   2.0000     -18.798627      -511.5366
   7   2.0000     -18.795664      -511.4560
   8   2.0000     -18.792287      -511.3641
   9   2.0000     -18.791168      -511.3337
  10   2.0000      -9.956856      -270.9398
  11   2.0000      -9.956258      -270.9236
  12   2.0000      -9.953434      -270.8467
  13   2.0000      -9.948584      -270.7147
  14   2.0000      -9.947723      -270.6913
  15   2.0000      -9.891935      -269.1732
  16   2.0000      -9.886072      -269.0137
  17   2.0000      -9.884277      -268.9648
  18   2.0000      -9.877019      -268.7673
  19   2.0000      -7.688394      -209.2118
  20   2.0000      -7.682602      -209.0542
  21   2.0000      -7.636456      -207.7985
  22   2.0000      -7.631856      -207.6734
  23   2.0000      -6.427151      -174.8917
  24   2.0000      -6.423384      -174.7892
  25   2.0000      -5.716139      -155.5441
  26   2.0000      -5.712987      -155.4583
  27   2.0000      -5.710485      -155.3902
  28   2.0000      -5.707179      -155.3002
  29   2.0000      -5.705423      -155.2525
  30   2.0000      -5.699479      -155.0907
  31   2.0000      -5.665254      -154.1594
  32   2.0000      -5.660626      -154.0335
  33   2.0000      -5.657068      -153.9367
  34   2.0000      -5.656774      -153.9286
  35   2.0000      -5.652644      -153.8163
  36   2.0000      -5.651997      -153.7987
  37   2.0000      -4.649564      -126.5211
  38   2.0000      -4.648928      -126.5038
  39   2.0000      -4.647663      -126.4693
  40   2.0000      -4.646183      -126.4291
  41   2.0000      -4.644887      -126.3938
  42   2.0000      -4.643921      -126.3675
  43   2.0000      -0.992453       -27.0060
  44   2.0000      -0.986799       -26.8522
  45   2.0000      -0.951529       -25.8924
  46   2.0000      -0.942371       -25.6432
  47   2.0000      -0.763332       -20.7713
  48   2.0000      -0.724828       -19.7236
  49   2.0000      -0.710161       -19.3245
  50   2.0000      -0.691754       -18.8236
  51   2.0000      -0.687023       -18.6948
  52   2.0000      -0.672872       -18.3098
  53   2.0000      -0.650478       -17.7004
  54   2.0000      -0.637962       -17.3598
  55   2.0000      -0.602688       -16.4000
  56   2.0000      -0.593513       -16.1503
  57   2.0000      -0.572361       -15.5747
  58   2.0000      -0.569096       -15.4859
  59   2.0000      -0.558238       -15.1904
  60   2.0000      -0.507878       -13.8201
  61   2.0000      -0.498882       -13.5753
  62   2.0000      -0.481600       -13.1050
  63   2.0000      -0.473829       -12.8936
  64   2.0000      -0.460393       -12.5279
  65   2.0000      -0.448937       -12.2162
  66   2.0000      -0.439617       -11.9626
  67   2.0000      -0.433223       -11.7886
  68   2.0000      -0.425021       -11.5654
  69   2.0000      -0.414137       -11.2692
  70   2.0000      -0.412049       -11.2124
  71   2.0000      -0.399040       -10.8584
  72   2.0000      -0.389683       -10.6038
  73   2.0000      -0.384209       -10.4549
  74   2.0000      -0.382121       -10.3981
  75   2.0000      -0.375609       -10.2209
  76   2.0000      -0.367570       -10.0021
  77   2.0000      -0.360775        -9.8172
  78   2.0000      -0.351886        -9.5753
  79   2.0000      -0.350699        -9.5430
  80   2.0000      -0.349096        -9.4994
  81   2.0000      -0.347578        -9.4581
  82   2.0000      -0.342828        -9.3288
  83   2.0000      -0.338769        -9.2184
  84   2.0000      -0.331144        -9.0109
  85   2.0000      -0.324698        -8.8355
  86   2.0000      -0.311449        -8.4749
  87   2.0000      -0.304413        -8.2835
  88   2.0000      -0.293282        -7.9806
  89   2.0000      -0.291941        -7.9441
  90   2.0000      -0.288460        -7.8494
  91   2.0000      -0.279189        -7.5971
  92   2.0000      -0.274489        -7.4692
  93   2.0000      -0.267247        -7.2722
  94   2.0000      -0.257262        -7.0005
  95   2.0000      -0.234797        -6.3892
  96   2.0000      -0.217720        -5.9245
  97   2.0000      -0.215099        -5.8531
  98   2.0000      -0.205745        -5.5986
  99   2.0000      -0.202805        -5.5186
 100   2.0000      -0.199351        -5.4246
 101   0.0000      -0.044100        -1.2000
 102   0.0000      -0.023983        -0.6526
 103   0.0000       0.000142         0.0039
 104   0.0000       0.001247         0.0339
 105   0.0000       0.014351         0.3905

MULLIKEN ATOMIC CHARGES
-----------------------
   0 C :   -0.280998
   1 C :   -0.014741
   2 O :   -0.376459
   3 P :    0.616609
   4 S :   -0.331300
   5 O :   -0.355559
   6 C :   -0.000802
   7 C :   -0.307865
   8 S :   -0.084129
   9 C :   -0.381344
  10 S :   -0.072753
  11 P :    0.635406
  12 S :   -0.332177
  13 O :   -0.375822
  14 C :   -0.000865
  15 C :   -0.316124
  16 O :   -0.384199
  17 C :   -0.004469
  18 C :   -0.309838
  19 H :    0.119802
  20 H :    0.117750
  21 H :    0.114245
  22 H :    0.105853
  23 H :    0.108553
  24 H :    0.115682
  25 H :    0.107483
  26 H :    0.113540
  27 H :    0.116500
  28 H :    0.122854
  29 H :    0.198457
  30 H :    0.195436
  31 H :    0.108920
  32 H :    0.109179
  33 H :    0.110363
  34 H :    0.125840
  35 H :    0.129378
  36 H :    0.097738
  37 H :    0.108622
  38 H :    0.143755
  39 H :    0.104078
  40 H :    0.103401
Sum of atomic charges:   -0.0000000

LOEWDIN ATOMIC CHARGES
----------------------
   0 C :   -0.350003
   1 C :   -0.119928
   2 O :   -0.246344
   3 P :    0.571398
   4 S :   -0.319378
   5 O :   -0.228859
   6 C :   -0.115985
   7 C :   -0.364590
   8 S :    0.086549
   9 C :   -0.490257
  10 S :    0.090271
  11 P :    0.570609
  12 S :   -0.312284
  13 O :   -0.243868
  14 C :   -0.109974
  15 C :   -0.366392
  16 O :   -0.249358
  17 C :   -0.117918
  18 C :   -0.364836
  19 H :    0.128188
  20 H :    0.127549
  21 H :    0.132057
  22 H :    0.111351
  23 H :    0.109736
  24 H :    0.112306
  25 H :    0.120012
  26 H :    0.131166
  27 H :    0.126256
  28 H :    0.122021
  29 H :    0.128219
  30 H :    0.129103
  31 H :    0.112743
  32 H :    0.121464
  33 H :    0.129391
  34 H :    0.130951
  35 H :    0.122329
  36 H :    0.112507
  37 H :    0.103384
  38 H :    0.121029
  39 H :    0.121530
  40 H :    0.127852

  Mayer bond orders larger than 0.100000
B(  0-C ,  1-C ) :   1.1612 B(  0-C , 19-H ) :   0.9514 B(  0-C , 20-H ) :   0.9503
B(  0-C , 21-H ) :   0.9415 B(  1-C ,  2-O ) :   0.9015 B(  1-C , 22-H ) :   0.9288
B(  1-C , 23-H ) :   0.9106 B(  2-O ,  3-P ) :   1.1104 B(  3-P ,  4-S ) :   1.6004
B(  3-P ,  5-O ) :   1.1172 B(  3-P ,  8-S ) :   0.9637 B(  4-S ,  8-S ) :   0.1072
B(  5-O ,  6-C ) :   0.8959 B(  6-C ,  7-C ) :   1.1641 B(  6-C , 24-H ) :   0.9156
B(  6-C , 25-H ) :   0.9340 B(  7-C , 26-H ) :   0.9391 B(  7-C , 27-H ) :   0.9465
B(  7-C , 28-H ) :   0.9347 B(  8-S ,  9-C ) :   0.9945 B(  9-C , 10-S ) :   1.0133
B(  9-C , 29-H ) :   0.8657 B(  9-C , 30-H ) :   0.8726 B( 10-S , 11-P ) :   0.9544
B( 10-S , 12-S ) :   0.1169 B( 11-P , 12-S ) :   1.6152 B( 11-P , 13-O ) :   1.1327
B( 11-P , 16-O ) :   1.0871 B( 13-O , 14-C ) :   0.9071 B( 14-C , 15-C ) :   1.1657
B( 14-C , 31-H ) :   0.9282 B( 14-C , 32-H ) :   0.9350 B( 15-C , 33-H ) :   0.9363
B( 15-C , 34-H ) :   0.9455 B( 15-C , 35-H ) :   0.9359 B( 16-O , 17-C ) :   0.8989
B( 17-C , 18-C ) :   1.1660 B( 17-C , 36-H ) :   0.9352 B( 17-C , 37-H ) :   0.9020
B( 18-C , 38-H ) :   0.9232 B( 18-C , 39-H ) :   0.9475 B( 18-C , 40-H ) :   0.9396

Dispersion correction           -0.063818761
FINAL SINGLE POINT ENERGY     -2929.526919358538

DIPOLE MOMENT
-------------

Method             : SCF
Type of density    : Electron Density
Multiplicity       :   1
Irrep              :   0
Energy             : -2929.6476859351996609 Eh
Relativity type    :
Basis              : AO
                                X                 Y                 Z
Electronic contribution:     -2.575169232      18.131192601      -6.651854231
Nuclear contribution   :      2.551124110     -19.538230300       7.375599013
                        -----------------------------------------
Total Dipole Moment    :     -0.024045123      -1.407037699       0.723744783
                        -----------------------------------------
Magnitude (a.u.)       :      1.582447397
Magnitude (Debye)      :      4.022261629

Rotational constants in cm-1:             0.014371             0.004256             0.004208
Rotational constants in MHz :           430.833829           127.583496           126.155079

                             ****ORCA TERMINATED NORMALLY****
TOTAL RUN TIME: 0 days 0 hours 0 minutes 20 seconds 882 msec
