                         Program Version 6.0.0  -   RELEASE  -
|  1> ! pbe def2-sv(p) def2/J RI DEFGRID1 loosescf d4 GCP(DFT/SV(P)) printgap
|  2> %output
|  3>     printlevel normal
|  4> end
|  5> * xyz 0 1
|  6> C 4.5436598698 0.1521123052 -2.6833786979
|  7> C 4.6828816499 -0.6603506274 -1.4132721349
|  8> O 3.4061806885 -1.0829834296 -0.8848476829
|  9> P 2.2362165155 -0.1096602431 -0.4470940171
| 10> S 1.0817973386 0.5436852765 -1.9018355154
| 11> O 3.0345487151 0.9982131002 0.3549973633
| 12> C 2.4494441062 2.1804166484 0.9315474459
| 13> C 2.1794363078 1.9749817694 2.407816453
| 14> S 1.2891593676 -1.3525200369 0.9728422132
| 15> C 0.0334987945 -2.114628717 -0.1119869019
| 16> S -1.6270569021 -2.0974021631 0.6055204914
| 17> P -2.1788683116 -0.0924829294 0.2444810598
| 18> S -1.0815180913 1.3848968037 0.92951357
| 19> O -3.6820107686 -0.0563672145 0.7577415533
| 20> C -4.0263476229 0.3140145337 2.1035346714
| 21> C -3.5483782589 -0.7096603975 3.112895014
| 22> O -2.3540073499 -0.1770678083 -1.3268298119
| 23> C -2.4465989167 0.9872880862 -2.1705721356
| 24> C -3.6836586495 1.8072869417 -1.8743313912
| 25> H 3.9794742115 -0.4031629234 -3.4292340743
| 26> H 4.0164484954 1.0830020418 -2.4774892821
| 27> H 5.5294793443 0.3820239558 -3.0751361772
| 28> H 5.2004043077 -0.0906247266 -0.6389038174
| 29> H 5.2031767469 -1.6022056877 -1.5946460282
| 30> H 3.1920129232 2.9638486854 0.7686568503
| 31> H 1.5291365454 2.4306210566 0.3949598809
| 32> H 1.8312617061 2.9089577191 2.8363011992
| 33> H 1.4089386687 1.2203337919 2.54861087
| 34> H 3.086488987 1.655867221 2.9130177149
| 35> H 0.2887201096 -3.1619411768 -0.2475558813
| 36> H 0.0253639509 -1.5770665918 -1.0637901608
| 37> H -3.5886043605 1.2951250094 2.315433283
| 38> H -5.114415761 0.3872374097 2.0849697648
| 39> H -3.9223230889 -0.4476407203 4.0973978944
| 40> H -3.901492048 -1.7012922794 2.8413496701
| 41> H -2.4591017812 -0.7232861706 3.1402160022
| 42> H -1.5373925393 1.5833734089 -2.0403663047
| 43> H -2.461892657 0.5729351615 -3.1795769411
| 44> H -3.7657793478 2.6069732159 -2.6036950108
| 45> H -4.5692076886 1.1786975076 -1.9203717062
| 46> H -3.6102002714 2.2426893072 -0.8783791056
| 47> *
| 48>
| 49>                          ****END OF INPUT****

CARTESIAN COORDINATES (ANGSTROEM)
---------------------------------
  C      4.543660    0.152112   -2.683379
  C      4.682882   -0.660351   -1.413272
  O      3.406181   -1.082983   -0.884848
  P      2.236217   -0.109660   -0.447094
  S      1.081797    0.543685   -1.901836
  O      3.034549    0.998213    0.354997
  C      2.449444    2.180417    0.931547
  C      2.179436    1.974982    2.407816
  S      1.289159   -1.352520    0.972842
  C      0.033499   -2.114629   -0.111987
  S     -1.627057   -2.097402    0.605520
  P     -2.178868   -0.092483    0.244481
  S     -1.081518    1.384897    0.929514
  O     -3.682011   -0.056367    0.757742
  C     -4.026348    0.314015    2.103535
  C     -3.548378   -0.709660    3.112895
  O     -2.354007   -0.177068   -1.326830
  C     -2.446599    0.987288   -2.170572
  C     -3.683659    1.807287   -1.874331
  H      3.979474   -0.403163   -3.429234
  H      4.016448    1.083002   -2.477489
  H      5.529479    0.382024   -3.075136
  H      5.200404   -0.090625   -0.638904
  H      5.203177   -1.602206   -1.594646
  H      3.192013    2.963849    0.768657
  H      1.529137    2.430621    0.394960
  H      1.831262    2.908958    2.836301
  H      1.408939    1.220334    2.548611
  H      3.086489    1.655867    2.913018
  H      0.288720   -3.161941   -0.247556
  H      0.025364   -1.577067   -1.063790
  H     -3.588604    1.295125    2.315433
  H     -5.114416    0.387237    2.084970
  H     -3.922323   -0.447641    4.097398
  H     -3.901492   -1.701292    2.841350
  H     -2.459102   -0.723286    3.140216
  H     -1.537393    1.583373   -2.040366
  H     -2.461893    0.572935   -3.179577
  H     -3.765779    2.606973   -2.603695
  H     -4.569208    1.178698   -1.920372
  H     -3.610200    2.242689   -0.878379

 Total Charge           Charge          ....    0
 Multiplicity           Mult            ....    1
 Number of Electrons    NEL             ....  202
 Basis Dimension        Dim             ....  334

ORBITAL ENERGIES
----------------

  NO   OCC          E(Eh)            E(eV)
   0   2.0000     -88.040307     -2395.6986
   1   2.0000     -88.035658     -2395.5720
   2   2.0000     -87.982672     -2394.1302
   3   2.0000     -87.981383     -2394.0951
   4   2.0000     -76.423923     -2079.6007
   5   2.0000     -76.423141     -2079.5794
   6   2.0000     -18.795697      -511.4569
   7   2.0000     -18.790703      -511.3210
   8   2.0000     -18.784980      -511.1653
   9   2.0000     -18.782915      -511.1091
  10   2.0000      -9.952032      -270.8086
  11   2.0000      -9.951698      -270.7995
  12   2.0000      -9.950489      -270.7666
  13   2.0000      -9.949242      -270.7326
  14   2.0000      -9.942391      -270.5462
  15   2.0000      -9.882836      -268.9256
  16   2.0000      -9.880662      -268.8665
  17   2.0000      -9.877968      -268.7932
  18   2.0000      -9.877933      -268.7922
  19   2.0000      -7.685796      -209.1411
  20   2.0000      -7.681031      -209.0115
  21   2.0000      -7.627460      -207.5537
  22   2.0000      -7.626232      -207.5203
  23   2.0000      -6.421355      -174.7339
  24   2.0000      -6.420613      -174.7137
  25   2.0000      -5.713660      -155.4766
  26   2.0000      -5.710346      -155.3864
  27   2.0000      -5.708976      -155.3491
  28   2.0000      -5.705697      -155.2599
  29   2.0000      -5.702661      -155.1773
  30   2.0000      -5.697728      -155.0431
  31   2.0000      -5.656165      -153.9121
  32   2.0000      -5.655016      -153.8808
  33   2.0000      -5.648153      -153.6941
  34   2.0000      -5.647748      -153.6830
  35   2.0000      -5.647209      -153.6684
  36   2.0000      -5.646154      -153.6397
  37   2.0000      -4.644368      -126.3797
  38   2.0000      -4.643113      -126.3455
  39   2.0000      -4.642866      -126.3388
  40   2.0000      -4.642402      -126.3262
  41   2.0000      -4.641672      -126.3063
  42   2.0000      -4.641151      -126.2921
  43   2.0000      -0.986053       -26.8319
  44   2.0000      -0.983239       -26.7553
  45   2.0000      -0.942452       -25.6454
  46   2.0000      -0.940918       -25.6037
  47   2.0000      -0.758799       -20.6480
  48   2.0000      -0.719543       -19.5798
  49   2.0000      -0.704515       -19.1708
  50   2.0000      -0.686534       -18.6815
  51   2.0000      -0.683762       -18.6061
  52   2.0000      -0.669594       -18.2206
  53   2.0000      -0.650685       -17.7060
  54   2.0000      -0.631720       -17.1900
  55   2.0000      -0.598838       -16.2952
  56   2.0000      -0.588887       -16.0244
  57   2.0000      -0.573145       -15.5961
  58   2.0000      -0.569277       -15.4908
  59   2.0000      -0.556273       -15.1370
  60   2.0000      -0.497754       -13.5446
  61   2.0000      -0.487951       -13.2778
  62   2.0000      -0.471448       -12.8288
  63   2.0000      -0.468896       -12.7593
  64   2.0000      -0.454506       -12.3677
  65   2.0000      -0.445758       -12.1297
  66   2.0000      -0.436088       -11.8666
  67   2.0000      -0.425150       -11.5689
  68   2.0000      -0.422650       -11.5009
  69   2.0000      -0.413722       -11.2579
  70   2.0000      -0.409442       -11.1415
  71   2.0000      -0.402645       -10.9565
  72   2.0000      -0.389883       -10.6093
  73   2.0000      -0.386537       -10.5182
  74   2.0000      -0.380805       -10.3622
  75   2.0000      -0.374130       -10.1806
  76   2.0000      -0.363382        -9.8881
  77   2.0000      -0.352767        -9.5993
  78   2.0000      -0.348496        -9.4831
  79   2.0000      -0.346609        -9.4317
  80   2.0000      -0.343917        -9.3585
  81   2.0000      -0.339447        -9.2368
  82   2.0000      -0.336745        -9.1633
  83   2.0000      -0.333059        -9.0630
  84   2.0000      -0.331310        -9.0154
  85   2.0000      -0.312937        -8.5154
  86   2.0000      -0.310169        -8.4401
  87   2.0000      -0.292938        -7.9712
  88   2.0000      -0.291362        -7.9284
  89   2.0000      -0.287086        -7.8120
  90   2.0000      -0.279015        -7.5924
  91   2.0000      -0.273573        -7.4443
  92   2.0000      -0.268043        -7.2938
  93   2.0000      -0.261311        -7.1106
  94   2.0000      -0.255757        -6.9595
  95   2.0000      -0.239436        -6.5154
  96   2.0000      -0.223193        -6.0734
  97   2.0000      -0.204490        -5.5645
  98   2.0000      -0.200313        -5.4508
  99   2.0000      -0.192746        -5.2449
 100   2.0000      -0.182351        -4.9620
 101   0.0000      -0.037068        -1.0087
 102   0.0000      -0.029531        -0.8036
 103   0.0000      -0.011723        -0.3190
 104   0.0000       0.005879         0.1600
 105   0.0000       0.019499         0.5306

MULLIKEN ATOMIC CHARGES
-----------------------
   0 C :   -0.313379
   1 C :    0.003279
   2 O :   -0.374417
   3 P :    0.633402
   4 S :   -0.330001
   5 O :   -0.383392
   6 C :   -0.015375
   7 C :   -0.305429
   8 S :   -0.079053
   9 C :   -0.354092
  10 S :   -0.084952
  11 P :    0.622559
  12 S :   -0.333189
  13 O :   -0.372155
  14 C :   -0.003254
  15 C :   -0.322086
  16 O :   -0.366587
  17 C :   -0.010519
  18 C :   -0.306387
  19 H :    0.123178
  20 H :    0.126558
  21 H :    0.107799
  22 H :    0.106878
  23 H :    0.105719
  24 H :    0.101215
  25 H :    0.125303
  26 H :    0.110167
  27 H :    0.140492
  28 H :    0.109483
  29 H :    0.184973
  30 H :    0.197200
  31 H :    0.109519
  32 H :    0.104899
  33 H :    0.113619
  34 H :    0.120088
  35 H :    0.130640
  36 H :    0.128240
  37 H :    0.103750
  38 H :    0.110332
  39 H :    0.115072
  40 H :    0.119903
Sum of atomic charges:    0.0000000

LOEWDIN ATOMIC CHARGES
----------------------
   0 C :   -0.367656
   1 C :   -0.109330
   2 O :   -0.251218
   3 P :    0.573692
   4 S :   -0.308380
   5 O :   -0.240349
   6 C :   -0.116324
   7 C :   -0.364940
   8 S :    0.082678
   9 C :   -0.479505
  10 S :    0.092866
  11 P :    0.574887
  12 S :   -0.314995
  13 O :   -0.242501
  14 C :   -0.120812
  15 C :   -0.371209
  16 O :   -0.237415
  17 C :   -0.119245
  18 C :   -0.366266
  19 H :    0.129099
  20 H :    0.121891
  21 H :    0.127821
  22 H :    0.112297
  23 H :    0.119876
  24 H :    0.116333
  25 H :    0.110229
  26 H :    0.131161
  27 H :    0.122548
  28 H :    0.122962
  29 H :    0.137625
  30 H :    0.123254
  31 H :    0.109209
  32 H :    0.118564
  33 H :    0.131505
  34 H :    0.124565
  35 H :    0.122556
  36 H :    0.109499
  37 H :    0.119228
  38 H :    0.129736
  39 H :    0.125248
  40 H :    0.120816

  Mayer bond orders larger than 0.100000
B(  0-C ,  1-C ) :   1.1667 B(  0-C , 19-H ) :   0.9448 B(  0-C , 20-H ) :   0.9364
B(  0-C , 21-H ) :   0.9358 B(  1-C ,  2-O ) :   0.9118 B(  1-C , 22-H ) :   0.9301
B(  1-C , 23-H ) :   0.9358 B(  2-O ,  3-P ) :   1.1193 B(  3-P ,  4-S ) :   1.6070
B(  3-P ,  5-O ) :   1.1048 B(  3-P ,  8-S ) :   0.9680 B(  4-S ,  8-S ) :   0.1235
B(  4-S , 30-H ) :   0.1038 B(  5-O ,  6-C ) :   0.8948 B(  6-C ,  7-C ) :   1.1734
B(  6-C , 24-H ) :   0.9339 B(  6-C , 25-H ) :   0.9041 B(  7-C , 26-H ) :   0.9403
B(  7-C , 27-H ) :   0.9298 B(  7-C , 28-H ) :   0.9466 B(  8-S ,  9-C ) :   0.9917
B(  9-C , 10-S ) :   1.0024 B(  9-C , 29-H ) :   0.9109 B(  9-C , 30-H ) :   0.8508
B( 10-S , 11-P ) :   0.9641 B( 10-S , 12-S ) :   0.1161 B( 11-P , 12-S ) :   1.6066
B( 11-P , 13-O ) :   1.1022 B( 11-P , 16-O ) :   1.1302 B( 13-O , 14-C ) :   0.9083
B( 14-C , 15-C ) :   1.1658 B( 14-C , 31-H ) :   0.9134 B( 14-C , 32-H ) :   0.9330
B( 15-C , 33-H ) :   0.9379 B( 15-C , 34-H ) :   0.9438 B( 15-C , 35-H ) :   0.9335
B( 16-O , 17-C ) :   0.9001 B( 17-C , 18-C ) :   1.1624 B( 17-C , 36-H ) :   0.9097
B( 17-C , 37-H ) :   0.9361 B( 18-C , 38-H ) :   0.9389 B( 18-C , 39-H ) :   0.9449
B( 18-C , 40-H ) :   0.9360

Dispersion correction           -0.066766602
FINAL SINGLE POINT ENERGY     -2929.517610651717

DIPOLE MOMENT
-------------

Method             : SCF
Type of density    : Electron Density
Multiplicity       :   1
Irrep              :   0
Energy             : -2929.6357927384669892 Eh
Relativity type    :
Basis              : AO
                                X                 Y                 Z
Electronic contribution:     -0.054898535     -11.972390867      -0.703409790
Nuclear contribution   :      0.302733678      12.232730162       0.890032150
                        -----------------------------------------
Total Dipole Moment    :      0.247835144       0.260339295       0.186622359
                        -----------------------------------------
Magnitude (a.u.)       :      0.405002114
Magnitude (Debye)      :      1.029433563

Rotational constants in cm-1:             0.012729             0.005052             0.004823
Rotational constants in MHz :           381.608222           151.455272           144.588013

                             ****ORCA TERMINATED NORMALLY****
TOTAL RUN TIME: 0 days 0 hours 0 minutes 21 seconds 291 msec
