                         Program Version 6.0.0  -   RELEASE  -
|  1> ! pbe def2-sv(p) def2/J RI DEFGRID1 loosescf d4 GCP(DFT/SV(P)) printgap
|  2> %output
|  3>     printlevel normal
|  4> end
|  5> * xyz 0 1
|  6> C 3.3124695624 1.9358750156 0.3498743498
|  7> C 2.4621601979 1.5423386036 1.5392149838
|  8> O 1.4194132442 0.5943994106 1.1991130725
|  9> P 1.6255597244 -0.8766788341 0.6718848951
| 10> S 0.0624700169 -2.0064658938 1.0215008505
| 11> O 2.9623479922 -1.3136085369 1.4093897905
| 12> C 3.3564266451 -2.6890275367 1.5637792069
| 13> C 3.6949152131 -3.3454368765 0.2414749887
| 14> S 2.1830387709 -0.7538697196 -1.3803407939
| 15> C 0.5597718805 -0.3826875652 -2.0682274531
| 16> S -0.0705569098 1.2615590977 -1.5750331919
| 17> P -1.8153697486 0.708992671 -0.5589714064
| 18> S -2.6644924635 -0.9790882321 -1.1015513044
| 19> O -2.7613110728 1.9755321781 -0.7555950125
| 20> C -3.5091492131 2.1873003359 -1.9697916266
| 21> C -4.6661061488 3.113833157 -1.6545320659
| 22> O -1.4165445167 0.8901984259 0.9590498198
| 23> C -2.3147116507 0.4807024165 2.0154986453
| 24> C -1.5877823051 0.6577500508 3.3307975908
| 25> H 2.6837044615 2.2795650958 -0.4688000693
| 26> H 3.9790312624 2.7393127366 0.6479723781
| 27> H 3.9066655498 1.0910441464 0.0089006349
| 28> H 1.8988942392 2.3930903062 1.9263039061
| 29> H 3.072454795 1.1049533728 2.3313969528
| 30> H 4.2256483695 -2.6346618496 2.2209064817
| 31> H 2.5440633708 -3.2262316275 2.0628952457
| 32> H 2.7945884179 -3.4607168672 -0.3597511257
| 33> H 4.4101244873 -2.7415810245 -0.3109777554
| 34> H 4.1187115849 -4.3268424255 0.4288325077
| 35> H -0.1672983023 -1.1377647972 -1.755763894
| 36> H 0.6828057099 -0.382151548 -3.1481299111
| 37> H -2.8344141036 2.6280636638 -2.7081058687
| 38> H -3.8590412931 1.2160320491 -2.3360573733
| 39> H -5.3305132914 2.6517541343 -0.9296491238
| 40> H -4.2912626716 4.0473977227 -1.2450769989
| 41> H -5.2174935347 3.315331305 -2.5669339889
| 42> H -3.213524766 1.1001528797 1.9611697315
| 43> H -2.5869878717 -0.567137652 1.8463914527
| 44> H -2.2418863997 0.356046732 4.1422661275
| 45> H -0.6944582305 0.0379322057 3.3402101976
| 46> H -1.2990843433 1.6966681353 3.4593010916
| 47> *
| 48>
| 49>                          ****END OF INPUT****

CARTESIAN COORDINATES (ANGSTROEM)
---------------------------------
  C      3.312470    1.935875    0.349874
  C      2.462160    1.542339    1.539215
  O      1.419413    0.594399    1.199113
  P      1.625560   -0.876679    0.671885
  S      0.062470   -2.006466    1.021501
  O      2.962348   -1.313609    1.409390
  C      3.356427   -2.689028    1.563779
  C      3.694915   -3.345437    0.241475
  S      2.183039   -0.753870   -1.380341
  C      0.559772   -0.382688   -2.068227
  S     -0.070557    1.261559   -1.575033
  P     -1.815370    0.708993   -0.558971
  S     -2.664492   -0.979088   -1.101551
  O     -2.761311    1.975532   -0.755595
  C     -3.509149    2.187300   -1.969792
  C     -4.666106    3.113833   -1.654532
  O     -1.416545    0.890198    0.959050
  C     -2.314712    0.480702    2.015499
  C     -1.587782    0.657750    3.330798
  H      2.683704    2.279565   -0.468800
  H      3.979031    2.739313    0.647972
  H      3.906666    1.091044    0.008901
  H      1.898894    2.393090    1.926304
  H      3.072455    1.104953    2.331397
  H      4.225648   -2.634662    2.220906
  H      2.544063   -3.226232    2.062895
  H      2.794588   -3.460717   -0.359751
  H      4.410124   -2.741581   -0.310978
  H      4.118712   -4.326842    0.428833
  H     -0.167298   -1.137765   -1.755764
  H      0.682806   -0.382152   -3.148130
  H     -2.834414    2.628064   -2.708106
  H     -3.859041    1.216032   -2.336057
  H     -5.330513    2.651754   -0.929649
  H     -4.291263    4.047398   -1.245077
  H     -5.217494    3.315331   -2.566934
  H     -3.213525    1.100153    1.961170
  H     -2.586988   -0.567138    1.846391
  H     -2.241886    0.356047    4.142266
  H     -0.694458    0.037932    3.340210
  H     -1.299084    1.696668    3.459301

 Total Charge           Charge          ....    0
 Multiplicity           Mult            ....    1
 Number of Electrons    NEL             ....  202
 Basis Dimension        Dim             ....  334

ORBITAL ENERGIES
----------------

  NO   OCC          E(Eh)            E(eV)
   0   2.0000     -88.041621     -2395.7343
   1   2.0000     -88.040281     -2395.6978
   2   2.0000     -87.980467     -2394.0702
   3   2.0000     -87.976454     -2393.9610
   4   2.0000     -76.425325     -2079.6388
   5   2.0000     -76.417072     -2079.4142
   6   2.0000     -18.797699      -511.5114
   7   2.0000     -18.787017      -511.2207
   8   2.0000     -18.785013      -511.1662
   9   2.0000     -18.777921      -510.9732
  10   2.0000      -9.955703      -270.9085
  11   2.0000      -9.954714      -270.8815
  12   2.0000      -9.952912      -270.8325
  13   2.0000      -9.945348      -270.6267
  14   2.0000      -9.939440      -270.4659
  15   2.0000      -9.885791      -269.0061
  16   2.0000      -9.884610      -268.9739
  17   2.0000      -9.884058      -268.9589
  18   2.0000      -9.873237      -268.6644
  19   2.0000      -7.686611      -209.1633
  20   2.0000      -7.685630      -209.1366
  21   2.0000      -7.625343      -207.4961
  22   2.0000      -7.621477      -207.3909
  23   2.0000      -6.422427      -174.7631
  24   2.0000      -6.414936      -174.5593
  25   2.0000      -5.714515      -155.4999
  26   2.0000      -5.713467      -155.4713
  27   2.0000      -5.711070      -155.4061
  28   2.0000      -5.710118      -155.3802
  29   2.0000      -5.703602      -155.2029
  30   2.0000      -5.702561      -155.1746
  31   2.0000      -5.654321      -153.8619
  32   2.0000      -5.650333      -153.7534
  33   2.0000      -5.646016      -153.6359
  34   2.0000      -5.645382      -153.6186
  35   2.0000      -5.642245      -153.5333
  36   2.0000      -5.641538      -153.5141
  37   2.0000      -4.645568      -126.4123
  38   2.0000      -4.644015      -126.3701
  39   2.0000      -4.642580      -126.3310
  40   2.0000      -4.637269      -126.1865
  41   2.0000      -4.636588      -126.1680
  42   2.0000      -4.635642      -126.1422
  43   2.0000      -0.988688       -26.9036
  44   2.0000      -0.977644       -26.6030
  45   2.0000      -0.943948       -25.6861
  46   2.0000      -0.934114       -25.4185
  47   2.0000      -0.761166       -20.7124
  48   2.0000      -0.718946       -19.5635
  49   2.0000      -0.707498       -19.2520
  50   2.0000      -0.691352       -18.8126
  51   2.0000      -0.681496       -18.5444
  52   2.0000      -0.673067       -18.3151
  53   2.0000      -0.646709       -17.5978
  54   2.0000      -0.626942       -17.0600
  55   2.0000      -0.597356       -16.2549
  56   2.0000      -0.583025       -15.8649
  57   2.0000      -0.579321       -15.7641
  58   2.0000      -0.562303       -15.3010
  59   2.0000      -0.552133       -15.0243
  60   2.0000      -0.500733       -13.6256
  61   2.0000      -0.496049       -13.4982
  62   2.0000      -0.472375       -12.8540
  63   2.0000      -0.470137       -12.7931
  64   2.0000      -0.451306       -12.2806
  65   2.0000      -0.443439       -12.0666
  66   2.0000      -0.440094       -11.9756
  67   2.0000      -0.429430       -11.6854
  68   2.0000      -0.426822       -11.6144
  69   2.0000      -0.421108       -11.4589
  70   2.0000      -0.409343       -11.1388
  71   2.0000      -0.398406       -10.8412
  72   2.0000      -0.386762       -10.5243
  73   2.0000      -0.378602       -10.3023
  74   2.0000      -0.376885       -10.2556
  75   2.0000      -0.367244        -9.9932
  76   2.0000      -0.362043        -9.8517
  77   2.0000      -0.355253        -9.6669
  78   2.0000      -0.352411        -9.5896
  79   2.0000      -0.350444        -9.5361
  80   2.0000      -0.342045        -9.3075
  81   2.0000      -0.341812        -9.3012
  82   2.0000      -0.336099        -9.1457
  83   2.0000      -0.333991        -9.0884
  84   2.0000      -0.323971        -8.8157
  85   2.0000      -0.319451        -8.6927
  86   2.0000      -0.306953        -8.3526
  87   2.0000      -0.298281        -8.1166
  88   2.0000      -0.295313        -8.0359
  89   2.0000      -0.293633        -7.9902
  90   2.0000      -0.278373        -7.5749
  91   2.0000      -0.271086        -7.3766
  92   2.0000      -0.261713        -7.1216
  93   2.0000      -0.260013        -7.0753
  94   2.0000      -0.255115        -6.9420
  95   2.0000      -0.232375        -6.3232
  96   2.0000      -0.218972        -5.9585
  97   2.0000      -0.212274        -5.7763
  98   2.0000      -0.199279        -5.4227
  99   2.0000      -0.188916        -5.1407
 100   2.0000      -0.181528        -4.9396
 101   0.0000      -0.040770        -1.1094
 102   0.0000      -0.028710        -0.7813
 103   0.0000      -0.007477        -0.2035
 104   0.0000       0.010105         0.2750
 105   0.0000       0.022728         0.6185

MULLIKEN ATOMIC CHARGES
-----------------------
   0 C :   -0.319640
   1 C :    0.008221
   2 O :   -0.347086
   3 P :    0.607204
   4 S :   -0.296664
   5 O :   -0.385979
   6 C :    0.000769
   7 C :   -0.322589
   8 S :   -0.105794
   9 C :   -0.355904
  10 S :   -0.098407
  11 P :    0.614202
  12 S :   -0.324236
  13 O :   -0.385442
  14 C :   -0.006575
  15 C :   -0.281039
  16 O :   -0.353934
  17 C :   -0.002749
  18 C :   -0.277378
  19 H :    0.128350
  20 H :    0.110407
  21 H :    0.120856
  22 H :    0.109344
  23 H :    0.107000
  24 H :    0.103908
  25 H :    0.112906
  26 H :    0.134062
  27 H :    0.117010
  28 H :    0.115709
  29 H :    0.209921
  30 H :    0.181966
  31 H :    0.096121
  32 H :    0.103073
  33 H :    0.117174
  34 H :    0.114512
  35 H :    0.110059
  36 H :    0.095852
  37 H :    0.113079
  38 H :    0.103522
  39 H :    0.123428
  40 H :    0.104759
Sum of atomic charges:    0.0000000

LOEWDIN ATOMIC CHARGES
----------------------
   0 C :   -0.371153
   1 C :   -0.106507
   2 O :   -0.228336
   3 P :    0.566939
   4 S :   -0.293466
   5 O :   -0.248724
   6 C :   -0.116638
   7 C :   -0.371980
   8 S :    0.080797
   9 C :   -0.480023
  10 S :    0.078465
  11 P :    0.565523
  12 S :   -0.314339
  13 O :   -0.254513
  14 C :   -0.122966
  15 C :   -0.350946
  16 O :   -0.232726
  17 C :   -0.115764
  18 C :   -0.352806
  19 H :    0.123735
  20 H :    0.129645
  21 H :    0.116780
  22 H :    0.122190
  23 H :    0.113211
  24 H :    0.118092
  25 H :    0.113271
  26 H :    0.123955
  27 H :    0.122912
  28 H :    0.132692
  29 H :    0.126540
  30 H :    0.137824
  31 H :    0.107769
  32 H :    0.105602
  33 H :    0.127130
  34 H :    0.125655
  35 H :    0.129859
  36 H :    0.107163
  37 H :    0.110969
  38 H :    0.127277
  39 H :    0.125494
  40 H :    0.121401

  Mayer bond orders larger than 0.100000
B(  0-C ,  1-C ) :   1.1716 B(  0-C , 19-H ) :   0.9382 B(  0-C , 20-H ) :   0.9352
B(  0-C , 21-H ) :   0.9397 B(  1-C ,  2-O ) :   0.8989 B(  1-C , 22-H ) :   0.9331
B(  1-C , 23-H ) :   0.9281 B(  2-O ,  3-P ) :   1.1384 B(  3-P ,  4-S ) :   1.6411
B(  3-P ,  5-O ) :   1.0750 B(  3-P ,  8-S ) :   0.9360 B(  4-S ,  8-S ) :   0.1048
B(  5-O ,  6-C ) :   0.9039 B(  6-C ,  7-C ) :   1.1672 B(  6-C , 24-H ) :   0.9341
B(  6-C , 25-H ) :   0.9164 B(  7-C , 26-H ) :   0.9331 B(  7-C , 27-H ) :   0.9440
B(  7-C , 28-H ) :   0.9368 B(  8-S ,  9-C ) :   1.0063 B(  9-C , 10-S ) :   0.9930
B(  9-C , 29-H ) :   0.8456 B(  9-C , 30-H ) :   0.9116 B( 10-S , 11-P ) :   0.9754
B( 10-S , 12-S ) :   0.1175 B( 11-P , 12-S ) :   1.6138 B( 11-P , 13-O ) :   1.0914
B( 11-P , 16-O ) :   1.1522 B( 13-O , 14-C ) :   0.9100 B( 14-C , 15-C ) :   1.1606
B( 14-C , 31-H ) :   0.9294 B( 14-C , 32-H ) :   0.9043 B( 15-C , 33-H ) :   0.9513
B( 15-C , 34-H ) :   0.9510 B( 15-C , 35-H ) :   0.9425 B( 16-O , 17-C ) :   0.8934
B( 17-C , 18-C ) :   1.1654 B( 17-C , 36-H ) :   0.9281 B( 17-C , 37-H ) :   0.9136
B( 18-C , 38-H ) :   0.9412 B( 18-C , 39-H ) :   0.9415 B( 18-C , 40-H ) :   0.9497

Dispersion correction           -0.067461842
FINAL SINGLE POINT ENERGY     -2929.517789147079

DIPOLE MOMENT
-------------

Method             : SCF
Type of density    : Electron Density
Multiplicity       :   1
Irrep              :   0
Energy             : -2929.6356569954732549 Eh
Relativity type    :
Basis              : AO
                                X                 Y                 Z
Electronic contribution:     -1.574394793      -7.017423358      -7.783456071
Nuclear contribution   :      2.607952771       7.927832324       8.047460397
                        -----------------------------------------
Total Dipole Moment    :      1.033557977       0.910408966       0.264004327
                        -----------------------------------------
Magnitude (a.u.)       :      1.402421072
Magnitude (Debye)      :      3.564671076

Rotational constants in cm-1:             0.012957             0.005232             0.005086
Rotational constants in MHz :           388.433121           156.862769           152.470366

                             ****ORCA TERMINATED NORMALLY****
TOTAL RUN TIME: 0 days 0 hours 0 minutes 21 seconds 980 msec
