                         Program Version 6.0.0  -   RELEASE  -
|  1> ! pbe def2-sv(p) def2/J RI DEFGRID1 loosescf d4 GCP(DFT/SV(P)) printgap
|  2> %output
|  3>     printlevel normal
|  4> end
|  5> * xyz 0 1
|  6> C 5.7452029972 1.2349422078 -0.3888021539
|  7> C 4.4421989025 0.7050755557 -0.9513239757
|  8> O 3.5378290747 0.4945389096 0.1539614545
|  9> P 1.9881285183 0.265595559 -0.0886088434
| 10> S 1.0865555632 1.6424536942 -1.1542164213
| 11> O 1.4182729974 0.190273707 1.3748486504
| 12> C 2.0852304657 -0.37873517 2.5322225276
| 13> C 2.3381804684 -1.8648248921 2.3930464364
| 14> S 1.927854651 -1.6606681218 -0.9924636114
| 15> C 0.1644519552 -1.6998386412 -1.3630378541
| 16> S -0.8677149756 -1.7735909623 0.1421409847
| 17> P -2.0150305774 -0.0263392596 -0.070661477
| 18> S -2.3211872323 0.6049693911 -1.9058694201
| 19> O -1.3479195736 0.9654982323 0.963603702
| 20> C -1.5869562059 2.3865577241 0.9309520146
| 21> C -3.0244452946 2.7257959127 1.2591487205
| 22> O -3.3428596863 -0.4213158725 0.7108197364
| 23> C -4.3384432561 -1.2773807981 0.1168177787
| 24> C -5.6173067192 -1.1311050843 0.9164034798
| 25> H 6.1659637058 0.5201499977 0.312129408
| 26> H 6.4441458259 1.3934019604 -1.2033371273
| 27> H 5.5751185879 2.1769168788 0.1250689914
| 28> H 4.5838148584 -0.2514036592 -1.4609987156
| 29> H 3.9827635655 1.4161274282 -1.6455524147
| 30> H 3.0165208501 0.1682508193 2.6873327554
| 31> H 1.3851720818 -0.1665008964 3.3419566736
| 32> H 3.0776575613 -2.0569663973 1.6188283808
| 33> H 2.7105520025 -2.2455860968 3.3391009429
| 34> H 1.4167382103 -2.3840780155 2.1378129633
| 35> H -0.0064059923 -2.6093239587 -1.9329469018
| 36> H -0.1205109637 -0.8140476608 -1.9380216231
| 37> H -0.8903042312 2.7814267874 1.6721090073
| 38> H -1.3099484798 2.7612038573 -0.0604927773
| 39> H -3.3093733717 2.2737989468 2.2055872684
| 40> H -3.1324573959 3.8041684579 1.3210512446
| 41> H -3.679414469 2.3484856356 0.4744989845
| 42> H -4.477395235 -0.9758982721 -0.9270826658
| 43> H -3.9655969086 -2.3050049197 0.1448627994
| 44> H -5.9750190518 -0.1065062368 0.868696496
| 45> H -6.3713819192 -1.7931850046 0.5039445282
| 46> H -5.435336691 -1.3929496742 1.9545509277
| 47> *
| 48>
| 49>                          ****END OF INPUT****

CARTESIAN COORDINATES (ANGSTROEM)
---------------------------------
  C      5.745203    1.234942   -0.388802
  C      4.442199    0.705076   -0.951324
  O      3.537829    0.494539    0.153961
  P      1.988129    0.265596   -0.088609
  S      1.086556    1.642454   -1.154216
  O      1.418273    0.190274    1.374849
  C      2.085230   -0.378735    2.532223
  C      2.338180   -1.864825    2.393046
  S      1.927855   -1.660668   -0.992464
  C      0.164452   -1.699839   -1.363038
  S     -0.867715   -1.773591    0.142141
  P     -2.015031   -0.026339   -0.070661
  S     -2.321187    0.604969   -1.905869
  O     -1.347920    0.965498    0.963604
  C     -1.586956    2.386558    0.930952
  C     -3.024445    2.725796    1.259149
  O     -3.342860   -0.421316    0.710820
  C     -4.338443   -1.277381    0.116818
  C     -5.617307   -1.131105    0.916403
  H      6.165964    0.520150    0.312129
  H      6.444146    1.393402   -1.203337
  H      5.575119    2.176917    0.125069
  H      4.583815   -0.251404   -1.460999
  H      3.982764    1.416127   -1.645552
  H      3.016521    0.168251    2.687333
  H      1.385172   -0.166501    3.341957
  H      3.077658   -2.056966    1.618828
  H      2.710552   -2.245586    3.339101
  H      1.416738   -2.384078    2.137813
  H     -0.006406   -2.609324   -1.932947
  H     -0.120511   -0.814048   -1.938022
  H     -0.890304    2.781427    1.672109
  H     -1.309948    2.761204   -0.060493
  H     -3.309373    2.273799    2.205587
  H     -3.132457    3.804168    1.321051
  H     -3.679414    2.348486    0.474499
  H     -4.477395   -0.975898   -0.927083
  H     -3.965597   -2.305005    0.144863
  H     -5.975019   -0.106506    0.868696
  H     -6.371382   -1.793185    0.503945
  H     -5.435337   -1.392950    1.954551

 Total Charge           Charge          ....    0
 Multiplicity           Mult            ....    1
 Number of Electrons    NEL             ....  202
 Basis Dimension        Dim             ....  334

ORBITAL ENERGIES
----------------

  NO   OCC          E(Eh)            E(eV)
   0   2.0000     -88.040259     -2395.6972
   1   2.0000     -88.038695     -2395.6547
   2   2.0000     -87.978309     -2394.0115
   3   2.0000     -87.976703     -2393.9678
   4   2.0000     -76.423437     -2079.5874
   5   2.0000     -76.418291     -2079.4474
   6   2.0000     -18.797614      -511.5091
   7   2.0000     -18.788635      -511.2648
   8   2.0000     -18.786384      -511.2035
   9   2.0000     -18.778478      -510.9884
  10   2.0000      -9.956299      -270.9247
  11   2.0000      -9.955531      -270.9038
  12   2.0000      -9.951961      -270.8066
  13   2.0000      -9.946547      -270.6593
  14   2.0000      -9.937671      -270.4178
  15   2.0000      -9.891651      -269.1655
  16   2.0000      -9.885085      -268.9868
  17   2.0000      -9.884821      -268.9797
  18   2.0000      -9.874420      -268.6966
  19   2.0000      -7.685502      -209.1332
  20   2.0000      -7.683928      -209.0903
  21   2.0000      -7.623258      -207.4394
  22   2.0000      -7.621683      -207.3965
  23   2.0000      -6.420810      -174.7191
  24   2.0000      -6.415920      -174.5861
  25   2.0000      -5.713297      -155.4667
  26   2.0000      -5.711797      -155.4259
  27   2.0000      -5.709969      -155.3761
  28   2.0000      -5.708395      -155.3333
  29   2.0000      -5.702583      -155.1752
  30   2.0000      -5.700863      -155.1284
  31   2.0000      -5.652112      -153.8018
  32   2.0000      -5.650646      -153.7619
  33   2.0000      -5.644057      -153.5826
  34   2.0000      -5.643312      -153.5623
  35   2.0000      -5.642415      -153.5379
  36   2.0000      -5.641650      -153.5171
  37   2.0000      -4.643900      -126.3669
  38   2.0000      -4.642548      -126.3302
  39   2.0000      -4.640798      -126.2825
  40   2.0000      -4.638177      -126.2112
  41   2.0000      -4.637610      -126.1958
  42   2.0000      -4.636712      -126.1713
  43   2.0000      -0.989425       -26.9236
  44   2.0000      -0.978756       -26.6333
  45   2.0000      -0.944935       -25.7130
  46   2.0000      -0.936131       -25.4734
  47   2.0000      -0.760117       -20.6838
  48   2.0000      -0.719936       -19.5905
  49   2.0000      -0.707943       -19.2641
  50   2.0000      -0.693824       -18.8799
  51   2.0000      -0.681677       -18.5494
  52   2.0000      -0.670780       -18.2528
  53   2.0000      -0.645013       -17.5517
  54   2.0000      -0.628034       -17.0897
  55   2.0000      -0.594218       -16.1695
  56   2.0000      -0.587609       -15.9897
  57   2.0000      -0.574763       -15.6401
  58   2.0000      -0.562797       -15.3145
  59   2.0000      -0.556096       -15.1321
  60   2.0000      -0.508114       -13.8265
  61   2.0000      -0.496366       -13.5068
  62   2.0000      -0.473849       -12.8941
  63   2.0000      -0.466392       -12.6912
  64   2.0000      -0.448615       -12.2074
  65   2.0000      -0.445974       -12.1356
  66   2.0000      -0.442022       -12.0280
  67   2.0000      -0.431535       -11.7427
  68   2.0000      -0.427414       -11.6305
  69   2.0000      -0.415421       -11.3042
  70   2.0000      -0.404804       -11.0153
  71   2.0000      -0.399698       -10.8763
  72   2.0000      -0.389308       -10.5936
  73   2.0000      -0.378316       -10.2945
  74   2.0000      -0.377640       -10.2761
  75   2.0000      -0.369022       -10.0416
  76   2.0000      -0.365736        -9.9522
  77   2.0000      -0.355496        -9.6735
  78   2.0000      -0.352768        -9.5993
  79   2.0000      -0.349436        -9.5086
  80   2.0000      -0.342792        -9.3278
  81   2.0000      -0.340973        -9.2783
  82   2.0000      -0.337705        -9.1894
  83   2.0000      -0.335501        -9.1294
  84   2.0000      -0.329134        -8.9562
  85   2.0000      -0.321773        -8.7559
  86   2.0000      -0.307315        -8.3625
  87   2.0000      -0.303778        -8.2662
  88   2.0000      -0.294890        -8.0244
  89   2.0000      -0.293840        -7.9958
  90   2.0000      -0.274701        -7.4750
  91   2.0000      -0.272078        -7.4036
  92   2.0000      -0.262769        -7.1503
  93   2.0000      -0.258996        -7.0476
  94   2.0000      -0.254481        -6.9248
  95   2.0000      -0.232492        -6.3264
  96   2.0000      -0.218379        -5.9424
  97   2.0000      -0.211430        -5.7533
  98   2.0000      -0.198358        -5.3976
  99   2.0000      -0.187487        -5.1018
 100   2.0000      -0.181777        -4.9464
 101   0.0000      -0.040435        -1.1003
 102   0.0000      -0.028082        -0.7642
 103   0.0000      -0.003350        -0.0912
 104   0.0000       0.013748         0.3741
 105   0.0000       0.021533         0.5859

MULLIKEN ATOMIC CHARGES
-----------------------
   0 C :   -0.280518
   1 C :   -0.013200
   2 O :   -0.388167
   3 P :    0.603781
   4 S :   -0.303334
   5 O :   -0.345396
   6 C :    0.007878
   7 C :   -0.321731
   8 S :   -0.116288
   9 C :   -0.356594
  10 S :   -0.103116
  11 P :    0.611989
  12 S :   -0.320910
  13 O :   -0.351399
  14 C :   -0.000602
  15 C :   -0.303490
  16 O :   -0.379183
  17 C :   -0.009236
  18 C :   -0.280149
  19 H :    0.113873
  20 H :    0.114541
  21 H :    0.121934
  22 H :    0.106484
  23 H :    0.109202
  24 H :    0.108356
  25 H :    0.109989
  26 H :    0.120467
  27 H :    0.110656
  28 H :    0.130964
  29 H :    0.181023
  30 H :    0.213354
  31 H :    0.099691
  32 H :    0.123468
  33 H :    0.111304
  34 H :    0.108469
  35 H :    0.120933
  36 H :    0.103127
  37 H :    0.097479
  38 H :    0.119174
  39 H :    0.110210
  40 H :    0.114968
Sum of atomic charges:   -0.0000000

LOEWDIN ATOMIC CHARGES
----------------------
   0 C :   -0.350331
   1 C :   -0.119469
   2 O :   -0.251689
   3 P :    0.562298
   4 S :   -0.295867
   5 O :   -0.226760
   6 C :   -0.105589
   7 C :   -0.371325
   8 S :    0.065949
   9 C :   -0.478446
  10 S :    0.076545
  11 P :    0.568587
  12 S :   -0.313825
  13 O :   -0.228995
  14 C :   -0.117552
  15 C :   -0.366802
  16 O :   -0.249568
  17 C :   -0.123552
  18 C :   -0.350333
  19 H :    0.125455
  20 H :    0.132308
  21 H :    0.129619
  22 H :    0.109443
  23 H :    0.111780
  24 H :    0.113626
  25 H :    0.122934
  26 H :    0.116556
  27 H :    0.129832
  28 H :    0.124430
  29 H :    0.136806
  30 H :    0.126695
  31 H :    0.117516
  32 H :    0.110002
  33 H :    0.123435
  34 H :    0.128833
  35 H :    0.120444
  36 H :    0.106576
  37 H :    0.106778
  38 H :    0.127609
  39 H :    0.129918
  40 H :    0.126128

  Mayer bond orders larger than 0.100000
B(  0-C ,  1-C ) :   1.1600 B(  0-C , 19-H ) :   0.9512 B(  0-C , 20-H ) :   0.9416
B(  0-C , 21-H ) :   0.9507 B(  1-C ,  2-O ) :   0.9012 B(  1-C , 22-H ) :   0.9289
B(  1-C , 23-H ) :   0.9099 B(  2-O ,  3-P ) :   1.0738 B(  3-P ,  4-S ) :   1.6573
B(  3-P ,  5-O ) :   1.1496 B(  3-P ,  8-S ) :   0.9365 B(  4-S ,  8-S ) :   0.1064
B(  5-O ,  6-C ) :   0.8950 B(  6-C ,  7-C ) :   1.1706 B(  6-C , 24-H ) :   0.9289
B(  6-C , 25-H ) :   0.9339 B(  7-C , 26-H ) :   0.9396 B(  7-C , 27-H ) :   0.9350
B(  7-C , 28-H ) :   0.9377 B(  8-S ,  9-C ) :   1.0077 B(  9-C , 10-S ) :   0.9946
B(  9-C , 29-H ) :   0.9118 B(  9-C , 30-H ) :   0.8455 B( 10-S , 11-P ) :   0.9648
B( 10-S , 12-S ) :   0.1154 B( 11-P , 12-S ) :   1.6038 B( 11-P , 13-O ) :   1.1551
B( 11-P , 16-O ) :   1.0911 B( 13-O , 14-C ) :   0.9003 B( 14-C , 15-C ) :   1.1586
B( 14-C , 31-H ) :   0.9361 B( 14-C , 32-H ) :   0.9127 B( 15-C , 33-H ) :   0.9447
B( 15-C , 34-H ) :   0.9388 B( 15-C , 35-H ) :   0.9349 B( 16-O , 17-C ) :   0.9086
B( 17-C , 18-C ) :   1.1596 B( 17-C , 36-H ) :   0.9078 B( 17-C , 37-H ) :   0.9268
B( 18-C , 38-H ) :   0.9518 B( 18-C , 39-H ) :   0.9424 B( 18-C , 40-H ) :   0.9505

Dispersion correction           -0.066426611
FINAL SINGLE POINT ENERGY     -2929.517651535196

DIPOLE MOMENT
-------------

Method             : SCF
Type of density    : Electron Density
Multiplicity       :   1
Irrep              :   0
Energy             : -2929.6362844240811683 Eh
Relativity type    :
Basis              : AO
                                X                 Y                 Z
Electronic contribution:      0.964881382      -2.886407969     -11.872267443
Nuclear contribution   :     -0.262222515       2.224063518      13.004945910
                        -----------------------------------------
Total Dipole Moment    :      0.702658867      -0.662344451       1.132678467
                        -----------------------------------------
Magnitude (a.u.)       :      1.488418679
Magnitude (Debye)      :      3.783259622

Rotational constants in cm-1:             0.013844             0.004920             0.004685
Rotational constants in MHz :           415.043321           147.487497           140.442284

                             ****ORCA TERMINATED NORMALLY****
TOTAL RUN TIME: 0 days 0 hours 0 minutes 21 seconds 345 msec
