                         Program Version 6.0.0  -   RELEASE  -
|  1> ! r2scan-3c def2/J RI DEFGRID2 scfconv6 printgap
|  2> %output
|  3>     printlevel normal
|  4> end
|  5> * xyz 0 1
|  6> C 4.8302025901 -2.5198184404 -1.5721981567
|  7> C 3.9304740071 -1.3012994309 -1.6106673813
|  8> O 2.9618560612 -1.4332729731 -0.5498288086
|  9> P 2.0686772711 -0.2041807592 -0.090423189
| 10> S 3.0511749646 1.4481010013 0.3102642412
| 11> O 1.24893939 -0.8564159396 1.0922915062
| 12> C 1.551722832 -0.5937163995 2.4759514412
| 13> C 2.8089279433 -1.3191247255 2.9064229736
| 14> S 0.6259828077 -0.074211041 -1.6290359323
| 15> C 0.0246487658 1.5861927571 -1.2229520928
| 16> S -0.6966044497 1.6993531504 0.4390369404
| 17> P -2.2838635011 0.3483813942 0.1195526007
| 18> S -3.0834517149 0.2666936173 -1.671592892
| 19> O -3.3274523068 0.6692439354 1.2780050967
| 20> C -4.4027419668 1.6101239539 1.1103940863
| 21> C -3.9001909277 3.0348828437 0.9977167854
| 22> O -1.6239361831 -0.9764147047 0.6806802628
| 23> C -2.152179311 -2.2927252655 0.3994031801
| 24> C -1.2906823039 -2.9909153205 -0.6342296138
| 25> H 5.356370552 -2.5677752252 -0.6231842734
| 26> H 4.2365100765 -3.421276911 -1.6920970113
| 27> H 5.5522844631 -2.4540443098 -2.3793461714
| 28> H 3.3920612192 -1.2314206685 -2.5599868985
| 29> H 4.4955985057 -0.3767744745 -1.4517283172
| 30> H 1.6589458854 0.4876861399 2.6124581368
| 31> H 0.6683838382 -0.9451197147 3.0110486002
| 32> H 2.9742815602 -1.1589371858 3.9671425346
| 33> H 2.7159696661 -2.3834764713 2.7082945883
| 34> H 3.6619618628 -0.9304889263 2.3510829605
| 35> H -0.7297918516 1.8294357131 -1.970086772
| 36> H 0.8532750363 2.2932957106 -1.2449509774
| 37> H -4.9690328918 1.3302469908 0.2162665901
| 38> H -5.0167585822 1.4670948035 2.0004648475
| 39> H -3.248051123 3.2734738275 1.8341956099
| 40> H -3.3409469353 3.1602294735 0.0713843192
| 41> H -4.7458936818 3.7149777871 0.9928889741
| 42> H -2.1316891118 -2.8152916262 1.3570817545
| 43> H -3.1853210485 -2.2016871341 0.0516922598
| 44> H -1.3607789124 -2.477715302 -1.5913180095
| 45> H -0.2513501567 -2.9865418528 -0.3139364421
| 46> H -1.6296717704 -4.0150183655 -0.7524603851
| 47> *
| 48>
| 49>                          ****END OF INPUT****

CARTESIAN COORDINATES (ANGSTROEM)
---------------------------------
  C      4.830203   -2.519818   -1.572198
  C      3.930474   -1.301299   -1.610667
  O      2.961856   -1.433273   -0.549829
  P      2.068677   -0.204181   -0.090423
  S      3.051175    1.448101    0.310264
  O      1.248939   -0.856416    1.092292
  C      1.551723   -0.593716    2.475951
  C      2.808928   -1.319125    2.906423
  S      0.625983   -0.074211   -1.629036
  C      0.024649    1.586193   -1.222952
  S     -0.696604    1.699353    0.439037
  P     -2.283864    0.348381    0.119553
  S     -3.083452    0.266694   -1.671593
  O     -3.327452    0.669244    1.278005
  C     -4.402742    1.610124    1.110394
  C     -3.900191    3.034883    0.997717
  O     -1.623936   -0.976415    0.680680
  C     -2.152179   -2.292725    0.399403
  C     -1.290682   -2.990915   -0.634230
  H      5.356371   -2.567775   -0.623184
  H      4.236510   -3.421277   -1.692097
  H      5.552284   -2.454044   -2.379346
  H      3.392061   -1.231421   -2.559987
  H      4.495599   -0.376774   -1.451728
  H      1.658946    0.487686    2.612458
  H      0.668384   -0.945120    3.011049
  H      2.974282   -1.158937    3.967143
  H      2.715970   -2.383476    2.708295
  H      3.661962   -0.930489    2.351083
  H     -0.729792    1.829436   -1.970087
  H      0.853275    2.293296   -1.244951
  H     -4.969033    1.330247    0.216267
  H     -5.016759    1.467095    2.000465
  H     -3.248051    3.273474    1.834196
  H     -3.340947    3.160229    0.071384
  H     -4.745894    3.714978    0.992889
  H     -2.131689   -2.815292    1.357082
  H     -3.185321   -2.201687    0.051692
  H     -1.360779   -2.477715   -1.591318
  H     -0.251350   -2.986542   -0.313936
  H     -1.629672   -4.015018   -0.752460

 Total Charge           Charge          ....    0
 Multiplicity           Mult            ....    1
 Number of Electrons    NEL             ....  202
 Basis Dimension        Dim             ....  539

ORBITAL ENERGIES
----------------

  NO   OCC          E(Eh)            E(eV)
   0   2.0000     -88.575378     -2410.2586
   1   2.0000     -88.573346     -2410.2033
   2   2.0000     -88.520634     -2408.7689
   3   2.0000     -88.519809     -2408.7465
   4   2.0000     -76.912382     -2092.8923
   5   2.0000     -76.912114     -2092.8850
   6   2.0000     -18.992763      -516.8194
   7   2.0000     -18.990608      -516.7607
   8   2.0000     -18.986777      -516.6565
   9   2.0000     -18.983753      -516.5742
  10   2.0000     -10.105600      -274.9874
  11   2.0000     -10.099174      -274.8125
  12   2.0000     -10.096740      -274.7463
  13   2.0000     -10.095515      -274.7129
  14   2.0000     -10.094021      -274.6723
  15   2.0000     -10.034099      -273.0417
  16   2.0000     -10.027651      -272.8663
  17   2.0000     -10.026429      -272.8330
  18   2.0000     -10.020964      -272.6843
  19   2.0000      -7.869741      -214.1465
  20   2.0000      -7.867736      -214.0920
  21   2.0000      -7.815441      -212.6690
  22   2.0000      -7.814607      -212.6463
  23   2.0000      -6.590894      -179.3474
  24   2.0000      -6.590802      -179.3448
  25   2.0000      -5.816646      -158.2790
  26   2.0000      -5.814615      -158.2237
  27   2.0000      -5.813680      -158.1983
  28   2.0000      -5.811597      -158.1416
  29   2.0000      -5.806734      -158.0093
  30   2.0000      -5.804827      -157.9574
  31   2.0000      -5.763040      -156.8203
  32   2.0000      -5.762196      -156.7973
  33   2.0000      -5.755864      -156.6250
  34   2.0000      -5.755350      -156.6110
  35   2.0000      -5.754880      -156.5982
  36   2.0000      -5.754670      -156.5925
  37   2.0000      -4.736311      -128.8816
  38   2.0000      -4.736118      -128.8763
  39   2.0000      -4.735752      -128.8664
  40   2.0000      -4.735745      -128.8662
  41   2.0000      -4.734791      -128.8402
  42   2.0000      -4.734655      -128.8365
  43   2.0000      -1.049502       -28.5584
  44   2.0000      -1.046299       -28.4712
  45   2.0000      -1.010194       -27.4888
  46   2.0000      -1.006173       -27.3794
  47   2.0000      -0.802366       -21.8335
  48   2.0000      -0.758297       -20.6343
  49   2.0000      -0.747807       -20.3489
  50   2.0000      -0.731136       -19.8952
  51   2.0000      -0.727392       -19.7933
  52   2.0000      -0.708415       -19.2770
  53   2.0000      -0.684142       -18.6165
  54   2.0000      -0.668808       -18.1992
  55   2.0000      -0.631567       -17.1858
  56   2.0000      -0.623711       -16.9720
  57   2.0000      -0.604503       -16.4494
  58   2.0000      -0.598451       -16.2847
  59   2.0000      -0.589197       -16.0329
  60   2.0000      -0.528362       -14.3775
  61   2.0000      -0.522483       -14.2175
  62   2.0000      -0.495785       -13.4910
  63   2.0000      -0.487499       -13.2655
  64   2.0000      -0.474335       -12.9073
  65   2.0000      -0.460311       -12.5257
  66   2.0000      -0.456545       -12.4232
  67   2.0000      -0.452024       -12.3002
  68   2.0000      -0.445003       -12.1091
  69   2.0000      -0.431623       -11.7451
  70   2.0000      -0.423508       -11.5242
  71   2.0000      -0.410569       -11.1722
  72   2.0000      -0.409606       -11.1460
  73   2.0000      -0.397658       -10.8208
  74   2.0000      -0.395000       -10.7485
  75   2.0000      -0.387662       -10.5488
  76   2.0000      -0.385563       -10.4917
  77   2.0000      -0.372942       -10.1483
  78   2.0000      -0.368842       -10.0367
  79   2.0000      -0.364925        -9.9301
  80   2.0000      -0.361280        -9.8309
  81   2.0000      -0.359588        -9.7849
  82   2.0000      -0.356874        -9.7110
  83   2.0000      -0.352355        -9.5881
  84   2.0000      -0.346522        -9.4293
  85   2.0000      -0.331937        -9.0325
  86   2.0000      -0.318630        -8.6704
  87   2.0000      -0.314552        -8.5594
  88   2.0000      -0.309445        -8.4204
  89   2.0000      -0.303385        -8.2555
  90   2.0000      -0.295578        -8.0431
  91   2.0000      -0.292491        -7.9591
  92   2.0000      -0.281354        -7.6560
  93   2.0000      -0.277565        -7.5529
  94   2.0000      -0.273203        -7.4342
  95   2.0000      -0.244462        -6.6522
  96   2.0000      -0.229443        -6.2435
  97   2.0000      -0.227219        -6.1830
  98   2.0000      -0.220296        -5.9945
  99   2.0000      -0.214621        -5.8401
 100   2.0000      -0.210807        -5.7363
 101   0.0000      -0.047276        -1.2864
 102   0.0000      -0.024854        -0.6763
 103   0.0000       0.000013         0.0004
 104   0.0000       0.004008         0.1091
 105   0.0000       0.012112         0.3296

MULLIKEN ATOMIC CHARGES
-----------------------
   0 C :   -0.438478
   1 C :   -0.160485
   2 O :   -0.289079
   3 P :    0.713243
   4 S :   -0.491131
   5 O :   -0.258347
   6 C :   -0.158745
   7 C :   -0.443723
   8 S :   -0.135702
   9 C :   -0.243042
  10 S :   -0.119303
  11 P :    0.680628
  12 S :   -0.480528
  13 O :   -0.298178
  14 C :   -0.154249
  15 C :   -0.446667
  16 O :   -0.260736
  17 C :   -0.120943
  18 C :   -0.474145
  19 H :    0.155125
  20 H :    0.153595
  21 H :    0.147334
  22 H :    0.153167
  23 H :    0.170573
  24 H :    0.174553
  25 H :    0.157690
  26 H :    0.146669
  27 H :    0.153000
  28 H :    0.168013
  29 H :    0.207636
  30 H :    0.209752
  31 H :    0.172794
  32 H :    0.147373
  33 H :    0.155579
  34 H :    0.173709
  35 H :    0.147704
  36 H :    0.146727
  37 H :    0.155747
  38 H :    0.177536
  39 H :    0.164510
  40 H :    0.140823
Sum of atomic charges:   -0.0000000

LOEWDIN ATOMIC CHARGES
----------------------
   0 C :   -0.385476
   1 C :    0.019180
   2 O :   -0.663429
   3 P :    0.374301
   4 S :   -0.133755
   5 O :   -0.664724
   6 C :    0.017715
   7 C :   -0.399208
   8 S :    0.171192
   9 C :   -0.418121
  10 S :    0.183883
  11 P :    0.380425
  12 S :   -0.131227
  13 O :   -0.660714
  14 C :    0.018390
  15 C :   -0.406897
  16 O :   -0.667525
  17 C :    0.027486
  18 C :   -0.402577
  19 H :    0.160362
  20 H :    0.159978
  21 H :    0.160153
  22 H :    0.172335
  23 H :    0.180188
  24 H :    0.182020
  25 H :    0.181446
  26 H :    0.159312
  27 H :    0.159060
  28 H :    0.164947
  29 H :    0.189378
  30 H :    0.190182
  31 H :    0.179636
  32 H :    0.179063
  33 H :    0.160343
  34 H :    0.164558
  35 H :    0.159037
  36 H :    0.176371
  37 H :    0.176630
  38 H :    0.166634
  39 H :    0.163890
  40 H :    0.155556

  Mayer bond orders larger than 0.100000
B(  0-C ,  1-C ) :   0.9553 B(  0-C , 19-H ) :   0.9715 B(  0-C , 20-H ) :   0.9717
B(  0-C , 21-H ) :   0.9644 B(  1-C ,  2-O ) :   0.7812 B(  1-C , 22-H ) :   0.9452
B(  1-C , 23-H ) :   0.9514 B(  2-O ,  3-P ) :   1.0917 B(  3-P ,  4-S ) :   1.7348
B(  3-P ,  5-O ) :   1.1581 B(  3-P ,  8-S ) :   1.0529 B(  5-O ,  6-C ) :   0.7778
B(  6-C ,  7-C ) :   0.9239 B(  6-C , 24-H ) :   0.9625 B(  6-C , 25-H ) :   0.9634
B(  7-C , 26-H ) :   0.9640 B(  7-C , 27-H ) :   0.9731 B(  7-C , 28-H ) :   0.9611
B(  8-S ,  9-C ) :   0.9051 B(  9-C , 10-S ) :   0.9028 B(  9-C , 29-H ) :   0.9118
B(  9-C , 30-H ) :   0.9084 B( 10-S , 11-P ) :   1.0936 B( 11-P , 12-S ) :   1.7436
B( 11-P , 13-O ) :   1.0651 B( 11-P , 16-O ) :   1.1647 B( 13-O , 14-C ) :   0.8183
B( 14-C , 15-C ) :   0.9222 B( 14-C , 31-H ) :   0.9676 B( 14-C , 32-H ) :   0.9587
B( 15-C , 33-H ) :   0.9682 B( 15-C , 34-H ) :   0.9633 B( 15-C , 35-H ) :   0.9593
B( 16-O , 17-C ) :   0.7602 B( 17-C , 18-C ) :   0.9462 B( 17-C , 36-H ) :   0.9611
B( 17-C , 37-H ) :   0.9643 B( 18-C , 38-H ) :   0.9634 B( 18-C , 39-H ) :   0.9688
B( 18-C , 40-H ) :   0.9637

Dispersion correction           -0.021790471
FINAL SINGLE POINT ENERGY     -2932.465602171660

DIPOLE MOMENT
-------------

Method             : SCF
Type of density    : Electron Density
Multiplicity       :   1
Irrep              :   0
Energy             : -2932.4901049272943965 Eh
Relativity type    :
Basis              : AO
                                X                 Y                 Z
Electronic contribution:     -4.875819083      11.136437808      -5.689128020
Nuclear contribution   :      4.834194240     -11.905879606       6.272023859
                        -----------------------------------------
Total Dipole Moment    :     -0.041624843      -0.769441799       0.582895839
                        -----------------------------------------
Magnitude (a.u.)       :      0.966199186
Magnitude (Debye)      :      2.455883160

Rotational constants in cm-1:             0.013114             0.005009             0.004787
Rotational constants in MHz :           393.143098           150.162126           143.516460

                             ****ORCA TERMINATED NORMALLY****
TOTAL RUN TIME: 0 days 0 hours 1 minutes 26 seconds 741 msec
