                         Program Version 6.0.0  -   RELEASE  -
|  1> ! r2scan-3c def2/J RI DEFGRID2 scfconv6 printgap
|  2> %output
|  3>     printlevel normal
|  4> end
|  5> %cpcm
|  6>     smd true
|  7>     smdsolvent "water"
|  8> end
|  9> * xyz 0 1
| 10> C 4.8302025901 -2.5198184404 -1.5721981567
| 11> C 3.9304740071 -1.3012994309 -1.6106673813
| 12> O 2.9618560612 -1.4332729731 -0.5498288086
| 13> P 2.0686772711 -0.2041807592 -0.090423189
| 14> S 3.0511749646 1.4481010013 0.3102642412
| 15> O 1.24893939 -0.8564159396 1.0922915062
| 16> C 1.551722832 -0.5937163995 2.4759514412
| 17> C 2.8089279433 -1.3191247255 2.9064229736
| 18> S 0.6259828077 -0.074211041 -1.6290359323
| 19> C 0.0246487658 1.5861927571 -1.2229520928
| 20> S -0.6966044497 1.6993531504 0.4390369404
| 21> P -2.2838635011 0.3483813942 0.1195526007
| 22> S -3.0834517149 0.2666936173 -1.671592892
| 23> O -3.3274523068 0.6692439354 1.2780050967
| 24> C -4.4027419668 1.6101239539 1.1103940863
| 25> C -3.9001909277 3.0348828437 0.9977167854
| 26> O -1.6239361831 -0.9764147047 0.6806802628
| 27> C -2.152179311 -2.2927252655 0.3994031801
| 28> C -1.2906823039 -2.9909153205 -0.6342296138
| 29> H 5.356370552 -2.5677752252 -0.6231842734
| 30> H 4.2365100765 -3.421276911 -1.6920970113
| 31> H 5.5522844631 -2.4540443098 -2.3793461714
| 32> H 3.3920612192 -1.2314206685 -2.5599868985
| 33> H 4.4955985057 -0.3767744745 -1.4517283172
| 34> H 1.6589458854 0.4876861399 2.6124581368
| 35> H 0.6683838382 -0.9451197147 3.0110486002
| 36> H 2.9742815602 -1.1589371858 3.9671425346
| 37> H 2.7159696661 -2.3834764713 2.7082945883
| 38> H 3.6619618628 -0.9304889263 2.3510829605
| 39> H -0.7297918516 1.8294357131 -1.970086772
| 40> H 0.8532750363 2.2932957106 -1.2449509774
| 41> H -4.9690328918 1.3302469908 0.2162665901
| 42> H -5.0167585822 1.4670948035 2.0004648475
| 43> H -3.248051123 3.2734738275 1.8341956099
| 44> H -3.3409469353 3.1602294735 0.0713843192
| 45> H -4.7458936818 3.7149777871 0.9928889741
| 46> H -2.1316891118 -2.8152916262 1.3570817545
| 47> H -3.1853210485 -2.2016871341 0.0516922598
| 48> H -1.3607789124 -2.477715302 -1.5913180095
| 49> H -0.2513501567 -2.9865418528 -0.3139364421
| 50> H -1.6296717704 -4.0150183655 -0.7524603851
| 51> *
| 52>
| 53>                          ****END OF INPUT****

CARTESIAN COORDINATES (ANGSTROEM)
---------------------------------
  C      4.830203   -2.519818   -1.572198
  C      3.930474   -1.301299   -1.610667
  O      2.961856   -1.433273   -0.549829
  P      2.068677   -0.204181   -0.090423
  S      3.051175    1.448101    0.310264
  O      1.248939   -0.856416    1.092292
  C      1.551723   -0.593716    2.475951
  C      2.808928   -1.319125    2.906423
  S      0.625983   -0.074211   -1.629036
  C      0.024649    1.586193   -1.222952
  S     -0.696604    1.699353    0.439037
  P     -2.283864    0.348381    0.119553
  S     -3.083452    0.266694   -1.671593
  O     -3.327452    0.669244    1.278005
  C     -4.402742    1.610124    1.110394
  C     -3.900191    3.034883    0.997717
  O     -1.623936   -0.976415    0.680680
  C     -2.152179   -2.292725    0.399403
  C     -1.290682   -2.990915   -0.634230
  H      5.356371   -2.567775   -0.623184
  H      4.236510   -3.421277   -1.692097
  H      5.552284   -2.454044   -2.379346
  H      3.392061   -1.231421   -2.559987
  H      4.495599   -0.376774   -1.451728
  H      1.658946    0.487686    2.612458
  H      0.668384   -0.945120    3.011049
  H      2.974282   -1.158937    3.967143
  H      2.715970   -2.383476    2.708295
  H      3.661962   -0.930489    2.351083
  H     -0.729792    1.829436   -1.970087
  H      0.853275    2.293296   -1.244951
  H     -4.969033    1.330247    0.216267
  H     -5.016759    1.467095    2.000465
  H     -3.248051    3.273474    1.834196
  H     -3.340947    3.160229    0.071384
  H     -4.745894    3.714978    0.992889
  H     -2.131689   -2.815292    1.357082
  H     -3.185321   -2.201687    0.051692
  H     -1.360779   -2.477715   -1.591318
  H     -0.251350   -2.986542   -0.313936
  H     -1.629672   -4.015018   -0.752460

 Total Charge           Charge          ....    0
 Multiplicity           Mult            ....    1
 Number of Electrons    NEL             ....  202
 Basis Dimension        Dim             ....  539

ORBITAL ENERGIES
----------------

  NO   OCC          E(Eh)            E(eV)
   0   2.0000     -88.579456     -2410.3695
   1   2.0000     -88.577717     -2410.3222
   2   2.0000     -88.527701     -2408.9612
   3   2.0000     -88.527697     -2408.9611
   4   2.0000     -76.918154     -2093.0494
   5   2.0000     -76.918059     -2093.0468
   6   2.0000     -18.995719      -516.8998
   7   2.0000     -18.993965      -516.8521
   8   2.0000     -18.992020      -516.7991
   9   2.0000     -18.988578      -516.7055
  10   2.0000     -10.105392      -274.9817
  11   2.0000     -10.090370      -274.5729
  12   2.0000     -10.089012      -274.5360
  13   2.0000     -10.088947      -274.5342
  14   2.0000     -10.088556      -274.5236
  15   2.0000     -10.019767      -272.6517
  16   2.0000     -10.018177      -272.6084
  17   2.0000     -10.018166      -272.6081
  18   2.0000     -10.015578      -272.5377
  19   2.0000      -7.873855      -214.2585
  20   2.0000      -7.872124      -214.2114
  21   2.0000      -7.822776      -212.8685
  22   2.0000      -7.822769      -212.8684
  23   2.0000      -6.596880      -179.5102
  24   2.0000      -6.596605      -179.5027
  25   2.0000      -5.820756      -158.3908
  26   2.0000      -5.818981      -158.3425
  27   2.0000      -5.817784      -158.3100
  28   2.0000      -5.815974      -158.2607
  29   2.0000      -5.810866      -158.1217
  30   2.0000      -5.809255      -158.0779
  31   2.0000      -5.770325      -157.0185
  32   2.0000      -5.770311      -157.0181
  33   2.0000      -5.763176      -156.8240
  34   2.0000      -5.763031      -156.8201
  35   2.0000      -5.762857      -156.8153
  36   2.0000      -5.762688      -156.8107
  37   2.0000      -4.742166      -129.0409
  38   2.0000      -4.741983      -129.0359
  39   2.0000      -4.741837      -129.0320
  40   2.0000      -4.741470      -129.0219
  41   2.0000      -4.740781      -129.0032
  42   2.0000      -4.740547      -128.9969
  43   2.0000      -1.053342       -28.6629
  44   2.0000      -1.049980       -28.5714
  45   2.0000      -1.013482       -27.5782
  46   2.0000      -1.009395       -27.4670
  47   2.0000      -0.804975       -21.9045
  48   2.0000      -0.756313       -20.5803
  49   2.0000      -0.743268       -20.2253
  50   2.0000      -0.723674       -19.6922
  51   2.0000      -0.721221       -19.6254
  52   2.0000      -0.708837       -19.2884
  53   2.0000      -0.688351       -18.7310
  54   2.0000      -0.675038       -18.3687
  55   2.0000      -0.631290       -17.1783
  56   2.0000      -0.620936       -16.8965
  57   2.0000      -0.600385       -16.3373
  58   2.0000      -0.591832       -16.1046
  59   2.0000      -0.588041       -16.0014
  60   2.0000      -0.526141       -14.3170
  61   2.0000      -0.520228       -14.1561
  62   2.0000      -0.495299       -13.4778
  63   2.0000      -0.485698       -13.2165
  64   2.0000      -0.475447       -12.9376
  65   2.0000      -0.458134       -12.4665
  66   2.0000      -0.454267       -12.3612
  67   2.0000      -0.447181       -12.1684
  68   2.0000      -0.442836       -12.0502
  69   2.0000      -0.430476       -11.7138
  70   2.0000      -0.422133       -11.4868
  71   2.0000      -0.409679       -11.1479
  72   2.0000      -0.407690       -11.0938
  73   2.0000      -0.397639       -10.8203
  74   2.0000      -0.393399       -10.7049
  75   2.0000      -0.385033       -10.4773
  76   2.0000      -0.383948       -10.4478
  77   2.0000      -0.367463        -9.9992
  78   2.0000      -0.362199        -9.8559
  79   2.0000      -0.361814        -9.8455
  80   2.0000      -0.353854        -9.6289
  81   2.0000      -0.353182        -9.6106
  82   2.0000      -0.349559        -9.5120
  83   2.0000      -0.347414        -9.4536
  84   2.0000      -0.344646        -9.3783
  85   2.0000      -0.329045        -8.9538
  86   2.0000      -0.316905        -8.6234
  87   2.0000      -0.313317        -8.5258
  88   2.0000      -0.305444        -8.3115
  89   2.0000      -0.303301        -8.2532
  90   2.0000      -0.296167        -8.0591
  91   2.0000      -0.293202        -7.9784
  92   2.0000      -0.281726        -7.6662
  93   2.0000      -0.279066        -7.5938
  94   2.0000      -0.274938        -7.4814
  95   2.0000      -0.248928        -6.7737
  96   2.0000      -0.236079        -6.4240
  97   2.0000      -0.234522        -6.3817
  98   2.0000      -0.227794        -6.1986
  99   2.0000      -0.222205        -6.0465
 100   2.0000      -0.218097        -5.9347
 101   0.0000      -0.052456        -1.4274
 102   0.0000      -0.031325        -0.8524
 103   0.0000      -0.004652        -0.1266
 104   0.0000      -0.000960        -0.0261
 105   0.0000       0.010457         0.2845

MULLIKEN ATOMIC CHARGES
-----------------------
   0 C :   -0.482077
   1 C :   -0.150518
   2 O :   -0.317875
   3 P :    0.742508
   4 S :   -0.534321
   5 O :   -0.288505
   6 C :   -0.148553
   7 C :   -0.485811
   8 S :   -0.145467
   9 C :   -0.255308
  10 S :   -0.130647
  11 P :    0.715899
  12 S :   -0.522670
  13 O :   -0.326581
  14 C :   -0.153706
  15 C :   -0.483580
  16 O :   -0.289656
  17 C :   -0.128142
  18 C :   -0.497468
  19 H :    0.166236
  20 H :    0.165956
  21 H :    0.169833
  22 H :    0.170654
  23 H :    0.173056
  24 H :    0.176417
  25 H :    0.179598
  26 H :    0.171906
  27 H :    0.168990
  28 H :    0.166855
  29 H :    0.230883
  30 H :    0.231351
  31 H :    0.177324
  32 H :    0.174141
  33 H :    0.168673
  34 H :    0.171440
  35 H :    0.172423
  36 H :    0.174331
  37 H :    0.169301
  38 H :    0.170652
  39 H :    0.165602
  40 H :    0.166857
Sum of atomic charges:   -0.0000000

LOEWDIN ATOMIC CHARGES
----------------------
   0 C :   -0.388943
   1 C :    0.024039
   2 O :   -0.676640
   3 P :    0.378224
   4 S :   -0.161229
   5 O :   -0.681445
   6 C :    0.021242
   7 C :   -0.402083
   8 S :    0.166828
   9 C :   -0.411374
  10 S :    0.178144
  11 P :    0.385619
  12 S :   -0.156562
  13 O :   -0.673288
  14 C :    0.023693
  15 C :   -0.410087
  16 O :   -0.683843
  17 C :    0.031423
  18 C :   -0.404887
  19 H :    0.162874
  20 H :    0.163337
  21 H :    0.169054
  22 H :    0.179443
  23 H :    0.181485
  24 H :    0.182574
  25 H :    0.190389
  26 H :    0.168734
  27 H :    0.163626
  28 H :    0.162343
  29 H :    0.196887
  30 H :    0.196791
  31 H :    0.181141
  32 H :    0.190353
  33 H :    0.163444
  34 H :    0.161220
  35 H :    0.168085
  36 H :    0.187757
  37 H :    0.181253
  38 H :    0.162231
  39 H :    0.163084
  40 H :    0.165062

  Mayer bond orders larger than 0.100000
B(  0-C ,  1-C ) :   0.9513 B(  0-C , 19-H ) :   0.9693 B(  0-C , 20-H ) :   0.9690
B(  0-C , 21-H ) :   0.9583 B(  1-C ,  2-O ) :   0.7747 B(  1-C , 22-H ) :   0.9365
B(  1-C , 23-H ) :   0.9476 B(  2-O ,  3-P ) :   1.0968 B(  3-P ,  4-S ) :   1.7003
B(  3-P ,  5-O ) :   1.1599 B(  3-P ,  8-S ) :   1.0692 B(  5-O ,  6-C ) :   0.7654
B(  6-C ,  7-C ) :   0.9172 B(  6-C , 24-H ) :   0.9576 B(  6-C , 25-H ) :   0.9528
B(  7-C , 26-H ) :   0.9579 B(  7-C , 27-H ) :   0.9713 B(  7-C , 28-H ) :   0.9611
B(  8-S ,  9-C ) :   0.8958 B(  9-C , 10-S ) :   0.8940 B(  9-C , 29-H ) :   0.9057
B(  9-C , 30-H ) :   0.9028 B( 10-S , 11-P ) :   1.1041 B( 11-P , 12-S ) :   1.7073
B( 11-P , 13-O ) :   1.0726 B( 11-P , 16-O ) :   1.1684 B( 13-O , 14-C ) :   0.8066
B( 14-C , 15-C ) :   0.9104 B( 14-C , 31-H ) :   0.9656 B( 14-C , 32-H ) :   0.9491
B( 15-C , 33-H ) :   0.9657 B( 15-C , 34-H ) :   0.9639 B( 15-C , 35-H ) :   0.9538
B( 16-O , 17-C ) :   0.7472 B( 17-C , 18-C ) :   0.9362 B( 17-C , 36-H ) :   0.9505
B( 17-C , 37-H ) :   0.9608 B( 18-C , 38-H ) :   0.9657 B( 18-C , 39-H ) :   0.9670
B( 18-C , 40-H ) :   0.9594

Dispersion correction           -0.021790471
FINAL SINGLE POINT ENERGY     -2932.472972585476

DIPOLE MOMENT
-------------

Method             : SCF
Type of density    : Electron Density
Multiplicity       :   1
Irrep              :   0
Energy             : -2932.4974753411102029 Eh
Relativity type    :
Basis              : AO
                                X                 Y                 Z
Electronic contribution:     -5.000092870      11.005130114      -5.573791681
Nuclear contribution   :      4.834194240     -11.905879606       6.272023859
                        -----------------------------------------
Total Dipole Moment    :     -0.165898630      -0.900749493       0.698232177
                        -----------------------------------------
Magnitude (a.u.)       :      1.151694481
Magnitude (Debye)      :      2.927374728

Rotational constants in cm-1:             0.013114             0.005009             0.004787
Rotational constants in MHz :           393.143098           150.162126           143.516460

                             ****ORCA TERMINATED NORMALLY****
TOTAL RUN TIME: 0 days 0 hours 1 minutes 50 seconds 871 msec
