                         Program Version 6.0.0  -   RELEASE  -
|  1> ! pbe def2-sv(p) def2/J RI DEFGRID1 loosescf d4 GCP(DFT/SV(P)) printgap
|  2> %output
|  3>     printlevel normal
|  4> end
|  5> * xyz 0 1
|  6> C 4.6719785119 -0.2616491199 -2.498200201
|  7> C 3.5331938488 -1.203868848 -2.1578976394
|  8> O 3.173845683 -1.0684393963 -0.769957941
|  9> P 1.8471978174 -0.33083144 -0.2847873823
| 10> S 1.4634293804 1.2822042503 -1.3376195054
| 11> O 2.1040251719 -0.1789652191 1.2666779101
| 12> C 2.6969302508 1.0086651793 1.830889508
| 13> C 4.1486406172 1.1521831082 1.4308586781
| 14> S 0.5159405258 -1.9872071934 -0.2707250532
| 15> C -0.4787488759 -1.8158630027 1.2497582113
| 16> S -2.2268827886 -1.4786727113 0.9351455583
| 17> P -1.9773567904 0.5544040078 0.3733556824
| 18> S -0.7342564143 1.5726178551 1.4871335397
| 19> O -3.4574451022 1.1250365741 0.2985296115
| 20> C -4.1538250308 1.6663308234 1.4372584203
| 21> C -4.4200823955 0.6235940315 2.5029999683
| 22> O -1.5702421567 0.5152481443 -1.1473502652
| 23> C -2.419540527 -0.0740064854 -2.1688482485
| 24> C -1.532603245 -0.7403705718 -3.1996431875
| 25> H 4.9874950874 -0.4374680232 -3.5214095466
| 26> H 4.3398914317 0.7700390341 -2.4024118131
| 27> H 5.5096081989 -0.4299533451 -1.8274664482
| 28> H 3.8262533158 -2.2481880773 -2.2787614561
| 29> H 2.6602798698 -0.9921307715 -2.7816715352
| 30> H 2.1101501015 1.8758088878 1.5099219859
| 31> H 2.5777936823 0.8716809273 2.9066700118
| 32> H 4.2191650468 1.3267627325 0.3583404425
| 33> H 4.5825431946 1.9968771421 1.9565575275
| 34> H 4.696053203 0.2466573431 1.6787976093
| 35> H -0.059736504 -1.0173188256 1.8616484357
| 36> H -0.4374065333 -2.7744594178 1.7594586701
| 37> H -3.5593835457 2.4903391058 1.8433995196
| 38> H -5.0800238581 2.0526444611 1.0093625192
| 39> H -4.9039040155 -0.2477757891 2.0689956525
| 40> H -3.483983532 0.3135041422 2.9644163372
| 41> H -5.0625861423 1.0512902576 3.2659201804
| 42> H -3.0957363862 -0.7917656599 -1.6952187222
| 43> H -2.9987769171 0.7423115171 -2.6031769698
| 44> H -2.1453364329 -1.0896757044 -4.0241129651
| 45> H -0.8008541472 -0.0260165064 -3.5691180132
| 46> H -1.0054005543 -1.5840489085 -2.7597722968
| 47> *
| 48>
| 49>                          ****END OF INPUT****

CARTESIAN COORDINATES (ANGSTROEM)
---------------------------------
  C      4.671979   -0.261649   -2.498200
  C      3.533194   -1.203869   -2.157898
  O      3.173846   -1.068439   -0.769958
  P      1.847198   -0.330831   -0.284787
  S      1.463429    1.282204   -1.337620
  O      2.104025   -0.178965    1.266678
  C      2.696930    1.008665    1.830890
  C      4.148641    1.152183    1.430859
  S      0.515941   -1.987207   -0.270725
  C     -0.478749   -1.815863    1.249758
  S     -2.226883   -1.478673    0.935146
  P     -1.977357    0.554404    0.373356
  S     -0.734256    1.572618    1.487134
  O     -3.457445    1.125037    0.298530
  C     -4.153825    1.666331    1.437258
  C     -4.420082    0.623594    2.503000
  O     -1.570242    0.515248   -1.147350
  C     -2.419541   -0.074006   -2.168848
  C     -1.532603   -0.740371   -3.199643
  H      4.987495   -0.437468   -3.521410
  H      4.339891    0.770039   -2.402412
  H      5.509608   -0.429953   -1.827466
  H      3.826253   -2.248188   -2.278761
  H      2.660280   -0.992131   -2.781672
  H      2.110150    1.875809    1.509922
  H      2.577794    0.871681    2.906670
  H      4.219165    1.326763    0.358340
  H      4.582543    1.996877    1.956558
  H      4.696053    0.246657    1.678798
  H     -0.059737   -1.017319    1.861648
  H     -0.437407   -2.774459    1.759459
  H     -3.559384    2.490339    1.843400
  H     -5.080024    2.052644    1.009363
  H     -4.903904   -0.247776    2.068996
  H     -3.483984    0.313504    2.964416
  H     -5.062586    1.051290    3.265920
  H     -3.095736   -0.791766   -1.695219
  H     -2.998777    0.742312   -2.603177
  H     -2.145336   -1.089676   -4.024113
  H     -0.800854   -0.026017   -3.569118
  H     -1.005401   -1.584049   -2.759772

 Total Charge           Charge          ....    0
 Multiplicity           Mult            ....    1
 Number of Electrons    NEL             ....  202
 Basis Dimension        Dim             ....  334

ORBITAL ENERGIES
----------------

  NO   OCC          E(Eh)            E(eV)
   0   2.0000     -88.041594     -2395.7336
   1   2.0000     -88.034083     -2395.5292
   2   2.0000     -87.984534     -2394.1809
   3   2.0000     -87.975736     -2393.9415
   4   2.0000     -76.423881     -2079.5995
   5   2.0000     -76.418973     -2079.4660
   6   2.0000     -18.793887      -511.4077
   7   2.0000     -18.787569      -511.2358
   8   2.0000     -18.784549      -511.1536
   9   2.0000     -18.780187      -511.0349
  10   2.0000      -9.955440      -270.9013
  11   2.0000      -9.954368      -270.8721
  12   2.0000      -9.949100      -270.7288
  13   2.0000      -9.947600      -270.6880
  14   2.0000      -9.944949      -270.6158
  15   2.0000      -9.885505      -268.9983
  16   2.0000      -9.878489      -268.8073
  17   2.0000      -9.878246      -268.8007
  18   2.0000      -9.876004      -268.7397
  19   2.0000      -7.686812      -209.1688
  20   2.0000      -7.679494      -208.9696
  21   2.0000      -7.629537      -207.6103
  22   2.0000      -7.620642      -207.3682
  23   2.0000      -6.421447      -174.7365
  24   2.0000      -6.416408      -174.5993
  25   2.0000      -5.714512      -155.4998
  26   2.0000      -5.711263      -155.4114
  27   2.0000      -5.707784      -155.3167
  28   2.0000      -5.703985      -155.2133
  29   2.0000      -5.703813      -155.2086
  30   2.0000      -5.696135      -154.9997
  31   2.0000      -5.658404      -153.9730
  32   2.0000      -5.650108      -153.7473
  33   2.0000      -5.649734      -153.7371
  34   2.0000      -5.649658      -153.7350
  35   2.0000      -5.641537      -153.5140
  36   2.0000      -5.640450      -153.4844
  37   2.0000      -4.644337      -126.3788
  38   2.0000      -4.643126      -126.3459
  39   2.0000      -4.641699      -126.3071
  40   2.0000      -4.638971      -126.2328
  41   2.0000      -4.638231      -126.2127
  42   2.0000      -4.636846      -126.1750
  43   2.0000      -0.986138       -26.8342
  44   2.0000      -0.979826       -26.6624
  45   2.0000      -0.941293       -25.6139
  46   2.0000      -0.938836       -25.5470
  47   2.0000      -0.758849       -20.6493
  48   2.0000      -0.716929       -19.5086
  49   2.0000      -0.706202       -19.2167
  50   2.0000      -0.687268       -18.7015
  51   2.0000      -0.681431       -18.5427
  52   2.0000      -0.668808       -18.1992
  53   2.0000      -0.648444       -17.6451
  54   2.0000      -0.631075       -17.1724
  55   2.0000      -0.596414       -16.2292
  56   2.0000      -0.587475       -15.9860
  57   2.0000      -0.566777       -15.4228
  58   2.0000      -0.561961       -15.2917
  59   2.0000      -0.560613       -15.2550
  60   2.0000      -0.502290       -13.6680
  61   2.0000      -0.493566       -13.4306
  62   2.0000      -0.473028       -12.8718
  63   2.0000      -0.470152       -12.7935
  64   2.0000      -0.451365       -12.2823
  65   2.0000      -0.442802       -12.0493
  66   2.0000      -0.437744       -11.9116
  67   2.0000      -0.431005       -11.7282
  68   2.0000      -0.426300       -11.6002
  69   2.0000      -0.416974       -11.3464
  70   2.0000      -0.408792       -11.1238
  71   2.0000      -0.394118       -10.7245
  72   2.0000      -0.386529       -10.5180
  73   2.0000      -0.380357       -10.3500
  74   2.0000      -0.377128       -10.2622
  75   2.0000      -0.369396       -10.0518
  76   2.0000      -0.363461        -9.8903
  77   2.0000      -0.354035        -9.6338
  78   2.0000      -0.348905        -9.4942
  79   2.0000      -0.348441        -9.4816
  80   2.0000      -0.344636        -9.3780
  81   2.0000      -0.338345        -9.2068
  82   2.0000      -0.336230        -9.1493
  83   2.0000      -0.334004        -9.0887
  84   2.0000      -0.324508        -8.8303
  85   2.0000      -0.312645        -8.5075
  86   2.0000      -0.307373        -8.3641
  87   2.0000      -0.298641        -8.1264
  88   2.0000      -0.294552        -8.0152
  89   2.0000      -0.288761        -7.8576
  90   2.0000      -0.279941        -7.6176
  91   2.0000      -0.268681        -7.3112
  92   2.0000      -0.266269        -7.2455
  93   2.0000      -0.261206        -7.1078
  94   2.0000      -0.253159        -6.8888
  95   2.0000      -0.234346        -6.3769
  96   2.0000      -0.217783        -5.9262
  97   2.0000      -0.211516        -5.7556
  98   2.0000      -0.201486        -5.4827
  99   2.0000      -0.189982        -5.1697
 100   2.0000      -0.176984        -4.8160
 101   0.0000      -0.039926        -1.0864
 102   0.0000      -0.025999        -0.7075
 103   0.0000      -0.020181        -0.5492
 104   0.0000       0.004439         0.1208
 105   0.0000       0.020104         0.5471

MULLIKEN ATOMIC CHARGES
-----------------------
   0 C :   -0.292361
   1 C :   -0.006925
   2 O :   -0.376446
   3 P :    0.613245
   4 S :   -0.301528
   5 O :   -0.370029
   6 C :   -0.008552
   7 C :   -0.309411
   8 S :   -0.107008
   9 C :   -0.356856
  10 S :   -0.101292
  11 P :    0.599945
  12 S :   -0.308917
  13 O :   -0.381155
  14 C :    0.001822
  15 C :   -0.320959
  16 O :   -0.337613
  17 C :   -0.005781
  18 C :   -0.289383
  19 H :    0.105897
  20 H :    0.127619
  21 H :    0.113207
  22 H :    0.102842
  23 H :    0.098900
  24 H :    0.127413
  25 H :    0.102296
  26 H :    0.130385
  27 H :    0.110536
  28 H :    0.115041
  29 H :    0.206746
  30 H :    0.183370
  31 H :    0.113282
  32 H :    0.105367
  33 H :    0.117805
  34 H :    0.128740
  35 H :    0.114462
  36 H :    0.097198
  37 H :    0.107324
  38 H :    0.101451
  39 H :    0.126207
  40 H :    0.123119
Sum of atomic charges:    0.0000000

LOEWDIN ATOMIC CHARGES
----------------------
   0 C :   -0.360472
   1 C :   -0.118945
   2 O :   -0.252108
   3 P :    0.566317
   4 S :   -0.300022
   5 O :   -0.234390
   6 C :   -0.118020
   7 C :   -0.365626
   8 S :    0.067909
   9 C :   -0.477643
  10 S :    0.068970
  11 P :    0.571201
  12 S :   -0.295946
  13 O :   -0.247705
  14 C :   -0.114961
  15 C :   -0.372096
  16 O :   -0.226209
  17 C :   -0.110809
  18 C :   -0.358092
  19 H :    0.127687
  20 H :    0.124958
  21 H :    0.124615
  22 H :    0.115571
  23 H :    0.105489
  24 H :    0.111381
  25 H :    0.117719
  26 H :    0.123976
  27 H :    0.130243
  28 H :    0.125606
  29 H :    0.130208
  30 H :    0.138605
  31 H :    0.113736
  32 H :    0.119049
  33 H :    0.123147
  34 H :    0.121661
  35 H :    0.131887
  36 H :    0.101518
  37 H :    0.116836
  38 H :    0.125582
  39 H :    0.129739
  40 H :    0.119433

  Mayer bond orders larger than 0.100000
B(  0-C ,  1-C ) :   1.1709 B(  0-C , 19-H ) :   0.9397 B(  0-C , 20-H ) :   0.9332
B(  0-C , 21-H ) :   0.9474 B(  1-C ,  2-O ) :   0.9116 B(  1-C , 22-H ) :   0.9334
B(  1-C , 23-H ) :   0.9093 B(  2-O ,  3-P ) :   1.0849 B(  3-P ,  4-S ) :   1.6316
B(  3-P ,  5-O ) :   1.1265 B(  3-P ,  8-S ) :   0.9426 B(  4-S ,  8-S ) :   0.1069
B(  5-O ,  6-C ) :   0.8929 B(  6-C ,  7-C ) :   1.1635 B(  6-C , 24-H ) :   0.9112
B(  6-C , 25-H ) :   0.9360 B(  7-C , 26-H ) :   0.9323 B(  7-C , 27-H ) :   0.9382
B(  7-C , 28-H ) :   0.9448 B(  8-S ,  9-C ) :   0.9998 B(  9-C , 10-S ) :   1.0004
B(  9-C , 29-H ) :   0.8622 B(  9-C , 30-H ) :   0.9108 B( 10-S , 11-P ) :   0.9417
B( 10-S , 12-S ) :   0.1053 B( 11-P , 12-S ) :   1.6258 B( 11-P , 13-O ) :   1.0913
B( 11-P , 16-O ) :   1.1583 B( 13-O , 14-C ) :   0.9062 B( 14-C , 15-C ) :   1.1660
B( 14-C , 31-H ) :   0.9193 B( 14-C , 32-H ) :   0.9345 B( 15-C , 33-H ) :   0.9436
B( 15-C , 34-H ) :   0.9341 B( 15-C , 35-H ) :   0.9368 B( 16-O , 17-C ) :   0.8862
B( 17-C , 18-C ) :   1.1653 B( 17-C , 36-H ) :   0.9121 B( 17-C , 37-H ) :   0.9339
B( 18-C , 38-H ) :   0.9384 B( 18-C , 39-H ) :   0.9441 B( 18-C , 40-H ) :   0.9398

Dispersion correction           -0.068230969
FINAL SINGLE POINT ENERGY     -2929.513834167584

DIPOLE MOMENT
-------------

Method             : SCF
Type of density    : Electron Density
Multiplicity       :   1
Irrep              :   0
Energy             : -2929.6309339275112507 Eh
Relativity type    :
Basis              : AO
                                X                 Y                 Z
Electronic contribution:     -7.042234678      -2.355110341       4.239170143
Nuclear contribution   :      6.599389721       1.793073915      -4.122941119
                        -----------------------------------------
Total Dipole Moment    :     -0.442844957      -0.562036426       0.116229024
                        -----------------------------------------
Magnitude (a.u.)       :      0.724917779
Magnitude (Debye)      :      1.842594561

Rotational constants in cm-1:             0.013144             0.005448             0.004933
Rotational constants in MHz :           394.058068           163.325536           147.887611

                             ****ORCA TERMINATED NORMALLY****
TOTAL RUN TIME: 0 days 0 hours 0 minutes 21 seconds 640 msec
