                         Program Version 6.0.0  -   RELEASE  -
|  1> ! pbe def2-sv(p) def2/J RI DEFGRID1 loosescf d4 GCP(DFT/SV(P)) printgap
|  2> %output
|  3>     printlevel normal
|  4> end
|  5> * xyz 0 1
|  6> C 3.6532792095 -1.4384057784 -2.6883778753
|  7> C 4.0877160794 -0.1840211944 -1.9583532808
|  8> O 3.6906708781 -0.2008655434 -0.5766817746
|  9> P 2.1685610692 -0.1269087917 -0.1282302629
| 10> S 1.0940787832 1.1144502021 -1.2077168143
| 11> O 2.2786167988 0.1964527876 1.4177585234
| 12> C 2.345850791 1.5386692015 1.9372691966
| 13> C 3.6088850906 2.2525352014 1.5064681398
| 14> S 1.6429312308 -2.1655594708 0.0171683394
| 15> C -0.0563129019 -2.0279005344 0.6243129251
| 16> S -1.2389299368 -1.5400965374 -0.682408314
| 17> P -2.2197967773 -0.0004079272 0.3631214959
| 18> S -1.1733791558 1.0543842058 1.653082416
| 19> O -3.3735882738 -0.8549825237 1.0307030373
| 20> C -4.141448795 -0.3859000335 2.1574690752
| 21> C -5.0666583812 0.7501001466 1.7758368794
| 22> O -3.0192931644 0.8248715 -0.7266971548
| 23> C -2.4458208302 1.8067076511 -1.609437617
| 24> C -2.1252932517 1.1952388573 -2.9581039603
| 25> H 3.9967849955 -2.3225865588 -2.1573188818
| 26> H 2.5660533118 -1.4718345532 -2.7544181585
| 27> H 4.0670271498 -1.4335197249 -3.691649708
| 28> H 3.6565637069 0.7042672906 -2.4318129053
| 29> H 5.1739725652 -0.094643431 -1.9176628326
| 30> H 1.4543139502 2.0834457595 1.6097103684
| 31> H 2.3031684698 1.3986296522 3.0182971651
| 32> H 3.5920927098 2.4195084085 0.4300757432
| 33> H 3.6673052202 3.2116976814 2.0113088984
| 34> H 4.4809513134 1.6542237002 1.7572998742
| 35> H -0.096522455 -1.2874415425 1.4266951236
| 36> H -0.3259074725 -3.018147504 0.9809537651
| 37> H -4.6940023349 -1.269037591 2.4804071055
| 38> H -3.4465404962 -0.0710270927 2.9429685105
| 39> H -5.7001210076 0.9987490834 2.6215904245
| 40> H -4.4818635613 1.6268796119 1.5007673757
| 41> H -5.6849849349 0.4616808762 0.9300075214
| 42> H -3.2128953485 2.5785065346 -1.6967761434
| 43> H -1.5488195852 2.2324862664 -1.1490908266
| 44> H -3.0044461219 0.7009488959 -3.3612801165
| 45> H -1.8046324399 1.9804505787 -3.6347775135
| 46> H -1.3211540303 0.4689794483 -2.8626973522
| 47> *
| 48>
| 49>                          ****END OF INPUT****

CARTESIAN COORDINATES (ANGSTROEM)
---------------------------------
  C      3.653279   -1.438406   -2.688378
  C      4.087716   -0.184021   -1.958353
  O      3.690671   -0.200866   -0.576682
  P      2.168561   -0.126909   -0.128230
  S      1.094079    1.114450   -1.207717
  O      2.278617    0.196453    1.417759
  C      2.345851    1.538669    1.937269
  C      3.608885    2.252535    1.506468
  S      1.642931   -2.165559    0.017168
  C     -0.056313   -2.027901    0.624313
  S     -1.238930   -1.540097   -0.682408
  P     -2.219797   -0.000408    0.363121
  S     -1.173379    1.054384    1.653082
  O     -3.373588   -0.854983    1.030703
  C     -4.141449   -0.385900    2.157469
  C     -5.066658    0.750100    1.775837
  O     -3.019293    0.824871   -0.726697
  C     -2.445821    1.806708   -1.609438
  C     -2.125293    1.195239   -2.958104
  H      3.996785   -2.322587   -2.157319
  H      2.566053   -1.471835   -2.754418
  H      4.067027   -1.433520   -3.691650
  H      3.656564    0.704267   -2.431813
  H      5.173973   -0.094643   -1.917663
  H      1.454314    2.083446    1.609710
  H      2.303168    1.398630    3.018297
  H      3.592093    2.419508    0.430076
  H      3.667305    3.211698    2.011309
  H      4.480951    1.654224    1.757300
  H     -0.096522   -1.287442    1.426695
  H     -0.325907   -3.018148    0.980954
  H     -4.694002   -1.269038    2.480407
  H     -3.446540   -0.071027    2.942969
  H     -5.700121    0.998749    2.621590
  H     -4.481864    1.626880    1.500767
  H     -5.684985    0.461681    0.930008
  H     -3.212895    2.578507   -1.696776
  H     -1.548820    2.232486   -1.149091
  H     -3.004446    0.700949   -3.361280
  H     -1.804632    1.980451   -3.634778
  H     -1.321154    0.468979   -2.862697

 Total Charge           Charge          ....    0
 Multiplicity           Mult            ....    1
 Number of Electrons    NEL             ....  202
 Basis Dimension        Dim             ....  334

ORBITAL ENERGIES
----------------

  NO   OCC          E(Eh)            E(eV)
   0   2.0000     -88.042044     -2395.7458
   1   2.0000     -88.037504     -2395.6223
   2   2.0000     -87.984365     -2394.1763
   3   2.0000     -87.983920     -2394.1642
   4   2.0000     -76.424178     -2079.6076
   5   2.0000     -76.423403     -2079.5865
   6   2.0000     -18.792354      -511.3659
   7   2.0000     -18.791738      -511.3492
   8   2.0000     -18.785924      -511.1910
   9   2.0000     -18.784017      -511.1391
  10   2.0000      -9.954530      -270.8765
  11   2.0000      -9.951355      -270.7901
  12   2.0000      -9.948193      -270.7041
  13   2.0000      -9.947438      -270.6836
  14   2.0000      -9.943079      -270.5649
  15   2.0000      -9.883614      -268.9468
  16   2.0000      -9.881076      -268.8778
  17   2.0000      -9.878718      -268.8136
  18   2.0000      -9.877324      -268.7757
  19   2.0000      -7.687520      -209.1880
  20   2.0000      -7.682925      -209.0630
  21   2.0000      -7.629108      -207.5986
  22   2.0000      -7.628627      -207.5855
  23   2.0000      -6.421658      -174.7422
  24   2.0000      -6.421129      -174.7278
  25   2.0000      -5.715375      -155.5233
  26   2.0000      -5.712098      -155.4341
  27   2.0000      -5.710852      -155.4002
  28   2.0000      -5.707635      -155.3126
  29   2.0000      -5.704366      -155.2237
  30   2.0000      -5.699564      -155.0930
  31   2.0000      -5.657849      -153.9579
  32   2.0000      -5.657376      -153.9450
  33   2.0000      -5.649966      -153.7434
  34   2.0000      -5.649318      -153.7258
  35   2.0000      -5.649201      -153.7226
  36   2.0000      -5.648895      -153.7142
  37   2.0000      -4.644138      -126.3734
  38   2.0000      -4.643572      -126.3580
  39   2.0000      -4.643434      -126.3543
  40   2.0000      -4.642836      -126.3380
  41   2.0000      -4.642225      -126.3214
  42   2.0000      -4.641727      -126.3078
  43   2.0000      -0.984235       -26.7824
  44   2.0000      -0.983887       -26.7729
  45   2.0000      -0.943403       -25.6713
  46   2.0000      -0.942265       -25.6403
  47   2.0000      -0.760625       -20.6977
  48   2.0000      -0.719749       -19.5854
  49   2.0000      -0.704985       -19.1836
  50   2.0000      -0.685349       -18.6493
  51   2.0000      -0.683829       -18.6079
  52   2.0000      -0.670139       -18.2354
  53   2.0000      -0.651181       -17.7195
  54   2.0000      -0.633064       -17.2265
  55   2.0000      -0.601653       -16.3718
  56   2.0000      -0.592079       -16.1113
  57   2.0000      -0.570129       -15.5140
  58   2.0000      -0.566648       -15.4193
  59   2.0000      -0.558242       -15.1905
  60   2.0000      -0.495277       -13.4772
  61   2.0000      -0.488326       -13.2880
  62   2.0000      -0.472959       -12.8699
  63   2.0000      -0.470122       -12.7927
  64   2.0000      -0.450968       -12.2715
  65   2.0000      -0.446267       -12.1435
  66   2.0000      -0.437211       -11.8971
  67   2.0000      -0.432464       -11.7679
  68   2.0000      -0.425201       -11.5703
  69   2.0000      -0.413171       -11.2430
  70   2.0000      -0.403945       -10.9919
  71   2.0000      -0.395113       -10.7516
  72   2.0000      -0.390379       -10.6227
  73   2.0000      -0.386549       -10.5185
  74   2.0000      -0.382950       -10.4206
  75   2.0000      -0.376477       -10.2445
  76   2.0000      -0.367781       -10.0078
  77   2.0000      -0.354634        -9.6501
  78   2.0000      -0.352179        -9.5833
  79   2.0000      -0.345719        -9.4075
  80   2.0000      -0.345093        -9.3905
  81   2.0000      -0.340991        -9.2788
  82   2.0000      -0.338785        -9.2188
  83   2.0000      -0.332805        -9.0561
  84   2.0000      -0.330284        -8.9875
  85   2.0000      -0.312253        -8.4968
  86   2.0000      -0.309349        -8.4178
  87   2.0000      -0.293868        -7.9966
  88   2.0000      -0.290158        -7.8956
  89   2.0000      -0.281366        -7.6564
  90   2.0000      -0.279962        -7.6182
  91   2.0000      -0.270072        -7.3490
  92   2.0000      -0.268740        -7.3128
  93   2.0000      -0.263137        -7.1603
  94   2.0000      -0.260255        -7.0819
  95   2.0000      -0.240515        -6.5447
  96   2.0000      -0.224249        -6.1021
  97   2.0000      -0.206219        -5.6115
  98   2.0000      -0.203496        -5.5374
  99   2.0000      -0.193344        -5.2612
 100   2.0000      -0.186255        -5.0683
 101   0.0000      -0.039074        -1.0633
 102   0.0000      -0.030656        -0.8342
 103   0.0000      -0.011255        -0.3063
 104   0.0000       0.005289         0.1439
 105   0.0000       0.023153         0.6300

MULLIKEN ATOMIC CHARGES
-----------------------
   0 C :   -0.322801
   1 C :   -0.003366
   2 O :   -0.372015
   3 P :    0.622735
   4 S :   -0.331874
   5 O :   -0.366488
   6 C :   -0.011151
   7 C :   -0.305902
   8 S :   -0.084544
   9 C :   -0.352801
  10 S :   -0.074477
  11 P :    0.622535
  12 S :   -0.334436
  13 O :   -0.367762
  14 C :   -0.003378
  15 C :   -0.304732
  16 O :   -0.372059
  17 C :   -0.013667
  18 C :   -0.308712
  19 H :    0.120313
  20 H :    0.130696
  21 H :    0.114101
  22 H :    0.110162
  23 H :    0.105243
  24 H :    0.129197
  25 H :    0.103449
  26 H :    0.119926
  27 H :    0.110539
  28 H :    0.115085
  29 H :    0.194965
  30 H :    0.185580
  31 H :    0.102828
  32 H :    0.107186
  33 H :    0.109883
  34 H :    0.121659
  35 H :    0.116532
  36 H :    0.102867
  37 H :    0.122686
  38 H :    0.111537
  39 H :    0.109599
  40 H :    0.140863
Sum of atomic charges:    0.0000000

LOEWDIN ATOMIC CHARGES
----------------------
   0 C :   -0.371393
   1 C :   -0.120682
   2 O :   -0.242146
   3 P :    0.574221
   4 S :   -0.314748
   5 O :   -0.237583
   6 C :   -0.119505
   7 C :   -0.365922
   8 S :    0.093729
   9 C :   -0.477570
  10 S :    0.087746
  11 P :    0.573411
  12 S :   -0.313476
  13 O :   -0.246341
  14 C :   -0.118895
  15 C :   -0.363996
  16 O :   -0.237499
  17 C :   -0.115696
  18 C :   -0.365663
  19 H :    0.124557
  20 H :    0.122538
  21 H :    0.131763
  22 H :    0.109496
  23 H :    0.118721
  24 H :    0.109711
  25 H :    0.119074
  26 H :    0.121059
  27 H :    0.129865
  28 H :    0.125277
  29 H :    0.123823
  30 H :    0.137912
  31 H :    0.117704
  32 H :    0.107978
  33 H :    0.129158
  34 H :    0.123283
  35 H :    0.126403
  36 H :    0.117348
  37 H :    0.109740
  38 H :    0.124031
  39 H :    0.130773
  40 H :    0.121794

  Mayer bond orders larger than 0.100000
B(  0-C ,  1-C ) :   1.1660 B(  0-C , 19-H ) :   0.9437 B(  0-C , 20-H ) :   0.9334
B(  0-C , 21-H ) :   0.9378 B(  1-C ,  2-O ) :   0.9071 B(  1-C , 22-H ) :   0.9136
B(  1-C , 23-H ) :   0.9330 B(  2-O ,  3-P ) :   1.1028 B(  3-P ,  4-S ) :   1.6071
B(  3-P ,  5-O ) :   1.1307 B(  3-P ,  8-S ) :   0.9625 B(  4-S ,  8-S ) :   0.1172
B(  5-O ,  6-C ) :   0.9001 B(  6-C ,  7-C ) :   1.1626 B(  6-C , 24-H ) :   0.9096
B(  6-C , 25-H ) :   0.9361 B(  7-C , 26-H ) :   0.9365 B(  7-C , 27-H ) :   0.9390
B(  7-C , 28-H ) :   0.9449 B(  8-S ,  9-C ) :   1.0038 B(  9-C , 10-S ) :   0.9863
B(  9-C , 29-H ) :   0.8554 B(  9-C , 30-H ) :   0.9110 B( 10-S , 11-P ) :   0.9738
B( 10-S , 12-S ) :   0.1157 B( 11-P , 12-S ) :   1.5835 B( 11-P , 13-O ) :   1.1220
B( 11-P , 16-O ) :   1.1265 B( 13-O , 14-C ) :   0.9132 B( 14-C , 15-C ) :   1.1644
B( 14-C , 31-H ) :   0.9348 B( 14-C , 32-H ) :   0.9135 B( 15-C , 33-H ) :   0.9391
B( 15-C , 34-H ) :   0.9383 B( 15-C , 35-H ) :   0.9466 B( 16-O , 17-C ) :   0.8972
B( 17-C , 18-C ) :   1.1729 B( 17-C , 36-H ) :   0.9340 B( 17-C , 37-H ) :   0.9062
B( 18-C , 38-H ) :   0.9466 B( 18-C , 39-H ) :   0.9402 B( 18-C , 40-H ) :   0.9299

Dispersion correction           -0.066941538
FINAL SINGLE POINT ENERGY     -2929.520601750635

DIPOLE MOMENT
-------------

Method             : SCF
Type of density    : Electron Density
Multiplicity       :   1
Irrep              :   0
Energy             : -2929.6384471523579123 Eh
Relativity type    :
Basis              : AO
                                X                 Y                 Z
Electronic contribution:      0.330443314     -10.889216913       3.826112672
Nuclear contribution   :     -0.311065475      10.995696728      -3.889894759
                        -----------------------------------------
Total Dipole Moment    :      0.019377839       0.106479814      -0.063782087
                        -----------------------------------------
Magnitude (a.u.)       :      0.125624863
Magnitude (Debye)      :      0.319313025

Rotational constants in cm-1:             0.012660             0.005096             0.004869
Rotational constants in MHz :           379.527297           152.766138           145.982956

                             ****ORCA TERMINATED NORMALLY****
TOTAL RUN TIME: 0 days 0 hours 0 minutes 21 seconds 57 msec
