                         Program Version 6.0.0  -   RELEASE  -
|  1> ! pbe def2-sv(p) def2/J RI DEFGRID1 loosescf d4 GCP(DFT/SV(P)) printgap
|  2> %output
|  3>     printlevel normal
|  4> end
|  5> * xyz 0 1
|  6> C 5.4300259893 -0.1934735761 -0.8022210744
|  7> C 4.4458771552 -0.9000486188 0.1099080512
|  8> O 3.4211478119 0.0068433146 0.5622345392
|  9> P 2.009522444 0.1266976441 -0.1634814829
| 10> S 2.0558386478 0.4302089166 -2.1033096747
| 11> O 1.3207233069 1.227033778 0.7378815763
| 12> C 1.3760029937 2.6301955235 0.4169357968
| 13> C 2.7841789214 3.1739389081 0.519757591
| 14> S 1.0767135167 -1.6505022111 0.4702824514
| 15> C -0.0890281866 -1.9452731617 -0.9052428794
| 16> S -1.8009328722 -2.0422088626 -0.3516739246
| 17> P -2.0601118989 0.0192139798 0.1116675249
| 18> S -1.3842264776 1.2858656657 -1.2186436593
| 19> O -1.3512204102 0.2832155756 1.4938560891
| 20> C -1.6242539937 -0.4764690478 2.6982355013
| 21> C -2.5704403279 0.2842821051 3.6035959596
| 22> O -3.5967799702 0.0951974085 0.5017265306
| 23> C -4.6780314855 -0.4497596658 -0.2794219408
| 24> C -4.6832332717 0.0536628599 -1.707104722
| 25> H 6.2188419576 -0.8847530099 -1.0804047095
| 26> H 4.9264678687 0.1504266709 -1.703195426
| 27> H 5.8642593162 0.6622028678 -0.2927629652
| 28> H 4.9291722727 -1.2473724466 1.0249238559
| 29> H 3.9793709318 -1.7477766766 -0.4003365495
| 30> H 0.9712189225 2.771713608 -0.5911113474
| 31> H 0.7015633011 3.0876292109 1.1424052319
| 32> H 2.766764501 4.2475748276 0.3607592829
| 33> H 3.1998336322 2.9550727914 1.4998978127
| 34> H 3.4115073313 2.7121735898 -0.2420517787
| 35> H 0.1439153459 -2.9122041716 -1.3435418297
| 36> H 0.0241107377 -1.1409903444 -1.6384674008
| 37> H -2.0367333073 -1.4505265705 2.4199011545
| 38> H -0.6452520522 -0.6137747224 3.1624221066
| 39> H -3.5270749652 0.4313392726 3.1092962636
| 40> H -2.7198980622 -0.2837721114 4.5164227927
| 41> H -2.1513321586 1.2560401493 3.8495400955
| 42> H -4.5994310362 -1.5399742287 -0.2540288944
| 43> H -5.5707748158 -0.1274595487 0.2593522742
| 44> H -4.6955659481 1.1409888134 -1.7270605968
| 45> H -3.7908506347 -0.2874110536 -2.230276469
| 46> H -5.5606440452 -0.3260375673 -2.2204913062
| 47> *
| 48>
| 49>                          ****END OF INPUT****

CARTESIAN COORDINATES (ANGSTROEM)
---------------------------------
  C      5.430026   -0.193474   -0.802221
  C      4.445877   -0.900049    0.109908
  O      3.421148    0.006843    0.562235
  P      2.009522    0.126698   -0.163481
  S      2.055839    0.430209   -2.103310
  O      1.320723    1.227034    0.737882
  C      1.376003    2.630196    0.416936
  C      2.784179    3.173939    0.519758
  S      1.076714   -1.650502    0.470282
  C     -0.089028   -1.945273   -0.905243
  S     -1.800933   -2.042209   -0.351674
  P     -2.060112    0.019214    0.111668
  S     -1.384226    1.285866   -1.218644
  O     -1.351220    0.283216    1.493856
  C     -1.624254   -0.476469    2.698236
  C     -2.570440    0.284282    3.603596
  O     -3.596780    0.095197    0.501727
  C     -4.678031   -0.449760   -0.279422
  C     -4.683233    0.053663   -1.707105
  H      6.218842   -0.884753   -1.080405
  H      4.926468    0.150427   -1.703195
  H      5.864259    0.662203   -0.292763
  H      4.929172   -1.247372    1.024924
  H      3.979371   -1.747777   -0.400337
  H      0.971219    2.771714   -0.591111
  H      0.701563    3.087629    1.142405
  H      2.766765    4.247575    0.360759
  H      3.199834    2.955073    1.499898
  H      3.411507    2.712174   -0.242052
  H      0.143915   -2.912204   -1.343542
  H      0.024111   -1.140990   -1.638467
  H     -2.036733   -1.450527    2.419901
  H     -0.645252   -0.613775    3.162422
  H     -3.527075    0.431339    3.109296
  H     -2.719898   -0.283772    4.516423
  H     -2.151332    1.256040    3.849540
  H     -4.599431   -1.539974   -0.254029
  H     -5.570775   -0.127460    0.259352
  H     -4.695566    1.140989   -1.727061
  H     -3.790851   -0.287411   -2.230276
  H     -5.560644   -0.326038   -2.220491

 Total Charge           Charge          ....    0
 Multiplicity           Mult            ....    1
 Number of Electrons    NEL             ....  202
 Basis Dimension        Dim             ....  334

ORBITAL ENERGIES
----------------

  NO   OCC          E(Eh)            E(eV)
   0   2.0000     -88.045953     -2395.8522
   1   2.0000     -88.040402     -2395.7011
   2   2.0000     -87.980925     -2394.0827
   3   2.0000     -87.978124     -2394.0065
   4   2.0000     -76.423982     -2079.6023
   5   2.0000     -76.420254     -2079.5008
   6   2.0000     -18.796722      -511.4848
   7   2.0000     -18.787547      -511.2352
   8   2.0000     -18.786805      -511.2149
   9   2.0000     -18.778568      -510.9908
  10   2.0000      -9.961063      -271.0543
  11   2.0000      -9.954855      -270.8854
  12   2.0000      -9.950546      -270.7681
  13   2.0000      -9.950369      -270.7633
  14   2.0000      -9.937705      -270.4187
  15   2.0000      -9.884468      -268.9700
  16   2.0000      -9.883619      -268.9470
  17   2.0000      -9.878001      -268.7941
  18   2.0000      -9.874622      -268.7021
  19   2.0000      -7.691028      -209.2835
  20   2.0000      -7.685610      -209.1361
  21   2.0000      -7.625848      -207.5099
  22   2.0000      -7.623113      -207.4355
  23   2.0000      -6.421291      -174.7322
  24   2.0000      -6.417792      -174.6370
  25   2.0000      -5.718727      -155.6145
  26   2.0000      -5.715333      -155.5221
  27   2.0000      -5.713448      -155.4708
  28   2.0000      -5.710060      -155.3786
  29   2.0000      -5.708399      -155.3334
  30   2.0000      -5.702614      -155.1760
  31   2.0000      -5.654692      -153.8720
  32   2.0000      -5.652253      -153.8056
  33   2.0000      -5.646614      -153.6522
  34   2.0000      -5.645938      -153.6338
  35   2.0000      -5.643601      -153.5702
  36   2.0000      -5.643156      -153.5581
  37   2.0000      -4.644139      -126.3735
  38   2.0000      -4.643402      -126.3534
  39   2.0000      -4.641184      -126.2930
  40   2.0000      -4.640091      -126.2633
  41   2.0000      -4.639472      -126.2464
  42   2.0000      -4.638599      -126.2227
  43   2.0000      -0.988140       -26.8887
  44   2.0000      -0.979702       -26.6590
  45   2.0000      -0.944095       -25.6901
  46   2.0000      -0.936802       -25.4917
  47   2.0000      -0.762414       -20.7463
  48   2.0000      -0.718690       -19.5566
  49   2.0000      -0.706934       -19.2367
  50   2.0000      -0.690930       -18.8012
  51   2.0000      -0.680351       -18.5133
  52   2.0000      -0.672137       -18.2898
  53   2.0000      -0.648678       -17.6514
  54   2.0000      -0.632816       -17.2198
  55   2.0000      -0.593546       -16.1512
  56   2.0000      -0.587269       -15.9804
  57   2.0000      -0.572691       -15.5837
  58   2.0000      -0.568799       -15.4778
  59   2.0000      -0.559150       -15.2153
  60   2.0000      -0.503203       -13.6928
  61   2.0000      -0.492411       -13.3992
  62   2.0000      -0.474207       -12.9038
  63   2.0000      -0.465736       -12.6733
  64   2.0000      -0.453637       -12.3441
  65   2.0000      -0.441348       -12.0097
  66   2.0000      -0.436467       -11.8769
  67   2.0000      -0.433576       -11.7982
  68   2.0000      -0.429838       -11.6965
  69   2.0000      -0.411924       -11.2090
  70   2.0000      -0.409312       -11.1379
  71   2.0000      -0.397020       -10.8035
  72   2.0000      -0.393501       -10.7077
  73   2.0000      -0.385121       -10.4797
  74   2.0000      -0.380464       -10.3529
  75   2.0000      -0.367730       -10.0064
  76   2.0000      -0.359164        -9.7733
  77   2.0000      -0.354970        -9.6592
  78   2.0000      -0.350712        -9.5434
  79   2.0000      -0.347083        -9.4446
  80   2.0000      -0.343579        -9.3493
  81   2.0000      -0.340827        -9.2744
  82   2.0000      -0.339022        -9.2253
  83   2.0000      -0.332437        -9.0461
  84   2.0000      -0.328799        -8.9471
  85   2.0000      -0.319115        -8.6836
  86   2.0000      -0.309297        -8.4164
  87   2.0000      -0.297746        -8.1021
  88   2.0000      -0.292418        -7.9571
  89   2.0000      -0.287180        -7.8146
  90   2.0000      -0.278005        -7.5649
  91   2.0000      -0.273770        -7.4497
  92   2.0000      -0.265919        -7.2360
  93   2.0000      -0.259292        -7.0557
  94   2.0000      -0.256575        -6.9818
  95   2.0000      -0.237390        -6.4597
  96   2.0000      -0.221953        -6.0397
  97   2.0000      -0.210147        -5.7184
  98   2.0000      -0.200152        -5.4464
  99   2.0000      -0.191372        -5.2075
 100   2.0000      -0.182234        -4.9588
 101   0.0000      -0.038348        -1.0435
 102   0.0000      -0.028366        -0.7719
 103   0.0000      -0.012264        -0.3337
 104   0.0000       0.014726         0.4007
 105   0.0000       0.022566         0.6140

MULLIKEN ATOMIC CHARGES
-----------------------
   0 C :   -0.292567
   1 C :   -0.006725
   2 O :   -0.374703
   3 P :    0.608585
   4 S :   -0.319254
   5 O :   -0.350432
   6 C :   -0.001979
   7 C :   -0.305745
   8 S :   -0.098548
   9 C :   -0.351229
  10 S :   -0.118742
  11 P :    0.586904
  12 S :   -0.293680
  13 O :   -0.339341
  14 C :   -0.007957
  15 C :   -0.284808
  16 O :   -0.378901
  17 C :   -0.015350
  18 C :   -0.307735
  19 H :    0.105771
  20 H :    0.128536
  21 H :    0.113618
  22 H :    0.104568
  23 H :    0.096625
  24 H :    0.123703
  25 H :    0.101458
  26 H :    0.108669
  27 H :    0.111858
  28 H :    0.123371
  29 H :    0.182192
  30 H :    0.212073
  31 H :    0.094443
  32 H :    0.109998
  33 H :    0.117868
  34 H :    0.107683
  35 H :    0.118076
  36 H :    0.114569
  37 H :    0.109706
  38 H :    0.127564
  39 H :    0.128646
  40 H :    0.111209
Sum of atomic charges:    0.0000000

LOEWDIN ATOMIC CHARGES
----------------------
   0 C :   -0.363831
   1 C :   -0.117445
   2 O :   -0.247443
   3 P :    0.569800
   4 S :   -0.310515
   5 O :   -0.227978
   6 C :   -0.117818
   7 C :   -0.366909
   8 S :    0.076770
   9 C :   -0.478363
  10 S :    0.063338
  11 P :    0.561780
  12 S :   -0.286957
  13 O :   -0.225812
  14 C :   -0.117922
  15 C :   -0.358500
  16 O :   -0.246085
  17 C :   -0.115141
  18 C :   -0.369171
  19 H :    0.127826
  20 H :    0.124277
  21 H :    0.124718
  22 H :    0.117324
  23 H :    0.104992
  24 H :    0.109265
  25 H :    0.118275
  26 H :    0.129030
  27 H :    0.123754
  28 H :    0.121183
  29 H :    0.136932
  30 H :    0.126879
  31 H :    0.100546
  32 H :    0.118979
  33 H :    0.124989
  34 H :    0.128417
  35 H :    0.127805
  36 H :    0.107883
  37 H :    0.121247
  38 H :    0.131153
  39 H :    0.122630
  40 H :    0.130098

  Mayer bond orders larger than 0.100000
B(  0-C ,  1-C ) :   1.1677 B(  0-C , 19-H ) :   0.9399 B(  0-C , 20-H ) :   0.9306
B(  0-C , 21-H ) :   0.9459 B(  1-C ,  2-O ) :   0.9086 B(  1-C , 22-H ) :   0.9362
B(  1-C , 23-H ) :   0.9129 B(  2-O ,  3-P ) :   1.0954 B(  3-P ,  4-S ) :   1.5991
B(  3-P ,  5-O ) :   1.1561 B(  3-P ,  8-S ) :   0.9611 B(  4-S ,  8-S ) :   0.1176
B(  5-O ,  6-C ) :   0.9005 B(  6-C ,  7-C ) :   1.1578 B(  6-C , 24-H ) :   0.9123
B(  6-C , 25-H ) :   0.9359 B(  7-C , 26-H ) :   0.9388 B(  7-C , 27-H ) :   0.9448
B(  7-C , 28-H ) :   0.9342 B(  8-S ,  9-C ) :   0.9926 B(  9-C , 10-S ) :   1.0045
B(  9-C , 29-H ) :   0.9118 B(  9-C , 30-H ) :   0.8442 B( 10-S , 11-P ) :   0.9356
B( 10-S , 12-S ) :   0.1058 B( 11-P , 12-S ) :   1.6586 B( 11-P , 13-O ) :   1.1455
B( 11-P , 16-O ) :   1.0776 B( 13-O , 14-C ) :   0.8915 B( 14-C , 15-C ) :   1.1634
B( 14-C , 31-H ) :   0.9119 B( 14-C , 32-H ) :   0.9316 B( 15-C , 33-H ) :   0.9433
B( 15-C , 34-H ) :   0.9408 B( 15-C , 35-H ) :   0.9476 B( 16-O , 17-C ) :   0.9125
B( 17-C , 18-C ) :   1.1670 B( 17-C , 36-H ) :   0.9261 B( 17-C , 37-H ) :   0.9332
B( 18-C , 38-H ) :   0.9429 B( 18-C , 39-H ) :   0.9314 B( 18-C , 40-H ) :   0.9346

Dispersion correction           -0.067529614
FINAL SINGLE POINT ENERGY     -2929.518725007308

DIPOLE MOMENT
-------------

Method             : SCF
Type of density    : Electron Density
Multiplicity       :   1
Irrep              :   0
Energy             : -2929.6368437779633496 Eh
Relativity type    :
Basis              : AO
                                X                 Y                 Z
Electronic contribution:     -2.238941954      -7.125976714      -6.234196134
Nuclear contribution   :      1.769409890       6.380117554       7.337821017
                        -----------------------------------------
Total Dipole Moment    :     -0.469532064      -0.745859161       1.103624884
                        -----------------------------------------
Magnitude (a.u.)       :      1.412357650
Magnitude (Debye)      :      3.589927849

Rotational constants in cm-1:             0.013360             0.005028             0.004967
Rotational constants in MHz :           400.530455           150.742496           148.915572

                             ****ORCA TERMINATED NORMALLY****
TOTAL RUN TIME: 0 days 0 hours 0 minutes 21 seconds 604 msec
