                         Program Version 6.0.0  -   RELEASE  -
|  1> ! pbe def2-sv(p) def2/J RI DEFGRID1 loosescf d4 GCP(DFT/SV(P)) printgap
|  2> %output
|  3>     printlevel normal
|  4> end
|  5> * xyz 0 1
|  6> C 1.3181542025 -1.7623313394 2.3346409472
|  7> C 2.80973847 -1.6551464866 2.0941244485
|  8> O 3.1630267957 -0.4469281895 1.3966150151
|  9> P 2.7869055702 -0.189747003 -0.1294582199
| 10> S 2.9370585976 -1.7351897304 -1.3160465084
| 11> O 3.7977070664 0.9575509838 -0.5093358756
| 12> C 3.926110354 2.1709137036 0.2761246428
| 13> C 4.6423822157 3.197276919 -0.5757962608
| 14> S 0.8874578163 0.8137021545 -0.0949923626
| 15> C -0.0265259921 -0.2312645976 -1.2558682996
| 16> S -1.25367635 -1.2752858958 -0.4417300861
| 17> P -2.7266323343 0.2553034183 -0.2230852685
| 18> S -2.9123227518 1.4693965857 -1.7467250123
| 19> O -2.3495004339 1.0863017743 1.0584445904
| 20> C -2.1411882528 0.4920902386 2.3663483752
| 21> C -1.177001896 1.3776405011 3.128225407
| 22> O -4.0026755708 -0.5467211105 0.2800433418
| 23> C -4.5457759783 -1.7282544558 -0.338935087
| 24> C -4.8351502782 -1.5374581986 -1.81286359
| 25> H 0.9499729494 -0.8618639916 2.8193113673
| 26> H 0.7954462493 -1.9020054601 1.3887847697
| 27> H 1.1191415132 -2.6198130398 2.9692610444
| 28> H 3.1697667519 -2.508624448 1.5115370607
| 29> H 3.3643157145 -1.5839733832 3.0309367623
| 30> H 2.924474794 2.5106170605 0.5563628358
| 31> H 4.4913952493 1.9271121717 1.1773616785
| 32> H 5.6130395336 2.8157096988 -0.8792637627
| 33> H 4.0602380664 3.4177758122 -1.466253711
| 34> H 4.7763367677 4.1074901488 -0.0003052447
| 35> H 0.6758075773 -0.8943061449 -1.7661878834
| 36> H -0.5439907602 0.4239945383 -1.9585887798
| 37> H -3.1135714454 0.4359286925 2.8585935363
| 38> H -1.7427377849 -0.5184741747 2.2345934686
| 39> H -1.5893719788 2.3775956225 3.2253831853
| 40> H -1.0108246517 0.9589441013 4.1156783213
| 41> H -0.2324246007 1.44634626 2.594037398
| 42> H -3.8380439048 -2.5477594525 -0.1865522429
| 43> H -5.4601552075 -1.9158456748 0.226576472
| 44> H -5.3176072415 -2.4270291616 -2.2047864838
| 45> H -5.4843814683 -0.6782530848 -1.9645570912
| 46> H -3.9085491708 -1.3668843338 -2.359655246
| 47> *
| 48>
| 49>                          ****END OF INPUT****

CARTESIAN COORDINATES (ANGSTROEM)
---------------------------------
  C      1.318154   -1.762331    2.334641
  C      2.809738   -1.655146    2.094124
  O      3.163027   -0.446928    1.396615
  P      2.786906   -0.189747   -0.129458
  S      2.937059   -1.735190   -1.316047
  O      3.797707    0.957551   -0.509336
  C      3.926110    2.170914    0.276125
  C      4.642382    3.197277   -0.575796
  S      0.887458    0.813702   -0.094992
  C     -0.026526   -0.231265   -1.255868
  S     -1.253676   -1.275286   -0.441730
  P     -2.726632    0.255303   -0.223085
  S     -2.912323    1.469397   -1.746725
  O     -2.349500    1.086302    1.058445
  C     -2.141188    0.492090    2.366348
  C     -1.177002    1.377641    3.128225
  O     -4.002676   -0.546721    0.280043
  C     -4.545776   -1.728254   -0.338935
  C     -4.835150   -1.537458   -1.812864
  H      0.949973   -0.861864    2.819311
  H      0.795446   -1.902005    1.388785
  H      1.119142   -2.619813    2.969261
  H      3.169767   -2.508624    1.511537
  H      3.364316   -1.583973    3.030937
  H      2.924475    2.510617    0.556363
  H      4.491395    1.927112    1.177362
  H      5.613040    2.815710   -0.879264
  H      4.060238    3.417776   -1.466254
  H      4.776337    4.107490   -0.000305
  H      0.675808   -0.894306   -1.766188
  H     -0.543991    0.423995   -1.958589
  H     -3.113571    0.435929    2.858594
  H     -1.742738   -0.518474    2.234593
  H     -1.589372    2.377596    3.225383
  H     -1.010825    0.958944    4.115678
  H     -0.232425    1.446346    2.594037
  H     -3.838044   -2.547759   -0.186552
  H     -5.460155   -1.915846    0.226576
  H     -5.317607   -2.427029   -2.204786
  H     -5.484381   -0.678253   -1.964557
  H     -3.908549   -1.366884   -2.359655

 Total Charge           Charge          ....    0
 Multiplicity           Mult            ....    1
 Number of Electrons    NEL             ....  202
 Basis Dimension        Dim             ....  334

ORBITAL ENERGIES
----------------

  NO   OCC          E(Eh)            E(eV)
   0   2.0000     -88.047150     -2395.8848
   1   2.0000     -88.043668     -2395.7900
   2   2.0000     -87.993837     -2394.4340
   3   2.0000     -87.983325     -2394.1480
   4   2.0000     -76.429341     -2079.7481
   5   2.0000     -76.427024     -2079.6851
   6   2.0000     -18.796936      -511.4906
   7   2.0000     -18.795516      -511.4520
   8   2.0000     -18.794100      -511.4135
   9   2.0000     -18.791842      -511.3520
  10   2.0000      -9.961691      -271.0714
  11   2.0000      -9.960299      -271.0335
  12   2.0000      -9.956984      -270.9433
  13   2.0000      -9.956180      -270.9214
  14   2.0000      -9.950257      -270.7603
  15   2.0000      -9.890879      -269.1445
  16   2.0000      -9.888459      -269.0786
  17   2.0000      -9.888007      -269.0664
  18   2.0000      -9.884696      -268.9762
  19   2.0000      -7.691501      -209.2964
  20   2.0000      -7.688220      -209.2071
  21   2.0000      -7.638950      -207.8664
  22   2.0000      -7.628620      -207.5853
  23   2.0000      -6.427150      -174.8916
  24   2.0000      -6.424458      -174.8184
  25   2.0000      -5.719034      -155.6228
  26   2.0000      -5.715996      -155.5402
  27   2.0000      -5.715988      -155.5399
  28   2.0000      -5.712774      -155.4525
  29   2.0000      -5.708964      -155.3488
  30   2.0000      -5.705328      -155.2499
  31   2.0000      -5.667846      -154.2299
  32   2.0000      -5.659508      -154.0030
  33   2.0000      -5.659167      -153.9938
  34   2.0000      -5.657715      -153.9542
  35   2.0000      -5.649172      -153.7218
  36   2.0000      -5.648632      -153.7071
  37   2.0000      -4.649864      -126.5292
  38   2.0000      -4.648670      -126.4967
  39   2.0000      -4.647685      -126.4699
  40   2.0000      -4.647340      -126.4605
  41   2.0000      -4.646477      -126.4371
  42   2.0000      -4.644399      -126.3805
  43   2.0000      -0.991645       -26.9840
  44   2.0000      -0.990731       -26.9592
  45   2.0000      -0.947595       -25.7854
  46   2.0000      -0.946914       -25.7668
  47   2.0000      -0.763693       -20.7812
  48   2.0000      -0.725547       -19.7431
  49   2.0000      -0.716335       -19.4925
  50   2.0000      -0.693303       -18.8657
  51   2.0000      -0.692360       -18.8401
  52   2.0000      -0.679767       -18.4974
  53   2.0000      -0.652638       -17.7592
  54   2.0000      -0.640528       -17.4296
  55   2.0000      -0.598344       -16.2818
  56   2.0000      -0.590441       -16.0667
  57   2.0000      -0.576007       -15.6740
  58   2.0000      -0.573631       -15.6093
  59   2.0000      -0.563791       -15.3415
  60   2.0000      -0.512875       -13.9560
  61   2.0000      -0.505815       -13.7639
  62   2.0000      -0.478756       -13.0276
  63   2.0000      -0.476668       -12.9708
  64   2.0000      -0.465034       -12.6542
  65   2.0000      -0.450502       -12.2588
  66   2.0000      -0.441619       -12.0171
  67   2.0000      -0.438310       -11.9270
  68   2.0000      -0.436361       -11.8740
  69   2.0000      -0.422668       -11.5014
  70   2.0000      -0.416708       -11.3392
  71   2.0000      -0.400861       -10.9080
  72   2.0000      -0.396662       -10.7937
  73   2.0000      -0.388868       -10.5816
  74   2.0000      -0.384296       -10.4572
  75   2.0000      -0.370166       -10.0727
  76   2.0000      -0.362248        -9.8573
  77   2.0000      -0.359389        -9.7795
  78   2.0000      -0.357577        -9.7302
  79   2.0000      -0.351129        -9.5547
  80   2.0000      -0.349282        -9.5044
  81   2.0000      -0.346621        -9.4320
  82   2.0000      -0.344504        -9.3744
  83   2.0000      -0.340606        -9.2684
  84   2.0000      -0.338726        -9.2172
  85   2.0000      -0.322887        -8.7862
  86   2.0000      -0.317777        -8.6471
  87   2.0000      -0.306308        -8.3351
  88   2.0000      -0.300884        -8.1875
  89   2.0000      -0.298745        -8.1293
  90   2.0000      -0.296846        -8.0776
  91   2.0000      -0.278705        -7.5840
  92   2.0000      -0.274051        -7.4573
  93   2.0000      -0.267326        -7.2743
  94   2.0000      -0.257716        -7.0128
  95   2.0000      -0.235507        -6.4085
  96   2.0000      -0.223007        -6.0683
  97   2.0000      -0.214184        -5.8282
  98   2.0000      -0.209759        -5.7078
  99   2.0000      -0.201453        -5.4818
 100   2.0000      -0.197603        -5.3771
 101   0.0000      -0.044293        -1.2053
 102   0.0000      -0.034006        -0.9253
 103   0.0000      -0.017755        -0.4831
 104   0.0000       0.002366         0.0644
 105   0.0000       0.011915         0.3242

MULLIKEN ATOMIC CHARGES
-----------------------
   0 C :   -0.345624
   1 C :    0.007710
   2 O :   -0.385705
   3 P :    0.602480
   4 S :   -0.300048
   5 O :   -0.358320
   6 C :   -0.021618
   7 C :   -0.277961
   8 S :   -0.106506
   9 C :   -0.353850
  10 S :   -0.114740
  11 P :    0.592377
  12 S :   -0.302393
  13 O :   -0.353038
  14 C :   -0.015267
  15 C :   -0.292694
  16 O :   -0.383052
  17 C :   -0.012344
  18 C :   -0.309580
  19 H :    0.124000
  20 H :    0.136498
  21 H :    0.111370
  22 H :    0.113106
  23 H :    0.103604
  24 H :    0.109504
  25 H :    0.110431
  26 H :    0.123979
  27 H :    0.124631
  28 H :    0.112098
  29 H :    0.194519
  30 H :    0.197277
  31 H :    0.108106
  32 H :    0.106117
  33 H :    0.120965
  34 H :    0.107407
  35 H :    0.134319
  36 H :    0.113580
  37 H :    0.110071
  38 H :    0.112514
  39 H :    0.128196
  40 H :    0.127881
Sum of atomic charges:    0.0000000

LOEWDIN ATOMIC CHARGES
----------------------
   0 C :   -0.373955
   1 C :   -0.114991
   2 O :   -0.251074
   3 P :    0.569767
   4 S :   -0.292963
   5 O :   -0.239400
   6 C :   -0.114654
   7 C :   -0.349275
   8 S :    0.073557
   9 C :   -0.490241
  10 S :    0.075744
  11 P :    0.565534
  12 S :   -0.302797
  13 O :   -0.234488
  14 C :   -0.115244
  15 C :   -0.356191
  16 O :   -0.247222
  17 C :   -0.114116
  18 C :   -0.368811
  19 H :    0.124188
  20 H :    0.113647
  21 H :    0.130793
  22 H :    0.112464
  23 H :    0.118296
  24 H :    0.104896
  25 H :    0.115726
  26 H :    0.131086
  27 H :    0.131592
  28 H :    0.131168
  29 H :    0.125564
  30 H :    0.127506
  31 H :    0.116226
  32 H :    0.103096
  33 H :    0.130130
  34 H :    0.127775
  35 H :    0.121782
  36 H :    0.108508
  37 H :    0.121688
  38 H :    0.130720
  39 H :    0.131277
  40 H :    0.122694

  Mayer bond orders larger than 0.100000
B(  0-C ,  1-C ) :   1.1616 B(  0-C , 19-H ) :   0.9366 B(  0-C , 20-H ) :   0.9262
B(  0-C , 21-H ) :   0.9363 B(  1-C ,  2-O ) :   0.9138 B(  1-C , 22-H ) :   0.9179
B(  1-C , 23-H ) :   0.9334 B(  2-O ,  3-P ) :   1.0811 B(  3-P ,  4-S ) :   1.6350
B(  3-P ,  5-O ) :   1.1423 B(  3-P ,  8-S ) :   0.9447 B(  4-S ,  8-S ) :   0.1152
B(  4-S , 29-H ) :   0.1164 B(  5-O ,  6-C ) :   0.8939 B(  6-C ,  7-C ) :   1.1646
B(  6-C , 24-H ) :   0.9138 B(  6-C , 25-H ) :   0.9288 B(  7-C , 26-H ) :   0.9499
B(  7-C , 27-H ) :   0.9495 B(  7-C , 28-H ) :   0.9404 B(  8-S ,  9-C ) :   1.0098
B(  9-C , 10-S ) :   1.0076 B(  9-C , 29-H ) :   0.8493 B(  9-C , 30-H ) :   0.8599
B( 10-S , 11-P ) :   0.9392 B( 10-S , 12-S ) :   0.1084 B( 11-P , 12-S ) :   1.6509
B( 11-P , 13-O ) :   1.1420 B( 11-P , 16-O ) :   1.0886 B( 12-S , 30-H ) :   0.1013
B( 13-O , 14-C ) :   0.8850 B( 14-C , 15-C ) :   1.1707 B( 14-C , 31-H ) :   0.9314
B( 14-C , 32-H ) :   0.9089 B( 15-C , 33-H ) :   0.9457 B( 15-C , 34-H ) :   0.9391
B( 15-C , 35-H ) :   0.9334 B( 16-O , 17-C ) :   0.9123 B( 17-C , 18-C ) :   1.1670
B( 17-C , 36-H ) :   0.9269 B( 17-C , 37-H ) :   0.9333 B( 18-C , 38-H ) :   0.9349
B( 18-C , 39-H ) :   0.9430 B( 18-C , 40-H ) :   0.9321

Dispersion correction           -0.062941510
FINAL SINGLE POINT ENERGY     -2929.517915081991

DIPOLE MOMENT
-------------

Method             : SCF
Type of density    : Electron Density
Multiplicity       :   1
Irrep              :   0
Energy             : -2929.6396405894229247 Eh
Relativity type    :
Basis              : AO
                                X                 Y                 Z
Electronic contribution:      0.257955192      -0.940197646     -13.481426842
Nuclear contribution   :     -0.318024729       0.537824147      15.389981314
                        -----------------------------------------
Total Dipole Moment    :     -0.060069537      -0.402373499       1.908554472
                        -----------------------------------------
Magnitude (a.u.)       :      1.951433564
Magnitude (Debye)      :      4.960149931

Rotational constants in cm-1:             0.012211             0.004263             0.004230
Rotational constants in MHz :           366.090385           127.801162           126.824111

                             ****ORCA TERMINATED NORMALLY****
TOTAL RUN TIME: 0 days 0 hours 0 minutes 20 seconds 630 msec
