                         Program Version 6.0.1  -  RELEASE   -
|  1> ! pbe def2-sv(p) def2/J RI DEFGRID1 loosescf d4 GCP(DFT/SV(P)) printgap
|  2> %output
|  3>     printlevel normal
|  4> end
|  5> * xyz 0 1
|  6> C 3.9949724014 -2.7808931076 0.4854143038
|  7> C 2.4778921841 -2.7898935295 0.3919930067
|  8> O 2.0233323143 -2.0107446264 -0.7306451712
|  9> C 1.942140096 -0.7059736335 -0.6074798675
| 10> O 2.1970601339 -0.0760775314 0.39979765
| 11> C 1.5015929445 -0.0396807668 -1.8981789502
| 12> C 0.3249116231 0.9080040935 -1.6462458343
| 13> H 0.2451493275 1.6265307657 -2.4652100553
| 14> C 0.493010175 1.6588570006 -0.3392732447
| 15> O -0.255818806 1.4924385987 0.6094812
| 16> O 1.4618361928 2.5219625072 -0.3864104587
| 17> C 1.789446575 3.2427728684 0.8213690857
| 18> C 2.7777462033 4.3321818401 0.4583625822
| 19> S -1.2755075202 0.0382417515 -1.6196628494
| 20> P -1.7744329116 -0.3755892473 0.4136711525
| 21> S -0.5597496098 -1.2410343833 1.6870633773
| 22> O -2.6840982325 0.7841848284 0.9991875529
| 23> C -3.8885188839 1.2256108304 0.344991605
| 24> O -2.9655059274 -1.4082848049 0.0397794307
| 25> C -2.7038558372 -2.7441278072 -0.3887293345
| 26> H 4.4290635572 -3.1307035367 -0.4472500462
| 27> H 4.3511590845 -1.7741352158 0.6915033153
| 28> H 4.3043012354 -3.4344473498 1.2940766369
| 29> H 2.0203420955 -2.3881872093 1.3015148027
| 30> H 2.0946060743 -3.7907091441 0.1944171974
| 31> H 1.2290369224 -0.7960662825 -2.6325452743
| 32> H 2.3479568563 0.5454350045 -2.264202897
| 33> H 0.8646264371 3.6447684479 1.2464043957
| 34> H 2.210532823 2.5189138115 1.5261667469
| 35> H 3.0460074834 4.8807369586 1.354899014
| 36> H 3.6715132148 3.8924690184 0.0271170477
| 37> H 2.3355507822 5.0145963462 -0.2611502073
| 38> H -4.1647973285 2.1446620504 0.8558109126
| 39> H -4.6643230503 0.4699939448 0.4549150343
| 40> H -3.6993059064 1.4120612155 -0.7125091739
| 41> H -2.3755132578 -2.7438217528 -1.4280612991
| 42> H -3.6455284666 -3.2771127317 -0.2840349573
| 43> H -1.93808448 -3.1953865397 0.2456076528
| 44> *
| 45>
| 46>                          ****END OF INPUT****

CARTESIAN COORDINATES (ANGSTROEM)
---------------------------------
  C      3.994972   -2.780893    0.485414
  C      2.477892   -2.789894    0.391993
  O      2.023332   -2.010745   -0.730645
  C      1.942140   -0.705974   -0.607480
  O      2.197060   -0.076078    0.399798
  C      1.501593   -0.039681   -1.898179
  C      0.324912    0.908004   -1.646246
  H      0.245149    1.626531   -2.465210
  C      0.493010    1.658857   -0.339273
  O     -0.255819    1.492439    0.609481
  O      1.461836    2.521963   -0.386410
  C      1.789447    3.242773    0.821369
  C      2.777746    4.332182    0.458363
  S     -1.275508    0.038242   -1.619663
  P     -1.774433   -0.375589    0.413671
  S     -0.559750   -1.241034    1.687063
  O     -2.684098    0.784185    0.999188
  C     -3.888519    1.225611    0.344992
  O     -2.965506   -1.408285    0.039779
  C     -2.703856   -2.744128   -0.388729
  H      4.429064   -3.130704   -0.447250
  H      4.351159   -1.774135    0.691503
  H      4.304301   -3.434447    1.294077
  H      2.020342   -2.388187    1.301515
  H      2.094606   -3.790709    0.194417
  H      1.229037   -0.796066   -2.632545
  H      2.347957    0.545435   -2.264203
  H      0.864626    3.644768    1.246404
  H      2.210533    2.518914    1.526167
  H      3.046007    4.880737    1.354899
  H      3.671513    3.892469    0.027117
  H      2.335551    5.014596   -0.261150
  H     -4.164797    2.144662    0.855811
  H     -4.664323    0.469994    0.454915
  H     -3.699306    1.412061   -0.712509
  H     -2.375513   -2.743822   -1.428061
  H     -3.645528   -3.277113   -0.284035
  H     -1.938084   -3.195387    0.245608

 Total Charge           Charge          ....    0
 Multiplicity           Mult            ....    1
 Number of Electrons    NEL             ....  174
 Basis Dimension        Dim             ....  316

ORBITAL ENERGIES
----------------

  NO   OCC          E(Eh)            E(eV)
   0   2.0000     -88.033030     -2395.5005
   1   2.0000     -87.958932     -2393.4842
   2   2.0000     -76.414233     -2079.3370
   3   2.0000     -18.814008      -511.9552
   4   2.0000     -18.803887      -511.6798
   5   2.0000     -18.771853      -510.8081
   6   2.0000     -18.770220      -510.7637
   7   2.0000     -18.751684      -510.2593
   8   2.0000     -18.738629      -509.9040
   9   2.0000     -10.023909      -272.7644
  10   2.0000     -10.012221      -272.4464
  11   2.0000      -9.953750      -270.8553
  12   2.0000      -9.949652      -270.7438
  13   2.0000      -9.940637      -270.4985
  14   2.0000      -9.935112      -270.3481
  15   2.0000      -9.927247      -270.1341
  16   2.0000      -9.916640      -269.8455
  17   2.0000      -9.891568      -269.1632
  18   2.0000      -9.883682      -268.9487
  19   2.0000      -7.677871      -208.9255
  20   2.0000      -7.604147      -206.9194
  21   2.0000      -6.409053      -174.3992
  22   2.0000      -5.705971      -155.2674
  23   2.0000      -5.701915      -155.1570
  24   2.0000      -5.695092      -154.9713
  25   2.0000      -5.633485      -153.2949
  26   2.0000      -5.624872      -153.0605
  27   2.0000      -5.623675      -153.0280
  28   2.0000      -4.632289      -126.0510
  29   2.0000      -4.631175      -126.0207
  30   2.0000      -4.629156      -125.9657
  31   2.0000      -1.025795       -27.9133
  32   2.0000      -1.010050       -27.4849
  33   2.0000      -0.966736       -26.3062
  34   2.0000      -0.929964       -25.3056
  35   2.0000      -0.919180       -25.0122
  36   2.0000      -0.916760       -24.9463
  37   2.0000      -0.765992       -20.8437
  38   2.0000      -0.713123       -19.4051
  39   2.0000      -0.705510       -19.1979
  40   2.0000      -0.682633       -18.5754
  41   2.0000      -0.654136       -17.7999
  42   2.0000      -0.622926       -16.9507
  43   2.0000      -0.618144       -16.8205
  44   2.0000      -0.602034       -16.3822
  45   2.0000      -0.594221       -16.1696
  46   2.0000      -0.560702       -15.2575
  47   2.0000      -0.516122       -14.0444
  48   2.0000      -0.499959       -13.6046
  49   2.0000      -0.497162       -13.5285
  50   2.0000      -0.484910       -13.1951
  51   2.0000      -0.461020       -12.5450
  52   2.0000      -0.456663       -12.4264
  53   2.0000      -0.450807       -12.2671
  54   2.0000      -0.434789       -11.8312
  55   2.0000      -0.432702       -11.7744
  56   2.0000      -0.420941       -11.4544
  57   2.0000      -0.414275       -11.2730
  58   2.0000      -0.408460       -11.1148
  59   2.0000      -0.399650       -10.8750
  60   2.0000      -0.397857       -10.8262
  61   2.0000      -0.393301       -10.7023
  62   2.0000      -0.386179       -10.5085
  63   2.0000      -0.383763       -10.4427
  64   2.0000      -0.372047       -10.1239
  65   2.0000      -0.364547        -9.9198
  66   2.0000      -0.358881        -9.7656
  67   2.0000      -0.356650        -9.7049
  68   2.0000      -0.353179        -9.6105
  69   2.0000      -0.336048        -9.1443
  70   2.0000      -0.328944        -8.9510
  71   2.0000      -0.324506        -8.8303
  72   2.0000      -0.319186        -8.6855
  73   2.0000      -0.313634        -8.5344
  74   2.0000      -0.303015        -8.2455
  75   2.0000      -0.290972        -7.9177
  76   2.0000      -0.282591        -7.6897
  77   2.0000      -0.279022        -7.5926
  78   2.0000      -0.272386        -7.4120
  79   2.0000      -0.257409        -7.0044
  80   2.0000      -0.254325        -6.9205
  81   2.0000      -0.242109        -6.5881
  82   2.0000      -0.236107        -6.4248
  83   2.0000      -0.225632        -6.1398
  84   2.0000      -0.222372        -6.0511
  85   2.0000      -0.179967        -4.8971
  86   2.0000      -0.169384        -4.6092
  87   0.0000      -0.037974        -1.0333
  88   0.0000      -0.029204        -0.7947
  89   0.0000      -0.023841        -0.6487
  90   0.0000       0.004600         0.1252
  91   0.0000       0.034661         0.9432

MULLIKEN ATOMIC CHARGES
-----------------------
   0 C :   -0.307563
   1 C :   -0.020190
   2 O :   -0.216713
   3 C :    0.106332
   4 O :   -0.202077
   5 C :   -0.031734
   6 C :   -0.285984
   7 H :    0.143919
   8 C :    0.220434
   9 O :   -0.194413
  10 O :   -0.221768
  11 C :   -0.029261
  12 C :   -0.276997
  13 S :   -0.116201
  14 P :    0.638598
  15 S :   -0.326992
  16 O :   -0.366353
  17 C :   -0.096279
  18 O :   -0.410033
  19 C :   -0.096152
  20 H :    0.108915
  21 H :    0.125172
  22 H :    0.114407
  23 H :    0.134639
  24 H :    0.101325
  25 H :    0.115265
  26 H :    0.122756
  27 H :    0.114481
  28 H :    0.127499
  29 H :    0.115330
  30 H :    0.117375
  31 H :    0.112989
  32 H :    0.122676
  33 H :    0.120970
  34 H :    0.106483
  35 H :    0.105521
  36 H :    0.114914
  37 H :    0.108707
Sum of atomic charges:   -0.0000000

LOEWDIN ATOMIC CHARGES
----------------------
   0 C :   -0.357776
   1 C :   -0.112218
   2 O :   -0.042544
   3 C :    0.030121
   4 O :   -0.156037
   5 C :   -0.246605
   6 C :   -0.260415
   7 H :    0.146533
   8 C :    0.022435
   9 O :   -0.141601
  10 O :   -0.039201
  11 C :   -0.102118
  12 C :   -0.350655
  13 S :    0.085329
  14 P :    0.585485
  15 S :   -0.317333
  16 O :   -0.241838
  17 C :   -0.209346
  18 O :   -0.275708
  19 C :   -0.222870
  20 H :    0.122106
  21 H :    0.128899
  22 H :    0.131698
  23 H :    0.122128
  24 H :    0.118553
  25 H :    0.135659
  26 H :    0.147773
  27 H :    0.120373
  28 H :    0.128471
  29 H :    0.133139
  30 H :    0.127861
  31 H :    0.125446
  32 H :    0.121214
  33 H :    0.114848
  34 H :    0.104006
  35 H :    0.102996
  36 H :    0.117148
  37 H :    0.104047

  Mayer bond orders larger than 0.100000
B(  0-C ,  1-C ) :   1.1654 B(  0-C , 20-H ) :   0.9476 B(  0-C , 21-H ) :   0.9458
B(  0-C , 22-H ) :   0.9447 B(  1-C ,  2-O ) :   0.9067 B(  1-C , 23-H ) :   0.9074
B(  1-C , 24-H ) :   0.9392 B(  2-O ,  3-C ) :   1.2683 B(  3-C ,  4-O ) :   1.9507
B(  3-C ,  5-C ) :   1.0016 B(  4-O ,  8-C ) :   0.1081 B(  5-C ,  6-C ) :   1.0244
B(  5-C , 25-H ) :   0.9044 B(  5-C , 26-H ) :   0.8764 B(  6-C ,  7-H ) :   0.8772
B(  6-C ,  8-C ) :   0.9132 B(  6-C , 13-S ) :   1.0286 B(  8-C ,  9-O ) :   1.9059
B(  8-C , 10-O ) :   1.2685 B(  9-O , 14-P ) :   0.1648 B( 10-O , 11-C ) :   0.8906
B( 11-C , 12-C ) :   1.1544 B( 11-C , 27-H ) :   0.9286 B( 11-C , 28-H ) :   0.9265
B( 12-C , 29-H ) :   0.9432 B( 12-C , 30-H ) :   0.9489 B( 12-C , 31-H ) :   0.9513
B( 13-S , 14-P ) :   0.9310 B( 13-S , 15-S ) :   0.1101 B( 14-P , 15-S ) :   1.6131
B( 14-P , 16-O ) :   1.1043 B( 14-P , 18-O ) :   1.0006 B( 16-O , 17-C ) :   0.9308
B( 17-C , 32-H ) :   0.9588 B( 17-C , 33-H ) :   0.9486 B( 17-C , 34-H ) :   0.9385
B( 18-O , 19-C ) :   0.9477 B( 19-C , 35-H ) :   0.9480 B( 19-C , 36-H ) :   0.9590
B( 19-C , 37-H ) :   0.9267

Dispersion correction           -0.053167102
FINAL SINGLE POINT ENERGY     -1979.005733766861

DIPOLE MOMENT
-------------

Method             : SCF
Type of density    : Electron Density
Multiplicity       :   1
Irrep              :   0
Energy             : -1979.1354986647579608 Eh
Relativity type    :
Basis              : AO
                                X                 Y                 Z
Electronic contribution:    -12.897394512      -1.355596876       0.251933878
Nuclear contribution   :     13.514690675       1.909175731      -1.579775474
                        -----------------------------------------
Total Dipole Moment    :      0.617296163       0.553578854      -1.327841596
                        -----------------------------------------
Magnitude (a.u.)       :      1.565460765
Magnitude (Debye)      :      3.979085041

Rotational constants in cm-1:             0.011350             0.008913             0.006284
Rotational constants in MHz :           340.261142           267.194198           188.392501

                             ****ORCA TERMINATED NORMALLY****
TOTAL RUN TIME: 0 days 0 hours 0 minutes 37 seconds 717 msec
