                         Program Version 6.0.0  -   RELEASE  -
|  1> ! pbe def2-sv(p) def2/J RI DEFGRID1 loosescf d4 GCP(DFT/SV(P)) printgap
|  2> %output
|  3>     printlevel normal
|  4> end
|  5> * xyz 0 1
|  6> C 2.2686015073 0.6742698561 3.0764192284
|  7> C 1.6379571664 -0.6388257846 2.6669941961
|  8> O 2.2724873371 -1.257599605 1.5191325462
|  9> P 2.6897178854 -0.6061101211 0.151744266
| 10> S 3.0155703532 -2.0535580925 -1.130308354
| 11> O 3.9200661387 0.3106709499 0.5505368542
| 12> C 4.4631332838 1.3764930186 -0.2490771564
| 13> C 4.8505025124 0.9285907052 -1.6428919815
| 14> S 1.1778420298 0.7932090492 -0.4328881204
| 15> C 0.0337424723 -0.4292404216 -1.1070447866
| 16> S -1.2042164959 -0.9650691929 0.0958298672
| 17> P -2.690867663 0.4541298213 -0.5006306672
| 18> S -3.0271230485 0.4576576022 -2.4318190256
| 19> O -2.1940324619 1.8689632775 -0.0183548939
| 20> C -2.3503872888 2.4309639329 1.3095386698
| 21> C -1.539463104 1.6862169276 2.3475665795
| 22> O -3.9341239157 0.1649290798 0.4401517313
| 23> C -4.9511813713 -0.7968453046 0.1039582261
| 24> C -4.4141087516 -2.2124619102 0.0699122861
| 25> H 1.793720319 1.0202521476 3.989540157
| 26> H 3.332701083 0.5419317364 3.2532850095
| 27> H 2.1328909793 1.4245154632 2.2997198196
| 28> H 0.5785817541 -0.5162357168 2.4272192816
| 29> H 1.7481828825 -1.3952691253 3.4455422215
| 30> H 3.7233474839 2.1805963872 -0.2946703094
| 31> H 5.3350665365 1.7048807705 0.3192908518
| 32> H 5.5313689874 0.0819572498 -1.5941287489
| 33> H 3.9664357033 0.6237272968 -2.2015100282
| 34> H 5.3328142477 1.7484329729 -2.1654710788
| 35> H 0.6083564498 -1.3049215431 -1.4190078333
| 36> H -0.4800109336 0.0185195899 -1.9595700726
| 37> H -1.9991148623 3.4561746568 1.1844521623
| 38> H -3.4125375261 2.425830182 1.5599113326
| 39> H -1.9144729475 0.6709982103 2.46113569
| 40> H -0.4953237945 1.6539067964 2.0476188649
| 41> H -1.621595785 2.2030974673 3.298434575
| 42> H -5.6983359887 -0.6675260914 0.8882958873
| 43> H -5.3765882855 -0.5244888434 -0.8666460301
| 44> H -3.7181667002 -2.3272784838 -0.7602067572
| 45> H -3.8955133566 -2.4462611182 0.9963134172
| 46> H -5.2379547586 -2.9055146827 -0.0671852299
| 47> *
| 48>
| 49>                          ****END OF INPUT****

CARTESIAN COORDINATES (ANGSTROEM)
---------------------------------
  C      2.268602    0.674270    3.076419
  C      1.637957   -0.638826    2.666994
  O      2.272487   -1.257600    1.519133
  P      2.689718   -0.606110    0.151744
  S      3.015570   -2.053558   -1.130308
  O      3.920066    0.310671    0.550537
  C      4.463133    1.376493   -0.249077
  C      4.850503    0.928591   -1.642892
  S      1.177842    0.793209   -0.432888
  C      0.033742   -0.429240   -1.107045
  S     -1.204216   -0.965069    0.095830
  P     -2.690868    0.454130   -0.500631
  S     -3.027123    0.457658   -2.431819
  O     -2.194032    1.868963   -0.018355
  C     -2.350387    2.430964    1.309539
  C     -1.539463    1.686217    2.347567
  O     -3.934124    0.164929    0.440152
  C     -4.951181   -0.796845    0.103958
  C     -4.414109   -2.212462    0.069912
  H      1.793720    1.020252    3.989540
  H      3.332701    0.541932    3.253285
  H      2.132891    1.424515    2.299720
  H      0.578582   -0.516236    2.427219
  H      1.748183   -1.395269    3.445542
  H      3.723347    2.180596   -0.294670
  H      5.335067    1.704881    0.319291
  H      5.531369    0.081957   -1.594129
  H      3.966436    0.623727   -2.201510
  H      5.332814    1.748433   -2.165471
  H      0.608356   -1.304922   -1.419008
  H     -0.480011    0.018520   -1.959570
  H     -1.999115    3.456175    1.184452
  H     -3.412538    2.425830    1.559911
  H     -1.914473    0.670998    2.461136
  H     -0.495324    1.653907    2.047619
  H     -1.621596    2.203097    3.298435
  H     -5.698336   -0.667526    0.888296
  H     -5.376588   -0.524489   -0.866646
  H     -3.718167   -2.327278   -0.760207
  H     -3.895513   -2.446261    0.996313
  H     -5.237955   -2.905515   -0.067185

 Total Charge           Charge          ....    0
 Multiplicity           Mult            ....    1
 Number of Electrons    NEL             ....  202
 Basis Dimension        Dim             ....  334

ORBITAL ENERGIES
----------------

  NO   OCC          E(Eh)            E(eV)
   0   2.0000     -88.046104     -2395.8563
   1   2.0000     -88.043725     -2395.7916
   2   2.0000     -87.986631     -2394.2379
   3   2.0000     -87.979057     -2394.0319
   4   2.0000     -76.431605     -2079.8097
   5   2.0000     -76.427668     -2079.7026
   6   2.0000     -18.805010      -511.7103
   7   2.0000     -18.796832      -511.4878
   8   2.0000     -18.795982      -511.4647
   9   2.0000     -18.791016      -511.3295
  10   2.0000      -9.962753      -271.1003
  11   2.0000      -9.961439      -271.0645
  12   2.0000      -9.961313      -271.0611
  13   2.0000      -9.958105      -270.9738
  14   2.0000      -9.949989      -270.7530
  15   2.0000      -9.893881      -269.2262
  16   2.0000      -9.892804      -269.1969
  17   2.0000      -9.889475      -269.1063
  18   2.0000      -9.883111      -268.9331
  19   2.0000      -7.690683      -209.2741
  20   2.0000      -7.688413      -209.2123
  21   2.0000      -7.631869      -207.6737
  22   2.0000      -7.624376      -207.4698
  23   2.0000      -6.429025      -174.9427
  24   2.0000      -6.424706      -174.8251
  25   2.0000      -5.718211      -155.6004
  26   2.0000      -5.716058      -155.5418
  27   2.0000      -5.715221      -155.5191
  28   2.0000      -5.713165      -155.4631
  29   2.0000      -5.708078      -155.3247
  30   2.0000      -5.705438      -155.2529
  31   2.0000      -5.660925      -154.0416
  32   2.0000      -5.653517      -153.8400
  33   2.0000      -5.652757      -153.8193
  34   2.0000      -5.651609      -153.7881
  35   2.0000      -5.645057      -153.6098
  36   2.0000      -5.644199      -153.5865
  37   2.0000      -4.652321      -126.5961
  38   2.0000      -4.650472      -126.5458
  39   2.0000      -4.649104      -126.5086
  40   2.0000      -4.647538      -126.4659
  41   2.0000      -4.646915      -126.4490
  42   2.0000      -4.644561      -126.3849
  43   2.0000      -0.996482       -27.1157
  44   2.0000      -0.989309       -26.9205
  45   2.0000      -0.952562       -25.9205
  46   2.0000      -0.947651       -25.7869
  47   2.0000      -0.764861       -20.8129
  48   2.0000      -0.725981       -19.7550
  49   2.0000      -0.716771       -19.5043
  50   2.0000      -0.698142       -18.9974
  51   2.0000      -0.694036       -18.8857
  52   2.0000      -0.682273       -18.5656
  53   2.0000      -0.652904       -17.7664
  54   2.0000      -0.636636       -17.3238
  55   2.0000      -0.601963       -16.3803
  56   2.0000      -0.593208       -16.1420
  57   2.0000      -0.587029       -15.9739
  58   2.0000      -0.582327       -15.8459
  59   2.0000      -0.561232       -15.2719
  60   2.0000      -0.503841       -13.7102
  61   2.0000      -0.495976       -13.4962
  62   2.0000      -0.478529       -13.0214
  63   2.0000      -0.474447       -12.9104
  64   2.0000      -0.463822       -12.6212
  65   2.0000      -0.455075       -12.3832
  66   2.0000      -0.446102       -12.1391
  67   2.0000      -0.441330       -12.0092
  68   2.0000      -0.433609       -11.7991
  69   2.0000      -0.428436       -11.6583
  70   2.0000      -0.414223       -11.2716
  71   2.0000      -0.407797       -11.0967
  72   2.0000      -0.405550       -11.0356
  73   2.0000      -0.397892       -10.8272
  74   2.0000      -0.379893       -10.3374
  75   2.0000      -0.373539       -10.1645
  76   2.0000      -0.366602        -9.9757
  77   2.0000      -0.360287        -9.8039
  78   2.0000      -0.358060        -9.7433
  79   2.0000      -0.355717        -9.6796
  80   2.0000      -0.350850        -9.5471
  81   2.0000      -0.347664        -9.4604
  82   2.0000      -0.346943        -9.4408
  83   2.0000      -0.342855        -9.3296
  84   2.0000      -0.340498        -9.2654
  85   2.0000      -0.329229        -8.9588
  86   2.0000      -0.317799        -8.6477
  87   2.0000      -0.304278        -8.2798
  88   2.0000      -0.301465        -8.2033
  89   2.0000      -0.296925        -8.0797
  90   2.0000      -0.287885        -7.8338
  91   2.0000      -0.279765        -7.6128
  92   2.0000      -0.277643        -7.5551
  93   2.0000      -0.267053        -7.2669
  94   2.0000      -0.260836        -7.0977
  95   2.0000      -0.239856        -6.5268
  96   2.0000      -0.224739        -6.1155
  97   2.0000      -0.210845        -5.7374
  98   2.0000      -0.199788        -5.4365
  99   2.0000      -0.194719        -5.2986
 100   2.0000      -0.191737        -5.2174
 101   0.0000      -0.043770        -1.1911
 102   0.0000      -0.034598        -0.9415
 103   0.0000      -0.014651        -0.3987
 104   0.0000      -0.000288        -0.0078
 105   0.0000       0.018694         0.5087

MULLIKEN ATOMIC CHARGES
-----------------------
   0 C :   -0.321100
   1 C :   -0.011620
   2 O :   -0.356843
   3 P :    0.588222
   4 S :   -0.303168
   5 O :   -0.374587
   6 C :   -0.012574
   7 C :   -0.307898
   8 S :   -0.116002
   9 C :   -0.351473
  10 S :   -0.093589
  11 P :    0.601355
  12 S :   -0.305951
  13 O :   -0.363105
  14 C :    0.015525
  15 C :   -0.354668
  16 O :   -0.386226
  17 C :   -0.000605
  18 C :   -0.325737
  19 H :    0.113382
  20 H :    0.126339
  21 H :    0.123858
  22 H :    0.126678
  23 H :    0.109902
  24 H :    0.111262
  25 H :    0.109738
  26 H :    0.128304
  27 H :    0.128950
  28 H :    0.111383
  29 H :    0.194730
  30 H :    0.190967
  31 H :    0.111156
  32 H :    0.110356
  33 H :    0.128126
  34 H :    0.145179
  35 H :    0.111969
  36 H :    0.106216
  37 H :    0.117051
  38 H :    0.137920
  39 H :    0.118160
  40 H :    0.118417
Sum of atomic charges:    0.0000000

LOEWDIN ATOMIC CHARGES
----------------------
   0 C :   -0.368940
   1 C :   -0.111804
   2 O :   -0.234288
   3 P :    0.571245
   4 S :   -0.308207
   5 O :   -0.240174
   6 C :   -0.114034
   7 C :   -0.368708
   8 S :    0.063174
   9 C :   -0.491696
  10 S :    0.080401
  11 P :    0.576924
  12 S :   -0.312232
  13 O :   -0.240397
  14 C :   -0.104676
  15 C :   -0.374213
  16 O :   -0.245066
  17 C :   -0.115029
  18 C :   -0.371767
  19 H :    0.130884
  20 H :    0.129707
  21 H :    0.115364
  22 H :    0.108496
  23 H :    0.123823
  24 H :    0.107375
  25 H :    0.121487
  26 H :    0.131308
  27 H :    0.123305
  28 H :    0.130226
  29 H :    0.128609
  30 H :    0.128553
  31 H :    0.123426
  32 H :    0.115021
  33 H :    0.118963
  34 H :    0.124025
  35 H :    0.130403
  36 H :    0.119191
  37 H :    0.115639
  38 H :    0.125668
  39 H :    0.123771
  40 H :    0.134242

  Mayer bond orders larger than 0.100000
B(  0-C ,  1-C ) :   1.1716 B(  0-C , 19-H ) :   0.9352 B(  0-C , 20-H ) :   0.9401
B(  0-C , 21-H ) :   0.9322 B(  1-C ,  2-O ) :   0.8965 B(  1-C , 22-H ) :   0.9133
B(  1-C , 23-H ) :   0.9333 B(  2-O ,  3-P ) :   1.1464 B(  3-P ,  4-S ) :   1.6328
B(  3-P ,  5-O ) :   1.0970 B(  3-P ,  8-S ) :   0.9316 B(  4-S ,  8-S ) :   0.1114
B(  4-S , 29-H ) :   0.1211 B(  5-O ,  6-C ) :   0.9098 B(  6-C ,  7-C ) :   1.1678
B(  6-C , 24-H ) :   0.9261 B(  6-C , 25-H ) :   0.9334 B(  7-C , 26-H ) :   0.9428
B(  7-C , 27-H ) :   0.9323 B(  7-C , 28-H ) :   0.9347 B(  8-S ,  9-C ) :   0.9980
B(  9-C , 10-S ) :   0.9985 B(  9-C , 29-H ) :   0.8491 B(  9-C , 30-H ) :   0.8592
B( 10-S , 11-P ) :   0.9460 B( 10-S , 12-S ) :   0.1103 B( 11-P , 12-S ) :   1.6342
B( 11-P , 13-O ) :   1.1341 B( 11-P , 16-O ) :   1.0841 B( 12-S , 30-H ) :   0.1007
B( 13-O , 14-C ) :   0.8979 B( 14-C , 15-C ) :   1.1692 B( 14-C , 31-H ) :   0.9342
B( 14-C , 32-H ) :   0.9275 B( 15-C , 33-H ) :   0.9368 B( 15-C , 34-H ) :   0.9251
B( 15-C , 35-H ) :   0.9335 B( 16-O , 17-C ) :   0.8981 B( 17-C , 18-C ) :   1.1663
B( 17-C , 36-H ) :   0.9336 B( 17-C , 37-H ) :   0.9187 B( 18-C , 38-H ) :   0.9317
B( 18-C , 39-H ) :   0.9441 B( 18-C , 40-H ) :   0.9364

Dispersion correction           -0.064939363
FINAL SINGLE POINT ENERGY     -2929.509766963535

DIPOLE MOMENT
-------------

Method             : SCF
Type of density    : Electron Density
Multiplicity       :   1
Irrep              :   0
Energy             : -2929.6309534518072724 Eh
Relativity type    :
Basis              : AO
                                X                 Y                 Z
Electronic contribution:     -0.722613000      -6.190231867     -14.190643868
Nuclear contribution   :      0.222471751       7.396333612      16.262531854
                        -----------------------------------------
Total Dipole Moment    :     -0.500141248       1.206101745       2.071887985
                        -----------------------------------------
Magnitude (a.u.)       :      2.448988058
Magnitude (Debye)      :      6.224832949

Rotational constants in cm-1:             0.013131             0.004386             0.004149
Rotational constants in MHz :           393.653119           131.483050           124.382371

                             ****ORCA TERMINATED NORMALLY****
TOTAL RUN TIME: 0 days 0 hours 0 minutes 21 seconds 687 msec
