                         Program Version 6.0.1  -  RELEASE   -
|  1> ! pbe def2-sv(p) def2/J RI DEFGRID1 loosescf d4 GCP(DFT/SV(P)) printgap
|  2> %output
|  3>     printlevel normal
|  4> end
|  5> * xyz 0 1
|  6> C 3.9501979796 -2.7400280204 0.4767998437
|  7> C 2.4320451262 -2.6912613994 0.4202721761
|  8> O 1.9820025412 -1.9333691931 -0.7183851957
|  9> C 1.9419194275 -0.6224060031 -0.6347864889
| 10> O 2.2238909218 0.0293308753 0.3495910797
| 11> C 1.5029022828 0.014069816 -1.9413971806
| 12> C 0.2772776893 0.9059235524 -1.7246942462
| 13> H 0.1475431483 1.5679822202 -2.5841458709
| 14> C 0.4133403404 1.7465198523 -0.4683126216
| 15> O -0.3208923552 1.5964211533 0.4939388995
| 16> O 1.3329572406 2.6545280565 -0.5896240708
| 17> C 1.6503489609 3.5100993842 0.5320983913
| 18> C 3.0526978763 3.1962713546 1.0224544461
| 19> S -1.2677850951 -0.0557743059 -1.6274257474
| 20> P -1.7557737047 -0.3432271368 0.430868239
| 21> S -0.5174545332 -1.0508186837 1.7767199738
| 22> O -2.7213827598 0.8156552528 0.9214734011
| 23> C -3.9369561504 1.15286648 0.2273746477
| 24> O -2.8947540474 -1.455229057 0.1290026613
| 25> C -2.5675753688 -2.8075966871 -0.1876664075
| 26> H 4.2541986221 -3.3762491635 1.3011603686
| 27> H 4.3461358681 -3.1399624953 -0.4526703692
| 28> H 4.3511108163 -1.7418387631 0.6369502915
| 29> H 2.0140578111 -2.2410271993 1.3260450507
| 30> H 2.0053405566 -3.6824098973 0.2675942132
| 31> H 1.2778826077 -0.7608849398 -2.6724268821
| 32> H 2.3268215696 0.6370735446 -2.2951272041
| 33> H 1.5792502608 4.5285501388 0.1457099833
| 34> H 0.9083524855 3.3477459432 1.3178462316
| 35> H 3.1105884657 2.151209074 1.3184199465
| 36> H 3.775971795 3.3803874737 0.2339001426
| 37> H 3.2820257228 3.8230722307 1.877620208
| 38> H -3.7482145217 1.2534246548 -0.8418350089
| 39> H -4.2510702199 2.1017708613 0.6549588544
| 40> H -4.6843392785 0.3805939584 0.4003535304
| 41> H -3.4879942016 -3.3714876258 -0.0587908982
| 42> H -1.7975856478 -3.1736547427 0.4946996604
| 43> H -2.2162509605 -2.8746631568 -1.2173338009
| 44> *
| 45>
| 46>                          ****END OF INPUT****

CARTESIAN COORDINATES (ANGSTROEM)
---------------------------------
  C      3.950198   -2.740028    0.476800
  C      2.432045   -2.691261    0.420272
  O      1.982003   -1.933369   -0.718385
  C      1.941919   -0.622406   -0.634786
  O      2.223891    0.029331    0.349591
  C      1.502902    0.014070   -1.941397
  C      0.277278    0.905924   -1.724694
  H      0.147543    1.567982   -2.584146
  C      0.413340    1.746520   -0.468313
  O     -0.320892    1.596421    0.493939
  O      1.332957    2.654528   -0.589624
  C      1.650349    3.510099    0.532098
  C      3.052698    3.196271    1.022454
  S     -1.267785   -0.055774   -1.627426
  P     -1.755774   -0.343227    0.430868
  S     -0.517455   -1.050819    1.776720
  O     -2.721383    0.815655    0.921473
  C     -3.936956    1.152866    0.227375
  O     -2.894754   -1.455229    0.129003
  C     -2.567575   -2.807597   -0.187666
  H      4.254199   -3.376249    1.301160
  H      4.346136   -3.139962   -0.452670
  H      4.351111   -1.741839    0.636950
  H      2.014058   -2.241027    1.326045
  H      2.005341   -3.682410    0.267594
  H      1.277883   -0.760885   -2.672427
  H      2.326822    0.637074   -2.295127
  H      1.579250    4.528550    0.145710
  H      0.908352    3.347746    1.317846
  H      3.110588    2.151209    1.318420
  H      3.775972    3.380387    0.233900
  H      3.282026    3.823072    1.877620
  H     -3.748215    1.253425   -0.841835
  H     -4.251070    2.101771    0.654959
  H     -4.684339    0.380594    0.400354
  H     -3.487994   -3.371488   -0.058791
  H     -1.797586   -3.173655    0.494700
  H     -2.216251   -2.874663   -1.217334

 Total Charge           Charge          ....    0
 Multiplicity           Mult            ....    1
 Number of Electrons    NEL             ....  174
 Basis Dimension        Dim             ....  316

ORBITAL ENERGIES
----------------

  NO   OCC          E(Eh)            E(eV)
   0   2.0000     -88.033645     -2395.5173
   1   2.0000     -87.959792     -2393.5076
   2   2.0000     -76.414840     -2079.3535
   3   2.0000     -18.815831      -512.0048
   4   2.0000     -18.803961      -511.6818
   5   2.0000     -18.772389      -510.8227
   6   2.0000     -18.770833      -510.7803
   7   2.0000     -18.753407      -510.3061
   8   2.0000     -18.740264      -509.9485
   9   2.0000     -10.026312      -272.8298
  10   2.0000     -10.012847      -272.4634
  11   2.0000      -9.954872      -270.8858
  12   2.0000      -9.950289      -270.7611
  13   2.0000      -9.940568      -270.4966
  14   2.0000      -9.935408      -270.3562
  15   2.0000      -9.927853      -270.1506
  16   2.0000      -9.917050      -269.8567
  17   2.0000      -9.884059      -268.9589
  18   2.0000      -9.881726      -268.8954
  19   2.0000      -7.678457      -208.9414
  20   2.0000      -7.604995      -206.9424
  21   2.0000      -6.409660      -174.4157
  22   2.0000      -5.706571      -155.2837
  23   2.0000      -5.702486      -155.1725
  24   2.0000      -5.695685      -154.9875
  25   2.0000      -5.634385      -153.3194
  26   2.0000      -5.625706      -153.0833
  27   2.0000      -5.624490      -153.0502
  28   2.0000      -4.632890      -126.0673
  29   2.0000      -4.631781      -126.0372
  30   2.0000      -4.629773      -125.9825
  31   2.0000      -1.026395       -27.9296
  32   2.0000      -1.010448       -27.4957
  33   2.0000      -0.967274       -26.3209
  34   2.0000      -0.932242       -25.3676
  35   2.0000      -0.919908       -25.0320
  36   2.0000      -0.918028       -24.9808
  37   2.0000      -0.766720       -20.8635
  38   2.0000      -0.710460       -19.3326
  39   2.0000      -0.705055       -19.1855
  40   2.0000      -0.682717       -18.5777
  41   2.0000      -0.654433       -17.8080
  42   2.0000      -0.623082       -16.9549
  43   2.0000      -0.618685       -16.8353
  44   2.0000      -0.602723       -16.4009
  45   2.0000      -0.594570       -16.1791
  46   2.0000      -0.563700       -15.3391
  47   2.0000      -0.510448       -13.8900
  48   2.0000      -0.500924       -13.6308
  49   2.0000      -0.497880       -13.5480
  50   2.0000      -0.484345       -13.1797
  51   2.0000      -0.463418       -12.6103
  52   2.0000      -0.459001       -12.4900
  53   2.0000      -0.446323       -12.1451
  54   2.0000      -0.435031       -11.8378
  55   2.0000      -0.428909       -11.6712
  56   2.0000      -0.422486       -11.4964
  57   2.0000      -0.414731       -11.2854
  58   2.0000      -0.411980       -11.2105
  59   2.0000      -0.399504       -10.8711
  60   2.0000      -0.397131       -10.8065
  61   2.0000      -0.394942       -10.7469
  62   2.0000      -0.386732       -10.5235
  63   2.0000      -0.382908       -10.4195
  64   2.0000      -0.378186       -10.2910
  65   2.0000      -0.364944        -9.9306
  66   2.0000      -0.357062        -9.7161
  67   2.0000      -0.354798        -9.6545
  68   2.0000      -0.345440        -9.3999
  69   2.0000      -0.335846        -9.1388
  70   2.0000      -0.330225        -8.9859
  71   2.0000      -0.328544        -8.9401
  72   2.0000      -0.321308        -8.7432
  73   2.0000      -0.307523        -8.3681
  74   2.0000      -0.299643        -8.1537
  75   2.0000      -0.290845        -7.9143
  76   2.0000      -0.282207        -7.6793
  77   2.0000      -0.279848        -7.6150
  78   2.0000      -0.272877        -7.4254
  79   2.0000      -0.258588        -7.0365
  80   2.0000      -0.254694        -6.9306
  81   2.0000      -0.242915        -6.6101
  82   2.0000      -0.238121        -6.4796
  83   2.0000      -0.226551        -6.1648
  84   2.0000      -0.223168        -6.0727
  85   2.0000      -0.180697        -4.9170
  86   2.0000      -0.170164        -4.6304
  87   0.0000      -0.039947        -1.0870
  88   0.0000      -0.030428        -0.8280
  89   0.0000      -0.024623        -0.6700
  90   0.0000       0.003922         0.1067
  91   0.0000       0.033945         0.9237

MULLIKEN ATOMIC CHARGES
-----------------------
   0 C :   -0.306337
   1 C :   -0.022662
   2 O :   -0.217095
   3 C :    0.107702
   4 O :   -0.197397
   5 C :   -0.030217
   6 C :   -0.295459
   7 H :    0.146277
   8 C :    0.224147
   9 O :   -0.188678
  10 O :   -0.223192
  11 C :   -0.024206
  12 C :   -0.303096
  13 S :   -0.115153
  14 P :    0.637481
  15 S :   -0.325127
  16 O :   -0.366724
  17 C :   -0.096076
  18 O :   -0.409467
  19 C :   -0.096513
  20 H :    0.114641
  21 H :    0.109016
  22 H :    0.124185
  23 H :    0.135284
  24 H :    0.101207
  25 H :    0.114753
  26 H :    0.122709
  27 H :    0.105052
  28 H :    0.129132
  29 H :    0.149225
  30 H :    0.106195
  31 H :    0.110418
  32 H :    0.106647
  33 H :    0.122716
  34 H :    0.120880
  35 H :    0.115133
  36 H :    0.108833
  37 H :    0.105767
Sum of atomic charges:    0.0000000

LOEWDIN ATOMIC CHARGES
----------------------
   0 C :   -0.357475
   1 C :   -0.113294
   2 O :   -0.042842
   3 C :    0.031199
   4 O :   -0.154820
   5 C :   -0.246030
   6 C :   -0.260051
   7 H :    0.146898
   8 C :    0.025582
   9 O :   -0.141779
  10 O :   -0.037358
  11 C :   -0.103570
  12 C :   -0.356644
  13 S :    0.085327
  14 P :    0.585191
  15 S :   -0.315383
  16 O :   -0.242162
  17 C :   -0.209491
  18 O :   -0.275503
  19 C :   -0.222798
  20 H :    0.131781
  21 H :    0.122162
  22 H :    0.128523
  23 H :    0.121656
  24 H :    0.118398
  25 H :    0.135377
  26 H :    0.146967
  27 H :    0.117572
  28 H :    0.128220
  29 H :    0.138453
  30 H :    0.122026
  31 H :    0.129579
  32 H :    0.103796
  33 H :    0.121221
  34 H :    0.114961
  35 H :    0.117250
  36 H :    0.103864
  37 H :    0.103197

  Mayer bond orders larger than 0.100000
B(  0-C ,  1-C ) :   1.1650 B(  0-C , 20-H ) :   0.9447 B(  0-C , 21-H ) :   0.9476
B(  0-C , 22-H ) :   0.9461 B(  1-C ,  2-O ) :   0.9066 B(  1-C , 23-H ) :   0.9063
B(  1-C , 24-H ) :   0.9390 B(  2-O ,  3-C ) :   1.2676 B(  3-C ,  4-O ) :   1.9410
B(  3-C ,  5-C ) :   0.9991 B(  5-C ,  6-C ) :   1.0280 B(  5-C , 25-H ) :   0.9043
B(  5-C , 26-H ) :   0.8776 B(  6-C ,  7-H ) :   0.8782 B(  6-C ,  8-C ) :   0.9024
B(  6-C , 13-S ) :   1.0287 B(  8-C ,  9-O ) :   1.9123 B(  8-C , 10-O ) :   1.2703
B(  9-O , 14-P ) :   0.1627 B( 10-O , 11-C ) :   0.8905 B( 11-C , 12-C ) :   1.1792
B( 11-C , 27-H ) :   0.9370 B( 11-C , 28-H ) :   0.9079 B( 12-C , 29-H ) :   0.9317
B( 12-C , 30-H ) :   0.9502 B( 12-C , 31-H ) :   0.9422 B( 13-S , 14-P ) :   0.9321
B( 13-S , 15-S ) :   0.1105 B( 14-P , 15-S ) :   1.6132 B( 14-P , 16-O ) :   1.1039
B( 14-P , 18-O ) :   1.0011 B( 16-O , 17-C ) :   0.9305 B( 17-C , 32-H ) :   0.9379
B( 17-C , 33-H ) :   0.9588 B( 17-C , 34-H ) :   0.9490 B( 18-O , 19-C ) :   0.9476
B( 19-C , 35-H ) :   0.9589 B( 19-C , 36-H ) :   0.9269 B( 19-C , 37-H ) :   0.9480

Dispersion correction           -0.053797540
FINAL SINGLE POINT ENERGY     -1979.006663597532

DIPOLE MOMENT
-------------

Method             : SCF
Type of density    : Electron Density
Multiplicity       :   1
Irrep              :   0
Energy             : -1979.1364009334324692 Eh
Relativity type    :
Basis              : AO
                                X                 Y                 Z
Electronic contribution:    -13.451447903       1.161082130      -0.858052899
Nuclear contribution   :     13.992646686      -0.752772959      -0.518605183
                        -----------------------------------------
Total Dipole Moment    :      0.541198784       0.408309171      -1.376658082
                        -----------------------------------------
Magnitude (a.u.)       :      1.534535753
Magnitude (Debye)      :      3.900479909

Rotational constants in cm-1:             0.011951             0.008927             0.006579
Rotational constants in MHz :           358.284092           267.611334           197.239495

                             ****ORCA TERMINATED NORMALLY****
TOTAL RUN TIME: 0 days 0 hours 0 minutes 37 seconds 919 msec
