                         Program Version 6.0.0  -   RELEASE  -
|  1> ! r2scan-3c def2/J RI DEFGRID2 scfconv6 printgap
|  2> %output
|  3>     printlevel normal
|  4> end
|  5> * xyz 0 1
|  6> C 2.1896589371 -2.6397501317 2.3448785247
|  7> C 1.2862177307 -1.9778320705 1.3235522047
|  8> O 1.7273190516 -0.6260079336 1.105828613
|  9> P 2.3087750752 -0.0660577035 -0.2709649053
| 10> S 2.9045747931 -1.4087885053 -1.5536602504
| 11> O 3.4683056515 0.8898094106 0.201147875
| 12> C 3.2733286068 1.9563840939 1.1666772309
| 13> C 4.5652228982 2.741982564 1.2432368048
| 14> S 0.844159511 1.3263903202 -0.9716260734
| 15> C -0.0214763976 0.2004937566 -2.0900911136
| 16> S -0.8466715317 -1.1657428822 -1.2288069105
| 17> P -2.1233366895 0.0365152913 -0.0429474074
| 18> S -2.8665939963 1.6521171929 -0.8735305108
| 19> O -1.191363422 0.2455357153 1.2222380994
| 20> C -1.3269745962 1.3819178207 2.0985764251
| 21> C -2.6046306268 1.3129428521 2.908048732
| 22> O -3.1927504717 -0.9862810201 0.5328947672
| 23> C -4.4357482938 -1.2645801541 -0.1350723501
| 24> C -4.2301186222 -2.0221854245 -1.430892234
| 25> H 3.20536441 -2.6937605423 1.9592362536
| 26> H 2.1918196574 -2.0724719364 3.2711978455
| 27> H 1.8289663748 -3.6446803214 2.5386658176
| 28> H 0.2547449821 -1.9092322849 1.676907968
| 29> H 1.3099430783 -2.5221976475 0.3737856473
| 30> H 2.4428642473 2.5810547468 0.8254496603
| 31> H 3.0174445197 1.5033451553 2.1264788348
| 32> H 4.8033986969 3.1631003232 0.2707863005
| 33> H 4.4519389286 3.5443630305 1.9650015076
| 34> H 5.3787732507 2.0912224792 1.5504528591
| 35> H 0.6905112305 -0.2543833538 -2.7781969559
| 36> H -0.7606454047 0.8024487291 -2.6173822697
| 37> H -0.4393062668 1.3322549589 2.7310063802
| 38> H -1.2982991951 2.2926947008 1.491431408
| 39> H -2.6602077193 0.3701063874 3.445727362
| 40> H -2.6286569396 2.1364448488 3.6147676507
| 41> H -3.4650155007 1.390984777 2.2442062238
| 42> H -4.9974424355 -1.853147343 0.591462411
| 43> H -4.9471257216 -0.3150006459 -0.3227635029
| 44> H -3.7204463878 -1.3893558347 -2.1564014365
| 45> H -3.6270498885 -2.910231241 -1.2587870461
| 46> H -5.1946307359 -2.3129534721 -1.8346682533
| 47> *
| 48>
| 49>                          ****END OF INPUT****

CARTESIAN COORDINATES (ANGSTROEM)
---------------------------------
  C      2.189659   -2.639750    2.344879
  C      1.286218   -1.977832    1.323552
  O      1.727319   -0.626008    1.105829
  P      2.308775   -0.066058   -0.270965
  S      2.904575   -1.408789   -1.553660
  O      3.468306    0.889809    0.201148
  C      3.273329    1.956384    1.166677
  C      4.565223    2.741983    1.243237
  S      0.844160    1.326390   -0.971626
  C     -0.021476    0.200494   -2.090091
  S     -0.846672   -1.165743   -1.228807
  P     -2.123337    0.036515   -0.042947
  S     -2.866594    1.652117   -0.873531
  O     -1.191363    0.245536    1.222238
  C     -1.326975    1.381918    2.098576
  C     -2.604631    1.312943    2.908049
  O     -3.192750   -0.986281    0.532895
  C     -4.435748   -1.264580   -0.135072
  C     -4.230119   -2.022185   -1.430892
  H      3.205364   -2.693761    1.959236
  H      2.191820   -2.072472    3.271198
  H      1.828966   -3.644680    2.538666
  H      0.254745   -1.909232    1.676908
  H      1.309943   -2.522198    0.373786
  H      2.442864    2.581055    0.825450
  H      3.017445    1.503345    2.126479
  H      4.803399    3.163100    0.270786
  H      4.451939    3.544363    1.965002
  H      5.378773    2.091222    1.550453
  H      0.690511   -0.254383   -2.778197
  H     -0.760645    0.802449   -2.617382
  H     -0.439306    1.332255    2.731006
  H     -1.298299    2.292695    1.491431
  H     -2.660208    0.370106    3.445727
  H     -2.628657    2.136445    3.614768
  H     -3.465016    1.390985    2.244206
  H     -4.997442   -1.853147    0.591462
  H     -4.947126   -0.315001   -0.322764
  H     -3.720446   -1.389356   -2.156401
  H     -3.627050   -2.910231   -1.258787
  H     -5.194631   -2.312953   -1.834668

 Total Charge           Charge          ....    0
 Multiplicity           Mult            ....    1
 Number of Electrons    NEL             ....  202
 Basis Dimension        Dim             ....  539

ORBITAL ENERGIES
----------------

  NO   OCC          E(Eh)            E(eV)
   0   2.0000     -88.576033     -2410.2764
   1   2.0000     -88.570616     -2410.1290
   2   2.0000     -88.525010     -2408.8880
   3   2.0000     -88.519216     -2408.7303
   4   2.0000     -76.916457     -2093.0032
   5   2.0000     -76.912177     -2092.8867
   6   2.0000     -18.996502      -516.9211
   7   2.0000     -18.991678      -516.7898
   8   2.0000     -18.990105      -516.7470
   9   2.0000     -18.985655      -516.6259
  10   2.0000     -10.107080      -275.0276
  11   2.0000     -10.105195      -274.9763
  12   2.0000     -10.101976      -274.8887
  13   2.0000     -10.099299      -274.8159
  14   2.0000     -10.089306      -274.5440
  15   2.0000     -10.036886      -273.1176
  16   2.0000     -10.031217      -272.9633
  17   2.0000     -10.031180      -272.9623
  18   2.0000     -10.025919      -272.8191
  19   2.0000      -7.870469      -214.1664
  20   2.0000      -7.864968      -214.0167
  21   2.0000      -7.819732      -212.7857
  22   2.0000      -7.814093      -212.6323
  23   2.0000      -6.595055      -179.4606
  24   2.0000      -6.590415      -179.3343
  25   2.0000      -5.817321      -158.2974
  26   2.0000      -5.814407      -158.2181
  27   2.0000      -5.811860      -158.1488
  28   2.0000      -5.808858      -158.0671
  29   2.0000      -5.807520      -158.0306
  30   2.0000      -5.802027      -157.8812
  31   2.0000      -5.767335      -156.9372
  32   2.0000      -5.761819      -156.7871
  33   2.0000      -5.760028      -156.7383
  34   2.0000      -5.759777      -156.7315
  35   2.0000      -5.754378      -156.5846
  36   2.0000      -5.753987      -156.5739
  37   2.0000      -4.740405      -128.9930
  38   2.0000      -4.739942      -128.9804
  39   2.0000      -4.738952      -128.9534
  40   2.0000      -4.736209      -128.8788
  41   2.0000      -4.735118      -128.8491
  42   2.0000      -4.734136      -128.8224
  43   2.0000      -1.052869       -28.6500
  44   2.0000      -1.047459       -28.5028
  45   2.0000      -1.013622       -27.5820
  46   2.0000      -1.005887       -27.3716
  47   2.0000      -0.801848       -21.8194
  48   2.0000      -0.761202       -20.7133
  49   2.0000      -0.752151       -20.4671
  50   2.0000      -0.733909       -19.9707
  51   2.0000      -0.732240       -19.9253
  52   2.0000      -0.709706       -19.3121
  53   2.0000      -0.686519       -18.6811
  54   2.0000      -0.670819       -18.2539
  55   2.0000      -0.634946       -17.2778
  56   2.0000      -0.615296       -16.7431
  57   2.0000      -0.607979       -16.5439
  58   2.0000      -0.607466       -16.5300
  59   2.0000      -0.593892       -16.1606
  60   2.0000      -0.532093       -14.4790
  61   2.0000      -0.519641       -14.1402
  62   2.0000      -0.500835       -13.6284
  63   2.0000      -0.495129       -13.4731
  64   2.0000      -0.476312       -12.9611
  65   2.0000      -0.463638       -12.6162
  66   2.0000      -0.461932       -12.5698
  67   2.0000      -0.455633       -12.3984
  68   2.0000      -0.445377       -12.1193
  69   2.0000      -0.431758       -11.7487
  70   2.0000      -0.418934       -11.3998
  71   2.0000      -0.413921       -11.2634
  72   2.0000      -0.410686       -11.1753
  73   2.0000      -0.405453       -11.0329
  74   2.0000      -0.397305       -10.8112
  75   2.0000      -0.390532       -10.6269
  76   2.0000      -0.384166       -10.4537
  77   2.0000      -0.375724       -10.2240
  78   2.0000      -0.372208       -10.1283
  79   2.0000      -0.370037       -10.0692
  80   2.0000      -0.364913        -9.9298
  81   2.0000      -0.361056        -9.8248
  82   2.0000      -0.356724        -9.7070
  83   2.0000      -0.353332        -9.6147
  84   2.0000      -0.348353        -9.4792
  85   2.0000      -0.334005        -9.0887
  86   2.0000      -0.328651        -8.9431
  87   2.0000      -0.320783        -8.7289
  88   2.0000      -0.312707        -8.5092
  89   2.0000      -0.302028        -8.2186
  90   2.0000      -0.301182        -8.1956
  91   2.0000      -0.292286        -7.9535
  92   2.0000      -0.285059        -7.7569
  93   2.0000      -0.281904        -7.6710
  94   2.0000      -0.268971        -7.3191
  95   2.0000      -0.245816        -6.6890
  96   2.0000      -0.230310        -6.2671
  97   2.0000      -0.226581        -6.1656
  98   2.0000      -0.223127        -6.0716
  99   2.0000      -0.215309        -5.8589
 100   2.0000      -0.210400        -5.7253
 101   0.0000      -0.048591        -1.3222
 102   0.0000      -0.026414        -0.7188
 103   0.0000      -0.001946        -0.0530
 104   0.0000       0.005110         0.1390
 105   0.0000       0.008363         0.2276

MULLIKEN ATOMIC CHARGES
-----------------------
   0 C :   -0.485125
   1 C :   -0.114205
   2 O :   -0.258700
   3 P :    0.675795
   4 S :   -0.454311
   5 O :   -0.282649
   6 C :   -0.132696
   7 C :   -0.442830
   8 S :   -0.172332
   9 C :   -0.232661
  10 S :   -0.129075
  11 P :    0.676983
  12 S :   -0.476849
  13 O :   -0.252200
  14 C :   -0.163355
  15 C :   -0.445654
  16 O :   -0.302575
  17 C :   -0.151757
  18 C :   -0.449177
  19 H :    0.163958
  20 H :    0.148491
  21 H :    0.145948
  22 H :    0.164804
  23 H :    0.176426
  24 H :    0.145571
  25 H :    0.159792
  26 H :    0.160650
  27 H :    0.144909
  28 H :    0.158190
  29 H :    0.210600
  30 H :    0.210359
  31 H :    0.153470
  32 H :    0.176918
  33 H :    0.155147
  34 H :    0.146883
  35 H :    0.168786
  36 H :    0.148843
  37 H :    0.171922
  38 H :    0.176819
  39 H :    0.155981
  40 H :    0.148907
Sum of atomic charges:   -0.0000000

LOEWDIN ATOMIC CHARGES
----------------------
   0 C :   -0.392653
   1 C :    0.003572
   2 O :   -0.669278
   3 P :    0.386834
   4 S :   -0.099125
   5 O :   -0.655163
   6 C :    0.024561
   7 C :   -0.382376
   8 S :    0.143433
   9 C :   -0.420448
  10 S :    0.170848
  11 P :    0.380507
  12 S :   -0.125564
  13 O :   -0.683147
  14 C :    0.015636
  15 C :   -0.399170
  16 O :   -0.660759
  17 C :    0.020072
  18 C :   -0.406332
  19 H :    0.162623
  20 H :    0.155918
  21 H :    0.159059
  22 H :    0.180278
  23 H :    0.183362
  24 H :    0.173872
  25 H :    0.174786
  26 H :    0.163685
  27 H :    0.159552
  28 H :    0.163012
  29 H :    0.191633
  30 H :    0.189079
  31 H :    0.180188
  32 H :    0.181683
  33 H :    0.160094
  34 H :    0.159347
  35 H :    0.165146
  36 H :    0.179712
  37 H :    0.179619
  38 H :    0.165610
  39 H :    0.160562
  40 H :    0.159733

  Mayer bond orders larger than 0.100000
B(  0-C ,  1-C ) :   0.9382 B(  0-C , 19-H ) :   0.9725 B(  0-C , 20-H ) :   0.9801
B(  0-C , 21-H ) :   0.9672 B(  1-C ,  2-O ) :   0.7227 B(  1-C , 22-H ) :   0.9544
B(  1-C , 23-H ) :   0.9494 B(  2-O ,  3-P ) :   1.0362 B(  3-P ,  4-S ) :   1.8381
B(  3-P ,  5-O ) :   1.1917 B(  3-P ,  8-S ) :   0.9855 B(  5-O ,  6-C ) :   0.7487
B(  6-C ,  7-C ) :   0.9644 B(  6-C , 24-H ) :   0.9397 B(  6-C , 25-H ) :   0.9480
B(  7-C , 26-H ) :   0.9697 B(  7-C , 27-H ) :   0.9621 B(  7-C , 28-H ) :   0.9717
B(  8-S ,  9-C ) :   0.9035 B(  9-C , 10-S ) :   0.8902 B(  9-C , 29-H ) :   0.9086
B(  9-C , 30-H ) :   0.9134 B( 10-S , 11-P ) :   1.0845 B( 11-P , 12-S ) :   1.7536
B( 11-P , 13-O ) :   1.1326 B( 11-P , 16-O ) :   1.0681 B( 13-O , 14-C ) :   0.7872
B( 14-C , 15-C ) :   0.9219 B( 14-C , 31-H ) :   0.9625 B( 14-C , 32-H ) :   0.9627
B( 15-C , 33-H ) :   0.9730 B( 15-C , 34-H ) :   0.9627 B( 15-C , 35-H ) :   0.9599
B( 16-O , 17-C ) :   0.8122 B( 17-C , 18-C ) :   0.9234 B( 17-C , 36-H ) :   0.9580
B( 17-C , 37-H ) :   0.9672 B( 18-C , 38-H ) :   0.9625 B( 18-C , 39-H ) :   0.9681
B( 18-C , 40-H ) :   0.9587

Dispersion correction           -0.021729281
FINAL SINGLE POINT ENERGY     -2932.462805110907

DIPOLE MOMENT
-------------

Method             : SCF
Type of density    : Electron Density
Multiplicity       :   1
Irrep              :   0
Energy             : -2932.4875015613538380 Eh
Relativity type    :
Basis              : AO
                                X                 Y                 Z
Electronic contribution:      3.331483186       0.722055559     -17.343672568
Nuclear contribution   :     -4.060360859      -0.620368340      18.949621617
                        -----------------------------------------
Total Dipole Moment    :     -0.728877673       0.101687219       1.605949049
                        -----------------------------------------
Magnitude (a.u.)       :      1.766543320
Magnitude (Debye)      :      4.490196277

Rotational constants in cm-1:             0.011715             0.005284             0.004944
Rotational constants in MHz :           351.215952           158.423565           148.213172

                             ****ORCA TERMINATED NORMALLY****
TOTAL RUN TIME: 0 days 0 hours 1 minutes 25 seconds 479 msec
