                         Program Version 6.0.0  -   RELEASE  -
|  1> ! r2scan-3c def2/J RI DEFGRID2 scfconv6 printgap
|  2> %output
|  3>     printlevel normal
|  4> end
|  5> %cpcm
|  6>     smd true
|  7>     smdsolvent "water"
|  8> end
|  9> * xyz 0 1
| 10> C 2.1896589371 -2.6397501317 2.3448785247
| 11> C 1.2862177307 -1.9778320705 1.3235522047
| 12> O 1.7273190516 -0.6260079336 1.105828613
| 13> P 2.3087750752 -0.0660577035 -0.2709649053
| 14> S 2.9045747931 -1.4087885053 -1.5536602504
| 15> O 3.4683056515 0.8898094106 0.201147875
| 16> C 3.2733286068 1.9563840939 1.1666772309
| 17> C 4.5652228982 2.741982564 1.2432368048
| 18> S 0.844159511 1.3263903202 -0.9716260734
| 19> C -0.0214763976 0.2004937566 -2.0900911136
| 20> S -0.8466715317 -1.1657428822 -1.2288069105
| 21> P -2.1233366895 0.0365152913 -0.0429474074
| 22> S -2.8665939963 1.6521171929 -0.8735305108
| 23> O -1.191363422 0.2455357153 1.2222380994
| 24> C -1.3269745962 1.3819178207 2.0985764251
| 25> C -2.6046306268 1.3129428521 2.908048732
| 26> O -3.1927504717 -0.9862810201 0.5328947672
| 27> C -4.4357482938 -1.2645801541 -0.1350723501
| 28> C -4.2301186222 -2.0221854245 -1.430892234
| 29> H 3.20536441 -2.6937605423 1.9592362536
| 30> H 2.1918196574 -2.0724719364 3.2711978455
| 31> H 1.8289663748 -3.6446803214 2.5386658176
| 32> H 0.2547449821 -1.9092322849 1.676907968
| 33> H 1.3099430783 -2.5221976475 0.3737856473
| 34> H 2.4428642473 2.5810547468 0.8254496603
| 35> H 3.0174445197 1.5033451553 2.1264788348
| 36> H 4.8033986969 3.1631003232 0.2707863005
| 37> H 4.4519389286 3.5443630305 1.9650015076
| 38> H 5.3787732507 2.0912224792 1.5504528591
| 39> H 0.6905112305 -0.2543833538 -2.7781969559
| 40> H -0.7606454047 0.8024487291 -2.6173822697
| 41> H -0.4393062668 1.3322549589 2.7310063802
| 42> H -1.2982991951 2.2926947008 1.491431408
| 43> H -2.6602077193 0.3701063874 3.445727362
| 44> H -2.6286569396 2.1364448488 3.6147676507
| 45> H -3.4650155007 1.390984777 2.2442062238
| 46> H -4.9974424355 -1.853147343 0.591462411
| 47> H -4.9471257216 -0.3150006459 -0.3227635029
| 48> H -3.7204463878 -1.3893558347 -2.1564014365
| 49> H -3.6270498885 -2.910231241 -1.2587870461
| 50> H -5.1946307359 -2.3129534721 -1.8346682533
| 51> *
| 52>
| 53>                          ****END OF INPUT****

CARTESIAN COORDINATES (ANGSTROEM)
---------------------------------
  C      2.189659   -2.639750    2.344879
  C      1.286218   -1.977832    1.323552
  O      1.727319   -0.626008    1.105829
  P      2.308775   -0.066058   -0.270965
  S      2.904575   -1.408789   -1.553660
  O      3.468306    0.889809    0.201148
  C      3.273329    1.956384    1.166677
  C      4.565223    2.741983    1.243237
  S      0.844160    1.326390   -0.971626
  C     -0.021476    0.200494   -2.090091
  S     -0.846672   -1.165743   -1.228807
  P     -2.123337    0.036515   -0.042947
  S     -2.866594    1.652117   -0.873531
  O     -1.191363    0.245536    1.222238
  C     -1.326975    1.381918    2.098576
  C     -2.604631    1.312943    2.908049
  O     -3.192750   -0.986281    0.532895
  C     -4.435748   -1.264580   -0.135072
  C     -4.230119   -2.022185   -1.430892
  H      3.205364   -2.693761    1.959236
  H      2.191820   -2.072472    3.271198
  H      1.828966   -3.644680    2.538666
  H      0.254745   -1.909232    1.676908
  H      1.309943   -2.522198    0.373786
  H      2.442864    2.581055    0.825450
  H      3.017445    1.503345    2.126479
  H      4.803399    3.163100    0.270786
  H      4.451939    3.544363    1.965002
  H      5.378773    2.091222    1.550453
  H      0.690511   -0.254383   -2.778197
  H     -0.760645    0.802449   -2.617382
  H     -0.439306    1.332255    2.731006
  H     -1.298299    2.292695    1.491431
  H     -2.660208    0.370106    3.445727
  H     -2.628657    2.136445    3.614768
  H     -3.465016    1.390985    2.244206
  H     -4.997442   -1.853147    0.591462
  H     -4.947126   -0.315001   -0.322764
  H     -3.720446   -1.389356   -2.156401
  H     -3.627050   -2.910231   -1.258787
  H     -5.194631   -2.312953   -1.834668

 Total Charge           Charge          ....    0
 Multiplicity           Mult            ....    1
 Number of Electrons    NEL             ....  202
 Basis Dimension        Dim             ....  539

ORBITAL ENERGIES
----------------

  NO   OCC          E(Eh)            E(eV)
   0   2.0000     -88.578071     -2410.3319
   1   2.0000     -88.576015     -2410.2759
   2   2.0000     -88.531451     -2409.0633
   3   2.0000     -88.529296     -2409.0046
   4   2.0000     -76.920545     -2093.1144
   5   2.0000     -76.918861     -2093.0686
   6   2.0000     -18.996191      -516.9126
   7   2.0000     -18.996071      -516.9094
   8   2.0000     -18.991157      -516.7757
   9   2.0000     -18.990365      -516.7541
  10   2.0000     -10.104680      -274.9623
  11   2.0000     -10.095317      -274.7075
  12   2.0000     -10.090004      -274.5630
  13   2.0000     -10.088589      -274.5245
  14   2.0000     -10.086050      -274.4554
  15   2.0000     -10.021279      -272.6929
  16   2.0000     -10.018764      -272.6244
  17   2.0000     -10.018328      -272.6126
  18   2.0000     -10.016912      -272.5740
  19   2.0000      -7.872550      -214.2230
  20   2.0000      -7.870336      -214.1627
  21   2.0000      -7.826673      -212.9746
  22   2.0000      -7.824293      -212.9098
  23   2.0000      -6.598830      -179.5633
  24   2.0000      -6.597488      -179.5268
  25   2.0000      -5.819391      -158.3537
  26   2.0000      -5.817207      -158.2942
  27   2.0000      -5.816495      -158.2749
  28   2.0000      -5.814193      -158.2122
  29   2.0000      -5.809603      -158.0873
  30   2.0000      -5.807462      -158.0291
  31   2.0000      -5.774289      -157.1264
  32   2.0000      -5.771846      -157.0599
  33   2.0000      -5.766949      -156.9267
  34   2.0000      -5.766618      -156.9176
  35   2.0000      -5.764575      -156.8620
  36   2.0000      -5.764352      -156.8560
  37   2.0000      -4.744591      -129.1069
  38   2.0000      -4.743514      -129.0776
  39   2.0000      -4.742788      -129.0578
  40   2.0000      -4.742642      -129.0538
  41   2.0000      -4.742379      -129.0467
  42   2.0000      -4.741459      -129.0217
  43   2.0000      -1.052774       -28.6474
  44   2.0000      -1.051721       -28.6188
  45   2.0000      -1.012708       -27.5572
  46   2.0000      -1.010079       -27.4856
  47   2.0000      -0.803880       -21.8747
  48   2.0000      -0.757537       -20.6136
  49   2.0000      -0.744873       -20.2690
  50   2.0000      -0.725826       -19.7507
  51   2.0000      -0.722927       -19.6718
  52   2.0000      -0.708574       -19.2813
  53   2.0000      -0.690176       -18.7807
  54   2.0000      -0.676562       -18.4102
  55   2.0000      -0.631262       -17.1775
  56   2.0000      -0.613613       -16.6972
  57   2.0000      -0.599798       -16.3213
  58   2.0000      -0.598706       -16.2916
  59   2.0000      -0.592704       -16.1283
  60   2.0000      -0.530075       -14.4241
  61   2.0000      -0.513808       -13.9814
  62   2.0000      -0.499778       -13.5997
  63   2.0000      -0.489823       -13.3288
  64   2.0000      -0.474989       -12.9251
  65   2.0000      -0.458727       -12.4826
  66   2.0000      -0.455324       -12.3900
  67   2.0000      -0.450291       -12.2531
  68   2.0000      -0.442634       -12.0447
  69   2.0000      -0.426665       -11.6102
  70   2.0000      -0.418947       -11.4001
  71   2.0000      -0.410188       -11.1618
  72   2.0000      -0.405530       -11.0350
  73   2.0000      -0.403024       -10.9668
  74   2.0000      -0.393647       -10.7117
  75   2.0000      -0.388200       -10.5635
  76   2.0000      -0.381574       -10.3832
  77   2.0000      -0.370317       -10.0768
  78   2.0000      -0.364358        -9.9147
  79   2.0000      -0.358677        -9.7601
  80   2.0000      -0.354266        -9.6401
  81   2.0000      -0.353206        -9.6112
  82   2.0000      -0.348205        -9.4751
  83   2.0000      -0.345617        -9.4047
  84   2.0000      -0.344882        -9.3847
  85   2.0000      -0.331828        -9.0295
  86   2.0000      -0.324845        -8.8395
  87   2.0000      -0.317592        -8.6421
  88   2.0000      -0.305003        -8.2995
  89   2.0000      -0.302899        -8.2423
  90   2.0000      -0.297590        -8.0978
  91   2.0000      -0.290254        -7.8982
  92   2.0000      -0.283994        -7.7279
  93   2.0000      -0.279877        -7.6158
  94   2.0000      -0.271884        -7.3983
  95   2.0000      -0.248975        -6.7750
  96   2.0000      -0.239004        -6.5036
  97   2.0000      -0.235476        -6.4076
  98   2.0000      -0.230215        -6.2645
  99   2.0000      -0.223461        -6.0807
 100   2.0000      -0.218123        -5.9354
 101   0.0000      -0.053289        -1.4501
 102   0.0000      -0.032612        -0.8874
 103   0.0000      -0.004648        -0.1265
 104   0.0000      -0.000341        -0.0093
 105   0.0000       0.008512         0.2316

MULLIKEN ATOMIC CHARGES
-----------------------
   0 C :   -0.524040
   1 C :   -0.091576
   2 O :   -0.282830
   3 P :    0.681848
   4 S :   -0.504445
   5 O :   -0.318762
   6 C :   -0.114553
   7 C :   -0.489342
   8 S :   -0.184087
   9 C :   -0.244029
  10 S :   -0.137593
  11 P :    0.719193
  12 S :   -0.521930
  13 O :   -0.281594
  14 C :   -0.151525
  15 C :   -0.488607
  16 O :   -0.329443
  17 C :   -0.152551
  18 C :   -0.485985
  19 H :    0.165487
  20 H :    0.167131
  21 H :    0.168951
  22 H :    0.176690
  23 H :    0.174342
  24 H :    0.161007
  25 H :    0.180652
  26 H :    0.167976
  27 H :    0.171178
  28 H :    0.168547
  29 H :    0.228884
  30 H :    0.233993
  31 H :    0.179097
  32 H :    0.178589
  33 H :    0.169910
  34 H :    0.171957
  35 H :    0.167977
  36 H :    0.175703
  37 H :    0.178418
  38 H :    0.172712
  39 H :    0.169527
  40 H :    0.173125
Sum of atomic charges:   -0.0000000

LOEWDIN ATOMIC CHARGES
----------------------
   0 C :   -0.395734
   1 C :    0.008420
   2 O :   -0.677168
   3 P :    0.385592
   4 S :   -0.138062
   5 O :   -0.677492
   6 C :    0.033430
   7 C :   -0.386229
   8 S :    0.140031
   9 C :   -0.415569
  10 S :    0.167652
  11 P :    0.386656
  12 S :   -0.152438
  13 O :   -0.695319
  14 C :    0.021072
  15 C :   -0.402581
  16 O :   -0.671219
  17 C :    0.025718
  18 C :   -0.409782
  19 H :    0.161812
  20 H :    0.162356
  21 H :    0.167612
  22 H :    0.185428
  23 H :    0.182718
  24 H :    0.180928
  25 H :    0.184544
  26 H :    0.164212
  27 H :    0.170416
  28 H :    0.164977
  29 H :    0.196751
  30 H :    0.196535
  31 H :    0.190724
  32 H :    0.182453
  33 H :    0.163939
  34 H :    0.168623
  35 H :    0.162489
  36 H :    0.191110
  37 H :    0.181679
  38 H :    0.161539
  39 H :    0.163681
  40 H :    0.168497

  Mayer bond orders larger than 0.100000
B(  0-C ,  1-C ) :   0.9371 B(  0-C , 19-H ) :   0.9715 B(  0-C , 20-H ) :   0.9747
B(  0-C , 21-H ) :   0.9615 B(  1-C ,  2-O ) :   0.7118 B(  1-C , 22-H ) :   0.9455
B(  1-C , 23-H ) :   0.9477 B(  2-O ,  3-P ) :   1.0397 B(  3-P ,  4-S ) :   1.8204
B(  3-P ,  5-O ) :   1.1964 B(  3-P ,  8-S ) :   1.0047 B(  5-O ,  6-C ) :   0.7430
B(  6-C ,  7-C ) :   0.9538 B(  6-C , 24-H ) :   0.9302 B(  6-C , 25-H ) :   0.9374
B(  7-C , 26-H ) :   0.9688 B(  7-C , 27-H ) :   0.9554 B(  7-C , 28-H ) :   0.9698
B(  8-S ,  9-C ) :   0.8889 B(  9-C , 10-S ) :   0.8826 B(  9-C , 29-H ) :   0.9043
B(  9-C , 30-H ) :   0.9063 B( 10-S , 11-P ) :   1.0909 B( 11-P , 12-S ) :   1.7118
B( 11-P , 13-O ) :   1.1419 B( 11-P , 16-O ) :   1.0766 B( 13-O , 14-C ) :   0.7759
B( 14-C , 15-C ) :   0.9121 B( 14-C , 31-H ) :   0.9519 B( 14-C , 32-H ) :   0.9582
B( 15-C , 33-H ) :   0.9715 B( 15-C , 34-H ) :   0.9568 B( 15-C , 35-H ) :   0.9598
B( 16-O , 17-C ) :   0.8004 B( 17-C , 18-C ) :   0.9098 B( 17-C , 36-H ) :   0.9483
B( 17-C , 37-H ) :   0.9660 B( 18-C , 38-H ) :   0.9637 B( 18-C , 39-H ) :   0.9655
B( 18-C , 40-H ) :   0.9535

Dispersion correction           -0.021729281
FINAL SINGLE POINT ENERGY     -2932.471938353884

DIPOLE MOMENT
-------------

Method             : SCF
Type of density    : Electron Density
Multiplicity       :   1
Irrep              :   0
Energy             : -2932.4966348043308244 Eh
Relativity type    :
Basis              : AO
                                X                 Y                 Z
Electronic contribution:      2.923249124       0.775872921     -16.786688962
Nuclear contribution   :     -4.060360859      -0.620368340      18.949621617
                        -----------------------------------------
Total Dipole Moment    :     -1.137111735       0.155504581       2.162932654
                        -----------------------------------------
Magnitude (a.u.)       :      2.448567426
Magnitude (Debye)      :      6.223763786

Rotational constants in cm-1:             0.011715             0.005284             0.004944
Rotational constants in MHz :           351.215952           158.423565           148.213172

                             ****ORCA TERMINATED NORMALLY****
TOTAL RUN TIME: 0 days 0 hours 1 minutes 52 seconds 714 msec
