                         Program Version 6.0.0  -   RELEASE  -
|  1> ! pbe def2-sv(p) def2/J RI DEFGRID1 loosescf d4 GCP(DFT/SV(P)) printgap
|  2> %output
|  3>     printlevel normal
|  4> end
|  5> * xyz 0 1
|  6> C 2.5982271719 -2.954495162 -1.4360864613
|  7> C 3.4342396224 -1.7657912484 -1.8619766742
|  8> O 3.5900446647 -0.7876774243 -0.8084572509
|  9> P 2.425847294 0.0137511995 -0.0852074631
| 10> S 3.1697994141 1.59082678 0.7942808171
| 11> O 1.6821611219 -1.0220955868 0.8794539465
| 12> C 1.9593522788 -1.1335410409 2.2897653414
| 13> C 0.935727465 -0.3731416969 3.109098832
| 14> S 0.9768384413 0.2858830802 -1.5988365547
| 15> C 0.2549258206 1.8181003863 -0.9588778503
| 16> S -0.5933528263 1.612607465 0.6285138726
| 17> P -2.0307155222 0.2125423463 -0.03358919
| 18> S -2.7376354926 0.4408193694 -1.8519203164
| 19> O -3.1216753804 0.2028186788 1.1220704405
| 20> C -4.2708350074 1.0665293277 1.1090570647
| 21> C -3.8959939825 2.520171993 1.314398725
| 22> O -1.255783347 -1.1360969094 0.2646339763
| 23> C -1.5568576727 -2.3658291787 -0.4230248287
| 24> C -2.9265278101 -2.8961462507 -0.0546760285
| 25> H 3.0280232388 -3.4223282183 -0.5540300069
| 26> H 1.5831875461 -2.6335127193 -1.2096941008
| 27> H 2.5685532956 -3.6755389448 -2.2469627035
| 28> H 2.9887984894 -1.267913392 -2.7273099883
| 29> H 4.4618010784 -2.0541407223 -2.0896011782
| 30> H 1.9138109622 -2.2048266226 2.4942164477
| 31> H 2.9689308537 -0.7619003471 2.4894628831
| 32> H -0.0694862711 -0.6687846906 2.8179985046
| 33> H 1.0868464821 -0.591631069 4.1613263865
| 34> H 1.0447403537 0.6974128243 2.9484767366
| 35> H -0.4533245056 2.1542303834 -1.7155790233
| 36> H 1.0428321006 2.5521301369 -0.7927165413
| 37> H -4.7907174207 0.9356466572 0.1544848349
| 38> H -4.8902438931 0.6912620635 1.9247743507
| 39> H -3.3330747183 2.8855009835 0.4564518567
| 40> H -4.7989089075 3.1129564854 1.4205687954
| 41> H -3.2834951394 2.6306020811 2.2057887567
| 42> H -1.486674361 -2.1861157535 -1.5010111785
| 43> H -0.7621871449 -3.0433419236 -0.1066025211
| 44> H -3.0757832345 -3.8645398717 -0.5218171306
| 45> H -3.0150026726 -2.9949298168 1.0240456218
| 46> H -3.6947997328 -2.2100017334 -0.4096282023
| 47> *
| 48>
| 49>                          ****END OF INPUT****

CARTESIAN COORDINATES (ANGSTROEM)
---------------------------------
  C      2.598227   -2.954495   -1.436086
  C      3.434240   -1.765791   -1.861977
  O      3.590045   -0.787677   -0.808457
  P      2.425847    0.013751   -0.085207
  S      3.169799    1.590827    0.794281
  O      1.682161   -1.022096    0.879454
  C      1.959352   -1.133541    2.289765
  C      0.935727   -0.373142    3.109099
  S      0.976838    0.285883   -1.598837
  C      0.254926    1.818100   -0.958878
  S     -0.593353    1.612607    0.628514
  P     -2.030716    0.212542   -0.033589
  S     -2.737635    0.440819   -1.851920
  O     -3.121675    0.202819    1.122070
  C     -4.270835    1.066529    1.109057
  C     -3.895994    2.520172    1.314399
  O     -1.255783   -1.136097    0.264634
  C     -1.556858   -2.365829   -0.423025
  C     -2.926528   -2.896146   -0.054676
  H      3.028023   -3.422328   -0.554030
  H      1.583188   -2.633513   -1.209694
  H      2.568553   -3.675539   -2.246963
  H      2.988798   -1.267913   -2.727310
  H      4.461801   -2.054141   -2.089601
  H      1.913811   -2.204827    2.494216
  H      2.968931   -0.761900    2.489463
  H     -0.069486   -0.668785    2.817999
  H      1.086846   -0.591631    4.161326
  H      1.044740    0.697413    2.948477
  H     -0.453325    2.154230   -1.715579
  H      1.042832    2.552130   -0.792717
  H     -4.790717    0.935647    0.154485
  H     -4.890244    0.691262    1.924774
  H     -3.333075    2.885501    0.456452
  H     -4.798909    3.112956    1.420569
  H     -3.283495    2.630602    2.205789
  H     -1.486674   -2.186116   -1.501011
  H     -0.762187   -3.043342   -0.106603
  H     -3.075783   -3.864540   -0.521817
  H     -3.015003   -2.994930    1.024046
  H     -3.694800   -2.210002   -0.409628

 Total Charge           Charge          ....    0
 Multiplicity           Mult            ....    1
 Number of Electrons    NEL             ....  202
 Basis Dimension        Dim             ....  334

ORBITAL ENERGIES
----------------

  NO   OCC          E(Eh)            E(eV)
   0   2.0000     -88.044497     -2395.8126
   1   2.0000     -88.043737     -2395.7919
   2   2.0000     -87.992512     -2394.3980
   3   2.0000     -87.982488     -2394.1252
   4   2.0000     -76.428935     -2079.7370
   5   2.0000     -76.423541     -2079.5903
   6   2.0000     -18.797089      -511.4948
   7   2.0000     -18.790760      -511.3226
   8   2.0000     -18.789914      -511.2995
   9   2.0000     -18.783647      -511.1290
  10   2.0000      -9.959604      -271.0146
  11   2.0000      -9.956975      -270.9431
  12   2.0000      -9.955273      -270.8968
  13   2.0000      -9.952629      -270.8248
  14   2.0000      -9.947122      -270.6750
  15   2.0000      -9.892524      -269.1893
  16   2.0000      -9.885962      -269.0107
  17   2.0000      -9.885529      -268.9989
  18   2.0000      -9.872229      -268.6370
  19   2.0000      -7.689439      -209.2403
  20   2.0000      -7.688538      -209.2157
  21   2.0000      -7.637366      -207.8233
  22   2.0000      -7.627809      -207.5632
  23   2.0000      -6.426364      -174.8702
  24   2.0000      -6.421263      -174.7315
  25   2.0000      -5.717280      -155.5751
  26   2.0000      -5.716438      -155.5522
  27   2.0000      -5.714042      -155.4870
  28   2.0000      -5.713173      -155.4633
  29   2.0000      -5.706335      -155.2773
  30   2.0000      -5.705325      -155.2498
  31   2.0000      -5.666128      -154.1832
  32   2.0000      -5.658025      -153.9627
  33   2.0000      -5.657690      -153.9536
  34   2.0000      -5.656894      -153.9319
  35   2.0000      -5.648726      -153.7096
  36   2.0000      -5.647439      -153.6746
  37   2.0000      -4.648745      -126.4988
  38   2.0000      -4.648120      -126.4818
  39   2.0000      -4.647013      -126.4516
  40   2.0000      -4.644046      -126.3709
  41   2.0000      -4.642813      -126.3374
  42   2.0000      -4.641768      -126.3089
  43   2.0000      -0.989363       -26.9219
  44   2.0000      -0.979185       -26.6450
  45   2.0000      -0.948054       -25.7979
  46   2.0000      -0.939770       -25.5724
  47   2.0000      -0.767292       -20.8791
  48   2.0000      -0.722095       -19.6492
  49   2.0000      -0.710268       -19.3274
  50   2.0000      -0.690441       -18.7879
  51   2.0000      -0.687892       -18.7185
  52   2.0000      -0.673440       -18.3252
  53   2.0000      -0.651824       -17.7370
  54   2.0000      -0.640523       -17.4295
  55   2.0000      -0.604371       -16.4458
  56   2.0000      -0.590778       -16.0759
  57   2.0000      -0.577716       -15.7204
  58   2.0000      -0.574009       -15.6196
  59   2.0000      -0.558318       -15.1926
  60   2.0000      -0.499331       -13.5875
  61   2.0000      -0.493143       -13.4191
  62   2.0000      -0.475674       -12.9437
  63   2.0000      -0.474116       -12.9013
  64   2.0000      -0.458508       -12.4766
  65   2.0000      -0.446982       -12.1630
  66   2.0000      -0.442431       -12.0392
  67   2.0000      -0.436296       -11.8722
  68   2.0000      -0.428766       -11.6673
  69   2.0000      -0.414661       -11.2835
  70   2.0000      -0.406093       -11.0503
  71   2.0000      -0.397470       -10.8157
  72   2.0000      -0.395686       -10.7672
  73   2.0000      -0.389501       -10.5989
  74   2.0000      -0.382726       -10.4145
  75   2.0000      -0.374133       -10.1807
  76   2.0000      -0.366660        -9.9773
  77   2.0000      -0.358435        -9.7535
  78   2.0000      -0.355266        -9.6673
  79   2.0000      -0.353066        -9.6074
  80   2.0000      -0.349091        -9.4992
  81   2.0000      -0.345886        -9.4120
  82   2.0000      -0.344954        -9.3867
  83   2.0000      -0.338993        -9.2245
  84   2.0000      -0.335074        -9.1178
  85   2.0000      -0.320467        -8.7203
  86   2.0000      -0.308327        -8.3900
  87   2.0000      -0.301196        -8.1960
  88   2.0000      -0.298038        -8.1100
  89   2.0000      -0.285708        -7.7745
  90   2.0000      -0.278017        -7.5652
  91   2.0000      -0.277784        -7.5589
  92   2.0000      -0.272453        -7.4138
  93   2.0000      -0.266897        -7.2626
  94   2.0000      -0.257716        -7.0128
  95   2.0000      -0.230602        -6.2750
  96   2.0000      -0.218193        -5.9373
  97   2.0000      -0.215465        -5.8631
  98   2.0000      -0.208754        -5.6805
  99   2.0000      -0.200930        -5.4676
 100   2.0000      -0.195146        -5.3102
 101   0.0000      -0.047069        -1.2808
 102   0.0000      -0.026295        -0.7155
 103   0.0000      -0.002332        -0.0635
 104   0.0000       0.002797         0.0761
 105   0.0000       0.008141         0.2215

MULLIKEN ATOMIC CHARGES
-----------------------
   0 C :   -0.333498
   1 C :   -0.016418
   2 O :   -0.370004
   3 P :    0.619955
   4 S :   -0.319549
   5 O :   -0.376781
   6 C :   -0.007952
   7 C :   -0.295117
   8 S :   -0.104352
   9 C :   -0.345479
  10 S :   -0.065616
  11 P :    0.618298
  12 S :   -0.336762
  13 O :   -0.374242
  14 C :   -0.005056
  15 C :   -0.315777
  16 O :   -0.355643
  17 C :   -0.023800
  18 C :   -0.293963
  19 H :    0.118586
  20 H :    0.147584
  21 H :    0.114470
  22 H :    0.118901
  23 H :    0.114793
  24 H :    0.095661
  25 H :    0.105336
  26 H :    0.116801
  27 H :    0.101311
  28 H :    0.129648
  29 H :    0.189802
  30 H :    0.194254
  31 H :    0.111123
  32 H :    0.106388
  33 H :    0.126754
  34 H :    0.114327
  35 H :    0.120057
  36 H :    0.112540
  37 H :    0.115985
  38 H :    0.110678
  39 H :    0.115202
  40 H :    0.121553
Sum of atomic charges:    0.0000000

LOEWDIN ATOMIC CHARGES
----------------------
   0 C :   -0.369009
   1 C :   -0.116204
   2 O :   -0.247585
   3 P :    0.570895
   4 S :   -0.314764
   5 O :   -0.250195
   6 C :   -0.114609
   7 C :   -0.366159
   8 S :    0.088207
   9 C :   -0.477462
  10 S :    0.114457
  11 P :    0.572839
  12 S :   -0.326955
  13 O :   -0.243570
  14 C :   -0.119172
  15 C :   -0.369286
  16 O :   -0.230512
  17 C :   -0.119420
  18 C :   -0.364978
  19 H :    0.127762
  20 H :    0.122978
  21 H :    0.131754
  22 H :    0.109834
  23 H :    0.124287
  24 H :    0.113113
  25 H :    0.108517
  26 H :    0.120833
  27 H :    0.124948
  28 H :    0.121059
  29 H :    0.131239
  30 H :    0.133229
  31 H :    0.110528
  32 H :    0.119284
  33 H :    0.121269
  34 H :    0.131693
  35 H :    0.125435
  36 H :    0.110039
  37 H :    0.117681
  38 H :    0.130024
  39 H :    0.126019
  40 H :    0.121955

  Mayer bond orders larger than 0.100000
B(  0-C ,  1-C ) :   1.1624 B(  0-C , 19-H ) :   0.9452 B(  0-C , 20-H ) :   0.9303
B(  0-C , 21-H ) :   0.9357 B(  1-C ,  2-O ) :   0.9140 B(  1-C , 22-H ) :   0.9187
B(  1-C , 23-H ) :   0.9347 B(  2-O ,  3-P ) :   1.1200 B(  3-P ,  4-S ) :   1.6235
B(  3-P ,  5-O ) :   1.0901 B(  3-P ,  8-S ) :   0.9513 B(  4-S ,  8-S ) :   0.1003
B(  5-O ,  6-C ) :   0.9028 B(  6-C ,  7-C ) :   1.1733 B(  6-C , 24-H ) :   0.9335
B(  6-C , 25-H ) :   0.9137 B(  7-C , 26-H ) :   0.9413 B(  7-C , 27-H ) :   0.9382
B(  7-C , 28-H ) :   0.9354 B(  8-S ,  9-C ) :   1.0124 B(  9-C , 10-S ) :   1.0060
B(  9-C , 29-H ) :   0.8865 B(  9-C , 30-H ) :   0.8830 B( 10-S , 11-P ) :   0.9618
B( 10-S , 12-S ) :   0.1078 B( 11-P , 12-S ) :   1.5804 B( 11-P , 13-O ) :   1.1060
B( 11-P , 16-O ) :   1.1183 B( 13-O , 14-C ) :   0.9083 B( 14-C , 15-C ) :   1.1664
B( 14-C , 31-H ) :   0.9164 B( 14-C , 32-H ) :   0.9338 B( 15-C , 33-H ) :   0.9359
B( 15-C , 34-H ) :   0.9377 B( 15-C , 35-H ) :   0.9445 B( 16-O , 17-C ) :   0.9070
B( 17-C , 18-C ) :   1.1605 B( 17-C , 36-H ) :   0.9174 B( 17-C , 37-H ) :   0.9252
B( 18-C , 38-H ) :   0.9393 B( 18-C , 39-H ) :   0.9454 B( 18-C , 40-H ) :   0.9339

Dispersion correction           -0.068292446
FINAL SINGLE POINT ENERGY     -2929.522306458656

DIPOLE MOMENT
-------------

Method             : SCF
Type of density    : Electron Density
Multiplicity       :   1
Irrep              :   0
Energy             : -2929.6400185645011334 Eh
Relativity type    :
Basis              : AO
                                X                 Y                 Z
Electronic contribution:      9.937059437      13.948405299      -7.649691244
Nuclear contribution   :    -10.651566558     -15.292060061       7.900689536
                        -----------------------------------------
Total Dipole Moment    :     -0.714507122      -1.343654762       0.250998291
                        -----------------------------------------
Magnitude (a.u.)       :      1.542377609
Magnitude (Debye)      :      3.920412323

Rotational constants in cm-1:             0.011943             0.005702             0.005200
Rotational constants in MHz :           358.038578           170.947622           155.897567

                             ****ORCA TERMINATED NORMALLY****
TOTAL RUN TIME: 0 days 0 hours 0 minutes 21 seconds 932 msec
