                         Program Version 6.0.0  -   RELEASE  -
|  1> ! pbe def2-sv(p) def2/J RI DEFGRID1 loosescf d4 GCP(DFT/SV(P)) printgap
|  2> %output
|  3>     printlevel normal
|  4> end
|  5> * xyz 0 1
|  6> C 4.6739113849 -1.4985596959 -0.7906449291
|  7> C 4.6870807627 -0.0803768558 -0.2574766347
|  8> O 3.5049643792 0.2286441971 0.5002561499
|  9> P 2.0662241746 0.3554035856 -0.1668014099
| 10> S 2.0702708808 1.1743024812 -1.9514941848
| 11> O 1.2615240365 1.084322278 0.9870594427
| 12> C 1.1978905429 2.5179192199 1.1046480113
| 13> C 2.5441369747 3.1256798 1.4342788001
| 14> S 1.298269445 -1.5930101082 0.0195862904
| 15> C 0.0980837914 -1.6329288962 -1.3585381933
| 16> S -1.5818572279 -1.9853078663 -0.8003203337
| 17> P -1.9930677091 -0.1149369211 0.1236356232
| 18> S -1.406695049 1.4505436446 -0.8983577273
| 19> O -1.3878795784 -0.1333880494 1.5739029395
| 20> C -1.3371787684 -1.2605256135 2.487081202
| 21> C -2.6910288782 -1.8893521346 2.7296572183
| 22> O -3.5567642978 -0.1820361402 0.3831697977
| 23> C -4.5115445625 0.0088275859 -0.6805896277
| 24> C -5.4570348904 1.1319576923 -0.3026466295
| 25> H 4.4759155927 -2.2033492839 0.0129287555
| 26> H 3.8997944225 -1.6024909353 -1.5497335232
| 27> H 5.6369390485 -1.7211631548 -1.2387452191
| 28> H 4.765854725 0.6368659518 -1.0808732132
| 29> H 5.4999956046 0.0760414931 0.4528194862
| 30> H 0.8020104759 2.9236621055 0.1672130387
| 31> H 0.4686473124 2.6781202065 1.9006786338
| 32> H 3.2246831777 2.9979229204 0.5933107923
| 33> H 2.4183716866 4.1864316457 1.6277448367
| 34> H 2.9690742219 2.6423728135 2.3101910973
| 35> H 0.3740642745 -2.447638333 -2.0225864365
| 36> H 0.1269718859 -0.6706411839 -1.8774247432
| 37> H -0.6301223829 -1.9917735399 2.0846629313
| 38> H -0.9264703715 -0.818096633 3.395884591
| 39> H -3.0566876939 -2.3645343605 1.8218333317
| 40> H -2.5929087491 -2.6413969428 3.5065855191
| 41> H -3.4064033842 -1.1349673165 3.046145651
| 42> H -3.9792520853 0.2456841849 -1.6069052068
| 43> H -5.0395861393 -0.9396429486 -0.7960264765
| 44> H -4.9049279027 2.0639302944 -0.2049379271
| 45> H -6.2086208564 1.2431073718 -1.0773500105
| 46> H -5.9423562035 0.9089535955 0.6429199719
| 47> *
| 48>
| 49>                          ****END OF INPUT****

CARTESIAN COORDINATES (ANGSTROEM)
---------------------------------
  C      4.673911   -1.498560   -0.790645
  C      4.687081   -0.080377   -0.257477
  O      3.504964    0.228644    0.500256
  P      2.066224    0.355404   -0.166801
  S      2.070271    1.174302   -1.951494
  O      1.261524    1.084322    0.987059
  C      1.197891    2.517919    1.104648
  C      2.544137    3.125680    1.434279
  S      1.298269   -1.593010    0.019586
  C      0.098084   -1.632929   -1.358538
  S     -1.581857   -1.985308   -0.800320
  P     -1.993068   -0.114937    0.123636
  S     -1.406695    1.450544   -0.898358
  O     -1.387880   -0.133388    1.573903
  C     -1.337179   -1.260526    2.487081
  C     -2.691029   -1.889352    2.729657
  O     -3.556764   -0.182036    0.383170
  C     -4.511545    0.008828   -0.680590
  C     -5.457035    1.131958   -0.302647
  H      4.475916   -2.203349    0.012929
  H      3.899794   -1.602491   -1.549734
  H      5.636939   -1.721163   -1.238745
  H      4.765855    0.636866   -1.080873
  H      5.499996    0.076041    0.452819
  H      0.802010    2.923662    0.167213
  H      0.468647    2.678120    1.900679
  H      3.224683    2.997923    0.593311
  H      2.418372    4.186432    1.627745
  H      2.969074    2.642373    2.310191
  H      0.374064   -2.447638   -2.022586
  H      0.126972   -0.670641   -1.877425
  H     -0.630122   -1.991774    2.084663
  H     -0.926470   -0.818097    3.395885
  H     -3.056688   -2.364534    1.821833
  H     -2.592909   -2.641397    3.506586
  H     -3.406403   -1.134967    3.046146
  H     -3.979252    0.245684   -1.606905
  H     -5.039586   -0.939643   -0.796026
  H     -4.904928    2.063930   -0.204938
  H     -6.208621    1.243107   -1.077350
  H     -5.942356    0.908954    0.642920

 Total Charge           Charge          ....    0
 Multiplicity           Mult            ....    1
 Number of Electrons    NEL             ....  202
 Basis Dimension        Dim             ....  334

ORBITAL ENERGIES
----------------

  NO   OCC          E(Eh)            E(eV)
   0   2.0000     -88.044644     -2395.8166
   1   2.0000     -88.041588     -2395.7334
   2   2.0000     -87.982755     -2394.1325
   3   2.0000     -87.978600     -2394.0194
   4   2.0000     -76.424277     -2079.6103
   5   2.0000     -76.420899     -2079.5184
   6   2.0000     -18.793056      -511.3850
   7   2.0000     -18.790130      -511.3054
   8   2.0000     -18.788488      -511.2607
   9   2.0000     -18.778598      -510.9916
  10   2.0000      -9.955197      -270.8947
  11   2.0000      -9.953255      -270.8418
  12   2.0000      -9.952728      -270.8275
  13   2.0000      -9.948815      -270.7210
  14   2.0000      -9.937727      -270.4193
  15   2.0000      -9.886489      -269.0250
  16   2.0000      -9.884953      -268.9832
  17   2.0000      -9.881474      -268.8886
  18   2.0000      -9.875582      -268.7282
  19   2.0000      -7.689785      -209.2497
  20   2.0000      -7.686654      -209.1645
  21   2.0000      -7.627641      -207.5587
  22   2.0000      -7.623538      -207.4470
  23   2.0000      -6.421646      -174.7419
  24   2.0000      -6.418464      -174.6553
  25   2.0000      -5.717569      -155.5830
  26   2.0000      -5.714493      -155.4992
  27   2.0000      -5.714091      -155.4883
  28   2.0000      -5.711185      -155.4092
  29   2.0000      -5.707081      -155.2976
  30   2.0000      -5.703560      -155.2018
  31   2.0000      -5.656504      -153.9213
  32   2.0000      -5.652505      -153.8125
  33   2.0000      -5.648478      -153.7029
  34   2.0000      -5.647672      -153.6810
  35   2.0000      -5.643997      -153.5810
  36   2.0000      -5.643780      -153.5751
  37   2.0000      -4.644437      -126.3816
  38   2.0000      -4.643603      -126.3589
  39   2.0000      -4.641740      -126.3082
  40   2.0000      -4.640727      -126.2806
  41   2.0000      -4.640060      -126.2624
  42   2.0000      -4.639368      -126.2436
  43   2.0000      -0.986370       -26.8405
  44   2.0000      -0.979927       -26.6652
  45   2.0000      -0.944696       -25.7065
  46   2.0000      -0.937197       -25.5024
  47   2.0000      -0.762116       -20.7382
  48   2.0000      -0.719272       -19.5724
  49   2.0000      -0.706792       -19.2328
  50   2.0000      -0.691182       -18.8080
  51   2.0000      -0.682454       -18.5705
  52   2.0000      -0.671710       -18.2781
  53   2.0000      -0.647972       -17.6322
  54   2.0000      -0.631823       -17.1928
  55   2.0000      -0.598293       -16.2804
  56   2.0000      -0.590946       -16.0805
  57   2.0000      -0.569620       -15.5001
  58   2.0000      -0.566373       -15.4118
  59   2.0000      -0.562381       -15.3032
  60   2.0000      -0.501764       -13.6537
  61   2.0000      -0.486131       -13.2283
  62   2.0000      -0.474937       -12.9237
  63   2.0000      -0.465342       -12.6626
  64   2.0000      -0.448541       -12.2054
  65   2.0000      -0.446556       -12.1514
  66   2.0000      -0.437535       -11.9059
  67   2.0000      -0.434506       -11.8235
  68   2.0000      -0.430047       -11.7022
  69   2.0000      -0.414000       -11.2655
  70   2.0000      -0.406769       -11.0687
  71   2.0000      -0.399045       -10.8586
  72   2.0000      -0.385952       -10.5023
  73   2.0000      -0.384251       -10.4560
  74   2.0000      -0.377180       -10.2636
  75   2.0000      -0.376981       -10.2582
  76   2.0000      -0.365077        -9.9342
  77   2.0000      -0.357950        -9.7403
  78   2.0000      -0.350434        -9.5358
  79   2.0000      -0.350053        -9.5254
  80   2.0000      -0.348039        -9.4706
  81   2.0000      -0.342631        -9.3234
  82   2.0000      -0.336063        -9.1447
  83   2.0000      -0.332778        -9.0553
  84   2.0000      -0.332295        -9.0422
  85   2.0000      -0.314143        -8.5483
  86   2.0000      -0.307805        -8.3758
  87   2.0000      -0.295443        -8.0394
  88   2.0000      -0.292350        -7.9553
  89   2.0000      -0.290328        -7.9002
  90   2.0000      -0.274953        -7.4818
  91   2.0000      -0.271317        -7.3829
  92   2.0000      -0.264039        -7.1849
  93   2.0000      -0.261398        -7.1130
  94   2.0000      -0.257513        -7.0073
  95   2.0000      -0.238283        -6.4840
  96   2.0000      -0.219489        -5.9726
  97   2.0000      -0.212799        -5.7905
  98   2.0000      -0.202223        -5.5028
  99   2.0000      -0.192406        -5.2356
 100   2.0000      -0.184636        -5.0242
 101   0.0000      -0.040481        -1.1016
 102   0.0000      -0.030513        -0.8303
 103   0.0000      -0.008099        -0.2204
 104   0.0000       0.014552         0.3960
 105   0.0000       0.024425         0.6646

MULLIKEN ATOMIC CHARGES
-----------------------
   0 C :   -0.309319
   1 C :   -0.003222
   2 O :   -0.375084
   3 P :    0.614953
   4 S :   -0.318495
   5 O :   -0.354803
   6 C :   -0.001554
   7 C :   -0.302019
   8 S :   -0.098843
   9 C :   -0.352474
  10 S :   -0.115088
  11 P :    0.591267
  12 S :   -0.302197
  13 O :   -0.347741
  14 C :   -0.000928
  15 C :   -0.306398
  16 O :   -0.375830
  17 C :   -0.008475
  18 C :   -0.282320
  19 H :    0.116434
  20 H :    0.120682
  21 H :    0.111056
  22 H :    0.109239
  23 H :    0.103231
  24 H :    0.121586
  25 H :    0.101451
  26 H :    0.119149
  27 H :    0.109034
  28 H :    0.111907
  29 H :    0.182408
  30 H :    0.212706
  31 H :    0.115917
  32 H :    0.108175
  33 H :    0.117024
  34 H :    0.112758
  35 H :    0.120618
  36 H :    0.105825
  37 H :    0.103100
  38 H :    0.122366
  39 H :    0.110425
  40 H :    0.113482
Sum of atomic charges:    0.0000000

LOEWDIN ATOMIC CHARGES
----------------------
   0 C :   -0.369304
   1 C :   -0.120198
   2 O :   -0.245517
   3 P :    0.571301
   4 S :   -0.311888
   5 O :   -0.232623
   6 C :   -0.118968
   7 C :   -0.365863
   8 S :    0.089217
   9 C :   -0.477408
  10 S :    0.060810
  11 P :    0.564612
  12 S :   -0.295929
  13 O :   -0.226030
  14 C :   -0.113082
  15 C :   -0.366917
  16 O :   -0.245727
  17 C :   -0.119775
  18 C :   -0.352977
  19 H :    0.123276
  20 H :    0.119643
  21 H :    0.129825
  22 H :    0.109353
  23 H :    0.117652
  24 H :    0.109236
  25 H :    0.118245
  26 H :    0.120814
  27 H :    0.128961
  28 H :    0.123856
  29 H :    0.136790
  30 H :    0.127729
  31 H :    0.103738
  32 H :    0.122506
  33 H :    0.117735
  34 H :    0.131072
  35 H :    0.127549
  36 H :    0.108870
  37 H :    0.114030
  38 H :    0.130064
  39 H :    0.130056
  40 H :    0.125264

  Mayer bond orders larger than 0.100000
B(  0-C ,  1-C ) :   1.1675 B(  0-C , 19-H ) :   0.9441 B(  0-C , 20-H ) :   0.9368
B(  0-C , 21-H ) :   0.9381 B(  1-C ,  2-O ) :   0.9122 B(  1-C , 22-H ) :   0.9142
B(  1-C , 23-H ) :   0.9340 B(  2-O ,  3-P ) :   1.0960 B(  3-P ,  4-S ) :   1.5972
B(  3-P ,  5-O ) :   1.1484 B(  3-P ,  8-S ) :   0.9570 B(  4-S ,  8-S ) :   0.1136
B(  5-O ,  6-C ) :   0.9039 B(  6-C ,  7-C ) :   1.1573 B(  6-C , 24-H ) :   0.9137
B(  6-C , 25-H ) :   0.9360 B(  7-C , 26-H ) :   0.9380 B(  7-C , 27-H ) :   0.9393
B(  7-C , 28-H ) :   0.9448 B(  8-S ,  9-C ) :   0.9922 B(  9-C , 10-S ) :   1.0057
B(  9-C , 29-H ) :   0.9110 B(  9-C , 30-H ) :   0.8471 B( 10-S , 11-P ) :   0.9358
B( 10-S , 12-S ) :   0.1058 B( 11-P , 12-S ) :   1.6325 B( 11-P , 13-O ) :   1.1586
B( 11-P , 16-O ) :   1.0912 B( 13-O , 14-C ) :   0.8949 B( 14-C , 15-C ) :   1.1693
B( 14-C , 31-H ) :   0.9103 B( 14-C , 32-H ) :   0.9354 B( 15-C , 33-H ) :   0.9386
B( 15-C , 34-H ) :   0.9358 B( 15-C , 35-H ) :   0.9429 B( 16-O , 17-C ) :   0.8993
B( 17-C , 18-C ) :   1.1661 B( 17-C , 36-H ) :   0.9039 B( 17-C , 37-H ) :   0.9339
B( 18-C , 38-H ) :   0.9458 B( 18-C , 39-H ) :   0.9409 B( 18-C , 40-H ) :   0.9503

Dispersion correction           -0.067724292
FINAL SINGLE POINT ENERGY     -2929.520268919216

DIPOLE MOMENT
-------------

Method             : SCF
Type of density    : Electron Density
Multiplicity       :   1
Irrep              :   0
Energy             : -2929.6383065586360317 Eh
Relativity type    :
Basis              : AO
                                X                 Y                 Z
Electronic contribution:      1.735912907      -2.601438988      -8.772813021
Nuclear contribution   :     -1.978814222       1.767090350       9.678032018
                        -----------------------------------------
Total Dipole Moment    :     -0.242901315      -0.834348638       0.905218997
                        -----------------------------------------
Magnitude (a.u.)       :      1.254814779
Magnitude (Debye)      :      3.189485697

Rotational constants in cm-1:             0.013164             0.005181             0.004852
Rotational constants in MHz :           394.653001           155.329430           145.452623

                             ****ORCA TERMINATED NORMALLY****
TOTAL RUN TIME: 0 days 0 hours 0 minutes 21 seconds 572 msec
