                         Program Version 6.0.0  -   RELEASE  -
|  1> ! pbe def2-sv(p) def2/J RI DEFGRID1 loosescf d4 GCP(DFT/SV(P)) printgap
|  2> %output
|  3>     printlevel normal
|  4> end
|  5> * xyz 0 1
|  6> C 3.6719586873 -1.7219299896 -2.6186470969
|  7> C 3.6560040322 -1.9957177532 -1.1282633995
|  8> O 3.7150272679 -0.7622639668 -0.3701194579
|  9> P 2.4442279792 -0.0208388383 0.2171706145
| 10> S 2.9610812174 1.4668278731 1.3712268744
| 11> O 1.5352529475 -1.1519235539 0.8940968663
| 12> C 1.5291816002 -1.3740273676 2.3173936646
| 13> C 2.8115901154 -2.0359958783 2.7784767518
| 14> S 1.2443537702 0.4453226768 -1.4627548226
| 15> C 0.239983822 1.7090599 -0.6365911708
| 16> S -0.7737146108 1.0597946206 0.710994445
| 17> P -2.4216688732 0.3848488857 -0.4860852096
| 18> S -2.051870807 -0.1885239344 -2.3174889668
| 19> O -3.4182940579 1.6061491475 -0.5362283538
| 20> C -3.9651997896 2.2542252841 0.6378593468
| 21> C -5.3499167169 1.7221671721 0.9462285326
| 22> O -3.1646769357 -0.6245958601 0.4895412505
| 23> C -2.5476308579 -1.7337541926 1.1692694356
| 24> C -1.6889514084 -2.5839812449 0.2565596309
| 25> H 3.7431380382 -2.6651049645 -3.1513345511
| 26> H 2.7620036431 -1.2100868341 -2.9264353315
| 27> H 4.5256866168 -1.1001245495 -2.8737735607
| 28> H 4.5499382077 -2.5401292441 -0.8187640081
| 29> H 2.7611878603 -2.5510264159 -0.8378343156
| 30> H 1.3871179985 -0.411350175 2.8181249256
| 31> H 0.6601864085 -2.0120675908 2.4833615817
| 32> H 3.6577450392 -1.3827111488 2.5658870964
| 33> H 2.762382555 -2.2107116233 3.848541533
| 34> H 2.9579323351 -2.9824566582 2.2645396878
| 35> H -0.3997034989 2.1417085382 -1.4035524201
| 36> H 0.9011379618 2.4549802189 -0.1959715843
| 37> H -3.2825304003 2.1018723015 1.4788578601
| 38> H -3.9966371911 3.3136063126 0.3766100484
| 39> H -5.3026080207 0.6638524236 1.1875228366
| 40> H -5.7597413148 2.2664895073 1.7912655844
| 41> H -5.9982770218 1.8547935009 0.0845363929
| 42> H -1.9566081039 -1.3315905732 1.9972861196
| 43> H -3.3946316944 -2.3012714553 1.5593194784
| 44> H -0.822845609 -2.0178459601 -0.0856056033
| 45> H -1.3469721298 -3.4625062366 0.7948451764
| 46> H -2.2581107542 -2.896569393 -0.6159600084
| 47> *
| 48>
| 49>                          ****END OF INPUT****

CARTESIAN COORDINATES (ANGSTROEM)
---------------------------------
  C      3.671959   -1.721930   -2.618647
  C      3.656004   -1.995718   -1.128263
  O      3.715027   -0.762264   -0.370119
  P      2.444228   -0.020839    0.217171
  S      2.961081    1.466828    1.371227
  O      1.535253   -1.151924    0.894097
  C      1.529182   -1.374027    2.317394
  C      2.811590   -2.035996    2.778477
  S      1.244354    0.445323   -1.462755
  C      0.239984    1.709060   -0.636591
  S     -0.773715    1.059795    0.710994
  P     -2.421669    0.384849   -0.486085
  S     -2.051871   -0.188524   -2.317489
  O     -3.418294    1.606149   -0.536228
  C     -3.965200    2.254225    0.637859
  C     -5.349917    1.722167    0.946229
  O     -3.164677   -0.624596    0.489541
  C     -2.547631   -1.733754    1.169269
  C     -1.688951   -2.583981    0.256560
  H      3.743138   -2.665105   -3.151335
  H      2.762004   -1.210087   -2.926435
  H      4.525687   -1.100125   -2.873774
  H      4.549938   -2.540129   -0.818764
  H      2.761188   -2.551026   -0.837834
  H      1.387118   -0.411350    2.818125
  H      0.660186   -2.012068    2.483362
  H      3.657745   -1.382711    2.565887
  H      2.762383   -2.210712    3.848542
  H      2.957932   -2.982457    2.264540
  H     -0.399703    2.141709   -1.403552
  H      0.901138    2.454980   -0.195972
  H     -3.282530    2.101872    1.478858
  H     -3.996637    3.313606    0.376610
  H     -5.302608    0.663852    1.187523
  H     -5.759741    2.266490    1.791266
  H     -5.998277    1.854794    0.084536
  H     -1.956608   -1.331591    1.997286
  H     -3.394632   -2.301271    1.559319
  H     -0.822846   -2.017846   -0.085606
  H     -1.346972   -3.462506    0.794845
  H     -2.258111   -2.896569   -0.615960

 Total Charge           Charge          ....    0
 Multiplicity           Mult            ....    1
 Number of Electrons    NEL             ....  202
 Basis Dimension        Dim             ....  334

ORBITAL ENERGIES
----------------

  NO   OCC          E(Eh)            E(eV)
   0   2.0000     -88.043663     -2395.7899
   1   2.0000     -88.039698     -2395.6820
   2   2.0000     -87.986855     -2394.2441
   3   2.0000     -87.982491     -2394.1253
   4   2.0000     -76.426531     -2079.6716
   5   2.0000     -76.425386     -2079.6405
   6   2.0000     -18.797919      -511.5174
   7   2.0000     -18.794660      -511.4287
   8   2.0000     -18.792916      -511.3812
   9   2.0000     -18.789692      -511.2935
  10   2.0000      -9.962327      -271.0887
  11   2.0000      -9.959979      -271.0248
  12   2.0000      -9.955678      -270.9078
  13   2.0000      -9.955362      -270.8992
  14   2.0000      -9.954198      -270.8675
  15   2.0000      -9.889482      -269.1065
  16   2.0000      -9.888022      -269.0668
  17   2.0000      -9.886630      -269.0289
  18   2.0000      -9.883770      -268.9511
  19   2.0000      -7.688108      -209.2041
  20   2.0000      -7.684541      -209.1070
  21   2.0000      -7.632138      -207.6810
  22   2.0000      -7.627771      -207.5622
  23   2.0000      -6.423673      -174.7970
  24   2.0000      -6.423294      -174.7867
  25   2.0000      -5.715794      -155.5347
  26   2.0000      -5.712673      -155.4497
  27   2.0000      -5.712437      -155.4433
  28   2.0000      -5.709277      -155.3573
  29   2.0000      -5.705306      -155.2493
  30   2.0000      -5.701309      -155.1405
  31   2.0000      -5.661133      -154.0473
  32   2.0000      -5.656933      -153.9330
  33   2.0000      -5.652701      -153.8178
  34   2.0000      -5.652217      -153.8046
  35   2.0000      -5.648332      -153.6989
  36   2.0000      -5.647733      -153.6826
  37   2.0000      -4.646581      -126.4399
  38   2.0000      -4.646252      -126.4310
  39   2.0000      -4.645699      -126.4159
  40   2.0000      -4.644613      -126.3863
  41   2.0000      -4.643805      -126.3644
  42   2.0000      -4.643626      -126.3595
  43   2.0000      -0.990065       -26.9410
  44   2.0000      -0.986729       -26.8502
  45   2.0000      -0.946788       -25.7634
  46   2.0000      -0.945953       -25.7407
  47   2.0000      -0.763977       -20.7889
  48   2.0000      -0.722722       -19.6663
  49   2.0000      -0.712759       -19.3952
  50   2.0000      -0.694366       -18.8946
  51   2.0000      -0.692749       -18.8507
  52   2.0000      -0.675154       -18.3719
  53   2.0000      -0.651055       -17.7161
  54   2.0000      -0.640152       -17.4194
  55   2.0000      -0.595391       -16.2014
  56   2.0000      -0.590549       -16.0697
  57   2.0000      -0.580947       -15.8084
  58   2.0000      -0.576268       -15.6811
  59   2.0000      -0.563808       -15.3420
  60   2.0000      -0.506557       -13.7841
  61   2.0000      -0.499710       -13.5978
  62   2.0000      -0.480453       -13.0738
  63   2.0000      -0.474280       -12.9058
  64   2.0000      -0.459964       -12.5163
  65   2.0000      -0.450887       -12.2693
  66   2.0000      -0.443497       -12.0682
  67   2.0000      -0.439216       -11.9517
  68   2.0000      -0.432790       -11.7768
  69   2.0000      -0.417217       -11.3530
  70   2.0000      -0.412281       -11.2187
  71   2.0000      -0.404236       -10.9998
  72   2.0000      -0.396660       -10.7937
  73   2.0000      -0.385456       -10.4888
  74   2.0000      -0.376914       -10.2564
  75   2.0000      -0.375431       -10.2160
  76   2.0000      -0.365862        -9.9556
  77   2.0000      -0.357919        -9.7395
  78   2.0000      -0.355794        -9.6816
  79   2.0000      -0.354907        -9.6575
  80   2.0000      -0.350961        -9.5501
  81   2.0000      -0.349722        -9.5164
  82   2.0000      -0.346494        -9.4286
  83   2.0000      -0.339926        -9.2499
  84   2.0000      -0.337754        -9.1907
  85   2.0000      -0.323107        -8.7922
  86   2.0000      -0.318414        -8.6645
  87   2.0000      -0.304224        -8.2783
  88   2.0000      -0.299398        -8.1470
  89   2.0000      -0.289384        -7.8745
  90   2.0000      -0.283755        -7.7214
  91   2.0000      -0.279376        -7.6022
  92   2.0000      -0.272425        -7.4131
  93   2.0000      -0.270820        -7.3694
  94   2.0000      -0.260620        -7.0918
  95   2.0000      -0.234497        -6.3810
  96   2.0000      -0.215463        -5.8630
  97   2.0000      -0.210527        -5.7287
  98   2.0000      -0.204626        -5.5682
  99   2.0000      -0.199578        -5.4308
 100   2.0000      -0.191073        -5.1994
 101   0.0000      -0.042889        -1.1671
 102   0.0000      -0.027366        -0.7447
 103   0.0000      -0.006363        -0.1731
 104   0.0000       0.003552         0.0967
 105   0.0000       0.009414         0.2562

MULLIKEN ATOMIC CHARGES
-----------------------
   0 C :   -0.302656
   1 C :   -0.028822
   2 O :   -0.366685
   3 P :    0.616090
   4 S :   -0.318553
   5 O :   -0.379249
   6 C :   -0.015522
   7 C :   -0.307582
   8 S :   -0.074117
   9 C :   -0.339499
  10 S :   -0.105658
  11 P :    0.582718
  12 S :   -0.302678
  13 O :   -0.352323
  14 C :   -0.010146
  15 C :   -0.288701
  16 O :   -0.382071
  17 C :   -0.011777
  18 C :   -0.336748
  19 H :    0.113264
  20 H :    0.140611
  21 H :    0.124561
  22 H :    0.110839
  23 H :    0.112038
  24 H :    0.114033
  25 H :    0.103108
  26 H :    0.131397
  27 H :    0.112893
  28 H :    0.110196
  29 H :    0.188284
  30 H :    0.194712
  31 H :    0.097168
  32 H :    0.109428
  33 H :    0.120616
  34 H :    0.108811
  35 H :    0.120870
  36 H :    0.113289
  37 H :    0.108375
  38 H :    0.152542
  39 H :    0.108017
  40 H :    0.128928
Sum of atomic charges:    0.0000000

LOEWDIN ATOMIC CHARGES
----------------------
   0 C :   -0.361259
   1 C :   -0.117028
   2 O :   -0.242212
   3 P :    0.567777
   4 S :   -0.312015
   5 O :   -0.250793
   6 C :   -0.122546
   7 C :   -0.365091
   8 S :    0.097061
   9 C :   -0.477883
  10 S :    0.068978
  11 P :    0.565768
  12 S :   -0.303909
  13 O :   -0.238087
  14 C :   -0.116352
  15 C :   -0.359005
  16 O :   -0.244768
  17 C :   -0.113225
  18 C :   -0.376819
  19 H :    0.132140
  20 H :    0.121668
  21 H :    0.131262
  22 H :    0.121262
  23 H :    0.110918
  24 H :    0.109160
  25 H :    0.112769
  26 H :    0.126372
  27 H :    0.131292
  28 H :    0.122047
  29 H :    0.133926
  30 H :    0.131730
  31 H :    0.101561
  32 H :    0.121050
  33 H :    0.125807
  34 H :    0.128792
  35 H :    0.129298
  36 H :    0.107042
  37 H :    0.120577
  38 H :    0.124616
  39 H :    0.127410
  40 H :    0.130708

  Mayer bond orders larger than 0.100000
B(  0-C ,  1-C ) :   1.1692 B(  0-C , 19-H ) :   0.9379 B(  0-C , 20-H ) :   0.9325
B(  0-C , 21-H ) :   0.9460 B(  1-C ,  2-O ) :   0.9005 B(  1-C , 22-H ) :   0.9340
B(  1-C , 23-H ) :   0.9154 B(  2-O ,  3-P ) :   1.1263 B(  3-P ,  4-S ) :   1.6220
B(  3-P ,  5-O ) :   1.0602 B(  3-P ,  8-S ) :   0.9706 B(  4-S ,  8-S ) :   0.1027
B(  5-O ,  6-C ) :   0.9069 B(  6-C ,  7-C ) :   1.1621 B(  6-C , 24-H ) :   0.9124
B(  6-C , 25-H ) :   0.9269 B(  7-C , 26-H ) :   0.9338 B(  7-C , 27-H ) :   0.9400
B(  7-C , 28-H ) :   0.9470 B(  8-S ,  9-C ) :   1.0083 B(  9-C , 10-S ) :   0.9976
B(  9-C , 29-H ) :   0.8923 B(  9-C , 30-H ) :   0.8788 B( 10-S , 11-P ) :   0.9372
B( 10-S , 12-S ) :   0.1144 B( 11-P , 12-S ) :   1.6576 B( 11-P , 13-O ) :   1.1310
B( 11-P , 16-O ) :   1.0815 B( 13-O , 14-C ) :   0.8959 B( 14-C , 15-C ) :   1.1639
B( 14-C , 31-H ) :   0.9126 B( 14-C , 32-H ) :   0.9362 B( 15-C , 33-H ) :   0.9431
B( 15-C , 34-H ) :   0.9402 B( 15-C , 35-H ) :   0.9469 B( 16-O , 17-C ) :   0.9089
B( 17-C , 18-C ) :   1.1713 B( 17-C , 36-H ) :   0.9269 B( 17-C , 37-H ) :   0.9324
B( 18-C , 38-H ) :   0.9193 B( 18-C , 39-H ) :   0.9318 B( 18-C , 40-H ) :   0.9379

Dispersion correction           -0.065594110
FINAL SINGLE POINT ENERGY     -2929.516465812174

DIPOLE MOMENT
-------------

Method             : SCF
Type of density    : Electron Density
Multiplicity       :   1
Irrep              :   0
Energy             : -2929.6363230209449284 Eh
Relativity type    :
Basis              : AO
                                X                 Y                 Z
Electronic contribution:      3.233288290      14.537796747      -8.885418414
Nuclear contribution   :     -3.691994468     -15.691424935       9.998571149
                        -----------------------------------------
Total Dipole Moment    :     -0.458706178      -1.153628188       1.113152735
                        -----------------------------------------
Magnitude (a.u.)       :      1.667446661
Magnitude (Debye)      :      4.238312587

Rotational constants in cm-1:             0.012611             0.004804             0.004644
Rotational constants in MHz :           378.080903           144.021789           139.218666

                             ****ORCA TERMINATED NORMALLY****
TOTAL RUN TIME: 0 days 0 hours 0 minutes 21 seconds 256 msec
