                         Program Version 6.0.0  -   RELEASE  -
|  1> ! pbe def2-sv(p) def2/J RI DEFGRID1 loosescf d4 GCP(DFT/SV(P)) printgap
|  2> %output
|  3>     printlevel normal
|  4> end
|  5> * xyz 0 1
|  6> C 1.6018268792 -2.2930025202 1.9277263035
|  7> C 2.0677657977 -0.9000046284 2.2969322496
|  8> O 3.002041456 -0.3508102827 1.3501701966
|  9> P 2.7301439049 -0.1585786675 -0.2052277298
| 10> S 2.8119757881 -1.7294629351 -1.3673418796
| 11> O 3.8681913453 0.8499031574 -0.6118221755
| 12> C 4.0867844069 2.1256528344 0.0397859646
| 13> C 5.1880656496 2.0178988557 1.0746481807
| 14> S 0.9108179796 0.9888296999 -0.2716550435
| 15> C -0.0449932601 -0.0656098255 -1.3849188624
| 16> S -1.1898799084 -1.1579734784 -0.5100350114
| 17> P -2.7287007834 0.2994407801 -0.2566304131
| 18> S -3.090215501 1.4336622393 -1.8081761449
| 19> O -2.2938423503 1.1523455283 0.9930561139
| 20> C -1.9998885397 0.5738133775 2.2917278926
| 21> C -1.1314329707 1.5603378497 3.0445388034
| 22> O -3.9537149611 -0.5362047157 0.3164572319
| 23> C -4.9245191394 -1.1825792565 -0.5271522071
| 24> C -4.3120323111 -2.2688836504 -1.3868573805
| 25> H 1.005689454 -2.2700713258 1.0156739024
| 26> H 2.45526779 -2.9454717094 1.7600939792
| 27> H 0.9960453643 -2.6954520674 2.7333542055
| 28> H 2.6263773699 -0.9038745143 3.2345296719
| 29> H 1.2186177389 -0.2155235396 2.3752316176
| 30> H 4.367868546 2.8010013187 -0.7703633686
| 31> H 3.1471697909 2.4617249461 0.4870871414
| 32> H 5.3710016092 2.9988829513 1.5018653375
| 33> H 4.9002527583 1.3285244544 1.8634014756
| 34> H 6.0993324839 1.653745214 0.6082985815
| 35> H 0.6429649551 -0.7037348718 -1.9440302068
| 36> H -0.6190703684 0.5841292271 -2.0469267531
| 37> H -2.949521693 0.3987456365 2.8001401275
| 38> H -1.4922537391 -0.3836987424 2.1392424413
| 39> H -0.2278673411 1.7696090218 2.4768566136
| 40> H -1.6679984482 2.493598778 3.1875794425
| 41> H -0.8695130339 1.142876955 4.0114304054
| 42> H -5.6499826076 -1.5885283914 0.1792874349
| 43> H -5.3987222886 -0.4199516747 -1.1521896896
| 44> H -5.101585934 -2.8018715761 -1.906842005
| 45> H -3.6429029144 -1.8277556063 -2.1246146086
| 46> H -3.7475401521 -2.9670915736 -0.7736745794
| 47> *
| 48>
| 49>                          ****END OF INPUT****

CARTESIAN COORDINATES (ANGSTROEM)
---------------------------------
  C      1.601827   -2.293003    1.927726
  C      2.067766   -0.900005    2.296932
  O      3.002041   -0.350810    1.350170
  P      2.730144   -0.158579   -0.205228
  S      2.811976   -1.729463   -1.367342
  O      3.868191    0.849903   -0.611822
  C      4.086784    2.125653    0.039786
  C      5.188066    2.017899    1.074648
  S      0.910818    0.988830   -0.271655
  C     -0.044993   -0.065610   -1.384919
  S     -1.189880   -1.157973   -0.510035
  P     -2.728701    0.299441   -0.256630
  S     -3.090216    1.433662   -1.808176
  O     -2.293842    1.152346    0.993056
  C     -1.999889    0.573813    2.291728
  C     -1.131433    1.560338    3.044539
  O     -3.953715   -0.536205    0.316457
  C     -4.924519   -1.182579   -0.527152
  C     -4.312032   -2.268884   -1.386857
  H      1.005689   -2.270071    1.015674
  H      2.455268   -2.945472    1.760094
  H      0.996045   -2.695452    2.733354
  H      2.626377   -0.903875    3.234530
  H      1.218618   -0.215524    2.375232
  H      4.367869    2.801001   -0.770363
  H      3.147170    2.461725    0.487087
  H      5.371002    2.998883    1.501865
  H      4.900253    1.328524    1.863401
  H      6.099332    1.653745    0.608299
  H      0.642965   -0.703735   -1.944030
  H     -0.619070    0.584129   -2.046927
  H     -2.949522    0.398746    2.800140
  H     -1.492254   -0.383699    2.139242
  H     -0.227867    1.769609    2.476857
  H     -1.667998    2.493599    3.187579
  H     -0.869513    1.142877    4.011430
  H     -5.649983   -1.588528    0.179287
  H     -5.398722   -0.419952   -1.152190
  H     -5.101586   -2.801872   -1.906842
  H     -3.642903   -1.827756   -2.124615
  H     -3.747540   -2.967092   -0.773675

 Total Charge           Charge          ....    0
 Multiplicity           Mult            ....    1
 Number of Electrons    NEL             ....  202
 Basis Dimension        Dim             ....  334

ORBITAL ENERGIES
----------------

  NO   OCC          E(Eh)            E(eV)
   0   2.0000     -88.045547     -2395.8411
   1   2.0000     -88.045337     -2395.8354
   2   2.0000     -87.989155     -2394.3066
   3   2.0000     -87.988742     -2394.2954
   4   2.0000     -76.429620     -2079.7557
   5   2.0000     -76.428726     -2079.7314
   6   2.0000     -18.798692      -511.5384
   7   2.0000     -18.798123      -511.5229
   8   2.0000     -18.794983      -511.4375
   9   2.0000     -18.793251      -511.3904
  10   2.0000      -9.961920      -271.0776
  11   2.0000      -9.960876      -271.0492
  12   2.0000      -9.959678      -271.0166
  13   2.0000      -9.957567      -270.9592
  14   2.0000      -9.950422      -270.7647
  15   2.0000      -9.892691      -269.1938
  16   2.0000      -9.889661      -269.1114
  17   2.0000      -9.886853      -269.0350
  18   2.0000      -9.885517      -268.9986
  19   2.0000      -7.690000      -209.2555
  20   2.0000      -7.689827      -209.2508
  21   2.0000      -7.634363      -207.7416
  22   2.0000      -7.633971      -207.7309
  23   2.0000      -6.427026      -174.8883
  24   2.0000      -6.426439      -174.8723
  25   2.0000      -5.717604      -155.5839
  26   2.0000      -5.717558      -155.5827
  27   2.0000      -5.714567      -155.5013
  28   2.0000      -5.714324      -155.4947
  29   2.0000      -5.707278      -155.3029
  30   2.0000      -5.707079      -155.2975
  31   2.0000      -5.663424      -154.1096
  32   2.0000      -5.662993      -154.0979
  33   2.0000      -5.655020      -153.8809
  34   2.0000      -5.654512      -153.8671
  35   2.0000      -5.654296      -153.8612
  36   2.0000      -5.654084      -153.8555
  37   2.0000      -4.649742      -126.5259
  38   2.0000      -4.649366      -126.5157
  39   2.0000      -4.648940      -126.5041
  40   2.0000      -4.648080      -126.4807
  41   2.0000      -4.647229      -126.4575
  42   2.0000      -4.646663      -126.4421
  43   2.0000      -0.992395       -27.0044
  44   2.0000      -0.992315       -27.0023
  45   2.0000      -0.949282       -25.8313
  46   2.0000      -0.948919       -25.8214
  47   2.0000      -0.763967       -20.7886
  48   2.0000      -0.725960       -19.7544
  49   2.0000      -0.716975       -19.5099
  50   2.0000      -0.694734       -18.9047
  51   2.0000      -0.693374       -18.8677
  52   2.0000      -0.679770       -18.4975
  53   2.0000      -0.653413       -17.7803
  54   2.0000      -0.641573       -17.4581
  55   2.0000      -0.598330       -16.2814
  56   2.0000      -0.593326       -16.1452
  57   2.0000      -0.579413       -15.7666
  58   2.0000      -0.576960       -15.6999
  59   2.0000      -0.564321       -15.3560
  60   2.0000      -0.511769       -13.9259
  61   2.0000      -0.504610       -13.7311
  62   2.0000      -0.479039       -13.0353
  63   2.0000      -0.477823       -13.0022
  64   2.0000      -0.463731       -12.6188
  65   2.0000      -0.450643       -12.2626
  66   2.0000      -0.443792       -12.0762
  67   2.0000      -0.441158       -12.0045
  68   2.0000      -0.434356       -11.8194
  69   2.0000      -0.428135       -11.6502
  70   2.0000      -0.413119       -11.2416
  71   2.0000      -0.407011       -11.0753
  72   2.0000      -0.396255       -10.7826
  73   2.0000      -0.389712       -10.6046
  74   2.0000      -0.380160       -10.3447
  75   2.0000      -0.367933       -10.0120
  76   2.0000      -0.367278        -9.9941
  77   2.0000      -0.363259        -9.8848
  78   2.0000      -0.359650        -9.7866
  79   2.0000      -0.358267        -9.7489
  80   2.0000      -0.351352        -9.5608
  81   2.0000      -0.348507        -9.4834
  82   2.0000      -0.344003        -9.3608
  83   2.0000      -0.342319        -9.3150
  84   2.0000      -0.339075        -9.2267
  85   2.0000      -0.322968        -8.7884
  86   2.0000      -0.318916        -8.6781
  87   2.0000      -0.306018        -8.3272
  88   2.0000      -0.301547        -8.2055
  89   2.0000      -0.298213        -8.1148
  90   2.0000      -0.291386        -7.9290
  91   2.0000      -0.282155        -7.6778
  92   2.0000      -0.274576        -7.4716
  93   2.0000      -0.267305        -7.2738
  94   2.0000      -0.259908        -7.0725
  95   2.0000      -0.239846        -6.5265
  96   2.0000      -0.221956        -6.0397
  97   2.0000      -0.212704        -5.7880
  98   2.0000      -0.206215        -5.6114
  99   2.0000      -0.204444        -5.5632
 100   2.0000      -0.200977        -5.4689
 101   0.0000      -0.045408        -1.2356
 102   0.0000      -0.034240        -0.9317
 103   0.0000      -0.014990        -0.4079
 104   0.0000       0.001513         0.0412
 105   0.0000       0.011525         0.3136

MULLIKEN ATOMIC CHARGES
-----------------------
   0 C :   -0.317477
   1 C :   -0.024848
   2 O :   -0.378294
   3 P :    0.592935
   4 S :   -0.296615
   5 O :   -0.350421
   6 C :   -0.015322
   7 C :   -0.288125
   8 S :   -0.114449
   9 C :   -0.358849
  10 S :   -0.096940
  11 P :    0.599388
  12 S :   -0.306137
  13 O :   -0.356312
  14 C :   -0.020424
  15 C :   -0.290118
  16 O :   -0.385889
  17 C :    0.000613
  18 C :   -0.323351
  19 H :    0.135120
  20 H :    0.126095
  21 H :    0.108209
  22 H :    0.106356
  23 H :    0.118430
  24 H :    0.115793
  25 H :    0.103483
  26 H :    0.110317
  27 H :    0.121277
  28 H :    0.122805
  29 H :    0.197465
  30 H :    0.194298
  31 H :    0.109146
  32 H :    0.106844
  33 H :    0.137029
  34 H :    0.122515
  35 H :    0.106549
  36 H :    0.105834
  37 H :    0.114672
  38 H :    0.116252
  39 H :    0.132930
  40 H :    0.119215
Sum of atomic charges:   -0.0000000

LOEWDIN ATOMIC CHARGES
----------------------
   0 C :   -0.370921
   1 C :   -0.118291
   2 O :   -0.244368
   3 P :    0.567516
   4 S :   -0.289118
   5 O :   -0.234422
   6 C :   -0.112122
   7 C :   -0.358749
   8 S :    0.065255
   9 C :   -0.492132
  10 S :    0.087542
  11 P :    0.570230
  12 S :   -0.306918
  13 O :   -0.236849
  14 C :   -0.116368
  15 C :   -0.356032
  16 O :   -0.249402
  17 C :   -0.114697
  18 C :   -0.371945
  19 H :    0.113852
  20 H :    0.130635
  21 H :    0.128734
  22 H :    0.119935
  23 H :    0.106870
  24 H :    0.124194
  25 H :    0.103578
  26 H :    0.129578
  27 H :    0.126216
  28 H :    0.130585
  29 H :    0.126995
  30 H :    0.127878
  31 H :    0.116472
  32 H :    0.100200
  33 H :    0.123030
  34 H :    0.130983
  35 H :    0.128062
  36 H :    0.119211
  37 H :    0.114776
  38 H :    0.132848
  39 H :    0.123625
  40 H :    0.123538

  Mayer bond orders larger than 0.100000
B(  0-C ,  1-C ) :   1.1683 B(  0-C , 19-H ) :   0.9231 B(  0-C , 20-H ) :   0.9417
B(  0-C , 21-H ) :   0.9347 B(  1-C ,  2-O ) :   0.9124 B(  1-C , 22-H ) :   0.9320
B(  1-C , 23-H ) :   0.9120 B(  2-O ,  3-P ) :   1.0778 B(  3-P ,  4-S ) :   1.6475
B(  3-P ,  5-O ) :   1.1452 B(  3-P ,  8-S ) :   0.9368 B(  4-S ,  8-S ) :   0.1170
B(  4-S , 29-H ) :   0.1140 B(  5-O ,  6-C ) :   0.8932 B(  6-C ,  7-C ) :   1.1643
B(  6-C , 24-H ) :   0.9356 B(  6-C , 25-H ) :   0.9166 B(  7-C , 26-H ) :   0.9397
B(  7-C , 27-H ) :   0.9423 B(  7-C , 28-H ) :   0.9465 B(  8-S ,  9-C ) :   1.0050
B(  9-C , 10-S ) :   1.0049 B(  9-C , 29-H ) :   0.8507 B(  9-C , 30-H ) :   0.8609
B( 10-S , 11-P ) :   0.9486 B( 10-S , 12-S ) :   0.1068 B( 11-P , 12-S ) :   1.6393
B( 11-P , 13-O ) :   1.1413 B( 11-P , 16-O ) :   1.0917 B( 13-O , 14-C ) :   0.8890
B( 14-C , 15-C ) :   1.1699 B( 14-C , 31-H ) :   0.9292 B( 14-C , 32-H ) :   0.9066
B( 15-C , 33-H ) :   0.9317 B( 15-C , 34-H ) :   0.9455 B( 15-C , 35-H ) :   0.9401
B( 16-O , 17-C ) :   0.9042 B( 17-C , 18-C ) :   1.1658 B( 17-C , 36-H ) :   0.9342
B( 17-C , 37-H ) :   0.9210 B( 18-C , 38-H ) :   0.9365 B( 18-C , 39-H ) :   0.9336
B( 18-C , 40-H ) :   0.9431

Dispersion correction           -0.063824368
FINAL SINGLE POINT ENERGY     -2929.518856031464

DIPOLE MOMENT
-------------

Method             : SCF
Type of density    : Electron Density
Multiplicity       :   1
Irrep              :   0
Energy             : -2929.6401201731650872 Eh
Relativity type    :
Basis              : AO
                                X                 Y                 Z
Electronic contribution:     -1.639546882       2.032304510     -17.017115520
Nuclear contribution   :      1.397200519      -2.056839967      18.997723451
                        -----------------------------------------
Total Dipole Moment    :     -0.242346363      -0.024535456       1.980607931
                        -----------------------------------------
Magnitude (a.u.)       :      1.995530387
Magnitude (Debye)      :      5.072235146

Rotational constants in cm-1:             0.013050             0.004355             0.004198
Rotational constants in MHz :           391.220186           130.546124           125.853351

                             ****ORCA TERMINATED NORMALLY****
TOTAL RUN TIME: 0 days 0 hours 0 minutes 20 seconds 796 msec
