                         Program Version 6.0.1  -  RELEASE   -
|  1> ! pbe def2-sv(p) def2/J RI DEFGRID1 loosescf d4 GCP(DFT/SV(P)) printgap
|  2> %output
|  3>     printlevel normal
|  4> end
|  5> * xyz 0 1
|  6> C 5.3828459052 -1.9102125672 -1.2094524939
|  7> C 4.577022145 -0.6208366396 -1.2189710356
|  8> O 3.164232371 -0.8951925346 -1.271837049
|  9> C 2.5240340315 -1.101826461 -0.1369997252
| 10> O 3.0363923024 -1.0757369354 0.9578653212
| 11> C 1.0502551636 -1.3844801651 -0.3779949033
| 12> C 0.4073037824 -0.2454243731 -1.1740332339
| 13> H 0.9251209767 -0.123296847 -2.1284586477
| 14> C 0.4682484372 1.0473714693 -0.3892408145
| 15> O -0.5290498811 1.6309219728 -0.0091833899
| 16> O 1.6936353514 1.4344643389 -0.1737258533
| 17> C 1.9165144027 2.554610141 0.7136350845
| 18> C 1.896224703 2.0880430704 2.159675401
| 19> S -1.3337500709 -0.5851938107 -1.5906806104
| 20> P -2.3721590776 -0.0389261903 0.1817831118
| 21> S -1.5692749583 -0.3046848226 1.9629919779
| 22> O -3.2200346749 1.2755409478 -0.0821317373
| 23> C -3.0776690084 2.5149193345 0.6128936878
| 24> O -3.6389602305 -1.0047918399 -0.020368149
| 25> C -3.5264637656 -2.4220670354 0.1235900896
| 26> H 5.1289915693 -2.5173230187 -2.0739265563
| 27> H 6.4411073452 -1.6725670601 -1.2373273809
| 28> H 5.172394979 -2.4756614212 -0.3045155498
| 29> H 4.7748344075 -0.0349392062 -2.1165153584
| 30> H 4.7830370667 -0.0294405752 -0.322735243
| 31> H 0.5602442854 -1.5091558855 0.5900411893
| 32> H 0.9590894708 -2.306272786 -0.9535509526
| 33> H 2.8976979164 2.9318315587 0.4270385442
| 34> H 1.1447819935 3.3063756019 0.5303246416
| 35> H 2.1502356665 2.9163427971 2.8120744282
| 36> H 0.907802592 1.716917204 2.4261796111
| 37> H 2.6111500754 1.2808003968 2.3020361646
| 38> H -2.5619519099 2.3643896343 1.5627099937
| 39> H -4.0873850098 2.8820663925 0.7845895616
| 40> H -2.5120330574 3.2088332271 -0.0062025629
| 41> H -4.5471086732 -2.7933061111 0.1699031875
| 42> H -2.9934413745 -2.6650194968 1.0453943702
| 43> H -3.003762416 -2.847633599 -0.7334049417
| 44> *
| 45>
| 46>                          ****END OF INPUT****

CARTESIAN COORDINATES (ANGSTROEM)
---------------------------------
  C      5.382846   -1.910213   -1.209452
  C      4.577022   -0.620837   -1.218971
  O      3.164232   -0.895193   -1.271837
  C      2.524034   -1.101826   -0.137000
  O      3.036392   -1.075737    0.957865
  C      1.050255   -1.384480   -0.377995
  C      0.407304   -0.245424   -1.174033
  H      0.925121   -0.123297   -2.128459
  C      0.468248    1.047371   -0.389241
  O     -0.529050    1.630922   -0.009183
  O      1.693635    1.434464   -0.173726
  C      1.916514    2.554610    0.713635
  C      1.896225    2.088043    2.159675
  S     -1.333750   -0.585194   -1.590681
  P     -2.372159   -0.038926    0.181783
  S     -1.569275   -0.304685    1.962992
  O     -3.220035    1.275541   -0.082132
  C     -3.077669    2.514919    0.612894
  O     -3.638960   -1.004792   -0.020368
  C     -3.526464   -2.422067    0.123590
  H      5.128992   -2.517323   -2.073927
  H      6.441107   -1.672567   -1.237327
  H      5.172395   -2.475661   -0.304516
  H      4.774834   -0.034939   -2.116515
  H      4.783037   -0.029441   -0.322735
  H      0.560244   -1.509156    0.590041
  H      0.959089   -2.306273   -0.953551
  H      2.897698    2.931832    0.427039
  H      1.144782    3.306376    0.530325
  H      2.150236    2.916343    2.812074
  H      0.907803    1.716917    2.426180
  H      2.611150    1.280800    2.302036
  H     -2.561952    2.364390    1.562710
  H     -4.087385    2.882066    0.784590
  H     -2.512033    3.208833   -0.006203
  H     -4.547109   -2.793306    0.169903
  H     -2.993441   -2.665019    1.045394
  H     -3.003762   -2.847634   -0.733405

 Total Charge           Charge          ....    0
 Multiplicity           Mult            ....    1
 Number of Electrons    NEL             ....  174
 Basis Dimension        Dim             ....  316

ORBITAL ENERGIES
----------------

  NO   OCC          E(Eh)            E(eV)
   0   2.0000     -88.036712     -2395.6007
   1   2.0000     -87.974179     -2393.8991
   2   2.0000     -76.420669     -2079.5121
   3   2.0000     -18.828602      -512.3523
   4   2.0000     -18.807854      -511.7877
   5   2.0000     -18.778601      -510.9917
   6   2.0000     -18.772895      -510.8364
   7   2.0000     -18.765874      -510.6454
   8   2.0000     -18.742674      -510.0141
   9   2.0000     -10.034721      -273.0586
  10   2.0000     -10.014424      -272.5063
  11   2.0000      -9.960226      -271.0315
  12   2.0000      -9.955715      -270.9088
  13   2.0000      -9.954429      -270.8738
  14   2.0000      -9.932580      -270.2792
  15   2.0000      -9.930901      -270.2335
  16   2.0000      -9.910412      -269.6760
  17   2.0000      -9.892319      -269.1837
  18   2.0000      -9.883787      -268.9515
  19   2.0000      -7.681813      -209.0328
  20   2.0000      -7.619077      -207.3256
  21   2.0000      -6.416065      -174.5900
  22   2.0000      -5.709907      -155.3745
  23   2.0000      -5.706250      -155.2750
  24   2.0000      -5.698598      -155.0667
  25   2.0000      -5.648122      -153.6932
  26   2.0000      -5.640030      -153.4730
  27   2.0000      -5.638757      -153.4384
  28   2.0000      -4.638513      -126.2204
  29   2.0000      -4.638231      -126.2127
  30   2.0000      -4.636708      -126.1712
  31   2.0000      -1.039083       -28.2749
  32   2.0000      -1.015444       -27.6316
  33   2.0000      -0.972143       -26.4534
  34   2.0000      -0.944444       -25.6996
  35   2.0000      -0.925936       -25.1960
  36   2.0000      -0.919869       -25.0309
  37   2.0000      -0.771267       -20.9873
  38   2.0000      -0.714768       -19.4498
  39   2.0000      -0.713323       -19.4105
  40   2.0000      -0.687305       -18.7025
  41   2.0000      -0.656638       -17.8680
  42   2.0000      -0.627319       -17.0702
  43   2.0000      -0.620551       -16.8861
  44   2.0000      -0.610676       -16.6173
  45   2.0000      -0.598778       -16.2936
  46   2.0000      -0.571997       -15.5648
  47   2.0000      -0.512118       -13.9354
  48   2.0000      -0.509605       -13.8671
  49   2.0000      -0.502564       -13.6755
  50   2.0000      -0.489333       -13.3154
  51   2.0000      -0.470224       -12.7955
  52   2.0000      -0.463056       -12.6004
  53   2.0000      -0.451511       -12.2862
  54   2.0000      -0.448511       -12.2046
  55   2.0000      -0.428480       -11.6595
  56   2.0000      -0.421732       -11.4759
  57   2.0000      -0.419158       -11.4059
  58   2.0000      -0.415158       -11.2970
  59   2.0000      -0.406194       -11.0531
  60   2.0000      -0.400242       -10.8911
  61   2.0000      -0.396552       -10.7907
  62   2.0000      -0.389930       -10.6105
  63   2.0000      -0.383327       -10.4309
  64   2.0000      -0.380564       -10.3557
  65   2.0000      -0.368609       -10.0304
  66   2.0000      -0.366064        -9.9611
  67   2.0000      -0.353237        -9.6121
  68   2.0000      -0.351094        -9.5537
  69   2.0000      -0.343773        -9.3545
  70   2.0000      -0.342596        -9.3225
  71   2.0000      -0.334124        -9.0920
  72   2.0000      -0.327858        -8.9215
  73   2.0000      -0.311647        -8.4804
  74   2.0000      -0.304703        -8.2914
  75   2.0000      -0.299916        -8.1611
  76   2.0000      -0.294700        -8.0192
  77   2.0000      -0.285304        -7.7635
  78   2.0000      -0.277193        -7.5428
  79   2.0000      -0.265742        -7.2312
  80   2.0000      -0.262755        -7.1499
  81   2.0000      -0.247439        -6.7332
  82   2.0000      -0.245351        -6.6764
  83   2.0000      -0.231504        -6.2995
  84   2.0000      -0.216865        -5.9012
  85   2.0000      -0.193574        -5.2674
  86   2.0000      -0.186397        -5.0721
  87   0.0000      -0.050865        -1.3841
  88   0.0000      -0.039659        -1.0792
  89   0.0000      -0.024557        -0.6682
  90   0.0000       0.007820         0.2128
  91   0.0000       0.030196         0.8217

MULLIKEN ATOMIC CHARGES
-----------------------
   0 C :   -0.304410
   1 C :   -0.011101
   2 O :   -0.241599
   3 C :    0.109100
   4 O :   -0.194088
   5 C :   -0.046329
   6 C :   -0.325889
   7 H :    0.157892
   8 C :    0.228909
   9 O :   -0.193649
  10 O :   -0.217681
  11 C :   -0.012552
  12 C :   -0.328059
  13 S :   -0.084186
  14 P :    0.622141
  15 S :   -0.338818
  16 O :   -0.368239
  17 C :   -0.084181
  18 O :   -0.374794
  19 C :   -0.100377
  20 H :    0.114578
  21 H :    0.114248
  22 H :    0.129095
  23 H :    0.101902
  24 H :    0.106388
  25 H :    0.121682
  26 H :    0.120194
  27 H :    0.106830
  28 H :    0.111754
  29 H :    0.111551
  30 H :    0.141590
  31 H :    0.139076
  32 H :    0.116062
  33 H :    0.119159
  34 H :    0.112721
  35 H :    0.121711
  36 H :    0.111395
  37 H :    0.107973
Sum of atomic charges:   -0.0000000

LOEWDIN ATOMIC CHARGES
----------------------
   0 C :   -0.355720
   1 C :   -0.110235
   2 O :   -0.063368
   3 C :    0.023810
   4 O :   -0.159643
   5 C :   -0.248537
   6 C :   -0.268155
   7 H :    0.150629
   8 C :    0.034101
   9 O :   -0.149240
  10 O :   -0.026646
  11 C :   -0.104085
  12 C :   -0.362955
  13 S :    0.105465
  14 P :    0.587661
  15 S :   -0.334861
  16 O :   -0.238215
  17 C :   -0.207757
  18 O :   -0.259053
  19 C :   -0.221999
  20 H :    0.125178
  21 H :    0.131315
  22 H :    0.131705
  23 H :    0.117339
  24 H :    0.118775
  25 H :    0.135536
  26 H :    0.143481
  27 H :    0.119903
  28 H :    0.120963
  29 H :    0.130412
  30 H :    0.132145
  31 H :    0.134298
  32 H :    0.108873
  33 H :    0.117324
  34 H :    0.111579
  35 H :    0.120687
  36 H :    0.106401
  37 H :    0.102891

  Mayer bond orders larger than 0.100000
B(  0-C ,  1-C ) :   1.1745 B(  0-C , 20-H ) :   0.9488 B(  0-C , 21-H ) :   0.9441
B(  0-C , 22-H ) :   0.9459 B(  1-C ,  2-O ) :   0.9161 B(  1-C , 23-H ) :   0.9370
B(  1-C , 24-H ) :   0.9136 B(  2-O ,  3-C ) :   1.1960 B(  3-C ,  4-O ) :   2.0395
B(  3-C ,  5-C ) :   1.0172 B(  5-C ,  6-C ) :   1.0240 B(  5-C , 25-H ) :   0.8775
B(  5-C , 26-H ) :   0.8868 B(  6-C ,  7-H ) :   0.8655 B(  6-C ,  8-C ) :   0.9072
B(  6-C , 13-S ) :   1.0301 B(  8-C ,  9-O ) :   1.9245 B(  8-C , 10-O ) :   1.2783
B(  9-O , 14-P ) :   0.1255 B( 10-O , 11-C ) :   0.8860 B( 11-C , 12-C ) :   1.1772
B( 11-C , 27-H ) :   0.9361 B( 11-C , 28-H ) :   0.9171 B( 12-C , 29-H ) :   0.9398
B( 12-C , 30-H ) :   0.9316 B( 12-C , 31-H ) :   0.9377 B( 13-S , 14-P ) :   0.9302
B( 13-S , 15-S ) :   0.1159 B( 14-P , 15-S ) :   1.5500 B( 14-P , 16-O ) :   1.1356
B( 14-P , 18-O ) :   1.0792 B( 16-O , 17-C ) :   0.9291 B( 17-C , 32-H ) :   0.9350
B( 17-C , 33-H ) :   0.9542 B( 17-C , 34-H ) :   0.9548 B( 18-O , 19-C ) :   0.9458
B( 19-C , 35-H ) :   0.9595 B( 19-C , 36-H ) :   0.9325 B( 19-C , 37-H ) :   0.9443

Dispersion correction           -0.052944724
FINAL SINGLE POINT ENERGY     -1979.014920306628

DIPOLE MOMENT
-------------

Method             : SCF
Type of density    : Electron Density
Multiplicity       :   1
Irrep              :   0
Energy             : -1979.1463663689132773 Eh
Relativity type    :
Basis              : AO
                                X                 Y                 Z
Electronic contribution:    -18.414059979      -1.044125295      -3.406867005
Nuclear contribution   :     19.802543804       1.612738769       2.420083789
                        -----------------------------------------
Total Dipole Moment    :      1.388483826       0.568613473      -0.986783216
                        -----------------------------------------
Magnitude (a.u.)       :      1.795814504
Magnitude (Debye)      :      4.564597714

Rotational constants in cm-1:             0.016586             0.006309             0.005492
Rotational constants in MHz :           497.249261           189.140735           164.645308

                             ****ORCA TERMINATED NORMALLY****
TOTAL RUN TIME: 0 days 0 hours 0 minutes 45 seconds 212 msec
