                         Program Version 6.0.0  -   RELEASE  -
|  1> ! pbe def2-sv(p) def2/J RI DEFGRID1 loosescf d4 GCP(DFT/SV(P)) printgap
|  2> %output
|  3>     printlevel normal
|  4> end
|  5> * xyz 0 1
|  6> C 3.7806228768 -1.2959501203 -1.9142864769
|  7> C 2.7412313356 -0.2366992486 -2.2147074827
|  8> O 2.4742765412 0.6244174901 -1.0832044987
|  9> P 1.9752957713 0.1608027292 0.3481945539
| 10> S 1.1231180207 1.6428875332 1.3036445075
| 11> O 3.2716066237 -0.3788786107 1.1225996899
| 12> C 4.3021513932 0.5385604206 1.5345171271
| 13> C 5.3767226452 -0.2622374046 2.2405666349
| 14> S 0.9829120316 -1.6825127584 0.1990254853
| 15> C -0.4022614604 -1.368854698 1.343713155
| 16> S -2.0266240691 -1.4973758102 0.5619345766
| 17> P -2.0558889983 0.3645197471 -0.4712876308
| 18> S -0.6601392992 0.6216002798 -1.8251944138
| 19> O -2.0171550336 1.4891865153 0.6315868843
| 20> C -3.1422000165 1.9696911512 1.4082258438
| 21> C -3.7331355094 0.9068887441 2.3101539687
| 22> O -3.5378946884 0.4624943167 -1.0278984792
| 23> C -3.9274671868 -0.0941769838 -2.2975749103
| 24> C -3.8196374784 -1.6044926849 -2.3185427229
| 25> H 3.9665789981 -1.8693031242 -2.8170347086
| 26> H 4.7087984393 -0.8346223868 -1.5855014907
| 27> H 3.4221967108 -1.9688462292 -1.1364441374
| 28> H 1.7933109854 -0.6827190055 -2.5277910954
| 29> H 3.0801723396 0.4621076351 -2.9812596038
| 30> H 4.6932714621 1.0500653461 0.6488489078
| 31> H 3.8528731766 1.286436951 2.1967441855
| 32> H 6.1631932258 0.4090073464 2.5695985353
| 33> H 4.9515206463 -0.7700206418 3.1011446999
| 34> H 5.7924713532 -1.0044206524 1.5653683274
| 35> H -0.2743682199 -0.3696290066 1.7706201157
| 36> H -0.3783455065 -2.1382123946 2.1105479735
| 37> H -2.7059399859 2.7891394737 1.9823341374
| 38> H -3.8912899144 2.3560424002 0.7147420817
| 39> H -2.9657221851 0.485419904 2.9547425741
| 40> H -4.5019681563 1.3624561894 2.9266124163
| 41> H -4.1778985929 0.1099059655 1.7186072925
| 42> H -4.9586058799 0.2405930065 -2.4188935329
| 43> H -3.296413939 0.3476003702 -3.0747558897
| 44> H -4.2395600495 -1.9799977906 -3.2461022072
| 45> H -2.7738087819 -1.9024280587 -2.2591536708
| 46> H -4.3552083525 -2.0362707588 -1.4769695644
| 47> *
| 48>
| 49>                          ****END OF INPUT****

CARTESIAN COORDINATES (ANGSTROEM)
---------------------------------
  C      3.780623   -1.295950   -1.914286
  C      2.741231   -0.236699   -2.214707
  O      2.474277    0.624417   -1.083204
  P      1.975296    0.160803    0.348195
  S      1.123118    1.642888    1.303645
  O      3.271607   -0.378879    1.122600
  C      4.302151    0.538560    1.534517
  C      5.376723   -0.262237    2.240567
  S      0.982912   -1.682513    0.199025
  C     -0.402261   -1.368855    1.343713
  S     -2.026624   -1.497376    0.561935
  P     -2.055889    0.364520   -0.471288
  S     -0.660139    0.621600   -1.825194
  O     -2.017155    1.489187    0.631587
  C     -3.142200    1.969691    1.408226
  C     -3.733136    0.906889    2.310154
  O     -3.537895    0.462494   -1.027898
  C     -3.927467   -0.094177   -2.297575
  C     -3.819637   -1.604493   -2.318543
  H      3.966579   -1.869303   -2.817035
  H      4.708798   -0.834622   -1.585501
  H      3.422197   -1.968846   -1.136444
  H      1.793311   -0.682719   -2.527791
  H      3.080172    0.462108   -2.981260
  H      4.693271    1.050065    0.648849
  H      3.852873    1.286437    2.196744
  H      6.163193    0.409007    2.569599
  H      4.951521   -0.770021    3.101145
  H      5.792471   -1.004421    1.565368
  H     -0.274368   -0.369629    1.770620
  H     -0.378346   -2.138212    2.110548
  H     -2.705940    2.789139    1.982334
  H     -3.891290    2.356042    0.714742
  H     -2.965722    0.485420    2.954743
  H     -4.501968    1.362456    2.926612
  H     -4.177899    0.109906    1.718607
  H     -4.958606    0.240593   -2.418894
  H     -3.296414    0.347600   -3.074756
  H     -4.239560   -1.979998   -3.246102
  H     -2.773809   -1.902428   -2.259154
  H     -4.355208   -2.036271   -1.476970

 Total Charge           Charge          ....    0
 Multiplicity           Mult            ....    1
 Number of Electrons    NEL             ....  202
 Basis Dimension        Dim             ....  334

ORBITAL ENERGIES
----------------

  NO   OCC          E(Eh)            E(eV)
   0   2.0000     -88.039467     -2395.6757
   1   2.0000     -88.036626     -2395.5984
   2   2.0000     -87.976511     -2393.9626
   3   2.0000     -87.971059     -2393.8142
   4   2.0000     -76.422722     -2079.5680
   5   2.0000     -76.413884     -2079.3275
   6   2.0000     -18.794062      -511.4124
   7   2.0000     -18.783630      -511.1286
   8   2.0000     -18.782565      -511.0996
   9   2.0000     -18.774185      -510.8716
  10   2.0000      -9.954447      -270.8743
  11   2.0000      -9.953649      -270.8525
  12   2.0000      -9.952741      -270.8279
  13   2.0000      -9.949056      -270.7276
  14   2.0000      -9.941323      -270.5172
  15   2.0000      -9.886803      -269.0336
  16   2.0000      -9.885536      -268.9991
  17   2.0000      -9.885129      -268.9880
  18   2.0000      -9.881638      -268.8930
  19   2.0000      -7.684448      -209.1045
  20   2.0000      -7.681986      -209.0375
  21   2.0000      -7.621367      -207.3879
  22   2.0000      -7.616391      -207.2525
  23   2.0000      -6.419903      -174.6944
  24   2.0000      -6.411723      -174.4719
  25   2.0000      -5.712135      -155.4351
  26   2.0000      -5.709895      -155.3741
  27   2.0000      -5.709069      -155.3517
  28   2.0000      -5.706638      -155.2855
  29   2.0000      -5.701492      -155.1455
  30   2.0000      -5.698687      -155.0691
  31   2.0000      -5.650310      -153.7528
  32   2.0000      -5.645481      -153.6214
  33   2.0000      -5.642180      -153.5315
  34   2.0000      -5.641320      -153.5081
  35   2.0000      -5.637470      -153.4034
  36   2.0000      -5.635803      -153.3580
  37   2.0000      -4.643173      -126.3472
  38   2.0000      -4.641521      -126.3022
  39   2.0000      -4.639908      -126.2583
  40   2.0000      -4.634593      -126.1137
  41   2.0000      -4.633357      -126.0801
  42   2.0000      -4.632017      -126.0436
  43   2.0000      -0.986315       -26.8390
  44   2.0000      -0.972171       -26.4541
  45   2.0000      -0.941808       -25.6279
  46   2.0000      -0.931221       -25.3398
  47   2.0000      -0.759083       -20.6557
  48   2.0000      -0.716625       -19.5004
  49   2.0000      -0.706755       -19.2318
  50   2.0000      -0.690657       -18.7937
  51   2.0000      -0.687834       -18.7169
  52   2.0000      -0.671852       -18.2820
  53   2.0000      -0.645994       -17.5784
  54   2.0000      -0.627336       -17.0707
  55   2.0000      -0.594433       -16.1754
  56   2.0000      -0.583379       -15.8746
  57   2.0000      -0.578134       -15.7318
  58   2.0000      -0.569768       -15.5042
  59   2.0000      -0.551951       -15.0194
  60   2.0000      -0.495407       -13.4807
  61   2.0000      -0.492938       -13.4135
  62   2.0000      -0.469959       -12.7882
  63   2.0000      -0.468508       -12.7488
  64   2.0000      -0.452530       -12.3140
  65   2.0000      -0.445514       -12.1231
  66   2.0000      -0.440704       -11.9922
  67   2.0000      -0.429378       -11.6840
  68   2.0000      -0.424437       -11.5495
  69   2.0000      -0.421273       -11.4634
  70   2.0000      -0.403710       -10.9855
  71   2.0000      -0.398527       -10.8445
  72   2.0000      -0.396475       -10.7886
  73   2.0000      -0.378677       -10.3043
  74   2.0000      -0.373784       -10.1712
  75   2.0000      -0.366159        -9.9637
  76   2.0000      -0.358081        -9.7439
  77   2.0000      -0.355040        -9.6611
  78   2.0000      -0.352093        -9.5809
  79   2.0000      -0.349980        -9.5234
  80   2.0000      -0.349216        -9.5026
  81   2.0000      -0.343423        -9.3450
  82   2.0000      -0.339817        -9.2469
  83   2.0000      -0.334550        -9.1036
  84   2.0000      -0.329907        -8.9772
  85   2.0000      -0.318552        -8.6682
  86   2.0000      -0.305269        -8.3068
  87   2.0000      -0.302963        -8.2440
  88   2.0000      -0.294256        -8.0071
  89   2.0000      -0.291918        -7.9435
  90   2.0000      -0.271139        -7.3781
  91   2.0000      -0.269135        -7.3235
  92   2.0000      -0.262224        -7.1355
  93   2.0000      -0.257440        -7.0053
  94   2.0000      -0.253568        -6.8999
  95   2.0000      -0.237361        -6.4589
  96   2.0000      -0.215325        -5.8593
  97   2.0000      -0.200103        -5.4451
  98   2.0000      -0.192095        -5.2272
  99   2.0000      -0.184253        -5.0138
 100   2.0000      -0.176530        -4.8036
 101   0.0000      -0.037742        -1.0270
 102   0.0000      -0.028416        -0.7733
 103   0.0000      -0.009696        -0.2638
 104   0.0000       0.003180         0.0865
 105   0.0000       0.029897         0.8135

MULLIKEN ATOMIC CHARGES
-----------------------
   0 C :   -0.323992
   1 C :   -0.012258
   2 O :   -0.372386
   3 P :    0.612221
   4 S :   -0.308014
   5 O :   -0.383130
   6 C :   -0.017643
   7 C :   -0.274039
   8 S :   -0.086973
   9 C :   -0.346172
  10 S :   -0.109094
  11 P :    0.614509
  12 S :   -0.307380
  13 O :   -0.350435
  14 C :    0.010227
  15 C :   -0.319400
  16 O :   -0.384885
  17 C :    0.002235
  18 C :   -0.327339
  19 H :    0.115033
  20 H :    0.117790
  21 H :    0.134365
  22 H :    0.127033
  23 H :    0.109518
  24 H :    0.096335
  25 H :    0.104409
  26 H :    0.108029
  27 H :    0.116829
  28 H :    0.111168
  29 H :    0.195006
  30 H :    0.183315
  31 H :    0.113470
  32 H :    0.107535
  33 H :    0.122099
  34 H :    0.111831
  35 H :    0.123423
  36 H :    0.104071
  37 H :    0.114150
  38 H :    0.115748
  39 H :    0.134282
  40 H :    0.118509
Sum of atomic charges:    0.0000000

LOEWDIN ATOMIC CHARGES
----------------------
   0 C :   -0.367942
   1 C :   -0.117788
   2 O :   -0.237417
   3 P :    0.568796
   4 S :   -0.301946
   5 O :   -0.264456
   6 C :   -0.124276
   7 C :   -0.350777
   8 S :    0.085274
   9 C :   -0.481009
  10 S :    0.075206
  11 P :    0.572352
  12 S :   -0.303259
  13 O :   -0.228836
  14 C :   -0.106062
  15 C :   -0.369326
  16 O :   -0.246793
  17 C :   -0.116943
  18 C :   -0.373531
  19 H :    0.132504
  20 H :    0.125258
  21 H :    0.119658
  22 H :    0.110646
  23 H :    0.122632
  24 H :    0.104751
  25 H :    0.107869
  26 H :    0.128621
  27 H :    0.127821
  28 H :    0.123629
  29 H :    0.122277
  30 H :    0.138242
  31 H :    0.124245
  32 H :    0.114226
  33 H :    0.126282
  34 H :    0.130393
  35 H :    0.118052
  36 H :    0.118174
  37 H :    0.113639
  38 H :    0.132815
  39 H :    0.123856
  40 H :    0.123143

  Mayer bond orders larger than 0.100000
B(  0-C ,  1-C ) :   1.1603 B(  0-C , 19-H ) :   0.9363 B(  0-C , 20-H ) :   0.9436
B(  0-C , 21-H ) :   0.9350 B(  1-C ,  2-O ) :   0.9049 B(  1-C , 22-H ) :   0.9140
B(  1-C , 23-H ) :   0.9357 B(  2-O ,  3-P ) :   1.1141 B(  3-P ,  4-S ) :   1.6315
B(  3-P ,  5-O ) :   1.0690 B(  3-P ,  8-S ) :   0.9615 B(  4-S ,  8-S ) :   0.1125
B(  4-S , 29-H ) :   0.1185 B(  5-O ,  6-C ) :   0.9154 B(  6-C ,  7-C ) :   1.1565
B(  6-C , 24-H ) :   0.9233 B(  6-C , 25-H ) :   0.9156 B(  7-C , 26-H ) :   0.9429
B(  7-C , 27-H ) :   0.9500 B(  7-C , 28-H ) :   0.9519 B(  8-S ,  9-C ) :   0.9999
B(  9-C , 10-S ) :   0.9974 B(  9-C , 29-H ) :   0.8440 B(  9-C , 30-H ) :   0.9123
B( 10-S , 11-P ) :   0.9435 B( 10-S , 12-S ) :   0.1142 B( 11-P , 12-S ) :   1.6492
B( 11-P , 13-O ) :   1.1349 B( 11-P , 16-O ) :   1.0749 B( 13-O , 14-C ) :   0.8996
B( 14-C , 15-C ) :   1.1699 B( 14-C , 31-H ) :   0.9332 B( 14-C , 32-H ) :   0.9280
B( 15-C , 33-H ) :   0.9449 B( 15-C , 34-H ) :   0.9356 B( 15-C , 35-H ) :   0.9385
B( 16-O , 17-C ) :   0.9023 B( 17-C , 18-C ) :   1.1663 B( 17-C , 36-H ) :   0.9337
B( 17-C , 37-H ) :   0.9160 B( 18-C , 38-H ) :   0.9368 B( 18-C , 39-H ) :   0.9310
B( 18-C , 40-H ) :   0.9433

Dispersion correction           -0.067195038
FINAL SINGLE POINT ENERGY     -2929.506015384304

DIPOLE MOMENT
-------------

Method             : SCF
Type of density    : Electron Density
Multiplicity       :   1
Irrep              :   0
Energy             : -2929.6242185495084414 Eh
Relativity type    :
Basis              : AO
                                X                 Y                 Z
Electronic contribution:     -4.186394665       4.094718993      -0.802478919
Nuclear contribution   :      3.755449975      -4.780057350       0.788267341
                        -----------------------------------------
Total Dipole Moment    :     -0.430944690      -0.685338357      -0.014211578
                        -----------------------------------------
Magnitude (a.u.)       :      0.809693744
Magnitude (Debye)      :      2.058077938

Rotational constants in cm-1:             0.013591             0.005104             0.004567
Rotational constants in MHz :           407.443437           153.002821           136.925044

                             ****ORCA TERMINATED NORMALLY****
TOTAL RUN TIME: 0 days 0 hours 0 minutes 20 seconds 932 msec
