                         Program Version 6.0.0  -   RELEASE  -
|  1> ! r2scan-3c def2/J RI DEFGRID2 scfconv6 printgap
|  2> %output
|  3>     printlevel normal
|  4> end
|  5> * xyz 0 1
|  6> C -2.4705976478 0.6925551779 1.65838e-05
|  7> C -2.4706218508 -0.692494255 -3.44103e-05
|  8> C -1.2745226533 -1.3891470971 -4.055e-07
|  9> C -0.0754626155 -0.694650332 8.1043e-06
| 10> C -0.0754313468 0.6946540234 -2.04816e-05
| 11> C -1.2744669737 1.389188005 1.89619e-05
| 12> Cl 1.4268297377 1.5658424393 -4.2218e-06
| 13> Cl 1.4267743999 -1.5658817467 4.835e-06
| 14> H -3.4008538406 1.2366376444 -1.44903e-05
| 15> H -3.4008912039 -1.2365598734 7.86058e-05
| 16> H -1.2588639543 -2.4664973166 4.4254e-06
| 17> H -1.2587663678 2.4665447168 4.86806e-05
| 18> *
| 19>
| 20>                          ****END OF INPUT****

CARTESIAN COORDINATES (ANGSTROEM)
---------------------------------
  C     -2.470598    0.692555    0.000017
  C     -2.470622   -0.692494   -0.000034
  C     -1.274523   -1.389147   -0.000000
  C     -0.075463   -0.694650    0.000008
  C     -0.075431    0.694654   -0.000020
  C     -1.274467    1.389188    0.000019
  Cl     1.426830    1.565842   -0.000004
  Cl     1.426774   -1.565882    0.000005
  H     -3.400854    1.236638   -0.000014
  H     -3.400891   -1.236560    0.000079
  H     -1.258864   -2.466497    0.000004
  H     -1.258766    2.466545    0.000049

 Total Charge           Charge          ....    0
 Multiplicity           Mult            ....    1
 Number of Electrons    NEL             ....   74
 Basis Dimension        Dim             ....  188

ORBITAL ENERGIES
----------------

  NO   OCC          E(Eh)            E(eV)
   0   2.0000    -101.227564     -2754.5421
   1   2.0000    -101.227559     -2754.5419
   2   2.0000     -10.117211      -275.3033
   3   2.0000     -10.116772      -275.2914
   4   2.0000     -10.062462      -273.8135
   5   2.0000     -10.062453      -273.8133
   6   2.0000     -10.058090      -273.6945
   7   2.0000     -10.057628      -273.6820
   8   2.0000      -9.383316      -255.3330
   9   2.0000      -9.383310      -255.3329
  10   2.0000      -7.129756      -194.0105
  11   2.0000      -7.129755      -194.0105
  12   2.0000      -7.119599      -193.7341
  13   2.0000      -7.119598      -193.7341
  14   2.0000      -7.118877      -193.7145
  15   2.0000      -7.118876      -193.7145
  16   2.0000      -0.891378       -24.2556
  17   2.0000      -0.827391       -22.5144
  18   2.0000      -0.816010       -22.2048
  19   2.0000      -0.730572       -19.8799
  20   2.0000      -0.709598       -19.3091
  21   2.0000      -0.603988       -16.4354
  22   2.0000      -0.582263       -15.8442
  23   2.0000      -0.505935       -13.7672
  24   2.0000      -0.465363       -12.6632
  25   2.0000      -0.450996       -12.2722
  26   2.0000      -0.420640       -11.4462
  27   2.0000      -0.419313       -11.4101
  28   2.0000      -0.401039       -10.9128
  29   2.0000      -0.356127        -9.6907
  30   2.0000      -0.352242        -9.5850
  31   2.0000      -0.326615        -8.8876
  32   2.0000      -0.320952        -8.7335
  33   2.0000      -0.304108        -8.2752
  34   2.0000      -0.280945        -7.6449
  35   2.0000      -0.250903        -6.8274
  36   2.0000      -0.235791        -6.4162
  37   0.0000      -0.057251        -1.5579
  38   0.0000      -0.053544        -1.4570
  39   0.0000      -0.022318        -0.6073
  40   0.0000       0.040181         1.0934
  41   0.0000       0.094351         2.5674

MULLIKEN ATOMIC CHARGES
-----------------------
   0 C :   -0.132012
   1 C :   -0.132000
   2 C :   -0.185984
   3 C :    0.114958
   4 C :    0.114955
   5 C :   -0.185983
   6 Cl:   -0.116645
   7 Cl:   -0.116647
   8 H :    0.153849
   9 H :    0.153849
  10 H :    0.165830
  11 H :    0.165831
Sum of atomic charges:   -0.0000000

LOEWDIN ATOMIC CHARGES
----------------------
   0 C :   -0.156815
   1 C :   -0.156816
   2 C :   -0.162558
   3 C :   -0.179370
   4 C :   -0.179372
   5 C :   -0.162557
   6 Cl:    0.145231
   7 Cl:    0.145229
   8 H :    0.172449
   9 H :    0.172450
  10 H :    0.181064
  11 H :    0.181066

  Mayer bond orders larger than 0.100000
B(  0-C ,  1-C ) :   1.4064 B(  0-C ,  5-C ) :   1.3981 B(  0-C ,  8-H ) :   0.9462
B(  1-C ,  2-C ) :   1.3981 B(  1-C ,  9-H ) :   0.9462 B(  2-C ,  3-C ) :   1.3487
B(  2-C , 10-H ) :   0.9425 B(  3-C ,  4-C ) :   1.3074 B(  3-C ,  7-Cl) :   1.0336
B(  4-C ,  5-C ) :   1.3487 B(  4-C ,  6-Cl) :   1.0336 B(  5-C , 11-H ) :   0.9425

Dispersion correction           -0.004797437
FINAL SINGLE POINT ENERGY     -1151.338289162730

DIPOLE MOMENT
-------------

Method             : SCF
Type of density    : Electron Density
Multiplicity       :   1
Irrep              :   0
Energy             : -1151.3384653739497026 Eh
Relativity type    :
Basis              : AO
                                X                 Y                 Z
Electronic contribution:     11.572484981      -0.000155176      -0.000075697
Nuclear contribution   :    -12.573329525       0.000170191       0.000109151
                        -----------------------------------------
Total Dipole Moment    :     -1.000844544       0.000015015       0.000033454
                        -----------------------------------------
Magnitude (a.u.)       :      1.000844545
Magnitude (Debye)      :      2.543944663

Rotational constants in cm-1:             0.065170             0.047267             0.027397
Rotational constants in MHz :          1953.735714          1417.041269           821.331150

                             ****ORCA TERMINATED NORMALLY****
TOTAL RUN TIME: 0 days 0 hours 0 minutes 40 seconds 176 msec
