                         Program Version 6.0.0  -   RELEASE  -
|  1> ! r2scan-3c def2/J RI DEFGRID2 scfconv6 printgap
|  2> %output
|  3>     printlevel normal
|  4> end
|  5> %cpcm
|  6>     smd true
|  7>     smdsolvent "water"
|  8> end
|  9> * xyz 0 1
| 10> C -2.4705976478 0.6925551779 1.65838e-05
| 11> C -2.4706218508 -0.692494255 -3.44103e-05
| 12> C -1.2745226533 -1.3891470971 -4.055e-07
| 13> C -0.0754626155 -0.694650332 8.1043e-06
| 14> C -0.0754313468 0.6946540234 -2.04816e-05
| 15> C -1.2744669737 1.389188005 1.89619e-05
| 16> Cl 1.4268297377 1.5658424393 -4.2218e-06
| 17> Cl 1.4267743999 -1.5658817467 4.835e-06
| 18> H -3.4008538406 1.2366376444 -1.44903e-05
| 19> H -3.4008912039 -1.2365598734 7.86058e-05
| 20> H -1.2588639543 -2.4664973166 4.4254e-06
| 21> H -1.2587663678 2.4665447168 4.86806e-05
| 22> *
| 23>
| 24>                          ****END OF INPUT****

CARTESIAN COORDINATES (ANGSTROEM)
---------------------------------
  C     -2.470598    0.692555    0.000017
  C     -2.470622   -0.692494   -0.000034
  C     -1.274523   -1.389147   -0.000000
  C     -0.075463   -0.694650    0.000008
  C     -0.075431    0.694654   -0.000020
  C     -1.274467    1.389188    0.000019
  Cl     1.426830    1.565842   -0.000004
  Cl     1.426774   -1.565882    0.000005
  H     -3.400854    1.236638   -0.000014
  H     -3.400891   -1.236560    0.000079
  H     -1.258864   -2.466497    0.000004
  H     -1.258766    2.466545    0.000049

 Total Charge           Charge          ....    0
 Multiplicity           Mult            ....    1
 Number of Electrons    NEL             ....   74
 Basis Dimension        Dim             ....  188

ORBITAL ENERGIES
----------------

  NO   OCC          E(Eh)            E(eV)
   0   2.0000    -101.230163     -2754.6128
   1   2.0000    -101.230158     -2754.6127
   2   2.0000     -10.112996      -275.1886
   3   2.0000     -10.112558      -275.1767
   4   2.0000     -10.053438      -273.5679
   5   2.0000     -10.053428      -273.5677
   6   2.0000     -10.046782      -273.3868
   7   2.0000     -10.046320      -273.3743
   8   2.0000      -9.385998      -255.4060
   9   2.0000      -9.385992      -255.4058
  10   2.0000      -7.132287      -194.0794
  11   2.0000      -7.132286      -194.0794
  12   2.0000      -7.122346      -193.8089
  13   2.0000      -7.122345      -193.8089
  14   2.0000      -7.121636      -193.7896
  15   2.0000      -7.121635      -193.7895
  16   2.0000      -0.889274       -24.1984
  17   2.0000      -0.828421       -22.5425
  18   2.0000      -0.811150       -22.0725
  19   2.0000      -0.723302       -19.6820
  20   2.0000      -0.704340       -19.1661
  21   2.0000      -0.596053       -16.2194
  22   2.0000      -0.574581       -15.6351
  23   2.0000      -0.497969       -13.5504
  24   2.0000      -0.458142       -12.4667
  25   2.0000      -0.443945       -12.0804
  26   2.0000      -0.414717       -11.2850
  27   2.0000      -0.409990       -11.1564
  28   2.0000      -0.399084       -10.8596
  29   2.0000      -0.346553        -9.4302
  30   2.0000      -0.341963        -9.3053
  31   2.0000      -0.328879        -8.9493
  32   2.0000      -0.318356        -8.6629
  33   2.0000      -0.305662        -8.3175
  34   2.0000      -0.283552        -7.7158
  35   2.0000      -0.246121        -6.6973
  36   2.0000      -0.233764        -6.3610
  37   0.0000      -0.050502        -1.3742
  38   0.0000      -0.048419        -1.3175
  39   0.0000      -0.021305        -0.5797
  40   0.0000       0.040051         1.0899
  41   0.0000       0.101343         2.7577

MULLIKEN ATOMIC CHARGES
-----------------------
   0 C :   -0.164558
   1 C :   -0.164548
   2 C :   -0.199382
   3 C :    0.111188
   4 C :    0.111185
   5 C :   -0.199384
   6 Cl:   -0.138965
   7 Cl:   -0.138968
   8 H :    0.191881
   9 H :    0.191881
  10 H :    0.199835
  11 H :    0.199836
Sum of atomic charges:   -0.0000000

LOEWDIN ATOMIC CHARGES
----------------------
   0 C :   -0.153945
   1 C :   -0.153946
   2 C :   -0.162833
   3 C :   -0.188650
   4 C :   -0.188652
   5 C :   -0.162834
   6 Cl:    0.127136
   7 Cl:    0.127133
   8 H :    0.185648
   9 H :    0.185649
  10 H :    0.192646
  11 H :    0.192648

  Mayer bond orders larger than 0.100000
B(  0-C ,  1-C ) :   1.3798 B(  0-C ,  5-C ) :   1.3890 B(  0-C ,  8-H ) :   0.9486
B(  1-C ,  2-C ) :   1.3890 B(  1-C ,  9-H ) :   0.9486 B(  2-C ,  3-C ) :   1.3181
B(  2-C , 10-H ) :   0.9417 B(  3-C ,  4-C ) :   1.2835 B(  3-C ,  7-Cl) :   1.0172
B(  4-C ,  5-C ) :   1.3181 B(  4-C ,  6-Cl) :   1.0172 B(  5-C , 11-H ) :   0.9417

Dispersion correction           -0.004797437
FINAL SINGLE POINT ENERGY     -1151.340408539154

DIPOLE MOMENT
-------------

Method             : SCF
Type of density    : Electron Density
Multiplicity       :   1
Irrep              :   0
Energy             : -1151.3405847503736368 Eh
Relativity type    :
Basis              : AO
                                X                 Y                 Z
Electronic contribution:     11.113868229      -0.000150402      -0.000063914
Nuclear contribution   :    -12.573329525       0.000170191       0.000109151
                        -----------------------------------------
Total Dipole Moment    :     -1.459461296       0.000019789       0.000045237
                        -----------------------------------------
Magnitude (a.u.)       :      1.459461297
Magnitude (Debye)      :      3.709655806

Rotational constants in cm-1:             0.065170             0.047267             0.027397
Rotational constants in MHz :          1953.735714          1417.041269           821.331150

                             ****ORCA TERMINATED NORMALLY****
TOTAL RUN TIME: 0 days 0 hours 0 minutes 29 seconds 35 msec
