                         Program Version 6.0.0  -   RELEASE  -
|  1> ! pbe def2-sv(p) def2/J RI DEFGRID1 loosescf d4 GCP(DFT/SV(P)) printgap
|  2> %output
|  3>     printlevel normal
|  4> end
|  5> * xyz 0 1
|  6> C 5.3716161879 -2.0414202476 -1.8152526789
|  7> C 4.2819478976 -0.9879427362 -1.818318016
|  8> O 3.2710883725 -1.3844379462 -0.8697369333
|  9> P 2.3554252829 -0.3279134183 -0.1142830768
| 10> S 3.330013095 1.2243135951 0.5926197331
| 11> O 1.6166634897 -1.2519994936 0.9332670882
| 12> C 2.1433453371 -1.4681787115 2.2681418296
| 13> C 1.4757094004 -0.5392838598 3.2615925696
| 14> S 0.8112771226 0.0853406029 -1.4905679572
| 15> C 0.140241516 1.5168956216 -0.5958437945
| 16> S -0.8934159116 1.0412096107 0.8014405263
| 17> P -2.5343899941 0.3257977876 -0.3664108984
| 18> S -2.8720723905 1.3639601986 -1.9929017114
| 19> O -3.7447321404 0.2225356662 0.6564367022
| 20> C -4.6288894474 1.3285230511 0.9190305815
| 21> C -3.927486786 2.4758267248 1.6158548333
| 22> O -2.2392261891 -1.1879709072 -0.7030741564
| 23> C -2.4904383289 -2.320942802 0.1631166281
| 24> C -1.6975516599 -2.2542056195 1.450726889
| 25> H 6.1231692931 -1.7768031429 -2.5518126352
| 26> H 5.8357155096 -2.0977907656 -0.8345472601
| 27> H 4.9497744586 -3.0112508052 -2.0624283728
| 28> H 3.8073132527 -0.9055705975 -2.7992739803
| 29> H 4.673874318 -0.0079684962 -1.5248291472
| 30> H 1.9238908335 -2.5148235712 2.4833303707
| 31> H 3.2252036508 -1.3136371674 2.2552356272
| 32> H 0.3972501292 -0.66106173 3.2286501752
| 33> H 1.8364117258 -0.7677851098 4.259185787
| 34> H 1.7139772352 0.4956779379 3.0259949595
| 35> H -0.4585431045 2.0800714356 -1.3126461312
| 36> H 0.9640258441 2.1154860284 -0.2051935929
| 37> H -5.0561504666 1.6606462322 -0.0319761104
| 38> H -5.4080461237 0.8918729676 1.5454526932
| 39> H -3.2060742649 2.9358812719 0.9425067665
| 40> H -4.6622194983 3.2209380902 1.9036165151
| 41> H -3.4049753411 2.122496 2.5010294265
| 42> H -3.5627163995 -2.3640172639 0.3641375763
| 43> H -2.1910719937 -3.1719426999 -0.4508718722
| 44> H -2.0275674617 -1.4073633765 2.0498197502
| 45> H -1.8543830249 -3.170110947 2.0120031151
| 46> H -0.6380434931 -2.1435841375 1.2325466618
| 47> *
| 48>
| 49>                          ****END OF INPUT****

CARTESIAN COORDINATES (ANGSTROEM)
---------------------------------
  C      5.371616   -2.041420   -1.815253
  C      4.281948   -0.987943   -1.818318
  O      3.271088   -1.384438   -0.869737
  P      2.355425   -0.327913   -0.114283
  S      3.330013    1.224314    0.592620
  O      1.616663   -1.251999    0.933267
  C      2.143345   -1.468179    2.268142
  C      1.475709   -0.539284    3.261593
  S      0.811277    0.085341   -1.490568
  C      0.140242    1.516896   -0.595844
  S     -0.893416    1.041210    0.801441
  P     -2.534390    0.325798   -0.366411
  S     -2.872072    1.363960   -1.992902
  O     -3.744732    0.222536    0.656437
  C     -4.628889    1.328523    0.919031
  C     -3.927487    2.475827    1.615855
  O     -2.239226   -1.187971   -0.703074
  C     -2.490438   -2.320943    0.163117
  C     -1.697552   -2.254206    1.450727
  H      6.123169   -1.776803   -2.551813
  H      5.835716   -2.097791   -0.834547
  H      4.949774   -3.011251   -2.062428
  H      3.807313   -0.905571   -2.799274
  H      4.673874   -0.007968   -1.524829
  H      1.923891   -2.514824    2.483330
  H      3.225204   -1.313637    2.255236
  H      0.397250   -0.661062    3.228650
  H      1.836412   -0.767785    4.259186
  H      1.713977    0.495678    3.025995
  H     -0.458543    2.080071   -1.312646
  H      0.964026    2.115486   -0.205194
  H     -5.056150    1.660646   -0.031976
  H     -5.408046    0.891873    1.545453
  H     -3.206074    2.935881    0.942507
  H     -4.662219    3.220938    1.903617
  H     -3.404975    2.122496    2.501029
  H     -3.562716   -2.364017    0.364138
  H     -2.191072   -3.171943   -0.450872
  H     -2.027567   -1.407363    2.049820
  H     -1.854383   -3.170111    2.012003
  H     -0.638043   -2.143584    1.232547

 Total Charge           Charge          ....    0
 Multiplicity           Mult            ....    1
 Number of Electrons    NEL             ....  202
 Basis Dimension        Dim             ....  334

ORBITAL ENERGIES
----------------

  NO   OCC          E(Eh)            E(eV)
   0   2.0000     -88.039529     -2395.6774
   1   2.0000     -88.039432     -2395.6747
   2   2.0000     -87.989340     -2394.3117
   3   2.0000     -87.984630     -2394.1835
   4   2.0000     -76.427267     -2079.6917
   5   2.0000     -76.427117     -2079.6876
   6   2.0000     -18.800196      -511.5794
   7   2.0000     -18.794176      -511.4155
   8   2.0000     -18.794104      -511.4136
   9   2.0000     -18.788106      -511.2504
  10   2.0000      -9.957089      -270.9462
  11   2.0000      -9.956576      -270.9322
  12   2.0000      -9.954978      -270.8887
  13   2.0000      -9.952916      -270.8326
  14   2.0000      -9.948540      -270.7135
  15   2.0000      -9.888755      -269.0867
  16   2.0000      -9.886030      -269.0125
  17   2.0000      -9.884607      -268.9738
  18   2.0000      -9.882032      -268.9038
  19   2.0000      -7.684982      -209.1190
  20   2.0000      -7.684236      -209.0987
  21   2.0000      -7.634307      -207.7401
  22   2.0000      -7.629897      -207.6200
  23   2.0000      -6.425093      -174.8357
  24   2.0000      -6.424549      -174.8209
  25   2.0000      -5.712750      -155.4518
  26   2.0000      -5.711968      -155.4305
  27   2.0000      -5.709684      -155.3684
  28   2.0000      -5.708929      -155.3478
  29   2.0000      -5.701820      -155.1544
  30   2.0000      -5.701199      -155.1375
  31   2.0000      -5.663040      -154.0992
  32   2.0000      -5.658890      -153.9862
  33   2.0000      -5.655026      -153.8811
  34   2.0000      -5.654549      -153.8681
  35   2.0000      -5.650554      -153.7594
  36   2.0000      -5.649905      -153.7417
  37   2.0000      -4.647739      -126.4714
  38   2.0000      -4.647612      -126.4680
  39   2.0000      -4.646794      -126.4457
  40   2.0000      -4.645958      -126.4229
  41   2.0000      -4.645565      -126.4123
  42   2.0000      -4.644815      -126.3918
  43   2.0000      -0.990213       -26.9451
  44   2.0000      -0.988876       -26.9087
  45   2.0000      -0.947381       -25.7796
  46   2.0000      -0.945187       -25.7199
  47   2.0000      -0.763183       -20.7673
  48   2.0000      -0.722924       -19.6718
  49   2.0000      -0.710667       -19.3382
  50   2.0000      -0.692390       -18.8409
  51   2.0000      -0.689037       -18.7497
  52   2.0000      -0.675894       -18.3920
  53   2.0000      -0.650318       -17.6961
  54   2.0000      -0.636083       -17.3087
  55   2.0000      -0.600460       -16.3394
  56   2.0000      -0.592330       -16.1181
  57   2.0000      -0.580053       -15.7840
  58   2.0000      -0.570807       -15.5324
  59   2.0000      -0.555989       -15.1292
  60   2.0000      -0.508195       -13.8287
  61   2.0000      -0.496875       -13.5207
  62   2.0000      -0.478713       -13.0264
  63   2.0000      -0.471342       -12.8259
  64   2.0000      -0.460710       -12.5366
  65   2.0000      -0.449950       -12.2438
  66   2.0000      -0.442020       -12.0280
  67   2.0000      -0.435980       -11.8636
  68   2.0000      -0.426881       -11.6160
  69   2.0000      -0.425279       -11.5724
  70   2.0000      -0.407457       -11.0875
  71   2.0000      -0.400777       -10.9057
  72   2.0000      -0.389248       -10.5920
  73   2.0000      -0.383485       -10.4352
  74   2.0000      -0.379878       -10.3370
  75   2.0000      -0.374098       -10.1797
  76   2.0000      -0.369304       -10.0493
  77   2.0000      -0.359473        -9.7818
  78   2.0000      -0.354837        -9.6556
  79   2.0000      -0.353303        -9.6139
  80   2.0000      -0.351267        -9.5585
  81   2.0000      -0.346036        -9.4161
  82   2.0000      -0.341961        -9.3052
  83   2.0000      -0.338651        -9.2152
  84   2.0000      -0.336781        -9.1643
  85   2.0000      -0.321891        -8.7591
  86   2.0000      -0.307716        -8.3734
  87   2.0000      -0.300513        -8.1774
  88   2.0000      -0.297592        -8.0979
  89   2.0000      -0.296262        -8.0617
  90   2.0000      -0.290228        -7.8975
  91   2.0000      -0.280932        -7.6446
  92   2.0000      -0.273016        -7.4291
  93   2.0000      -0.264308        -7.1922
  94   2.0000      -0.255680        -6.9574
  95   2.0000      -0.232773        -6.3341
  96   2.0000      -0.218602        -5.9485
  97   2.0000      -0.212473        -5.7817
  98   2.0000      -0.204271        -5.5585
  99   2.0000      -0.201512        -5.4834
 100   2.0000      -0.196886        -5.3575
 101   0.0000      -0.044621        -1.2142
 102   0.0000      -0.024527        -0.6674
 103   0.0000      -0.003350        -0.0912
 104   0.0000      -0.001476        -0.0402
 105   0.0000       0.014568         0.3964

MULLIKEN ATOMIC CHARGES
-----------------------
   0 C :   -0.281799
   1 C :   -0.011664
   2 O :   -0.376648
   3 P :    0.609429
   4 S :   -0.340072
   5 O :   -0.361550
   6 C :   -0.001327
   7 C :   -0.297258
   8 S :   -0.060503
   9 C :   -0.386044
  10 S :   -0.090280
  11 P :    0.617058
  12 S :   -0.317779
  13 O :   -0.387170
  14 C :   -0.001173
  15 C :   -0.316871
  16 O :   -0.356743
  17 C :    0.019771
  18 C :   -0.370672
  19 H :    0.113067
  20 H :    0.116539
  21 H :    0.117393
  22 H :    0.105465
  23 H :    0.107957
  24 H :    0.107071
  25 H :    0.107970
  26 H :    0.124395
  27 H :    0.107155
  28 H :    0.123900
  29 H :    0.197035
  30 H :    0.191960
  31 H :    0.115482
  32 H :    0.104832
  33 H :    0.130827
  34 H :    0.114897
  35 H :    0.116549
  36 H :    0.105915
  37 H :    0.109810
  38 H :    0.123511
  39 H :    0.108557
  40 H :    0.161010
Sum of atomic charges:    0.0000000

LOEWDIN ATOMIC CHARGES
----------------------
   0 C :   -0.350716
   1 C :   -0.120037
   2 O :   -0.249810
   3 P :    0.570524
   4 S :   -0.324055
   5 O :   -0.237657
   6 C :   -0.111649
   7 C :   -0.363076
   8 S :    0.091718
   9 C :   -0.492156
  10 S :    0.084557
  11 P :    0.576628
  12 S :   -0.311272
  13 O :   -0.246754
  14 C :   -0.115839
  15 C :   -0.370689
  16 O :   -0.236695
  17 C :   -0.104480
  18 C :   -0.379005
  19 H :    0.131373
  20 H :    0.127171
  21 H :    0.127039
  22 H :    0.113183
  23 H :    0.107729
  24 H :    0.117972
  25 H :    0.110911
  26 H :    0.124373
  27 H :    0.128555
  28 H :    0.123937
  29 H :    0.127835
  30 H :    0.127205
  31 H :    0.114208
  32 H :    0.118506
  33 H :    0.122789
  34 H :    0.132251
  35 H :    0.123256
  36 H :    0.112884
  37 H :    0.123172
  38 H :    0.116110
  39 H :    0.128868
  40 H :    0.131134

  Mayer bond orders larger than 0.100000
B(  0-C ,  1-C ) :   1.1620 B(  0-C , 19-H ) :   0.9418 B(  0-C , 20-H ) :   0.9511
B(  0-C , 21-H ) :   0.9507 B(  1-C ,  2-O ) :   0.9030 B(  1-C , 22-H ) :   0.9312
B(  1-C , 23-H ) :   0.9056 B(  2-O ,  3-P ) :   1.1171 B(  3-P ,  4-S ) :   1.5850
B(  3-P ,  5-O ) :   1.1314 B(  3-P ,  8-S ) :   0.9835 B(  4-S ,  8-S ) :   0.1092
B(  5-O ,  6-C ) :   0.8722 B(  6-C ,  7-C ) :   1.1747 B(  6-C , 24-H ) :   0.9326
B(  6-C , 25-H ) :   0.9141 B(  7-C , 26-H ) :   0.9429 B(  7-C , 27-H ) :   0.9384
B(  7-C , 28-H ) :   0.9343 B(  8-S ,  9-C ) :   1.0024 B(  9-C , 10-S ) :   1.0108
B(  9-C , 29-H ) :   0.8664 B(  9-C , 30-H ) :   0.8667 B( 10-S , 11-P ) :   0.9405
B( 10-S , 12-S ) :   0.1122 B( 11-P , 12-S ) :   1.6289 B( 11-P , 13-O ) :   1.0770
B( 11-P , 16-O ) :   1.1393 B( 13-O , 14-C ) :   0.9012 B( 14-C , 15-C ) :   1.1674
B( 14-C , 31-H ) :   0.9175 B( 14-C , 32-H ) :   0.9341 B( 15-C , 33-H ) :   0.9331
B( 15-C , 34-H ) :   0.9365 B( 15-C , 35-H ) :   0.9446 B( 16-O , 17-C ) :   0.9006
B( 17-C , 18-C ) :   1.1691 B( 17-C , 36-H ) :   0.9291 B( 17-C , 37-H ) :   0.9333
B( 18-C , 38-H ) :   0.9360 B( 18-C , 39-H ) :   0.9342 B( 18-C , 40-H ) :   0.9179

Dispersion correction           -0.064892437
FINAL SINGLE POINT ENERGY     -2929.520885523025

DIPOLE MOMENT
-------------

Method             : SCF
Type of density    : Electron Density
Multiplicity       :   1
Irrep              :   0
Energy             : -2929.6411936925769623 Eh
Relativity type    :
Basis              : AO
                                X                 Y                 Z
Electronic contribution:     -3.018687510       8.226805992     -14.380444312
Nuclear contribution   :      2.929309055      -9.344290238      15.529063993
                        -----------------------------------------
Total Dipole Moment    :     -0.089378455      -1.117484245       1.148619681
                        -----------------------------------------
Magnitude (a.u.)       :      1.605019227
Magnitude (Debye)      :      4.079634661

Rotational constants in cm-1:             0.013395             0.004561             0.004359
Rotational constants in MHz :           401.584844           136.725175           130.670217

                             ****ORCA TERMINATED NORMALLY****
TOTAL RUN TIME: 0 days 0 hours 0 minutes 21 seconds 123 msec
