                         Program Version 6.0.0  -   RELEASE  -
|  1> ! pbe def2-sv(p) def2/J RI DEFGRID1 loosescf d4 GCP(DFT/SV(P)) printgap
|  2> %output
|  3>     printlevel normal
|  4> end
|  5> * xyz 0 1
|  6> C 1.5558782242 2.5239911112 1.2256794218
|  7> C 2.8318637721 1.8005931769 1.6059013821
|  8> O 3.2347380163 0.8602694927 0.5961933638
|  9> P 2.48872258 -0.5272566308 0.3839317188
| 10> S 1.926773377 -1.4263920343 2.0379210147
| 11> O 3.5197290813 -1.3362893442 -0.5057692267
| 12> C 4.5615262936 -2.1534063996 0.0679477907
| 13> C 5.6273961098 -1.3185598436 0.7462301999
| 14> S 1.0513680282 -0.139524452 -1.1180844782
| 15> C -0.1180470461 -1.4631658 -0.687979102
| 16> S -1.2587265109 -1.0017600842 0.6450612387
| 17> P -2.3810958495 0.3782562889 -0.493127706
| 18> S -2.7236531227 -0.0856527294 -2.3712052306
| 19> O -1.5279528993 1.6884022994 -0.2406893626
| 20> C -1.5810247026 2.8221505474 -1.1309938335
| 21> C -2.932813312 3.5033158889 -1.0954407681
| 22> O -3.6752740557 0.6627894644 0.3826940696
| 23> C -4.8837395602 -0.1053666661 0.2499069814
| 24> C -4.7109613153 -1.5301975268 0.7353495204
| 25> H 0.7161579606 1.8293956146 1.2094182482
| 26> H 1.3515057263 3.3020877349 1.954281667
| 27> H 1.6607627125 2.9681216115 0.2386506826
| 28> H 2.7048287462 1.2629633105 2.5516470852
| 29> H 3.6753090561 2.4886653732 1.6789236847
| 30> H 4.1038485878 -2.8474351249 0.7802805247
| 31> H 4.9594979355 -2.7034184007 -0.7857971442
| 32> H 6.0003441817 -0.5600074045 0.0631431827
| 33> H 5.2111418862 -0.8280986095 1.6248553157
| 34> H 6.4452424075 -1.9619711237 1.0553256386
| 35> H 0.4247785362 -2.3410357747 -0.345907389
| 36> H -0.6913673392 -1.6750669157 -1.5904813122
| 37> H -0.7880066529 3.4765361748 -0.7675705824
| 38> H -1.3439264966 2.4771489902 -2.1424370539
| 39> H -3.1971407971 3.7588334488 -0.0727142986
| 40> H -2.8979091062 4.4052262878 -1.6984235905
| 41> H -3.6936398332 2.8367221922 -1.4999995969
| 42> H -5.6089953832 0.4411819658 0.8542016723
| 43> H -5.1876858112 -0.0925735631 -0.8018396796
| 44> H -4.2994922039 -1.5392390464 1.7416885186
| 45> H -5.6739698043 -2.0306687298 0.7338015642
| 46> H -4.0314498825 -2.0690091118 0.0761842799
| 47> *
| 48>
| 49>                          ****END OF INPUT****

CARTESIAN COORDINATES (ANGSTROEM)
---------------------------------
  C      1.555878    2.523991    1.225679
  C      2.831864    1.800593    1.605901
  O      3.234738    0.860269    0.596193
  P      2.488723   -0.527257    0.383932
  S      1.926773   -1.426392    2.037921
  O      3.519729   -1.336289   -0.505769
  C      4.561526   -2.153406    0.067948
  C      5.627396   -1.318560    0.746230
  S      1.051368   -0.139524   -1.118084
  C     -0.118047   -1.463166   -0.687979
  S     -1.258727   -1.001760    0.645061
  P     -2.381096    0.378256   -0.493128
  S     -2.723653   -0.085653   -2.371205
  O     -1.527953    1.688402   -0.240689
  C     -1.581025    2.822151   -1.130994
  C     -2.932813    3.503316   -1.095441
  O     -3.675274    0.662789    0.382694
  C     -4.883740   -0.105367    0.249907
  C     -4.710961   -1.530198    0.735350
  H      0.716158    1.829396    1.209418
  H      1.351506    3.302088    1.954282
  H      1.660763    2.968122    0.238651
  H      2.704829    1.262963    2.551647
  H      3.675309    2.488665    1.678924
  H      4.103849   -2.847435    0.780281
  H      4.959498   -2.703418   -0.785797
  H      6.000344   -0.560007    0.063143
  H      5.211142   -0.828099    1.624855
  H      6.445242   -1.961971    1.055326
  H      0.424779   -2.341036   -0.345907
  H     -0.691367   -1.675067   -1.590481
  H     -0.788007    3.476536   -0.767571
  H     -1.343926    2.477149   -2.142437
  H     -3.197141    3.758833   -0.072714
  H     -2.897909    4.405226   -1.698424
  H     -3.693640    2.836722   -1.500000
  H     -5.608995    0.441182    0.854202
  H     -5.187686   -0.092574   -0.801840
  H     -4.299492   -1.539239    1.741689
  H     -5.673970   -2.030669    0.733802
  H     -4.031450   -2.069009    0.076184

 Total Charge           Charge          ....    0
 Multiplicity           Mult            ....    1
 Number of Electrons    NEL             ....  202
 Basis Dimension        Dim             ....  334

ORBITAL ENERGIES
----------------

  NO   OCC          E(Eh)            E(eV)
   0   2.0000     -88.039980     -2395.6897
   1   2.0000     -88.039549     -2395.6779
   2   2.0000     -87.990669     -2394.3478
   3   2.0000     -87.990056     -2394.3311
   4   2.0000     -76.425911     -2079.6548
   5   2.0000     -76.425626     -2079.6470
   6   2.0000     -18.794806      -511.4327
   7   2.0000     -18.794104      -511.4136
   8   2.0000     -18.790051      -511.3033
   9   2.0000     -18.788951      -511.2733
  10   2.0000      -9.953718      -270.8544
  11   2.0000      -9.953612      -270.8516
  12   2.0000      -9.951447      -270.7926
  13   2.0000      -9.950896      -270.7777
  14   2.0000      -9.950809      -270.7753
  15   2.0000      -9.884192      -268.9625
  16   2.0000      -9.884008      -268.9575
  17   2.0000      -9.883746      -268.9504
  18   2.0000      -9.880823      -268.8709
  19   2.0000      -7.684941      -209.1179
  20   2.0000      -7.684791      -209.1138
  21   2.0000      -7.635497      -207.7724
  22   2.0000      -7.634939      -207.7572
  23   2.0000      -6.423727      -174.7985
  24   2.0000      -6.423475      -174.7916
  25   2.0000      -5.712760      -155.4521
  26   2.0000      -5.712634      -155.4487
  27   2.0000      -5.709633      -155.3670
  28   2.0000      -5.709507      -155.3636
  29   2.0000      -5.701786      -155.1535
  30   2.0000      -5.701530      -155.1465
  31   2.0000      -5.664223      -154.1313
  32   2.0000      -5.663625      -154.1151
  33   2.0000      -5.656222      -153.9136
  34   2.0000      -5.655808      -153.9024
  35   2.0000      -5.655579      -153.8961
  36   2.0000      -5.655345      -153.8898
  37   2.0000      -4.646098      -126.4268
  38   2.0000      -4.645894      -126.4212
  39   2.0000      -4.645470      -126.4097
  40   2.0000      -4.645174      -126.4016
  41   2.0000      -4.644341      -126.3789
  42   2.0000      -4.644063      -126.3714
  43   2.0000      -0.987828       -26.8802
  44   2.0000      -0.986683       -26.8490
  45   2.0000      -0.946956       -25.7680
  46   2.0000      -0.946105       -25.7448
  47   2.0000      -0.762715       -20.7545
  48   2.0000      -0.721322       -19.6282
  49   2.0000      -0.706946       -19.2370
  50   2.0000      -0.687514       -18.7082
  51   2.0000      -0.686334       -18.6761
  52   2.0000      -0.673471       -18.3261
  53   2.0000      -0.652096       -17.7444
  54   2.0000      -0.639593       -17.4042
  55   2.0000      -0.604836       -16.4584
  56   2.0000      -0.596363       -16.2279
  57   2.0000      -0.572913       -15.5897
  58   2.0000      -0.571515       -15.5517
  59   2.0000      -0.557769       -15.1777
  60   2.0000      -0.495528       -13.4840
  61   2.0000      -0.491557       -13.3759
  62   2.0000      -0.475691       -12.9442
  63   2.0000      -0.472449       -12.8560
  64   2.0000      -0.457377       -12.4459
  65   2.0000      -0.442569       -12.0429
  66   2.0000      -0.440560       -11.9882
  67   2.0000      -0.438236       -11.9250
  68   2.0000      -0.429563       -11.6890
  69   2.0000      -0.414290       -11.2734
  70   2.0000      -0.406624       -11.0648
  71   2.0000      -0.394771       -10.7423
  72   2.0000      -0.392843       -10.6898
  73   2.0000      -0.390101       -10.6152
  74   2.0000      -0.383857       -10.4453
  75   2.0000      -0.378410       -10.2971
  76   2.0000      -0.369024       -10.0416
  77   2.0000      -0.356243        -9.6939
  78   2.0000      -0.354433        -9.6446
  79   2.0000      -0.349922        -9.5219
  80   2.0000      -0.348487        -9.4828
  81   2.0000      -0.346763        -9.4359
  82   2.0000      -0.342356        -9.3160
  83   2.0000      -0.339003        -9.2248
  84   2.0000      -0.332209        -9.0399
  85   2.0000      -0.318833        -8.6759
  86   2.0000      -0.310609        -8.4521
  87   2.0000      -0.297338        -8.0910
  88   2.0000      -0.294541        -8.0149
  89   2.0000      -0.284102        -7.7308
  90   2.0000      -0.283196        -7.7062
  91   2.0000      -0.275197        -7.4885
  92   2.0000      -0.272501        -7.4151
  93   2.0000      -0.265154        -7.2152
  94   2.0000      -0.262923        -7.1545
  95   2.0000      -0.232774        -6.3341
  96   2.0000      -0.217748        -5.9252
  97   2.0000      -0.213352        -5.8056
  98   2.0000      -0.207433        -5.6445
  99   2.0000      -0.205569        -5.5938
 100   2.0000      -0.198979        -5.4145
 101   0.0000      -0.041547        -1.1306
 102   0.0000      -0.027769        -0.7556
 103   0.0000      -0.002179        -0.0593
 104   0.0000       0.008322         0.2265
 105   0.0000       0.013207         0.3594

MULLIKEN ATOMIC CHARGES
-----------------------
   0 C :   -0.343834
   1 C :   -0.001220
   2 O :   -0.371997
   3 P :    0.606988
   4 S :   -0.333116
   5 O :   -0.364553
   6 C :   -0.004443
   7 C :   -0.306510
   8 S :   -0.066000
   9 C :   -0.366349
  10 S :   -0.047585
  11 P :    0.606135
  12 S :   -0.341511
  13 O :   -0.355006
  14 C :   -0.007706
  15 C :   -0.306393
  16 O :   -0.371061
  17 C :   -0.004956
  18 C :   -0.316404
  19 H :    0.153604
  20 H :    0.109797
  21 H :    0.117206
  22 H :    0.111227
  23 H :    0.103034
  24 H :    0.109229
  25 H :    0.106291
  26 H :    0.118482
  27 H :    0.121379
  28 H :    0.111701
  29 H :    0.186754
  30 H :    0.194158
  31 H :    0.109969
  32 H :    0.112293
  33 H :    0.116954
  34 H :    0.111851
  35 H :    0.121997
  36 H :    0.106400
  37 H :    0.111167
  38 H :    0.121138
  39 H :    0.113727
  40 H :    0.127165
Sum of atomic charges:    0.0000000

LOEWDIN ATOMIC CHARGES
----------------------
   0 C :   -0.372137
   1 C :   -0.119467
   2 O :   -0.242425
   3 P :    0.571573
   4 S :   -0.319637
   5 O :   -0.244788
   6 C :   -0.117760
   7 C :   -0.364058
   8 S :    0.095298
   9 C :   -0.481082
  10 S :    0.106554
  11 P :    0.571169
  12 S :   -0.327575
  13 O :   -0.235088
  14 C :   -0.116715
  15 C :   -0.365085
  16 O :   -0.242515
  17 C :   -0.118588
  18 C :   -0.369483
  19 H :    0.126097
  20 H :    0.129614
  21 H :    0.122285
  22 H :    0.109553
  23 H :    0.117435
  24 H :    0.109623
  25 H :    0.119414
  26 H :    0.127218
  27 H :    0.122663
  28 H :    0.130118
  29 H :    0.131836
  30 H :    0.129222
  31 H :    0.118024
  32 H :    0.111128
  33 H :    0.126598
  34 H :    0.130334
  35 H :    0.121884
  36 H :    0.119299
  37 H :    0.110674
  38 H :    0.125880
  39 H :    0.131419
  40 H :    0.121492

  Mayer bond orders larger than 0.100000
B(  0-C ,  1-C ) :   1.1628 B(  0-C , 19-H ) :   0.9263 B(  0-C , 20-H ) :   0.9381
B(  0-C , 21-H ) :   0.9415 B(  1-C ,  2-O ) :   0.9085 B(  1-C , 22-H ) :   0.9129
B(  1-C , 23-H ) :   0.9328 B(  2-O ,  3-P ) :   1.1086 B(  3-P ,  4-S ) :   1.5905
B(  3-P ,  5-O ) :   1.1296 B(  3-P ,  8-S ) :   0.9701 B(  4-S ,  8-S ) :   0.1147
B(  5-O ,  6-C ) :   0.9112 B(  6-C ,  7-C ) :   1.1634 B(  6-C , 24-H ) :   0.9165
B(  6-C , 25-H ) :   0.9351 B(  7-C , 26-H ) :   0.9463 B(  7-C , 27-H ) :   0.9389
B(  7-C , 28-H ) :   0.9388 B(  8-S ,  9-C ) :   0.9954 B(  9-C , 10-S ) :   1.0085
B(  9-C , 29-H ) :   0.8922 B(  9-C , 30-H ) :   0.8733 B( 10-S , 11-P ) :   0.9689
B( 10-S , 12-S ) :   0.1088 B( 11-P , 12-S ) :   1.5782 B( 11-P , 13-O ) :   1.1271
B( 11-P , 16-O ) :   1.1108 B( 13-O , 14-C ) :   0.9064 B( 14-C , 15-C ) :   1.1635
B( 14-C , 31-H ) :   0.9295 B( 14-C , 32-H ) :   0.9181 B( 15-C , 33-H ) :   0.9456
B( 15-C , 34-H ) :   0.9391 B( 15-C , 35-H ) :   0.9356 B( 16-O , 17-C ) :   0.9078
B( 17-C , 18-C ) :   1.1662 B( 17-C , 36-H ) :   0.9339 B( 17-C , 37-H ) :   0.9165
B( 18-C , 38-H ) :   0.9444 B( 18-C , 39-H ) :   0.9377 B( 18-C , 40-H ) :   0.9355

Dispersion correction           -0.065132123
FINAL SINGLE POINT ENERGY     -2929.526062849692

DIPOLE MOMENT
-------------

Method             : SCF
Type of density    : Electron Density
Multiplicity       :   1
Irrep              :   0
Energy             : -2929.6455126794971875 Eh
Relativity type    :
Basis              : AO
                                X                 Y                 Z
Electronic contribution:      0.362356659      -9.532613247      -4.369719342
Nuclear contribution   :     -0.194383820      10.180792271       4.681267454
                        -----------------------------------------
Total Dipole Moment    :      0.167972839       0.648179024       0.311548113
                        -----------------------------------------
Magnitude (a.u.)       :      0.738520919
Magnitude (Debye)      :      1.877170995

Rotational constants in cm-1:             0.014259             0.004425             0.004083
Rotational constants in MHz :           427.485034           132.649476           122.419872

                             ****ORCA TERMINATED NORMALLY****
TOTAL RUN TIME: 0 days 0 hours 0 minutes 21 seconds 24 msec
