                         Program Version 6.0.0  -   RELEASE  -
|  1> ! wb97x-v def2-tzvp def2/J RIJCOSX DEFGRID2 scfconv7 GCP(DFT/TZ) printgap
|  2> %output
|  3>     printlevel normal
|  4> end
|  5> * xyz 0 1
|  6> C 1.2595665792883266 0.3174067898040793 -1.149274752804764
|  7> C 0.03876137214815928 -0.5504168721647765 -1.1247532176150428
|  8> Br -1.2608049831193755 -0.013466926999961151 0.27379069418973656
|  9> Cl 2.2934515796672406 0.11287122424937866 0.3433215387391111
| 10> H 1.8809736668853045 0.01689383268927159 -1.997843838716116
| 11> H 1.022331349794811 1.3789117487733709 -1.227148818646658
| 12> H 0.26820892587846107 -1.5984802544826493 -0.9376625431568353
| 13> H -0.4907200206741041 -0.4458967679614028 -2.0736229907560637
| 14> *
| 15>
| 16>                          ****END OF INPUT****

CARTESIAN COORDINATES (ANGSTROEM)
---------------------------------
  C      1.259567    0.317407   -1.149275
  C      0.038761   -0.550417   -1.124753
  Br    -1.260805   -0.013467    0.273791
  Cl     2.293452    0.112871    0.343322
  H      1.880974    0.016894   -1.997844
  H      1.022331    1.378912   -1.227149
  H      0.268209   -1.598480   -0.937663
  H     -0.490720   -0.445897   -2.073623

 Total Charge           Charge          ....    0
 Multiplicity           Mult            ....    1
 Number of Electrons    NEL             ....   68
 Basis Dimension        Dim             ....  171

ORBITAL ENERGIES
----------------

  NO   OCC          E(Eh)            E(eV)
   0   2.0000    -494.719082    -13461.9906
   1   2.0000    -107.137263     -2915.3531
   2   2.0000     -66.888624     -1820.1320
   3   2.0000     -60.945488     -1658.4110
   4   2.0000     -60.943894     -1658.3677
   5   2.0000     -60.943797     -1658.3650
   6   2.0000     -12.131495      -330.1148
   7   2.0000     -12.126532      -329.9797
   8   2.0000     -11.290311      -307.2250
   9   2.0000     -10.640364      -289.5390
  10   2.0000      -9.081725      -247.1263
  11   2.0000      -9.079031      -247.0530
  12   2.0000      -9.078983      -247.0517
  13   2.0000      -8.420239      -229.1264
  14   2.0000      -8.413349      -228.9389
  15   2.0000      -8.413244      -228.9360
  16   2.0000      -4.405346      -119.8756
  17   2.0000      -4.402714      -119.8039
  18   2.0000      -4.402594      -119.8007
  19   2.0000      -4.395013      -119.5944
  20   2.0000      -4.394986      -119.5937
  21   2.0000      -1.407463       -38.2990
  22   2.0000      -1.344018       -36.5726
  23   2.0000      -1.262108       -34.3437
  24   2.0000      -1.114320       -30.3222
  25   2.0000      -0.931652       -25.3515
  26   2.0000      -0.919705       -25.0264
  27   2.0000      -0.901025       -24.5181
  28   2.0000      -0.849639       -23.1199
  29   2.0000      -0.820197       -22.3187
  30   2.0000      -0.778938       -21.1960
  31   2.0000      -0.770753       -20.9733
  32   2.0000      -0.723943       -19.6995
  33   2.0000      -0.720895       -19.6166
  34   0.0000      -0.302729        -8.2377
  35   0.0000      -0.266458        -7.2507
  36   0.0000      -0.040346        -1.0979
  37   0.0000      -0.034149        -0.9292
  38   0.0000       0.004820         0.1312

MULLIKEN ATOMIC CHARGES
-----------------------
   0 C :   -0.128998
   1 C :   -0.182068
   2 Br:   -0.112189
   3 Cl:   -0.144769
   4 H :    0.135750
   5 H :    0.143435
   6 H :    0.147502
   7 H :    0.141336
Sum of atomic charges:   -0.0000000

LOEWDIN ATOMIC CHARGES
----------------------
   0 C :   -0.493981
   1 C :   -0.467760
   2 Br:    0.204063
   3 Cl:    0.239410
   4 H :    0.130043
   5 H :    0.126916
   6 H :    0.129124
   7 H :    0.132186

  Mayer bond orders larger than 0.100000
B(  0-C ,  1-C ) :   1.0129 B(  0-C ,  3-Cl) :   1.0681 B(  0-C ,  4-H ) :   0.9552
B(  0-C ,  5-H ) :   0.9632 B(  1-C ,  2-Br) :   1.0545 B(  1-C ,  6-H ) :   0.9602
B(  1-C ,  7-H ) :   0.9544

FINAL SINGLE POINT ENERGY     -3112.686857856571

DIPOLE MOMENT
-------------

Method             : SCF
Type of density    : Electron Density
Multiplicity       :   1
Irrep              :   0
Energy             : -3112.6937731707712373 Eh
Relativity type    :
Basis              : AO
                                X                 Y                 Z
Electronic contribution:    -11.017412998       0.542845533       7.710055593
Nuclear contribution   :     11.089079084      -0.660185126      -8.832203310
                        -----------------------------------------
Total Dipole Moment    :      0.071666086      -0.117339593      -1.122147717
                        -----------------------------------------
Magnitude (a.u.)       :      1.130539741
Magnitude (Debye)      :      2.873603653

Rotational constants in cm-1:             0.283017             0.048402             0.043101
Rotational constants in MHz :          8484.637895          1451.045207          1292.135570

                             ****ORCA TERMINATED NORMALLY****
TOTAL RUN TIME: 0 days 0 hours 0 minutes 54 seconds 288 msec
