                         Program Version 6.0.0  -   RELEASE  -
|  1> ! wb97x-v def2-tzvp def2/J RIJCOSX DEFGRID2 scfconv7 GCP(DFT/TZ) printgap
|  2> %output
|  3>     printlevel normal
|  4> end
|  5> %cpcm
|  6>     smd true
|  7>     smdsolvent "water"
|  8> end
|  9> * xyz 0 1
| 10> C 1.2595665792883266 0.3174067898040793 -1.149274752804764
| 11> C 0.03876137214815928 -0.5504168721647765 -1.1247532176150428
| 12> Br -1.2608049831193755 -0.013466926999961151 0.27379069418973656
| 13> Cl 2.2934515796672406 0.11287122424937866 0.3433215387391111
| 14> H 1.8809736668853045 0.01689383268927159 -1.997843838716116
| 15> H 1.022331349794811 1.3789117487733709 -1.227148818646658
| 16> H 0.26820892587846107 -1.5984802544826493 -0.9376625431568353
| 17> H -0.4907200206741041 -0.4458967679614028 -2.0736229907560637
| 18> *
| 19>
| 20>                          ****END OF INPUT****

CARTESIAN COORDINATES (ANGSTROEM)
---------------------------------
  C      1.259567    0.317407   -1.149275
  C      0.038761   -0.550417   -1.124753
  Br    -1.260805   -0.013467    0.273791
  Cl     2.293452    0.112871    0.343322
  H      1.880974    0.016894   -1.997844
  H      1.022331    1.378912   -1.227149
  H      0.268209   -1.598480   -0.937663
  H     -0.490720   -0.445897   -2.073623

 Total Charge           Charge          ....    0
 Multiplicity           Mult            ....    1
 Number of Electrons    NEL             ....   68
 Basis Dimension        Dim             ....  171

ORBITAL ENERGIES
----------------

  NO   OCC          E(Eh)            E(eV)
   0   2.0000    -494.711628    -13461.7878
   1   2.0000    -107.131941     -2915.2083
   2   2.0000     -66.881316     -1819.9331
   3   2.0000     -60.938118     -1658.2105
   4   2.0000     -60.936632     -1658.1700
   5   2.0000     -60.936535     -1658.1674
   6   2.0000     -12.112840      -329.6071
   7   2.0000     -12.108567      -329.4909
   8   2.0000     -11.285226      -307.0866
   9   2.0000     -10.633155      -289.3429
  10   2.0000      -9.076579      -246.9863
  11   2.0000      -9.074068      -246.9179
  12   2.0000      -9.074020      -246.9166
  13   2.0000      -8.412772      -228.9232
  14   2.0000      -8.406381      -228.7493
  15   2.0000      -8.406294      -228.7469
  16   2.0000      -4.397804      -119.6703
  17   2.0000      -4.395368      -119.6040
  18   2.0000      -4.395275      -119.6015
  19   2.0000      -4.388192      -119.4088
  20   2.0000      -4.388166      -119.4081
  21   2.0000      -1.399441       -38.0807
  22   2.0000      -1.334814       -36.3221
  23   2.0000      -1.247886       -33.9567
  24   2.0000      -1.096366       -29.8336
  25   2.0000      -0.914489       -24.8845
  26   2.0000      -0.901686       -24.5361
  27   2.0000      -0.886188       -24.1144
  28   2.0000      -0.834490       -22.7076
  29   2.0000      -0.808647       -22.0044
  30   2.0000      -0.774072       -21.0636
  31   2.0000      -0.763479       -20.7753
  32   2.0000      -0.717416       -19.5219
  33   2.0000      -0.713997       -19.4288
  34   0.0000      -0.288938        -7.8624
  35   0.0000      -0.253141        -6.8883
  36   0.0000      -0.023078        -0.6280
  37   0.0000      -0.008902        -0.2422
  38   0.0000       0.028062         0.7636

MULLIKEN ATOMIC CHARGES
-----------------------
   0 C :   -0.137276
   1 C :   -0.188053
   2 Br:   -0.162726
   3 Cl:   -0.199246
   4 H :    0.175695
   5 H :    0.166887
   6 H :    0.168344
   7 H :    0.176375
Sum of atomic charges:   -0.0000000

LOEWDIN ATOMIC CHARGES
----------------------
   0 C :   -0.478272
   1 C :   -0.452106
   2 Br:    0.168772
   3 Cl:    0.203743
   4 H :    0.144100
   5 H :    0.133854
   6 H :    0.135568
   7 H :    0.144341

  Mayer bond orders larger than 0.100000
B(  0-C ,  1-C ) :   1.0250 B(  0-C ,  3-Cl) :   1.0170 B(  0-C ,  4-H ) :   0.9491
B(  0-C ,  5-H ) :   0.9559 B(  1-C ,  2-Br) :   1.0179 B(  1-C ,  6-H ) :   0.9517
B(  1-C ,  7-H ) :   0.9482

FINAL SINGLE POINT ENERGY     -3112.693962164139

DIPOLE MOMENT
-------------

Method             : SCF
Type of density    : Electron Density
Multiplicity       :   1
Irrep              :   0
Energy             : -3112.7008774783389526 Eh
Relativity type    :
Basis              : AO
                                X                 Y                 Z
Electronic contribution:    -10.981865892       0.492788476       7.243003968
Nuclear contribution   :     11.089079084      -0.660185126      -8.832203310
                        -----------------------------------------
Total Dipole Moment    :      0.107213192      -0.167396650      -1.589199342
                        -----------------------------------------
Magnitude (a.u.)       :      1.601583859
Magnitude (Debye)      :      4.070902649

Rotational constants in cm-1:             0.283017             0.048402             0.043101
Rotational constants in MHz :          8484.637895          1451.045207          1292.135570

                             ****ORCA TERMINATED NORMALLY****
TOTAL RUN TIME: 0 days 0 hours 0 minutes 55 seconds 648 msec
