                         Program Version 6.0.0  -   RELEASE  -
|  1> ! pbe def2-sv(p) def2/J RI DEFGRID1 loosescf d4 GCP(DFT/SV(P)) printgap
|  2> %output
|  3>     printlevel normal
|  4> end
|  5> * xyz 0 1
|  6> C 2.7168610474 -0.0531262773 3.3706414278
|  7> C 1.4093324412 -0.3777846735 2.6793256133
|  8> O 1.326462712 0.24661546 1.3836593947
|  9> P 2.1971044517 -0.2338652564 0.1517154273
| 10> S 2.7439216583 -2.1190872817 0.1410728659
| 11> O 3.3892129277 0.8160459651 0.1868129315
| 12> C 4.6103948848 0.623879766 -0.5489616919
| 13> C 4.40022755 0.7360946931 -2.0452119099
| 14> S 0.9713457563 0.4243348049 -1.4380899586
| 15> C -0.0014460574 -1.0994783239 -1.5930816459
| 16> S -0.9722155107 -1.4938606486 -0.1117584563
| 17> P -2.1967100167 0.2269986883 -0.1617831181
| 18> S -2.74549667 0.8850236503 -1.9277624638
| 19> O -1.3241567023 1.2086034872 0.7223759914
| 20> C -1.4089251081 2.6414994243 0.5992575027
| 21> C -2.7158280152 3.1709302275 1.151138463
| 22> O -3.3875662376 -0.1115314664 0.8342241178
| 23> C -4.609774591 -0.730626876 0.3954430316
| 24> C -4.4004639682 -2.1683880545 -0.0342042659
| 25> H 2.7060739467 -0.4650404001 4.3748564433
| 26> H 3.5449841849 -0.4929996049 2.815864209
| 27> H 2.8593922216 1.0232002722 3.4197326387
| 28> H 0.5490011347 0.0220857368 3.2181379838
| 29> H 1.2936929478 -1.4594002847 2.5517231807
| 30> H 5.2679745382 1.4091872881 -0.173819163
| 31> H 5.0171118293 -0.3593463111 -0.2913547702
| 32> H 5.3624176797 0.7066261535 -2.546381348
| 33> H 3.7915512798 -0.0945531713 -2.4001227495
| 34> H 3.8940580404 1.6672645772 -2.2874951845
| 35> H 0.6654934391 -1.9455739417 -1.7548662211
| 36> H -0.66963784 -0.9501304709 -2.4404710349
| 37> H -0.5477735816 3.0040362681 1.1625984196
| 38> H -1.295867379 2.9066636593 -0.4573602077
| 39> H -3.5448471944 2.8084937169 0.5441436148
| 40> H -2.8561642807 2.8334665002 2.1746706506
| 41> H -2.705899029 4.256012915 1.123777586
| 42> H -5.2650384481 -0.6605027139 1.2646768439
| 43> H -5.0188346411 -0.1392659134 -0.4300732138
| 44> H -3.8917934389 -2.7268650072 0.747710052
| 45> H -5.3630806041 -2.626405561 -0.2378207852
| 46> H -3.7944232249 -2.2032610359 -0.9386149929
| 47> *
| 48>
| 49>                          ****END OF INPUT****

CARTESIAN COORDINATES (ANGSTROEM)
---------------------------------
  C      2.716861   -0.053126    3.370641
  C      1.409332   -0.377785    2.679326
  O      1.326463    0.246615    1.383659
  P      2.197104   -0.233865    0.151715
  S      2.743922   -2.119087    0.141073
  O      3.389213    0.816046    0.186813
  C      4.610395    0.623880   -0.548962
  C      4.400228    0.736095   -2.045212
  S      0.971346    0.424335   -1.438090
  C     -0.001446   -1.099478   -1.593082
  S     -0.972216   -1.493861   -0.111758
  P     -2.196710    0.226999   -0.161783
  S     -2.745497    0.885024   -1.927762
  O     -1.324157    1.208603    0.722376
  C     -1.408925    2.641499    0.599258
  C     -2.715828    3.170930    1.151138
  O     -3.387566   -0.111531    0.834224
  C     -4.609775   -0.730627    0.395443
  C     -4.400464   -2.168388   -0.034204
  H      2.706074   -0.465040    4.374856
  H      3.544984   -0.493000    2.815864
  H      2.859392    1.023200    3.419733
  H      0.549001    0.022086    3.218138
  H      1.293693   -1.459400    2.551723
  H      5.267975    1.409187   -0.173819
  H      5.017112   -0.359346   -0.291355
  H      5.362418    0.706626   -2.546381
  H      3.791551   -0.094553   -2.400123
  H      3.894058    1.667265   -2.287495
  H      0.665493   -1.945574   -1.754866
  H     -0.669638   -0.950130   -2.440471
  H     -0.547774    3.004036    1.162598
  H     -1.295867    2.906664   -0.457360
  H     -3.544847    2.808494    0.544144
  H     -2.856164    2.833467    2.174671
  H     -2.705899    4.256013    1.123778
  H     -5.265038   -0.660503    1.264677
  H     -5.018835   -0.139266   -0.430073
  H     -3.891793   -2.726865    0.747710
  H     -5.363081   -2.626406   -0.237821
  H     -3.794423   -2.203261   -0.938615

 Total Charge           Charge          ....    0
 Multiplicity           Mult            ....    1
 Number of Electrons    NEL             ....  202
 Basis Dimension        Dim             ....  334

ORBITAL ENERGIES
----------------

  NO   OCC          E(Eh)            E(eV)
   0   2.0000     -88.041120     -2395.7207
   1   2.0000     -88.041082     -2395.7196
   2   2.0000     -87.989560     -2394.3176
   3   2.0000     -87.989491     -2394.3158
   4   2.0000     -76.425416     -2079.6413
   5   2.0000     -76.425390     -2079.6406
   6   2.0000     -18.794482      -511.4239
   7   2.0000     -18.794462      -511.4233
   8   2.0000     -18.785096      -511.1684
   9   2.0000     -18.785051      -511.1672
  10   2.0000      -9.953717      -270.8544
  11   2.0000      -9.953156      -270.8391
  12   2.0000      -9.953142      -270.8388
  13   2.0000      -9.946828      -270.6670
  14   2.0000      -9.946802      -270.6662
  15   2.0000      -9.884294      -268.9653
  16   2.0000      -9.884283      -268.9650
  17   2.0000      -9.881709      -268.8950
  18   2.0000      -9.881689      -268.8944
  19   2.0000      -7.686092      -209.1492
  20   2.0000      -7.686066      -209.1485
  21   2.0000      -7.634467      -207.7444
  22   2.0000      -7.634404      -207.7427
  23   2.0000      -6.422995      -174.7786
  24   2.0000      -6.422978      -174.7781
  25   2.0000      -5.713933      -155.4840
  26   2.0000      -5.713897      -155.4830
  27   2.0000      -5.710768      -155.3979
  28   2.0000      -5.710743      -155.3972
  29   2.0000      -5.702909      -155.1841
  30   2.0000      -5.702887      -155.1835
  31   2.0000      -5.663202      -154.1036
  32   2.0000      -5.663154      -154.1023
  33   2.0000      -5.655135      -153.8841
  34   2.0000      -5.655066      -153.8822
  35   2.0000      -5.654802      -153.8750
  36   2.0000      -5.654730      -153.8730
  37   2.0000      -4.645321      -126.4056
  38   2.0000      -4.645306      -126.4052
  39   2.0000      -4.644749      -126.3900
  40   2.0000      -4.644734      -126.3896
  41   2.0000      -4.643675      -126.3608
  42   2.0000      -4.643669      -126.3607
  43   2.0000      -0.986214       -26.8362
  44   2.0000      -0.985085       -26.8055
  45   2.0000      -0.944875       -25.7114
  46   2.0000      -0.943359       -25.6701
  47   2.0000      -0.764381       -20.7999
  48   2.0000      -0.719830       -19.5876
  49   2.0000      -0.706185       -19.2163
  50   2.0000      -0.686344       -18.6764
  51   2.0000      -0.684946       -18.6383
  52   2.0000      -0.673150       -18.3174
  53   2.0000      -0.652332       -17.7509
  54   2.0000      -0.639247       -17.3948
  55   2.0000      -0.604158       -16.4400
  56   2.0000      -0.595750       -16.2112
  57   2.0000      -0.570509       -15.5243
  58   2.0000      -0.570208       -15.5162
  59   2.0000      -0.559555       -15.2263
  60   2.0000      -0.494714       -13.4619
  61   2.0000      -0.489774       -13.3274
  62   2.0000      -0.473633       -12.8882
  63   2.0000      -0.470388       -12.7999
  64   2.0000      -0.454366       -12.3639
  65   2.0000      -0.440478       -11.9860
  66   2.0000      -0.439423       -11.9573
  67   2.0000      -0.438690       -11.9374
  68   2.0000      -0.425896       -11.5892
  69   2.0000      -0.414989       -11.2924
  70   2.0000      -0.407500       -11.0886
  71   2.0000      -0.392304       -10.6751
  72   2.0000      -0.388562       -10.5733
  73   2.0000      -0.388421       -10.5695
  74   2.0000      -0.384577       -10.4649
  75   2.0000      -0.376581       -10.2473
  76   2.0000      -0.371069       -10.0973
  77   2.0000      -0.358212        -9.7474
  78   2.0000      -0.354162        -9.6372
  79   2.0000      -0.349688        -9.5155
  80   2.0000      -0.347519        -9.4565
  81   2.0000      -0.347300        -9.4505
  82   2.0000      -0.340803        -9.2737
  83   2.0000      -0.339315        -9.2332
  84   2.0000      -0.331516        -9.0210
  85   2.0000      -0.320731        -8.7275
  86   2.0000      -0.307593        -8.3700
  87   2.0000      -0.295756        -8.0479
  88   2.0000      -0.295644        -8.0449
  89   2.0000      -0.285383        -7.7657
  90   2.0000      -0.279063        -7.5937
  91   2.0000      -0.275254        -7.4901
  92   2.0000      -0.265007        -7.2112
  93   2.0000      -0.263951        -7.1825
  94   2.0000      -0.260311        -7.0834
  95   2.0000      -0.231054        -6.2873
  96   2.0000      -0.216803        -5.8995
  97   2.0000      -0.215535        -5.8650
  98   2.0000      -0.209245        -5.6938
  99   2.0000      -0.202067        -5.4985
 100   2.0000      -0.201242        -5.4761
 101   0.0000      -0.043918        -1.1951
 102   0.0000      -0.022400        -0.6095
 103   0.0000       0.000986         0.0268
 104   0.0000       0.003033         0.0825
 105   0.0000       0.012444         0.3386

MULLIKEN ATOMIC CHARGES
-----------------------
   0 C :   -0.304230
   1 C :   -0.001241
   2 O :   -0.350740
   3 P :    0.613569
   4 S :   -0.340689
   5 O :   -0.370541
   6 C :   -0.005538
   7 C :   -0.314486
   8 S :   -0.071967
   9 C :   -0.362630
  10 S :   -0.071902
  11 P :    0.614179
  12 S :   -0.341205
  13 O :   -0.350935
  14 C :   -0.001037
  15 C :   -0.304068
  16 O :   -0.370931
  17 C :   -0.005212
  18 C :   -0.315064
  19 H :    0.110699
  20 H :    0.120007
  21 H :    0.114183
  22 H :    0.104176
  23 H :    0.111487
  24 H :    0.105724
  25 H :    0.111145
  26 H :    0.113433
  27 H :    0.126514
  28 H :    0.119027
  29 H :    0.190691
  30 H :    0.190877
  31 H :    0.104258
  32 H :    0.111402
  33 H :    0.119982
  34 H :    0.114059
  35 H :    0.110680
  36 H :    0.105837
  37 H :    0.111217
  38 H :    0.119017
  39 H :    0.113449
  40 H :    0.126805
Sum of atomic charges:   -0.0000000

LOEWDIN ATOMIC CHARGES
----------------------
   0 C :   -0.364397
   1 C :   -0.117255
   2 O :   -0.231202
   3 P :    0.573512
   4 S :   -0.326657
   5 O :   -0.244337
   6 C :   -0.119182
   7 C :   -0.369182
   8 S :    0.098128
   9 C :   -0.481371
  10 S :    0.098178
  11 P :    0.573712
  12 S :   -0.326881
  13 O :   -0.231229
  14 C :   -0.117143
  15 C :   -0.364336
  16 O :   -0.244417
  17 C :   -0.119137
  18 C :   -0.369308
  19 H :    0.129545
  20 H :    0.121530
  21 H :    0.125130
  22 H :    0.118261
  23 H :    0.109540
  24 H :    0.118907
  25 H :    0.110451
  26 H :    0.131253
  27 H :    0.121195
  28 H :    0.125000
  29 H :    0.130360
  30 H :    0.130386
  31 H :    0.118302
  32 H :    0.109538
  33 H :    0.121536
  34 H :    0.125114
  35 H :    0.129525
  36 H :    0.118941
  37 H :    0.110517
  38 H :    0.124973
  39 H :    0.131255
  40 H :    0.121247

  Mayer bond orders larger than 0.100000
B(  0-C ,  1-C ) :   1.1619 B(  0-C , 19-H ) :   0.9402 B(  0-C , 20-H ) :   0.9372
B(  0-C , 21-H ) :   0.9465 B(  1-C ,  2-O ) :   0.9062 B(  1-C , 22-H ) :   0.9336
B(  1-C , 23-H ) :   0.9163 B(  2-O ,  3-P ) :   1.1366 B(  3-P ,  4-S ) :   1.5815
B(  3-P ,  5-O ) :   1.1126 B(  3-P ,  8-S ) :   0.9567 B(  4-S ,  8-S ) :   0.1082
B(  5-O ,  6-C ) :   0.9086 B(  6-C ,  7-C ) :   1.1660 B(  6-C , 24-H ) :   0.9340
B(  6-C , 25-H ) :   0.9160 B(  7-C , 26-H ) :   0.9379 B(  7-C , 27-H ) :   0.9356
B(  7-C , 28-H ) :   0.9447 B(  8-S ,  9-C ) :   1.0042 B(  9-C , 10-S ) :   1.0041
B(  9-C , 29-H ) :   0.8846 B(  9-C , 30-H ) :   0.8846 B( 10-S , 11-P ) :   0.9570
B( 10-S , 12-S ) :   0.1082 B( 11-P , 12-S ) :   1.5814 B( 11-P , 13-O ) :   1.1367
B( 11-P , 16-O ) :   1.1120 B( 13-O , 14-C ) :   0.9062 B( 14-C , 15-C ) :   1.1620
B( 14-C , 31-H ) :   0.9336 B( 14-C , 32-H ) :   0.9164 B( 15-C , 33-H ) :   0.9373
B( 15-C , 34-H ) :   0.9465 B( 15-C , 35-H ) :   0.9402 B( 16-O , 17-C ) :   0.9086
B( 17-C , 18-C ) :   1.1660 B( 17-C , 36-H ) :   0.9340 B( 17-C , 37-H ) :   0.9161
B( 18-C , 38-H ) :   0.9447 B( 18-C , 39-H ) :   0.9378 B( 18-C , 40-H ) :   0.9356

Dispersion correction           -0.067117251
FINAL SINGLE POINT ENERGY     -2929.528043736108

DIPOLE MOMENT
-------------

Method             : SCF
Type of density    : Electron Density
Multiplicity       :   1
Irrep              :   0
Energy             : -2929.6455948804000400 Eh
Relativity type    :
Basis              : AO
                                X                 Y                 Z
Electronic contribution:      0.001042079      -5.708278042      -8.272278594
Nuclear contribution   :     -0.001732094       6.215766715       9.007775561
                        -----------------------------------------
Total Dipole Moment    :     -0.000690015       0.507488674       0.735496968
                        -----------------------------------------
Magnitude (a.u.)       :      0.893588842
Magnitude (Debye)      :      2.271322333

Rotational constants in cm-1:             0.012794             0.004928             0.004927
Rotational constants in MHz :           383.558989           147.740925           147.720611

                             ****ORCA TERMINATED NORMALLY****
TOTAL RUN TIME: 0 days 0 hours 0 minutes 22 seconds 833 msec
