                         Program Version 6.0.0  -   RELEASE  -
|  1> ! pbe def2-sv(p) def2/J RI DEFGRID1 loosescf d4 GCP(DFT/SV(P)) printgap
|  2> %output
|  3>     printlevel normal
|  4> end
|  5> * xyz 0 1
|  6> C 2.8605571129 -1.6407018545 -2.5926783907
|  7> C 1.5207236556 -1.0984254022 -2.1412560724
|  8> O 1.4100763759 -1.0542033934 -0.7059225301
|  9> P 2.3135518739 -0.0469346371 0.1585966592
| 10> S 2.6115034402 1.7200733885 -0.6217322747
| 11> O 3.6911554739 -0.7732963855 0.4439175467
| 12> C 3.7884816857 -2.1155130409 0.9849649418
| 13> C 4.1361913981 -2.0715177819 2.4591131141
| 14> S 1.2949628978 -0.1491106317 1.9962522277
| 15> C -0.1486158686 0.8786909246 1.6104262262
| 16> S -1.6428623184 -0.1273605672 1.3691657207
| 17> P -2.3071146354 0.6404646875 -0.5041816103
| 18> S -0.9416459883 1.3706263343 -1.7000807002
| 19> O -3.3960190079 1.7268537441 -0.1598381881
| 20> C -4.5566011104 1.4559750335 0.6718666629
| 21> C -4.415100628 2.1537215289 2.0097796673
| 22> O -3.1980496937 -0.5364844905 -1.0965811442
| 23> C -2.6493800754 -1.6159685149 -1.8736885271
| 24> C -1.8907253905 -2.6122475419 -1.018927342
| 25> H 2.8702013525 -1.7051309879 -3.676269219
| 26> H 3.657498023 -0.9695625595 -2.2733748639
| 27> H 3.0321416915 -2.6277698363 -2.1708764484
| 28> H 0.6985897264 -1.7453760972 -2.4511089921
| 29> H 1.355862174 -0.0888593642 -2.5313796424
| 30> H 2.8452776304 -2.6403832734 0.8153046107
| 31> H 4.5859955587 -2.5854730471 0.4065255421
| 32> H 3.3312175735 -1.6101987327 3.0270726146
| 33> H 4.2902080524 -3.0845794102 2.8170518579
| 34> H 5.0449797706 -1.4952628454 2.6080849332
| 35> H 0.0535056513 1.4513924233 0.7000768968
| 36> H -0.306438401 1.5334535612 2.4630175598
| 37> H -5.4011652806 1.8507235899 0.105325089
| 38> H -4.6664276468 0.3768376236 0.7928723318
| 39> H -4.2132698762 3.2105723489 1.8580576776
| 40> H -5.3408389173 2.0428619654 2.5653934923
| 41> H -3.6028268881 1.7171481731 2.5854015636
| 42> H -3.5260665389 -2.0730696013 -2.3355223264
| 43> H -2.0037895534 -1.188410297 -2.6479731941
| 44> H -1.6338987423 -3.476456738 -1.6236776549
| 45> H -0.9762408244 -2.1665273927 -0.6321230141
| 46> H -2.5038172708 -2.9312594348 -0.1800721717
| 47> *
| 48>
| 49>                          ****END OF INPUT****

CARTESIAN COORDINATES (ANGSTROEM)
---------------------------------
  C      2.860557   -1.640702   -2.592678
  C      1.520724   -1.098425   -2.141256
  O      1.410076   -1.054203   -0.705923
  P      2.313552   -0.046935    0.158597
  S      2.611503    1.720073   -0.621732
  O      3.691155   -0.773296    0.443918
  C      3.788482   -2.115513    0.984965
  C      4.136191   -2.071518    2.459113
  S      1.294963   -0.149111    1.996252
  C     -0.148616    0.878691    1.610426
  S     -1.642862   -0.127361    1.369166
  P     -2.307115    0.640465   -0.504182
  S     -0.941646    1.370626   -1.700081
  O     -3.396019    1.726854   -0.159838
  C     -4.556601    1.455975    0.671867
  C     -4.415101    2.153722    2.009780
  O     -3.198050   -0.536484   -1.096581
  C     -2.649380   -1.615969   -1.873689
  C     -1.890725   -2.612248   -1.018927
  H      2.870201   -1.705131   -3.676269
  H      3.657498   -0.969563   -2.273375
  H      3.032142   -2.627770   -2.170876
  H      0.698590   -1.745376   -2.451109
  H      1.355862   -0.088859   -2.531380
  H      2.845278   -2.640383    0.815305
  H      4.585996   -2.585473    0.406526
  H      3.331218   -1.610199    3.027073
  H      4.290208   -3.084579    2.817052
  H      5.044980   -1.495263    2.608085
  H      0.053506    1.451392    0.700077
  H     -0.306438    1.533454    2.463018
  H     -5.401165    1.850724    0.105325
  H     -4.666428    0.376838    0.792872
  H     -4.213270    3.210572    1.858058
  H     -5.340839    2.042862    2.565393
  H     -3.602827    1.717148    2.585402
  H     -3.526067   -2.073070   -2.335522
  H     -2.003790   -1.188410   -2.647973
  H     -1.633899   -3.476457   -1.623678
  H     -0.976241   -2.166527   -0.632123
  H     -2.503817   -2.931259   -0.180072

 Total Charge           Charge          ....    0
 Multiplicity           Mult            ....    1
 Number of Electrons    NEL             ....  202
 Basis Dimension        Dim             ....  334

ORBITAL ENERGIES
----------------

  NO   OCC          E(Eh)            E(eV)
   0   2.0000     -88.043658     -2395.7897
   1   2.0000     -88.043185     -2395.7769
   2   2.0000     -87.985323     -2394.2024
   3   2.0000     -87.977469     -2393.9886
   4   2.0000     -76.425546     -2079.6448
   5   2.0000     -76.421695     -2079.5400
   6   2.0000     -18.795400      -511.4488
   7   2.0000     -18.794416      -511.4221
   8   2.0000     -18.789518      -511.2888
   9   2.0000     -18.788063      -511.2492
  10   2.0000      -9.960050      -271.0267
  11   2.0000      -9.957892      -270.9680
  12   2.0000      -9.955984      -270.9161
  13   2.0000      -9.955793      -270.9109
  14   2.0000      -9.944251      -270.5968
  15   2.0000      -9.890909      -269.1453
  16   2.0000      -9.887605      -269.0554
  17   2.0000      -9.885165      -268.9890
  18   2.0000      -9.883121      -268.9334
  19   2.0000      -7.688733      -209.2211
  20   2.0000      -7.688481      -209.2142
  21   2.0000      -7.630254      -207.6298
  22   2.0000      -7.622716      -207.4246
  23   2.0000      -6.423384      -174.7892
  24   2.0000      -6.419712      -174.6893
  25   2.0000      -5.716649      -155.5579
  26   2.0000      -5.716269      -155.5476
  27   2.0000      -5.713178      -155.4635
  28   2.0000      -5.713002      -155.4587
  29   2.0000      -5.705616      -155.2577
  30   2.0000      -5.705548      -155.2559
  31   2.0000      -5.659267      -153.9965
  32   2.0000      -5.651904      -153.7961
  33   2.0000      -5.650877      -153.7682
  34   2.0000      -5.650275      -153.7518
  35   2.0000      -5.643424      -153.5654
  36   2.0000      -5.642499      -153.5402
  37   2.0000      -4.646218      -126.4300
  38   2.0000      -4.645015      -126.3973
  39   2.0000      -4.643674      -126.3608
  40   2.0000      -4.642738      -126.3353
  41   2.0000      -4.641225      -126.2941
  42   2.0000      -4.639955      -126.2596
  43   2.0000      -0.988845       -26.9078
  44   2.0000      -0.983858       -26.7721
  45   2.0000      -0.945233       -25.7211
  46   2.0000      -0.942413       -25.6444
  47   2.0000      -0.762333       -20.7441
  48   2.0000      -0.722346       -19.6560
  49   2.0000      -0.712421       -19.3860
  50   2.0000      -0.692173       -18.8350
  51   2.0000      -0.691005       -18.8032
  52   2.0000      -0.676711       -18.4142
  53   2.0000      -0.650234       -17.6938
  54   2.0000      -0.633396       -17.2356
  55   2.0000      -0.597619       -16.2620
  56   2.0000      -0.585697       -15.9376
  57   2.0000      -0.579017       -15.7559
  58   2.0000      -0.576568       -15.6892
  59   2.0000      -0.559111       -15.2142
  60   2.0000      -0.505037       -13.7427
  61   2.0000      -0.499300       -13.5867
  62   2.0000      -0.475734       -12.9454
  63   2.0000      -0.475439       -12.9373
  64   2.0000      -0.456908       -12.4331
  65   2.0000      -0.450795       -12.2668
  66   2.0000      -0.444401       -12.0928
  67   2.0000      -0.437195       -11.8967
  68   2.0000      -0.433039       -11.7836
  69   2.0000      -0.417359       -11.3569
  70   2.0000      -0.410288       -11.1645
  71   2.0000      -0.400926       -10.9097
  72   2.0000      -0.395917       -10.7735
  73   2.0000      -0.384664       -10.4672
  74   2.0000      -0.377229       -10.2649
  75   2.0000      -0.369459       -10.0535
  76   2.0000      -0.367017        -9.9870
  77   2.0000      -0.359359        -9.7787
  78   2.0000      -0.358480        -9.7547
  79   2.0000      -0.355608        -9.6766
  80   2.0000      -0.350924        -9.5491
  81   2.0000      -0.347733        -9.4623
  82   2.0000      -0.344040        -9.3618
  83   2.0000      -0.337661        -9.1882
  84   2.0000      -0.336383        -9.1534
  85   2.0000      -0.315384        -8.5820
  86   2.0000      -0.311714        -8.4822
  87   2.0000      -0.304626        -8.2893
  88   2.0000      -0.302090        -8.2203
  89   2.0000      -0.294608        -8.0167
  90   2.0000      -0.275497        -7.4966
  91   2.0000      -0.274227        -7.4621
  92   2.0000      -0.270939        -7.3726
  93   2.0000      -0.265755        -7.2316
  94   2.0000      -0.262947        -7.1552
  95   2.0000      -0.233700        -6.3593
  96   2.0000      -0.221456        -6.0261
  97   2.0000      -0.211988        -5.7685
  98   2.0000      -0.202833        -5.5194
  99   2.0000      -0.194007        -5.2792
 100   2.0000      -0.186185        -5.0663
 101   0.0000      -0.039719        -1.0808
 102   0.0000      -0.028247        -0.7686
 103   0.0000      -0.024165        -0.6576
 104   0.0000       0.014611         0.3976
 105   0.0000       0.016244         0.4420

MULLIKEN ATOMIC CHARGES
-----------------------
   0 C :   -0.312163
   1 C :   -0.025357
   2 O :   -0.383396
   3 P :    0.609429
   4 S :   -0.293850
   5 O :   -0.367419
   6 C :   -0.037005
   7 C :   -0.289983
   8 S :   -0.108235
   9 C :   -0.336220
  10 S :   -0.113768
  11 P :    0.590274
  12 S :   -0.284373
  13 O :   -0.356711
  14 C :   -0.013259
  15 C :   -0.287216
  16 O :   -0.380565
  17 C :   -0.007441
  18 C :   -0.341529
  19 H :    0.113428
  20 H :    0.132932
  21 H :    0.107252
  22 H :    0.100815
  23 H :    0.132675
  24 H :    0.111528
  25 H :    0.112711
  26 H :    0.132727
  27 H :    0.111743
  28 H :    0.124684
  29 H :    0.205768
  30 H :    0.185314
  31 H :    0.113092
  32 H :    0.105576
  33 H :    0.121562
  34 H :    0.109012
  35 H :    0.116830
  36 H :    0.105118
  37 H :    0.110936
  38 H :    0.109375
  39 H :    0.161163
  40 H :    0.114545
Sum of atomic charges:    0.0000000

LOEWDIN ATOMIC CHARGES
----------------------
   0 C :   -0.367524
   1 C :   -0.127034
   2 O :   -0.254182
   3 P :    0.568495
   4 S :   -0.302184
   5 O :   -0.240347
   6 C :   -0.120173
   7 C :   -0.359373
   8 S :    0.081035
   9 C :   -0.474171
  10 S :    0.067568
  11 P :    0.561247
  12 S :   -0.274255
  13 O :   -0.241316
  14 C :   -0.112515
  15 C :   -0.360208
  16 O :   -0.247839
  17 C :   -0.115560
  18 C :   -0.376044
  19 H :    0.131811
  20 H :    0.126379
  21 H :    0.119579
  22 H :    0.111809
  23 H :    0.110773
  24 H :    0.109776
  25 H :    0.121021
  26 H :    0.120132
  27 H :    0.131297
  28 H :    0.131554
  29 H :    0.127769
  30 H :    0.136190
  31 H :    0.122901
  32 H :    0.108331
  33 H :    0.129850
  34 H :    0.129482
  35 H :    0.118908
  36 H :    0.118676
  37 H :    0.108976
  38 H :    0.128646
  39 H :    0.125877
  40 H :    0.124642

  Mayer bond orders larger than 0.100000
B(  0-C ,  1-C ) :   1.1581 B(  0-C , 19-H ) :   0.9394 B(  0-C , 20-H ) :   0.9335
B(  0-C , 21-H ) :   0.9436 B(  1-C ,  2-O ) :   0.9034 B(  1-C , 22-H ) :   0.9280
B(  1-C , 23-H ) :   0.9083 B(  2-O ,  3-P ) :   1.0638 B(  3-P ,  4-S ) :   1.6641
B(  3-P ,  5-O ) :   1.1128 B(  3-P ,  8-S ) :   0.9668 B(  4-S ,  8-S ) :   0.1063
B(  5-O ,  6-C ) :   0.8958 B(  6-C ,  7-C ) :   1.1679 B(  6-C , 24-H ) :   0.9141
B(  6-C , 25-H ) :   0.9320 B(  7-C , 26-H ) :   0.9357 B(  7-C , 27-H ) :   0.9386
B(  7-C , 28-H ) :   0.9454 B(  8-S ,  9-C ) :   1.0045 B(  9-C , 10-S ) :   0.9898
B(  9-C , 29-H ) :   0.8409 B(  9-C , 30-H ) :   0.9109 B( 10-S , 11-P ) :   0.9439
B( 10-S , 12-S ) :   0.1127 B( 11-P , 12-S ) :   1.6503 B( 11-P , 13-O ) :   1.1368
B( 11-P , 16-O ) :   1.0885 B( 13-O , 14-C ) :   0.8894 B( 14-C , 15-C ) :   1.1634
B( 14-C , 31-H ) :   0.9345 B( 14-C , 32-H ) :   0.9185 B( 15-C , 33-H ) :   0.9460
B( 15-C , 34-H ) :   0.9399 B( 15-C , 35-H ) :   0.9382 B( 16-O , 17-C ) :   0.9089
B( 17-C , 18-C ) :   1.1685 B( 17-C , 36-H ) :   0.9341 B( 17-C , 37-H ) :   0.9140
B( 18-C , 38-H ) :   0.9363 B( 18-C , 39-H ) :   0.9185 B( 18-C , 40-H ) :   0.9424

Dispersion correction           -0.065444288
FINAL SINGLE POINT ENERGY     -2929.514634064947

DIPOLE MOMENT
-------------

Method             : SCF
Type of density    : Electron Density
Multiplicity       :   1
Irrep              :   0
Energy             : -2929.6353225164034484 Eh
Relativity type    :
Basis              : AO
                                X                 Y                 Z
Electronic contribution:      1.430225349      15.757607567       0.081879866
Nuclear contribution   :     -2.326467851     -17.700949623       0.464177043
                        -----------------------------------------
Total Dipole Moment    :     -0.896242502      -1.943342056       0.546056908
                        -----------------------------------------
Magnitude (a.u.)       :      2.208621090
Magnitude (Debye)      :      5.613868668

Rotational constants in cm-1:             0.012364             0.005002             0.004639
Rotational constants in MHz :           370.663852           149.970758           139.078653

                             ****ORCA TERMINATED NORMALLY****
TOTAL RUN TIME: 0 days 0 hours 0 minutes 21 seconds 499 msec
