                         Program Version 6.0.0  -   RELEASE  -
|  1> ! pbe def2-sv(p) def2/J RI DEFGRID1 loosescf d4 GCP(DFT/SV(P)) printgap
|  2> %output
|  3>     printlevel normal
|  4> end
|  5> * xyz 0 1
|  6> C -0.3372886487 -1.2080883549 4.56051e-05
|  7> C 1.0409586624 -1.2067077315 -3.53749e-05
|  8> C 1.7425208907 -0.0008577238 -3.02025e-05
|  9> C 1.039508711 1.206913973 1.3852e-06
| 10> C -0.3360916275 1.210431578 5.75304e-05
| 11> C -1.0375910199 0.0003752975 7.35522e-05
| 12> C -2.4445237875 -0.0006157693 2.20323e-05
| 13> N -3.5944646148 -0.0035436443 -9.14665e-05
| 14> O 3.0880242966 0.0552452711 -1.69882e-05
| 15> H -0.8824256053 -2.1395420329 0.0001809658
| 16> H 1.5760561214 -2.1442527639 1.02733e-05
| 17> H 1.5991339103 2.12824982 -0.0001707836
| 18> H -0.8805046383 2.1420768988 3.999e-06
| 19> H 3.4825711107 -0.8315096613 -8.67926e-05
| 20> *
| 21>
| 22>                          ****END OF INPUT****

CARTESIAN COORDINATES (ANGSTROEM)
---------------------------------
  C     -0.337289   -1.208088    0.000046
  C      1.040959   -1.206708   -0.000035
  C      1.742521   -0.000858   -0.000030
  C      1.039509    1.206914    0.000001
  C     -0.336092    1.210432    0.000058
  C     -1.037591    0.000375    0.000074
  C     -2.444524   -0.000616    0.000022
  N     -3.594465   -0.003544   -0.000091
  O      3.088024    0.055245   -0.000017
  H     -0.882426   -2.139542    0.000181
  H      1.576056   -2.144253    0.000010
  H      1.599134    2.128250   -0.000171
  H     -0.880505    2.142077    0.000004
  H      3.482571   -0.831510   -0.000087

 Total Charge           Charge          ....    0
 Multiplicity           Mult            ....    1
 Number of Electrons    NEL             ....   62
 Basis Dimension        Dim             ....  136

ORBITAL ENERGIES
----------------

  NO   OCC          E(Eh)            E(eV)
   0   2.0000     -18.811225      -511.8794
   1   2.0000     -13.975295      -380.2871
   2   2.0000      -9.979728      -271.5622
   3   2.0000      -9.937933      -270.4249
   4   2.0000      -9.925880      -270.0969
   5   2.0000      -9.924741      -270.0659
   6   2.0000      -9.922141      -269.9952
   7   2.0000      -9.916358      -269.8378
   8   2.0000      -9.911782      -269.7133
   9   2.0000      -0.993823       -27.0433
  10   2.0000      -0.817306       -22.2400
  11   2.0000      -0.794581       -21.6216
  12   2.0000      -0.705919       -19.2090
  13   2.0000      -0.701515       -19.0892
  14   2.0000      -0.605499       -16.4765
  15   2.0000      -0.578988       -15.7551
  16   2.0000      -0.523218       -14.2375
  17   2.0000      -0.512306       -13.9405
  18   2.0000      -0.453694       -12.3456
  19   2.0000      -0.417762       -11.3679
  20   2.0000      -0.404353       -11.0030
  21   2.0000      -0.394102       -10.7241
  22   2.0000      -0.381656       -10.3854
  23   2.0000      -0.358237        -9.7481
  24   2.0000      -0.350233        -9.5303
  25   2.0000      -0.321887        -8.7590
  26   2.0000      -0.293035        -7.9739
  27   2.0000      -0.292635        -7.9630
  28   2.0000      -0.290898        -7.9157
  29   2.0000      -0.257531        -7.0078
  30   2.0000      -0.217590        -5.9209
  31   0.0000      -0.069490        -1.8909
  32   0.0000      -0.060063        -1.6344
  33   0.0000       0.001921         0.0523
  34   0.0000       0.010492         0.2855
  35   0.0000       0.032642         0.8882

MULLIKEN ATOMIC CHARGES
-----------------------
   0 C :   -0.059307
   1 C :   -0.155524
   2 C :    0.246924
   3 C :   -0.113580
   4 C :   -0.052334
   5 C :   -0.042839
   6 C :   -0.129594
   7 N :    0.057385
   8 O :   -0.313034
   9 H :    0.065060
  10 H :    0.043259
  11 H :    0.061160
  12 H :    0.066701
  13 H :    0.325722
Sum of atomic charges:   -0.0000000

LOEWDIN ATOMIC CHARGES
----------------------
   0 C :   -0.079767
   1 C :   -0.168151
   2 C :    0.032607
   3 C :   -0.138571
   4 C :   -0.078866
   5 C :   -0.098569
   6 C :   -0.042095
   7 N :   -0.064205
   8 O :   -0.212031
   9 H :    0.139026
  10 H :    0.127724
  11 H :    0.138421
  12 H :    0.139869
  13 H :    0.304609

  Mayer bond orders larger than 0.100000
B(  0-C ,  1-C ) :   1.3675 B(  0-C ,  5-C ) :   1.3525 B(  0-C ,  9-H ) :   0.9620
B(  1-C ,  2-C ) :   1.2876 B(  1-C , 10-H ) :   0.9575 B(  2-C ,  3-C ) :   1.3320
B(  2-C ,  8-O ) :   1.2195 B(  3-C ,  4-C ) :   1.3760 B(  3-C , 11-H ) :   0.9635
B(  4-C ,  5-C ) :   1.3295 B(  4-C , 12-H ) :   0.9666 B(  5-C ,  6-C ) :   1.1160
B(  6-C ,  7-N ) :   2.9870 B(  8-O , 13-H ) :   0.8362

Dispersion correction           -0.014799429
FINAL SINGLE POINT ENERGY      -398.884576729554

DIPOLE MOMENT
-------------

Method             : SCF
Type of density    : Electron Density
Multiplicity       :   1
Irrep              :   0
Energy             :  -398.9233652903723737 Eh
Relativity type    :
Basis              : AO
                                X                 Y                 Z
Electronic contribution:     -2.586925738       0.251544872       0.000066030
Nuclear contribution   :      4.618174797      -0.791937771      -0.000059239
                        -----------------------------------------
Total Dipole Moment    :      2.031249059      -0.540392899       0.000006791
                        -----------------------------------------
Magnitude (a.u.)       :      2.101903239
Magnitude (Debye)      :      5.342613448

Rotational constants in cm-1:             0.188778             0.033561             0.028495
Rotational constants in MHz :          5659.420504          1006.124818           854.256202

                             ****ORCA TERMINATED NORMALLY****
TOTAL RUN TIME: 0 days 0 hours 0 minutes 7 seconds 632 msec
