                         Program Version 6.0.0  -   RELEASE  -
|  1> ! pbe def2-sv(p) def2/J RI DEFGRID1 loosescf d4 GCP(DFT/SV(P)) printgap
|  2> %output
|  3>     printlevel normal
|  4> end
|  5> * xyz 0 1
|  6> C 0.8494977547 1.279436218 -0.9992939142
|  7> C 1.4404360011 0.2963342483 0.0098686914
|  8> H 2.4515668211 0.0412486304 -0.3271770863
|  9> C 0.6194956816 -1.0122403723 0.0252193011
| 10> H 0.5809009958 -1.3906674527 1.0590001892
| 11> C -0.8321573385 -0.7709397905 -0.4458567532
| 12> H -0.8795666646 -0.8973708749 -1.5328178492
| 13> C -1.2786539105 0.6600812941 -0.0895060911
| 14> H -2.3128591374 0.8148845255 -0.4255597221
| 15> O -0.5053854593 1.6326653961 -0.7284112727
| 16> O -1.306113741 0.825138619 1.3008509038
| 17> O -1.7156188557 -1.7119395584 0.1103483848
| 18> O 1.288726922 -1.9356557402 -0.7995934941
| 19> O 1.4696593167 0.9139524967 1.2794576984
| 20> H 0.9183873264 0.8361883523 -1.999381377
| 21> H 1.3999518428 2.2209206421 -0.9736860914
| 22> H -0.4022099297 1.0487298392 1.603422351
| 23> H -1.9678410282 -1.4087907709 0.9975721104
| 24> H 0.7795238117 -2.7582809649 -0.8367341641
| 25> H 2.1179727072 0.4773790976 1.8495718981
| 26> *
| 27>
| 28>                          ****END OF INPUT****

CARTESIAN COORDINATES (ANGSTROEM)
---------------------------------
  C      0.849498    1.279436   -0.999294
  C      1.440436    0.296334    0.009869
  H      2.451567    0.041249   -0.327177
  C      0.619496   -1.012240    0.025219
  H      0.580901   -1.390667    1.059000
  C     -0.832157   -0.770940   -0.445857
  H     -0.879567   -0.897371   -1.532818
  C     -1.278654    0.660081   -0.089506
  H     -2.312859    0.814885   -0.425560
  O     -0.505385    1.632665   -0.728411
  O     -1.306114    0.825139    1.300851
  O     -1.715619   -1.711940    0.110348
  O      1.288727   -1.935656   -0.799593
  O      1.469659    0.913952    1.279458
  H      0.918387    0.836188   -1.999381
  H      1.399952    2.220921   -0.973686
  H     -0.402210    1.048730    1.603422
  H     -1.967841   -1.408791    0.997572
  H      0.779524   -2.758281   -0.836734
  H      2.117973    0.477379    1.849572

 Total Charge           Charge          ....    0
 Multiplicity           Mult            ....    1
 Number of Electrons    NEL             ....   80
 Basis Dimension        Dim             ....  160

ORBITAL ENERGIES
----------------

  NO   OCC          E(Eh)            E(eV)
   0   2.0000     -18.786428      -511.2047
   1   2.0000     -18.763919      -510.5922
   2   2.0000     -18.759035      -510.4593
   3   2.0000     -18.748975      -510.1855
   4   2.0000     -18.743922      -510.0480
   5   2.0000      -9.977491      -271.5013
   6   2.0000      -9.959774      -271.0192
   7   2.0000      -9.946932      -270.6698
   8   2.0000      -9.942974      -270.5621
   9   2.0000      -9.937889      -270.4237
  10   2.0000      -0.979371       -26.6500
  11   2.0000      -0.953773       -25.9535
  12   2.0000      -0.939277       -25.5590
  13   2.0000      -0.922549       -25.1038
  14   2.0000      -0.897794       -24.4302
  15   2.0000      -0.709853       -19.3161
  16   2.0000      -0.673984       -18.3400
  17   2.0000      -0.593484       -16.1495
  18   2.0000      -0.587958       -15.9991
  19   2.0000      -0.537027       -14.6133
  20   2.0000      -0.506382       -13.7793
  21   2.0000      -0.487611       -13.2686
  22   2.0000      -0.460474       -12.5301
  23   2.0000      -0.454831       -12.3766
  24   2.0000      -0.436605       -11.8806
  25   2.0000      -0.413373       -11.2485
  26   2.0000      -0.411266       -11.1911
  27   2.0000      -0.380545       -10.3551
  28   2.0000      -0.368658       -10.0317
  29   2.0000      -0.364684        -9.9236
  30   2.0000      -0.331038        -9.0080
  31   2.0000      -0.315103        -8.5744
  32   2.0000      -0.305143        -8.3034
  33   2.0000      -0.291797        -7.9402
  34   2.0000      -0.273340        -7.4380
  35   2.0000      -0.263440        -7.1686
  36   2.0000      -0.244470        -6.6524
  37   2.0000      -0.231268        -6.2931
  38   2.0000      -0.217276        -5.9124
  39   2.0000      -0.200643        -5.4598
  40   0.0000       0.002887         0.0785
  41   0.0000       0.030220         0.8223
  42   0.0000       0.049639         1.3507
  43   0.0000       0.055061         1.4983
  44   0.0000       0.068146         1.8543

MULLIKEN ATOMIC CHARGES
-----------------------
   0 C :    0.077578
   1 C :   -0.031173
   2 H :    0.088305
   3 C :    0.092359
   4 H :    0.037923
   5 C :    0.027241
   6 H :    0.069872
   7 C :    0.152824
   8 H :    0.074124
   9 O :   -0.306521
  10 O :   -0.430464
  11 O :   -0.426146
  12 O :   -0.422332
  13 O :   -0.423371
  14 H :    0.093090
  15 H :    0.098521
  16 H :    0.299138
  17 H :    0.301702
  18 H :    0.308523
  19 H :    0.318807
Sum of atomic charges:    0.0000000

LOEWDIN ATOMIC CHARGES
----------------------
   0 C :   -0.107441
   1 C :   -0.084102
   2 H :    0.121505
   3 C :   -0.076287
   4 H :    0.096263
   5 C :   -0.100921
   6 H :    0.118399
   7 C :   -0.010982
   8 H :    0.108146
   9 O :   -0.150906
  10 O :   -0.333977
  11 O :   -0.321460
  12 O :   -0.324138
  13 O :   -0.306594
  14 H :    0.112871
  15 H :    0.122497
  16 H :    0.267409
  17 H :    0.280699
  18 H :    0.291093
  19 H :    0.297926

  Mayer bond orders larger than 0.100000
B(  0-C ,  1-C ) :   1.1150 B(  0-C ,  9-O ) :   1.0134 B(  0-C , 14-H ) :   0.9133
B(  0-C , 15-H ) :   0.9087 B(  1-C ,  2-H ) :   0.8836 B(  1-C ,  3-C ) :   0.9781
B(  1-C , 13-O ) :   1.0090 B(  3-C ,  4-H ) :   0.8766 B(  3-C ,  5-C ) :   0.9992
B(  3-C , 12-O ) :   1.0779 B(  5-C ,  6-H ) :   0.8553 B(  5-C ,  7-C ) :   1.0242
B(  5-C , 11-O ) :   1.0654 B(  7-C ,  8-H ) :   0.9023 B(  7-C ,  9-O ) :   1.0761
B(  7-C , 10-O ) :   1.0999 B( 10-O , 16-H ) :   0.7911 B( 11-O , 17-H ) :   0.8306
B( 12-O , 18-H ) :   0.8416 B( 13-O , 16-H ) :   0.1190 B( 13-O , 19-H ) :   0.8403

Dispersion correction           -0.019862806
FINAL SINGLE POINT ENERGY      -571.413257598476

DIPOLE MOMENT
-------------

Method             : SCF
Type of density    : Electron Density
Multiplicity       :   1
Irrep              :   0
Energy             :  -571.5234050860597108 Eh
Relativity type    :
Basis              : AO
                                X                 Y                 Z
Electronic contribution:     -1.444243669       0.448452055       0.885403416
Nuclear contribution   :      2.508374024      -0.957041130      -0.532346330
                        -----------------------------------------
Total Dipole Moment    :      1.064130354      -0.508589075       0.353057086
                        -----------------------------------------
Magnitude (a.u.)       :      1.231131823
Magnitude (Debye)      :      3.129288405

Rotational constants in cm-1:             0.051747             0.049078             0.035393
Rotational constants in MHz :          1551.325272          1471.308629          1061.042419

                             ****ORCA TERMINATED NORMALLY****
TOTAL RUN TIME: 0 days 0 hours 0 minutes 11 seconds 516 msec
