                         Program Version 6.0.0  -   RELEASE  -
|  1> ! pbe def2-sv(p) def2/J RI DEFGRID1 loosescf d4 GCP(DFT/SV(P)) printgap
|  2> %output
|  3>     printlevel normal
|  4> end
|  5> * xyz 0 1
|  6> C 5.7497413737 -1.3976494407 -0.6435645859
|  7> C 4.8189729478 -0.901957149 -1.7307242212
|  8> O 3.4304083835 -1.1153459192 -1.4029321474
|  9> P 2.7120052289 -0.3590913813 -0.2127314384
| 10> S 3.2269210647 1.5188709003 0.0617425405
| 11> O 3.0254570136 -1.3155503133 1.019227207
| 12> C 2.8582877241 -0.894613344 2.3836994388
| 13> C 1.3975201718 -0.8124337603 2.7766658572
| 14> S 0.7199188918 -0.7571517263 -0.8066647581
| 15> C 0.0348697992 0.9294830954 -0.7221147196
| 16> S -1.1588535072 1.1476058877 0.6114611063
| 17> P -2.9503945141 0.6121387261 -0.431952226
| 18> S -2.7755374658 0.6479047635 -2.3843038623
| 19> O -4.0535126087 1.6096735609 0.0758271686
| 20> C -4.7304018015 1.5353544142 1.3573777667
| 21> C -3.7752266677 1.6510019299 2.5252059354
| 22> O -3.4644770051 -0.7688214128 0.1713361312
| 23> C -2.8372170107 -2.0321294684 -0.1160881241
| 24> C -1.9842209282 -2.4773342638 1.0553203555
| 25> H 5.5192067666 -2.4302187788 -0.395045006
| 26> H 6.7756187776 -1.3289658299 -0.9920685317
| 27> H 5.6387942825 -0.7858246206 0.2504558958
| 28> H 4.9521597367 -1.4562842349 -2.6608256931
| 29> H 4.9702051486 0.1672008037 -1.9116989106
| 30> H 3.3868617166 -1.6546243084 2.9607080552
| 31> H 3.3475922089 0.0768774745 2.5101510259
| 32> H 1.3225389314 -0.5918245675 3.836516399
| 33> H 0.9001477475 -0.0175665214 2.2201624899
| 34> H 0.9018262355 -1.7573471067 2.5699099692
| 35> H -0.4669970886 1.1311326799 -1.6702195894
| 36> H 0.8517743312 1.6329298957 -0.5471813396
| 37> H -5.4241308141 2.3764115477 1.3175819119
| 38> H -5.2843007942 0.5957546355 1.3937436341
| 39> H -4.3457955427 1.6741820649 3.4484801869
| 40> H -3.0996948678 0.7980320431 2.5468313953
| 41> H -3.1845686987 2.5600148667 2.4457996051
| 42> H -3.6637140613 -2.7236814119 -0.2912930217
| 43> H -2.2423012871 -1.942559631 -1.0311384475
| 44> H -2.5881498788 -2.5347367253 1.9562842664
| 45> H -1.5667453884 -3.4546712138 0.83660449
| 46> H -1.1707259082 -1.7749748861 1.2154985702
| 47> *
| 48>
| 49>                          ****END OF INPUT****

CARTESIAN COORDINATES (ANGSTROEM)
---------------------------------
  C      5.749741   -1.397649   -0.643565
  C      4.818973   -0.901957   -1.730724
  O      3.430408   -1.115346   -1.402932
  P      2.712005   -0.359091   -0.212731
  S      3.226921    1.518871    0.061743
  O      3.025457   -1.315550    1.019227
  C      2.858288   -0.894613    2.383699
  C      1.397520   -0.812434    2.776666
  S      0.719919   -0.757152   -0.806665
  C      0.034870    0.929483   -0.722115
  S     -1.158854    1.147606    0.611461
  P     -2.950395    0.612139   -0.431952
  S     -2.775537    0.647905   -2.384304
  O     -4.053513    1.609674    0.075827
  C     -4.730402    1.535354    1.357378
  C     -3.775227    1.651002    2.525206
  O     -3.464477   -0.768821    0.171336
  C     -2.837217   -2.032129   -0.116088
  C     -1.984221   -2.477334    1.055320
  H      5.519207   -2.430219   -0.395045
  H      6.775619   -1.328966   -0.992069
  H      5.638794   -0.785825    0.250456
  H      4.952160   -1.456284   -2.660826
  H      4.970205    0.167201   -1.911699
  H      3.386862   -1.654624    2.960708
  H      3.347592    0.076877    2.510151
  H      1.322539   -0.591825    3.836516
  H      0.900148   -0.017567    2.220162
  H      0.901826   -1.757347    2.569910
  H     -0.466997    1.131133   -1.670220
  H      0.851774    1.632930   -0.547181
  H     -5.424131    2.376412    1.317582
  H     -5.284301    0.595755    1.393744
  H     -4.345796    1.674182    3.448480
  H     -3.099695    0.798032    2.546831
  H     -3.184569    2.560015    2.445800
  H     -3.663714   -2.723681   -0.291293
  H     -2.242301   -1.942560   -1.031138
  H     -2.588150   -2.534737    1.956284
  H     -1.566745   -3.454671    0.836604
  H     -1.170726   -1.774975    1.215499

 Total Charge           Charge          ....    0
 Multiplicity           Mult            ....    1
 Number of Electrons    NEL             ....  202
 Basis Dimension        Dim             ....  334

ORBITAL ENERGIES
----------------

  NO   OCC          E(Eh)            E(eV)
   0   2.0000     -88.044373     -2395.8092
   1   2.0000     -88.042627     -2395.7617
   2   2.0000     -87.996406     -2394.5039
   3   2.0000     -87.985687     -2394.2123
   4   2.0000     -76.429783     -2079.7601
   5   2.0000     -76.427843     -2079.7073
   6   2.0000     -18.795208      -511.4436
   7   2.0000     -18.794712      -511.4301
   8   2.0000     -18.794215      -511.4166
   9   2.0000     -18.791941      -511.3547
  10   2.0000      -9.961378      -271.0629
  11   2.0000      -9.955409      -270.9004
  12   2.0000      -9.954638      -270.8795
  13   2.0000      -9.954601      -270.8785
  14   2.0000      -9.946564      -270.6598
  15   2.0000      -9.894709      -269.2487
  16   2.0000      -9.887386      -269.0495
  17   2.0000      -9.886626      -269.0288
  18   2.0000      -9.884580      -268.9731
  19   2.0000      -7.688470      -209.2139
  20   2.0000      -7.687672      -209.1922
  21   2.0000      -7.641137      -207.9259
  22   2.0000      -7.630866      -207.6464
  23   2.0000      -6.427664      -174.9056
  24   2.0000      -6.425381      -174.8435
  25   2.0000      -5.716280      -155.5479
  26   2.0000      -5.715492      -155.5264
  27   2.0000      -5.712947      -155.4572
  28   2.0000      -5.712322      -155.4402
  29   2.0000      -5.705738      -155.2610
  30   2.0000      -5.704536      -155.2283
  31   2.0000      -5.669843      -154.2843
  32   2.0000      -5.662073      -154.0728
  33   2.0000      -5.661229      -154.0499
  34   2.0000      -5.659872      -154.0129
  35   2.0000      -5.651307      -153.7799
  36   2.0000      -5.651079      -153.7737
  37   2.0000      -4.649927      -126.5310
  38   2.0000      -4.649287      -126.5135
  39   2.0000      -4.648482      -126.4916
  40   2.0000      -4.648319      -126.4872
  41   2.0000      -4.646926      -126.4493
  42   2.0000      -4.645692      -126.4157
  43   2.0000      -0.991285       -26.9742
  44   2.0000      -0.989459       -26.9245
  45   2.0000      -0.948249       -25.8032
  46   2.0000      -0.946615       -25.7587
  47   2.0000      -0.760712       -20.7000
  48   2.0000      -0.725066       -19.7301
  49   2.0000      -0.713570       -19.4172
  50   2.0000      -0.694559       -18.8999
  51   2.0000      -0.690493       -18.7893
  52   2.0000      -0.678212       -18.4551
  53   2.0000      -0.653551       -17.7840
  54   2.0000      -0.638309       -17.3693
  55   2.0000      -0.606873       -16.5139
  56   2.0000      -0.596832       -16.2406
  57   2.0000      -0.579918       -15.7804
  58   2.0000      -0.575394       -15.6573
  59   2.0000      -0.556140       -15.1334
  60   2.0000      -0.502669       -13.6783
  61   2.0000      -0.495736       -13.4897
  62   2.0000      -0.478620       -13.0239
  63   2.0000      -0.475967       -12.9517
  64   2.0000      -0.459054       -12.4915
  65   2.0000      -0.450330       -12.2541
  66   2.0000      -0.444638       -12.0992
  67   2.0000      -0.441576       -12.0159
  68   2.0000      -0.430627       -11.7180
  69   2.0000      -0.425218       -11.5708
  70   2.0000      -0.408810       -11.1243
  71   2.0000      -0.397187       -10.8080
  72   2.0000      -0.395805       -10.7704
  73   2.0000      -0.392198       -10.6722
  74   2.0000      -0.386710       -10.5229
  75   2.0000      -0.379346       -10.3225
  76   2.0000      -0.367992       -10.0136
  77   2.0000      -0.362268        -9.8578
  78   2.0000      -0.358030        -9.7425
  79   2.0000      -0.352606        -9.5949
  80   2.0000      -0.351235        -9.5576
  81   2.0000      -0.346851        -9.4383
  82   2.0000      -0.343651        -9.3512
  83   2.0000      -0.339973        -9.2511
  84   2.0000      -0.337655        -9.1881
  85   2.0000      -0.321423        -8.7464
  86   2.0000      -0.313697        -8.5361
  87   2.0000      -0.301744        -8.2109
  88   2.0000      -0.298369        -8.1190
  89   2.0000      -0.295674        -8.0457
  90   2.0000      -0.288203        -7.8424
  91   2.0000      -0.278882        -7.5888
  92   2.0000      -0.276425        -7.5219
  93   2.0000      -0.268712        -7.3120
  94   2.0000      -0.259122        -7.0511
  95   2.0000      -0.230704        -6.2778
  96   2.0000      -0.221142        -6.0176
  97   2.0000      -0.218196        -5.9374
  98   2.0000      -0.209844        -5.7101
  99   2.0000      -0.203530        -5.5383
 100   2.0000      -0.199100        -5.4178
 101   0.0000      -0.045809        -1.2465
 102   0.0000      -0.036450        -0.9918
 103   0.0000      -0.014814        -0.4031
 104   0.0000       0.003501         0.0953
 105   0.0000       0.011625         0.3163

MULLIKEN ATOMIC CHARGES
-----------------------
   0 C :   -0.310308
   1 C :   -0.000838
   2 O :   -0.367565
   3 P :    0.615626
   4 S :   -0.330159
   5 O :   -0.370627
   6 C :   -0.004448
   7 C :   -0.328932
   8 S :   -0.087317
   9 C :   -0.352028
  10 S :   -0.127051
  11 P :    0.608455
  12 S :   -0.299863
  13 O :   -0.361183
  14 C :    0.007185
  15 C :   -0.339578
  16 O :   -0.383723
  17 C :   -0.007124
  18 C :   -0.323326
  19 H :    0.119112
  20 H :    0.113318
  21 H :    0.123050
  22 H :    0.108986
  23 H :    0.113542
  24 H :    0.105019
  25 H :    0.111167
  26 H :    0.111784
  27 H :    0.130967
  28 H :    0.129267
  29 H :    0.200888
  30 H :    0.195425
  31 H :    0.114057
  32 H :    0.113328
  33 H :    0.119735
  34 H :    0.132463
  35 H :    0.133122
  36 H :    0.108618
  37 H :    0.106148
  38 H :    0.109208
  39 H :    0.110778
  40 H :    0.152820
Sum of atomic charges:    0.0000000

LOEWDIN ATOMIC CHARGES
----------------------
   0 C :   -0.365191
   1 C :   -0.113347
   2 O :   -0.242725
   3 P :    0.572236
   4 S :   -0.309040
   5 O :   -0.243972
   6 C :   -0.120202
   7 C :   -0.367988
   8 S :    0.091985
   9 C :   -0.492839
  10 S :    0.080939
  11 P :    0.568940
  12 S :   -0.296101
  13 O :   -0.235050
  14 C :   -0.106689
  15 C :   -0.373444
  16 O :   -0.250299
  17 C :   -0.116084
  18 C :   -0.368327
  19 H :    0.127486
  20 H :    0.131004
  21 H :    0.122799
  22 H :    0.121092
  23 H :    0.112785
  24 H :    0.118672
  25 H :    0.108879
  26 H :    0.131287
  27 H :    0.113768
  28 H :    0.126740
  29 H :    0.126531
  30 H :    0.124805
  31 H :    0.124504
  32 H :    0.116410
  33 H :    0.134914
  34 H :    0.118668
  35 H :    0.129931
  36 H :    0.120028
  37 H :    0.105443
  38 H :    0.122492
  39 H :    0.130639
  40 H :    0.118325

  Mayer bond orders larger than 0.100000
B(  0-C ,  1-C ) :   1.1629 B(  0-C , 19-H ) :   0.9456 B(  0-C , 20-H ) :   0.9379
B(  0-C , 21-H ) :   0.9387 B(  1-C ,  2-O ) :   0.9090 B(  1-C , 22-H ) :   0.9354
B(  1-C , 23-H ) :   0.9205 B(  2-O ,  3-P ) :   1.1400 B(  3-P ,  4-S ) :   1.5858
B(  3-P ,  5-O ) :   1.0988 B(  3-P ,  8-S ) :   0.9665 B(  4-S ,  8-S ) :   0.1165
B(  4-S , 30-H ) :   0.1100 B(  5-O ,  6-C ) :   0.9132 B(  6-C ,  7-C ) :   1.1626
B(  6-C , 24-H ) :   0.9328 B(  6-C , 25-H ) :   0.9130 B(  7-C , 26-H ) :   0.9366
B(  7-C , 27-H ) :   0.9311 B(  7-C , 28-H ) :   0.9366 B(  8-S ,  9-C ) :   1.0057
B(  9-C , 10-S ) :   1.0161 B(  9-C , 29-H ) :   0.8517 B(  9-C , 30-H ) :   0.8501
B( 10-S , 11-P ) :   0.9335 B( 10-S , 12-S ) :   0.1169 B( 11-P , 12-S ) :   1.6530
B( 11-P , 13-O ) :   1.1502 B( 11-P , 16-O ) :   1.0690 B( 12-S , 29-H ) :   0.1122
B( 13-O , 14-C ) :   0.8961 B( 14-C , 15-C ) :   1.1700 B( 14-C , 31-H ) :   0.9336
B( 14-C , 32-H ) :   0.9274 B( 15-C , 33-H ) :   0.9347 B( 15-C , 34-H ) :   0.9312
B( 15-C , 35-H ) :   0.9406 B( 16-O , 17-C ) :   0.9040 B( 17-C , 18-C ) :   1.1662
B( 17-C , 36-H ) :   0.9352 B( 17-C , 37-H ) :   0.9040 B( 18-C , 38-H ) :   0.9448
B( 18-C , 39-H ) :   0.9404 B( 18-C , 40-H ) :   0.9197

Dispersion correction           -0.063618762
FINAL SINGLE POINT ENERGY     -2929.518308831806

DIPOLE MOMENT
-------------

Method             : SCF
Type of density    : Electron Density
Multiplicity       :   1
Irrep              :   0
Energy             : -2929.6402846331734509 Eh
Relativity type    :
Basis              : AO
                                X                 Y                 Z
Electronic contribution:     -5.176387456      10.022696210     -17.733272778
Nuclear contribution   :      5.384627662     -11.057055976      19.419009409
                        -----------------------------------------
Total Dipole Moment    :      0.208240206      -1.034359766       1.685736632
                        -----------------------------------------
Magnitude (a.u.)       :      1.988711166
Magnitude (Debye)      :      5.054902064

Rotational constants in cm-1:             0.014358             0.004011             0.003843
Rotational constants in MHz :           430.440046           120.241956           115.200661

                             ****ORCA TERMINATED NORMALLY****
TOTAL RUN TIME: 0 days 0 hours 0 minutes 20 seconds 991 msec
