                         Program Version 6.0.0  -   RELEASE  -
|  1> ! pbe def2-sv(p) def2/J RI DEFGRID1 loosescf d4 GCP(DFT/SV(P)) printgap
|  2> %output
|  3>     printlevel normal
|  4> end
|  5> * xyz 0 1
|  6> C 4.0735703236 -0.5791114389 -2.2156724393
|  7> C 2.6592411442 -0.0718751978 -2.3972962052
|  8> O 2.1469452041 0.6467582551 -1.2482101079
|  9> P 2.088527745 0.1698453573 0.2502793928
| 10> S 0.9536439678 1.4145049343 1.2467372951
| 11> O 3.6123218188 0.1354697751 0.6896576075
| 12> C 4.1387770196 -0.6029763899 1.8075658231
| 13> C 3.4015856628 -0.3235095132 3.1003299645
| 14> S 1.5472897907 -1.8912133595 0.2314464389
| 15> C -0.1303589561 -1.7380099241 -0.4187675274
| 16> S -1.3757363655 -1.2852440521 0.8421384706
| 17> P -2.3896935173 0.25679412 -0.2120378466
| 18> S -1.3799902123 1.0969335379 -1.6784408363
| 19> O -3.0454443923 1.1319924793 0.9236689192
| 20> C -2.4008520183 1.95297336 1.9103942494
| 21> C -2.0877871464 3.3286588628 1.3565368693
| 22> O -3.768066987 -0.3710106726 -0.6801910061
| 23> C -4.0105124789 -0.8653418176 -2.0056391504
| 24> C -3.3841729132 -2.2290695732 -2.2230013731
| 25> H 4.4287131663 -0.9655459256 -3.1662288589
| 26> H 4.7242370405 0.2289098663 -1.8917782128
| 27> H 4.1025900095 -1.3770845684 -1.4772681035
| 28> H 1.976093507 -0.8967876583 -2.615821585
| 29> H 2.5956202523 0.6712845258 -3.1940920491
| 30> H 4.0944804038 -1.6676819313 1.5618005756
| 31> H 5.1787596143 -0.2766967649 1.8633526577
| 32> H 2.3700161758 -0.6665626977 3.0277295978
| 33> H 3.8910787679 -0.8467379309 3.9153934797
| 34> H 3.3926879571 0.7437934504 3.309712819
| 35> H -0.3786364055 -2.722487666 -0.8070063309
| 36> H -0.1560513191 -0.9697721514 -1.1980162696
| 37> H -3.1305624858 2.0077068832 2.7205924751
| 38> H -1.4899789388 1.4653196431 2.2668922354
| 39> H -2.9856193643 3.7830460439 0.9461709235
| 40> H -1.6921390111 3.9515008502 2.1519008188
| 41> H -1.3370690252 3.2537081406 0.5718135103
| 42> H -5.0984706525 -0.9089335869 -2.072578687
| 43> H -3.6231280177 -0.1405257949 -2.7294934357
| 44> H -2.30030315 -2.1371973673 -2.2580604497
| 45> H -3.6602941546 -2.9004878774 -1.4140541909
| 46> H -3.7332286062 -2.6379971502 -3.1657463852
| 47> *
| 48>
| 49>                          ****END OF INPUT****

CARTESIAN COORDINATES (ANGSTROEM)
---------------------------------
  C      4.073570   -0.579111   -2.215672
  C      2.659241   -0.071875   -2.397296
  O      2.146945    0.646758   -1.248210
  P      2.088528    0.169845    0.250279
  S      0.953644    1.414505    1.246737
  O      3.612322    0.135470    0.689658
  C      4.138777   -0.602976    1.807566
  C      3.401586   -0.323510    3.100330
  S      1.547290   -1.891213    0.231446
  C     -0.130359   -1.738010   -0.418768
  S     -1.375736   -1.285244    0.842138
  P     -2.389694    0.256794   -0.212038
  S     -1.379990    1.096934   -1.678441
  O     -3.045444    1.131992    0.923669
  C     -2.400852    1.952973    1.910394
  C     -2.087787    3.328659    1.356537
  O     -3.768067   -0.371011   -0.680191
  C     -4.010512   -0.865342   -2.005639
  C     -3.384173   -2.229070   -2.223001
  H      4.428713   -0.965546   -3.166229
  H      4.724237    0.228910   -1.891778
  H      4.102590   -1.377085   -1.477268
  H      1.976094   -0.896788   -2.615822
  H      2.595620    0.671285   -3.194092
  H      4.094480   -1.667682    1.561801
  H      5.178760   -0.276697    1.863353
  H      2.370016   -0.666563    3.027730
  H      3.891079   -0.846738    3.915393
  H      3.392688    0.743793    3.309713
  H     -0.378636   -2.722488   -0.807006
  H     -0.156051   -0.969772   -1.198016
  H     -3.130562    2.007707    2.720592
  H     -1.489979    1.465320    2.266892
  H     -2.985619    3.783046    0.946171
  H     -1.692139    3.951501    2.151901
  H     -1.337069    3.253708    0.571814
  H     -5.098471   -0.908934   -2.072579
  H     -3.623128   -0.140526   -2.729493
  H     -2.300303   -2.137197   -2.258060
  H     -3.660294   -2.900488   -1.414054
  H     -3.733229   -2.637997   -3.165746

 Total Charge           Charge          ....    0
 Multiplicity           Mult            ....    1
 Number of Electrons    NEL             ....  202
 Basis Dimension        Dim             ....  334

ORBITAL ENERGIES
----------------

  NO   OCC          E(Eh)            E(eV)
   0   2.0000     -88.049493     -2395.9485
   1   2.0000     -88.037356     -2395.6183
   2   2.0000     -87.983610     -2394.1557
   3   2.0000     -87.975041     -2393.9226
   4   2.0000     -76.425853     -2079.6532
   5   2.0000     -76.421808     -2079.5431
   6   2.0000     -18.793358      -511.3933
   7   2.0000     -18.790040      -511.3030
   8   2.0000     -18.784737      -511.1587
   9   2.0000     -18.777548      -510.9631
  10   2.0000      -9.961129      -271.0561
  11   2.0000      -9.959038      -270.9992
  12   2.0000      -9.957703      -270.9629
  13   2.0000      -9.946805      -270.6663
  14   2.0000      -9.943104      -270.5656
  15   2.0000      -9.889255      -269.1003
  16   2.0000      -9.885442      -268.9965
  17   2.0000      -9.883510      -268.9440
  18   2.0000      -9.869258      -268.5562
  19   2.0000      -7.694286      -209.3722
  20   2.0000      -7.682480      -209.0509
  21   2.0000      -7.628329      -207.5774
  22   2.0000      -7.620202      -207.3563
  23   2.0000      -6.422780      -174.7727
  24   2.0000      -6.418877      -174.6665
  25   2.0000      -5.721867      -155.6999
  26   2.0000      -5.718708      -155.6140
  27   2.0000      -5.711692      -155.4230
  28   2.0000      -5.710363      -155.3869
  29   2.0000      -5.707087      -155.2977
  30   2.0000      -5.699367      -155.0877
  31   2.0000      -5.657134      -153.9384
  32   2.0000      -5.649262      -153.7242
  33   2.0000      -5.649243      -153.7237
  34   2.0000      -5.648336      -153.6990
  35   2.0000      -5.640667      -153.4903
  36   2.0000      -5.640306      -153.4805
  37   2.0000      -4.645665      -126.4150
  38   2.0000      -4.645090      -126.3993
  39   2.0000      -4.642533      -126.3297
  40   2.0000      -4.641120      -126.2913
  41   2.0000      -4.640862      -126.2843
  42   2.0000      -4.639462      -126.2462
  43   2.0000      -0.987037       -26.8586
  44   2.0000      -0.981514       -26.7083
  45   2.0000      -0.945931       -25.7401
  46   2.0000      -0.935621       -25.4595
  47   2.0000      -0.762075       -20.7371
  48   2.0000      -0.720258       -19.5992
  49   2.0000      -0.711410       -19.3585
  50   2.0000      -0.692892       -18.8546
  51   2.0000      -0.679950       -18.5024
  52   2.0000      -0.674659       -18.3584
  53   2.0000      -0.650314       -17.6959
  54   2.0000      -0.633619       -17.2417
  55   2.0000      -0.594947       -16.1893
  56   2.0000      -0.588781       -16.0216
  57   2.0000      -0.580710       -15.8019
  58   2.0000      -0.567999       -15.4560
  59   2.0000      -0.561706       -15.2848
  60   2.0000      -0.499271       -13.5858
  61   2.0000      -0.490622       -13.3505
  62   2.0000      -0.474372       -12.9083
  63   2.0000      -0.464162       -12.6305
  64   2.0000      -0.457339       -12.4448
  65   2.0000      -0.444304       -12.0901
  66   2.0000      -0.439233       -11.9521
  67   2.0000      -0.435696       -11.8559
  68   2.0000      -0.424392       -11.5483
  69   2.0000      -0.415739       -11.3128
  70   2.0000      -0.412698       -11.2301
  71   2.0000      -0.402690       -10.9578
  72   2.0000      -0.396840       -10.7986
  73   2.0000      -0.393764       -10.7149
  74   2.0000      -0.386096       -10.5062
  75   2.0000      -0.365900        -9.9567
  76   2.0000      -0.361158        -9.8276
  77   2.0000      -0.353785        -9.6270
  78   2.0000      -0.351723        -9.5709
  79   2.0000      -0.348656        -9.4874
  80   2.0000      -0.345223        -9.3940
  81   2.0000      -0.342789        -9.3278
  82   2.0000      -0.338905        -9.2221
  83   2.0000      -0.334392        -9.0993
  84   2.0000      -0.324187        -8.8216
  85   2.0000      -0.321739        -8.7550
  86   2.0000      -0.310056        -8.4370
  87   2.0000      -0.296395        -8.0653
  88   2.0000      -0.289306        -7.8724
  89   2.0000      -0.286366        -7.7924
  90   2.0000      -0.281489        -7.6597
  91   2.0000      -0.277232        -7.5439
  92   2.0000      -0.265206        -7.2166
  93   2.0000      -0.261611        -7.1188
  94   2.0000      -0.255277        -6.9464
  95   2.0000      -0.243015        -6.6128
  96   2.0000      -0.220289        -5.9944
  97   2.0000      -0.203475        -5.5368
  98   2.0000      -0.202003        -5.4968
  99   2.0000      -0.186754        -5.0818
 100   2.0000      -0.181716        -4.9447
 101   0.0000      -0.041489        -1.1290
 102   0.0000      -0.030740        -0.8365
 103   0.0000      -0.018829        -0.5124
 104   0.0000       0.001809         0.0492
 105   0.0000       0.019199         0.5224

MULLIKEN ATOMIC CHARGES
-----------------------
   0 C :   -0.307725
   1 C :    0.001351
   2 O :   -0.350919
   3 P :    0.603458
   4 S :   -0.311056
   5 O :   -0.372883
   6 C :   -0.016291
   7 C :   -0.309403
   8 S :   -0.119997
   9 C :   -0.383985
  10 S :   -0.083825
  11 P :    0.613971
  12 S :   -0.320988
  13 O :   -0.357257
  14 C :   -0.015382
  15 C :   -0.307571
  16 O :   -0.360246
  17 C :    0.001704
  18 C :   -0.319988
  19 H :    0.112838
  20 H :    0.125500
  21 H :    0.114006
  22 H :    0.105010
  23 H :    0.115034
  24 H :    0.112761
  25 H :    0.111472
  26 H :    0.129105
  27 H :    0.110647
  28 H :    0.129354
  29 H :    0.190265
  30 H :    0.207790
  31 H :    0.101143
  32 H :    0.129031
  33 H :    0.111222
  34 H :    0.106463
  35 H :    0.144316
  36 H :    0.104400
  37 H :    0.109848
  38 H :    0.116103
  39 H :    0.120156
  40 H :    0.110571
Sum of atomic charges:   -0.0000000

LOEWDIN ATOMIC CHARGES
----------------------
   0 C :   -0.366981
   1 C :   -0.108401
   2 O :   -0.228269
   3 P :    0.568464
   4 S :   -0.299646
   5 O :   -0.241429
   6 C :   -0.114336
   7 C :   -0.370722
   8 S :    0.063012
   9 C :   -0.487124
  10 S :    0.069144
  11 P :    0.569368
  12 S :   -0.302619
  13 O :   -0.225429
  14 C :   -0.116349
  15 C :   -0.364689
  16 O :   -0.240467
  17 C :   -0.119648
  18 C :   -0.365906
  19 H :    0.130966
  20 H :    0.130052
  21 H :    0.117313
  22 H :    0.108708
  23 H :    0.125389
  24 H :    0.107058
  25 H :    0.122532
  26 H :    0.122471
  27 H :    0.129787
  28 H :    0.131335
  29 H :    0.134190
  30 H :    0.118313
  31 H :    0.116843
  32 H :    0.105833
  33 H :    0.124382
  34 H :    0.128984
  35 H :    0.127304
  36 H :    0.118797
  37 H :    0.107163
  38 H :    0.117934
  39 H :    0.126851
  40 H :    0.129825

  Mayer bond orders larger than 0.100000
B(  0-C ,  1-C ) :   1.1676 B(  0-C , 19-H ) :   0.9357 B(  0-C , 20-H ) :   0.9426
B(  0-C , 21-H ) :   0.9404 B(  1-C ,  2-O ) :   0.9018 B(  1-C , 22-H ) :   0.9217
B(  1-C , 23-H ) :   0.9353 B(  2-O ,  3-P ) :   1.1391 B(  3-P ,  4-S ) :   1.6627
B(  3-P ,  5-O ) :   1.0926 B(  3-P ,  8-S ) :   0.9313 B(  4-S ,  8-S ) :   0.1132
B(  5-O ,  6-C ) :   0.9129 B(  6-C ,  7-C ) :   1.1677 B(  6-C , 24-H ) :   0.9259
B(  6-C , 25-H ) :   0.9335 B(  7-C , 26-H ) :   0.9318 B(  7-C , 27-H ) :   0.9338
B(  7-C , 28-H ) :   0.9411 B(  8-S ,  9-C ) :   0.9950 B(  9-C , 10-S ) :   1.0042
B(  9-C , 29-H ) :   0.9005 B(  9-C , 30-H ) :   0.8316 B( 10-S , 11-P ) :   0.9515
B( 10-S , 12-S ) :   0.1230 B( 11-P , 12-S ) :   1.5883 B( 11-P , 13-O ) :   1.1553
B( 11-P , 16-O ) :   1.1035 B( 12-S , 30-H ) :   0.1260 B( 13-O , 14-C ) :   0.9026
B( 14-C , 15-C ) :   1.1708 B( 14-C , 31-H ) :   0.9340 B( 14-C , 32-H ) :   0.9084
B( 15-C , 33-H ) :   0.9464 B( 15-C , 34-H ) :   0.9396 B( 15-C , 35-H ) :   0.9322
B( 16-O , 17-C ) :   0.9289 B( 17-C , 18-C ) :   1.1599 B( 17-C , 36-H ) :   0.9338
B( 17-C , 37-H ) :   0.9093 B( 18-C , 38-H ) :   0.9349 B( 18-C , 39-H ) :   0.9460
B( 18-C , 40-H ) :   0.9391

Dispersion correction           -0.067272825
FINAL SINGLE POINT ENERGY     -2929.508701354108

DIPOLE MOMENT
-------------

Method             : SCF
Type of density    : Electron Density
Multiplicity       :   1
Irrep              :   0
Energy             : -2929.6262373141362332 Eh
Relativity type    :
Basis              : AO
                                X                 Y                 Z
Electronic contribution:     -6.174943222       1.902232196       3.142899366
Nuclear contribution   :      6.986417286      -3.162273374      -3.486232584
                        -----------------------------------------
Total Dipole Moment    :      0.811474063      -1.260041178      -0.343333219
                        -----------------------------------------
Magnitude (a.u.)       :      1.537553779
Magnitude (Debye)      :      3.908151121

Rotational constants in cm-1:             0.011739             0.005467             0.004816
Rotational constants in MHz :           351.917159           163.882961           144.380138

                             ****ORCA TERMINATED NORMALLY****
TOTAL RUN TIME: 0 days 0 hours 0 minutes 21 seconds 94 msec
