                         Program Version 6.0.0  -   RELEASE  -
|  1> ! pbe def2-sv(p) def2/J RI DEFGRID1 loosescf d4 GCP(DFT/SV(P)) printgap
|  2> %output
|  3>     printlevel normal
|  4> end
|  5> * xyz 0 1
|  6> C 2.8391078659 -2.2391909649 -2.5264443684
|  7> C 3.5331963749 -1.0955420761 -1.8130314463
|  8> O 3.0060152808 -0.9700279981 -0.4742755219
|  9> P 2.2222253889 0.2923820441 0.0658487248
| 10> S 1.5753164847 1.5378518004 -1.3156777148
| 11> O 3.3041317281 0.951773868 1.0283748796
| 12> C 3.1713500776 2.2818189042 1.5533619187
| 13> C 2.0490106727 2.3779065127 2.5673367695
| 14> S 0.9562832991 -0.6898948456 1.4385685668
| 15> C 0.2054920721 -1.9193838927 0.3296458144
| 16> S -0.6069624579 -1.1937943108 -1.1240207413
| 17> P -1.9664129578 0.1199258881 -0.1645100543
| 18> S -1.4330587794 1.8025614084 0.6729480414
| 19> O -2.7098354063 -0.9096795586 0.8042832965
| 20> C -3.0424021243 -0.6497044639 2.1839548093
| 21> C -2.2272751938 -1.5350105447 3.1052634923
| 22> O -2.9768223853 0.4229019285 -1.3438106018
| 23> C -3.6759625443 -0.6183217932 -2.0754157401
| 24> C -5.0542325576 -0.0992824444 -2.4302378619
| 25> H 3.2717665754 -2.3536210816 -3.5149126405
| 26> H 2.9691149709 -3.1631726691 -1.9701779567
| 27> H 1.7756804087 -2.0279383556 -2.6273536685
| 28> H 3.3816017659 -0.1509252757 -2.3453019746
| 29> H 4.6014198457 -1.2832667578 -1.6943837175
| 30> H 4.1433578935 2.483892009 2.0054347169
| 31> H 2.9969258691 2.9697796388 0.7191792915
| 32> H 2.1684036206 1.6183477172 3.3360431363
| 33> H 2.0583495747 3.3615865728 3.0254892601
| 34> H 1.084821232 2.234345161 2.077098123
| 35> H -0.5263013515 -2.4616058637 0.9240446765
| 36> H 0.9753283431 -2.5851384501 -0.053909434
| 37> H -2.8640199276 0.4092649889 2.3965118226
| 38> H -4.109054694 -0.8659454328 2.2673580254
| 39> H -1.1706423045 -1.2813357161 3.0395378127
| 40> H -2.5618576035 -1.3769708163 4.1253490751
| 41> H -2.3664390059 -2.5804573654 2.8441901402
| 42> H -3.0873817898 -0.8347937621 -2.969727505
| 43> H -3.7340248647 -1.5122167788 -1.4502434279
| 44> H -5.6199194566 0.115377941 -1.5277009765
| 45> H -4.9675006183 0.8142749874 -3.0116918801
| 46> H -5.5772148327 -0.849950915 -3.0139827462
| 47> *
| 48>
| 49>                          ****END OF INPUT****

CARTESIAN COORDINATES (ANGSTROEM)
---------------------------------
  C      2.839108   -2.239191   -2.526444
  C      3.533196   -1.095542   -1.813031
  O      3.006015   -0.970028   -0.474276
  P      2.222225    0.292382    0.065849
  S      1.575316    1.537852   -1.315678
  O      3.304132    0.951774    1.028375
  C      3.171350    2.281819    1.553362
  C      2.049011    2.377907    2.567337
  S      0.956283   -0.689895    1.438569
  C      0.205492   -1.919384    0.329646
  S     -0.606962   -1.193794   -1.124021
  P     -1.966413    0.119926   -0.164510
  S     -1.433059    1.802561    0.672948
  O     -2.709835   -0.909680    0.804283
  C     -3.042402   -0.649704    2.183955
  C     -2.227275   -1.535011    3.105263
  O     -2.976822    0.422902   -1.343811
  C     -3.675963   -0.618322   -2.075416
  C     -5.054233   -0.099282   -2.430238
  H      3.271767   -2.353621   -3.514913
  H      2.969115   -3.163173   -1.970178
  H      1.775680   -2.027938   -2.627354
  H      3.381602   -0.150925   -2.345302
  H      4.601420   -1.283267   -1.694384
  H      4.143358    2.483892    2.005435
  H      2.996926    2.969780    0.719179
  H      2.168404    1.618348    3.336043
  H      2.058350    3.361587    3.025489
  H      1.084821    2.234345    2.077098
  H     -0.526301   -2.461606    0.924045
  H      0.975328   -2.585138   -0.053909
  H     -2.864020    0.409265    2.396512
  H     -4.109055   -0.865945    2.267358
  H     -1.170642   -1.281336    3.039538
  H     -2.561858   -1.376971    4.125349
  H     -2.366439   -2.580457    2.844190
  H     -3.087382   -0.834794   -2.969728
  H     -3.734025   -1.512217   -1.450243
  H     -5.619919    0.115378   -1.527701
  H     -4.967501    0.814275   -3.011692
  H     -5.577215   -0.849951   -3.013983

 Total Charge           Charge          ....    0
 Multiplicity           Mult            ....    1
 Number of Electrons    NEL             ....  202
 Basis Dimension        Dim             ....  334

ORBITAL ENERGIES
----------------

  NO   OCC          E(Eh)            E(eV)
   0   2.0000     -88.040038     -2395.6912
   1   2.0000     -88.038963     -2395.6620
   2   2.0000     -87.977179     -2393.9807
   3   2.0000     -87.975139     -2393.9252
   4   2.0000     -76.422197     -2079.5537
   5   2.0000     -76.419974     -2079.4932
   6   2.0000     -18.794627      -511.4278
   7   2.0000     -18.790433      -511.3137
   8   2.0000     -18.789442      -511.2867
   9   2.0000     -18.784960      -511.1648
  10   2.0000      -9.960500      -271.0390
  11   2.0000      -9.954418      -270.8735
  12   2.0000      -9.951544      -270.7953
  13   2.0000      -9.948498      -270.7124
  14   2.0000      -9.942944      -270.5613
  15   2.0000      -9.890169      -269.1252
  16   2.0000      -9.889677      -269.1118
  17   2.0000      -9.887021      -269.0395
  18   2.0000      -9.875665      -268.7305
  19   2.0000      -7.684961      -209.1184
  20   2.0000      -7.683904      -209.0897
  21   2.0000      -7.622021      -207.4057
  22   2.0000      -7.619874      -207.3473
  23   2.0000      -6.419576      -174.6855
  24   2.0000      -6.417361      -174.6253
  25   2.0000      -5.713005      -155.4588
  26   2.0000      -5.712019      -155.4319
  27   2.0000      -5.709381      -155.3601
  28   2.0000      -5.708440      -155.3346
  29   2.0000      -5.701812      -155.1542
  30   2.0000      -5.700570      -155.1204
  31   2.0000      -5.651134      -153.7752
  32   2.0000      -5.648885      -153.7140
  33   2.0000      -5.642438      -153.5385
  34   2.0000      -5.642168      -153.5312
  35   2.0000      -5.640479      -153.4852
  36   2.0000      -5.640027      -153.4729
  37   2.0000      -4.642686      -126.3339
  38   2.0000      -4.641152      -126.2922
  39   2.0000      -4.639965      -126.2599
  40   2.0000      -4.639741      -126.2538
  41   2.0000      -4.639220      -126.2396
  42   2.0000      -4.637668      -126.1974
  43   2.0000      -0.983050       -26.7502
  44   2.0000      -0.980978       -26.6938
  45   2.0000      -0.943054       -25.6618
  46   2.0000      -0.941023       -25.6065
  47   2.0000      -0.762946       -20.7608
  48   2.0000      -0.720495       -19.6057
  49   2.0000      -0.709355       -19.3025
  50   2.0000      -0.693322       -18.8662
  51   2.0000      -0.680325       -18.5126
  52   2.0000      -0.667733       -18.1699
  53   2.0000      -0.647108       -17.6087
  54   2.0000      -0.633132       -17.2284
  55   2.0000      -0.594250       -16.1704
  56   2.0000      -0.586480       -15.9589
  57   2.0000      -0.571340       -15.5470
  58   2.0000      -0.568011       -15.4564
  59   2.0000      -0.562866       -15.3164
  60   2.0000      -0.506392       -13.7796
  61   2.0000      -0.495161       -13.4740
  62   2.0000      -0.481503       -13.1024
  63   2.0000      -0.465787       -12.6747
  64   2.0000      -0.460352       -12.5268
  65   2.0000      -0.442459       -12.0399
  66   2.0000      -0.436130       -11.8677
  67   2.0000      -0.433043       -11.7837
  68   2.0000      -0.425758       -11.5855
  69   2.0000      -0.413404       -11.2493
  70   2.0000      -0.406403       -11.0588
  71   2.0000      -0.396425       -10.7873
  72   2.0000      -0.387367       -10.5408
  73   2.0000      -0.385515       -10.4904
  74   2.0000      -0.382132       -10.3983
  75   2.0000      -0.372502       -10.1363
  76   2.0000      -0.366829        -9.9819
  77   2.0000      -0.360213        -9.8019
  78   2.0000      -0.357116        -9.7176
  79   2.0000      -0.351592        -9.5673
  80   2.0000      -0.346349        -9.4246
  81   2.0000      -0.342142        -9.3102
  82   2.0000      -0.339807        -9.2466
  83   2.0000      -0.337813        -9.1924
  84   2.0000      -0.330659        -8.9977
  85   2.0000      -0.320549        -8.7226
  86   2.0000      -0.306740        -8.3468
  87   2.0000      -0.304634        -8.2895
  88   2.0000      -0.291495        -7.9320
  89   2.0000      -0.283297        -7.7089
  90   2.0000      -0.278258        -7.5718
  91   2.0000      -0.271725        -7.3940
  92   2.0000      -0.267662        -7.2834
  93   2.0000      -0.260768        -7.0959
  94   2.0000      -0.255601        -6.9553
  95   2.0000      -0.247547        -6.7361
  96   2.0000      -0.219543        -5.9741
  97   2.0000      -0.205312        -5.5868
  98   2.0000      -0.186946        -5.0871
  99   2.0000      -0.182937        -4.9780
 100   2.0000      -0.179010        -4.8711
 101   0.0000      -0.050932        -1.3859
 102   0.0000      -0.028575        -0.7776
 103   0.0000      -0.006679        -0.1818
 104   0.0000      -0.001421        -0.0387
 105   0.0000       0.022465         0.6113

MULLIKEN ATOMIC CHARGES
-----------------------
   0 C :   -0.309117
   1 C :   -0.000227
   2 O :   -0.378531
   3 P :    0.615522
   4 S :   -0.300268
   5 O :   -0.369033
   6 C :    0.003756
   7 C :   -0.347132
   8 S :   -0.106878
   9 C :   -0.352582
  10 S :   -0.105250
  11 P :    0.617780
  12 S :   -0.274855
  13 O :   -0.397891
  14 C :   -0.005681
  15 C :   -0.315077
  16 O :   -0.364363
  17 C :   -0.025827
  18 C :   -0.275134
  19 H :    0.112712
  20 H :    0.114589
  21 H :    0.128355
  22 H :    0.110447
  23 H :    0.104956
  24 H :    0.101179
  25 H :    0.110093
  26 H :    0.114057
  27 H :    0.111643
  28 H :    0.157363
  29 H :    0.187027
  30 H :    0.191495
  31 H :    0.113233
  32 H :    0.099960
  33 H :    0.135225
  34 H :    0.114293
  35 H :    0.115944
  36 H :    0.112344
  37 H :    0.107113
  38 H :    0.114592
  39 H :    0.124631
  40 H :    0.109537
Sum of atomic charges:    0.0000000

LOEWDIN ATOMIC CHARGES
----------------------
   0 C :   -0.359711
   1 C :   -0.117143
   2 O :   -0.246645
   3 P :    0.565044
   4 S :   -0.301609
   5 O :   -0.246963
   6 C :   -0.119629
   7 C :   -0.375272
   8 S :    0.091835
   9 C :   -0.471843
  10 S :    0.082522
  11 P :    0.563231
  12 S :   -0.282118
  13 O :   -0.261622
  14 C :   -0.119675
  15 C :   -0.361871
  16 O :   -0.244116
  17 C :   -0.120548
  18 C :   -0.349847
  19 H :    0.131725
  20 H :    0.122269
  21 H :    0.121185
  22 H :    0.107900
  23 H :    0.117169
  24 H :    0.116678
  25 H :    0.110017
  26 H :    0.121892
  27 H :    0.131241
  28 H :    0.123107
  29 H :    0.131052
  30 H :    0.133261
  31 H :    0.108156
  32 H :    0.115066
  33 H :    0.118467
  34 H :    0.133280
  35 H :    0.122435
  36 H :    0.114761
  37 H :    0.108600
  38 H :    0.127068
  39 H :    0.131174
  40 H :    0.129476

  Mayer bond orders larger than 0.100000
B(  0-C ,  1-C ) :   1.1686 B(  0-C , 19-H ) :   0.9394 B(  0-C , 20-H ) :   0.9456
B(  0-C , 21-H ) :   0.9375 B(  1-C ,  2-O ) :   0.8998 B(  1-C , 22-H ) :   0.8983
B(  1-C , 23-H ) :   0.9329 B(  2-O ,  3-P ) :   1.1090 B(  3-P ,  4-S ) :   1.6361
B(  3-P ,  5-O ) :   1.1170 B(  3-P ,  8-S ) :   0.9425 B(  4-S ,  8-S ) :   0.1130
B(  5-O ,  6-C ) :   0.9113 B(  6-C ,  7-C ) :   1.1627 B(  6-C , 24-H ) :   0.9335
B(  6-C , 25-H ) :   0.9124 B(  7-C , 26-H ) :   0.9438 B(  7-C , 27-H ) :   0.9379
B(  7-C , 28-H ) :   0.9217 B(  8-S ,  9-C ) :   1.0056 B(  9-C , 10-S ) :   1.0061
B(  9-C , 29-H ) :   0.8986 B(  9-C , 30-H ) :   0.8991 B( 10-S , 11-P ) :   0.9490
B( 10-S , 12-S ) :   0.1079 B( 11-P , 12-S ) :   1.6713 B( 11-P , 13-O ) :   1.0519
B( 11-P , 16-O ) :   1.1339 B( 13-O , 14-C ) :   0.9081 B( 14-C , 15-C ) :   1.1696
B( 14-C , 31-H ) :   0.8959 B( 14-C , 32-H ) :   0.9333 B( 15-C , 33-H ) :   0.9309
B( 15-C , 34-H ) :   0.9371 B( 15-C , 35-H ) :   0.9424 B( 16-O , 17-C ) :   0.8959
B( 17-C , 18-C ) :   1.1643 B( 17-C , 36-H ) :   0.9311 B( 17-C , 37-H ) :   0.9169
B( 18-C , 38-H ) :   0.9500 B( 18-C , 39-H ) :   0.9495 B( 18-C , 40-H ) :   0.9409

Dispersion correction           -0.067158338
FINAL SINGLE POINT ENERGY     -2929.510120176282

DIPOLE MOMENT
-------------

Method             : SCF
Type of density    : Electron Density
Multiplicity       :   1
Irrep              :   0
Energy             : -2929.6270375882827466 Eh
Relativity type    :
Basis              : AO
                                X                 Y                 Z
Electronic contribution:      6.503441600       7.567434079      -2.301126189
Nuclear contribution   :     -6.948611231      -9.162249258       2.519150998
                        -----------------------------------------
Total Dipole Moment    :     -0.445169631      -1.594815179       0.218024808
                        -----------------------------------------
Magnitude (a.u.)       :      1.670073733
Magnitude (Debye)      :      4.244990074

Rotational constants in cm-1:             0.010987             0.005747             0.005060
Rotational constants in MHz :           329.386905           172.286421           151.680714

                             ****ORCA TERMINATED NORMALLY****
TOTAL RUN TIME: 0 days 0 hours 0 minutes 22 seconds 873 msec
