                         Program Version 6.0.0  -   RELEASE  -
|  1> ! pbe def2-sv(p) def2/J RI DEFGRID1 loosescf d4 GCP(DFT/SV(P)) printgap
|  2> %output
|  3>     printlevel normal
|  4> end
|  5> * xyz 0 1
|  6> C 0.4328265311 -1.663767086 2.7810219855
|  7> C 1.5641834767 -0.6618716369 2.6639632664
|  8> O 1.3829138731 0.1693292289 1.4935619094
|  9> P 2.2423751367 0.0167420816 0.1771684099
| 10> S 2.9616523072 -1.7682128714 -0.2088162218
| 11> O 3.3174755931 1.1662304331 0.4134857202
| 12> C 4.3765978646 1.4400766029 -0.5275211594
| 13> C 5.6520961413 0.7247913059 -0.126168338
| 14> S 0.9845529574 0.8722656915 -1.2874126091
| 15> C 0.2298117903 -0.6672974613 -1.8847535413
| 16> S -0.7285323073 -1.5259778008 -0.612053359
| 17> P -2.112064517 0.0339025078 -0.2346066029
| 18> S -2.6714773446 1.0649475357 -1.8101608704
| 19> O -1.4186890382 0.8581311799 0.9229237341
| 20> C -1.497778685 2.291537829 1.0145867126
| 21> C -2.8331282291 2.720341371 1.5852335124
| 22> O -3.2336625779 -0.7075525409 0.6086485846
| 23> C -4.0813744891 -1.7416645551 0.0701577375
| 24> C -5.3164069395 -1.1584644245 -0.5890969563
| 25> H -0.5248966518 -1.1521881295 2.7184896882
| 26> H 0.4904826426 -2.3942424862 1.9766443956
| 27> H 0.5074217841 -2.1770992355 3.7342453035
| 28> H 2.5303654453 -1.1703020228 2.5988597344
| 29> H 1.5703136203 0.0351545949 3.503419845
| 30> H 4.0564518616 1.1406284894 -1.5295469164
| 31> H 4.5001934406 2.5241157897 -0.4951065592
| 32> H 6.4469618607 1.0005657896 -0.8115432768
| 33> H 5.934285017 1.0053215484 0.8846925435
| 34> H 5.5082454273 -0.3527188984 -0.1648333158
| 35> H 1.0083279417 -1.3595256357 -2.203611184
| 36> H -0.4213470927 -0.3855925564 -2.711707826
| 37> H -0.6639318541 2.5650767416 1.6630097785
| 38> H -1.3435934808 2.7202044855 0.0182879227
| 39> H -2.8488425213 3.7994895428 1.6997990193
| 40> H -3.6308720667 2.4223010136 0.9057707107
| 41> H -2.9990541016 2.2484912612 2.5497889725
| 42> H -3.5052332426 -2.3468412546 -0.6359015358
| 43> H -4.3447409653 -2.3492809768 0.9380257191
| 44> H -5.953714637 -1.9673119701 -0.9315866976
| 45> H -5.8649017978 -0.5450338942 0.1203620564
| 46> H -5.0372392291 -0.5422732565 -1.4408483525
| 47> *
| 48>
| 49>                          ****END OF INPUT****

CARTESIAN COORDINATES (ANGSTROEM)
---------------------------------
  C      0.432827   -1.663767    2.781022
  C      1.564183   -0.661872    2.663963
  O      1.382914    0.169329    1.493562
  P      2.242375    0.016742    0.177168
  S      2.961652   -1.768213   -0.208816
  O      3.317476    1.166230    0.413486
  C      4.376598    1.440077   -0.527521
  C      5.652096    0.724791   -0.126168
  S      0.984553    0.872266   -1.287413
  C      0.229812   -0.667297   -1.884754
  S     -0.728532   -1.525978   -0.612053
  P     -2.112065    0.033903   -0.234607
  S     -2.671477    1.064948   -1.810161
  O     -1.418689    0.858131    0.922924
  C     -1.497779    2.291538    1.014587
  C     -2.833128    2.720341    1.585234
  O     -3.233663   -0.707553    0.608649
  C     -4.081374   -1.741665    0.070158
  C     -5.316407   -1.158464   -0.589097
  H     -0.524897   -1.152188    2.718490
  H      0.490483   -2.394242    1.976644
  H      0.507422   -2.177099    3.734245
  H      2.530365   -1.170302    2.598860
  H      1.570314    0.035155    3.503420
  H      4.056452    1.140628   -1.529547
  H      4.500193    2.524116   -0.495107
  H      6.446962    1.000566   -0.811543
  H      5.934285    1.005322    0.884693
  H      5.508245   -0.352719   -0.164833
  H      1.008328   -1.359526   -2.203611
  H     -0.421347   -0.385593   -2.711708
  H     -0.663932    2.565077    1.663010
  H     -1.343593    2.720204    0.018288
  H     -2.848843    3.799490    1.699799
  H     -3.630872    2.422301    0.905771
  H     -2.999054    2.248491    2.549789
  H     -3.505233   -2.346841   -0.635902
  H     -4.344741   -2.349281    0.938026
  H     -5.953715   -1.967312   -0.931587
  H     -5.864902   -0.545034    0.120362
  H     -5.037239   -0.542273   -1.440848

 Total Charge           Charge          ....    0
 Multiplicity           Mult            ....    1
 Number of Electrons    NEL             ....  202
 Basis Dimension        Dim             ....  334

ORBITAL ENERGIES
----------------

  NO   OCC          E(Eh)            E(eV)
   0   2.0000     -88.044372     -2395.8092
   1   2.0000     -88.043073     -2395.7738
   2   2.0000     -87.989732     -2394.3223
   3   2.0000     -87.988722     -2394.2948
   4   2.0000     -76.427744     -2079.7046
   5   2.0000     -76.426393     -2079.6679
   6   2.0000     -18.796199      -511.4706
   7   2.0000     -18.791533      -511.3436
   8   2.0000     -18.787966      -511.2466
   9   2.0000     -18.786962      -511.2192
  10   2.0000      -9.956906      -270.9412
  11   2.0000      -9.955372      -270.8995
  12   2.0000      -9.953884      -270.8589
  13   2.0000      -9.949789      -270.7475
  14   2.0000      -9.946381      -270.6548
  15   2.0000      -9.882298      -268.9110
  16   2.0000      -9.880802      -268.8703
  17   2.0000      -9.880587      -268.8644
  18   2.0000      -9.875333      -268.7215
  19   2.0000      -7.689264      -209.2355
  20   2.0000      -7.687841      -209.1968
  21   2.0000      -7.634580      -207.7475
  22   2.0000      -7.633700      -207.7235
  23   2.0000      -6.425070      -174.8350
  24   2.0000      -6.423921      -174.8038
  25   2.0000      -5.717101      -155.5702
  26   2.0000      -5.715668      -155.5312
  27   2.0000      -5.713786      -155.4800
  28   2.0000      -5.712345      -155.4408
  29   2.0000      -5.706266      -155.2754
  30   2.0000      -5.704862      -155.2372
  31   2.0000      -5.663370      -154.1081
  32   2.0000      -5.662458      -154.0833
  33   2.0000      -5.655141      -153.8842
  34   2.0000      -5.654948      -153.8790
  35   2.0000      -5.654456      -153.8656
  36   2.0000      -5.653898      -153.8504
  37   2.0000      -4.647436      -126.4632
  38   2.0000      -4.646945      -126.4498
  39   2.0000      -4.646327      -126.4330
  40   2.0000      -4.645703      -126.4160
  41   2.0000      -4.645639      -126.4143
  42   2.0000      -4.644536      -126.3842
  43   2.0000      -0.988273       -26.8923
  44   2.0000      -0.984443       -26.7881
  45   2.0000      -0.946015       -25.7424
  46   2.0000      -0.942089       -25.6356
  47   2.0000      -0.766275       -20.8514
  48   2.0000      -0.721205       -19.6250
  49   2.0000      -0.708028       -19.2664
  50   2.0000      -0.684794       -18.6342
  51   2.0000      -0.682718       -18.5777
  52   2.0000      -0.672757       -18.3066
  53   2.0000      -0.651597       -17.7308
  54   2.0000      -0.641015       -17.4429
  55   2.0000      -0.598388       -16.2830
  56   2.0000      -0.591241       -16.0885
  57   2.0000      -0.573227       -15.5983
  58   2.0000      -0.567609       -15.4454
  59   2.0000      -0.559489       -15.2245
  60   2.0000      -0.505263       -13.7489
  61   2.0000      -0.497350       -13.5336
  62   2.0000      -0.476119       -12.9559
  63   2.0000      -0.473584       -12.8869
  64   2.0000      -0.454626       -12.3710
  65   2.0000      -0.439757       -11.9664
  66   2.0000      -0.438536       -11.9332
  67   2.0000      -0.435027       -11.8377
  68   2.0000      -0.426444       -11.6041
  69   2.0000      -0.406864       -11.0713
  70   2.0000      -0.405853       -11.0438
  71   2.0000      -0.399304       -10.8656
  72   2.0000      -0.395268       -10.7558
  73   2.0000      -0.388271       -10.5654
  74   2.0000      -0.380324       -10.3492
  75   2.0000      -0.373504       -10.1636
  76   2.0000      -0.368287       -10.0216
  77   2.0000      -0.352461        -9.5909
  78   2.0000      -0.350761        -9.5447
  79   2.0000      -0.347423        -9.4539
  80   2.0000      -0.347128        -9.4458
  81   2.0000      -0.344955        -9.3867
  82   2.0000      -0.337021        -9.1708
  83   2.0000      -0.335931        -9.1412
  84   2.0000      -0.332086        -9.0365
  85   2.0000      -0.322586        -8.7780
  86   2.0000      -0.304996        -8.2994
  87   2.0000      -0.298338        -8.1182
  88   2.0000      -0.297669        -8.1000
  89   2.0000      -0.289116        -7.8672
  90   2.0000      -0.282464        -7.6862
  91   2.0000      -0.279566        -7.6074
  92   2.0000      -0.270558        -7.3623
  93   2.0000      -0.264434        -7.1956
  94   2.0000      -0.257587        -7.0093
  95   2.0000      -0.233694        -6.3591
  96   2.0000      -0.220361        -5.9963
  97   2.0000      -0.214204        -5.8288
  98   2.0000      -0.207923        -5.6579
  99   2.0000      -0.201316        -5.4781
 100   2.0000      -0.199019        -5.4156
 101   0.0000      -0.045825        -1.2470
 102   0.0000      -0.024502        -0.6667
 103   0.0000      -0.001719        -0.0468
 104   0.0000      -0.000278        -0.0076
 105   0.0000       0.009418         0.2563

MULLIKEN ATOMIC CHARGES
-----------------------
   0 C :   -0.297424
   1 C :   -0.001768
   2 O :   -0.356683
   3 P :    0.611666
   4 S :   -0.339740
   5 O :   -0.372501
   6 C :   -0.007181
   7 C :   -0.290423
   8 S :   -0.081072
   9 C :   -0.355815
  10 S :   -0.081426
  11 P :    0.622543
  12 S :   -0.334238
  13 O :   -0.354081
  14 C :   -0.006479
  15 C :   -0.297331
  16 O :   -0.370496
  17 C :   -0.014470
  18 C :   -0.297243
  19 H :    0.121592
  20 H :    0.128216
  21 H :    0.102791
  22 H :    0.104310
  23 H :    0.102457
  24 H :    0.100386
  25 H :    0.106720
  26 H :    0.107183
  27 H :    0.111511
  28 H :    0.128160
  29 H :    0.191161
  30 H :    0.191145
  31 H :    0.103954
  32 H :    0.114380
  33 H :    0.110050
  34 H :    0.119609
  35 H :    0.112636
  36 H :    0.105319
  37 H :    0.108900
  38 H :    0.108305
  39 H :    0.114290
  40 H :    0.131089
Sum of atomic charges:   -0.0000000

LOEWDIN ATOMIC CHARGES
----------------------
   0 C :   -0.363653
   1 C :   -0.110016
   2 O :   -0.234315
   3 P :    0.567305
   4 S :   -0.325282
   5 O :   -0.250581
   6 C :   -0.116229
   7 C :   -0.362658
   8 S :    0.093250
   9 C :   -0.480365
  10 S :    0.097718
  11 P :    0.569318
  12 S :   -0.319186
  13 O :   -0.226143
  14 C :   -0.120536
  15 C :   -0.362566
  16 O :   -0.242561
  17 C :   -0.116529
  18 C :   -0.364674
  19 H :    0.123956
  20 H :    0.122194
  21 H :    0.125610
  22 H :    0.107927
  23 H :    0.116606
  24 H :    0.106607
  25 H :    0.118446
  26 H :    0.128521
  27 H :    0.124947
  28 H :    0.124470
  29 H :    0.131186
  30 H :    0.130909
  31 H :    0.117466
  32 H :    0.107426
  33 H :    0.129429
  34 H :    0.122075
  35 H :    0.124408
  36 H :    0.106194
  37 H :    0.119809
  38 H :    0.129155
  39 H :    0.126105
  40 H :    0.124258

  Mayer bond orders larger than 0.100000
B(  0-C ,  1-C ) :   1.1726 B(  0-C , 19-H ) :   0.9413 B(  0-C , 20-H ) :   0.9386
B(  0-C , 21-H ) :   0.9386 B(  1-C ,  2-O ) :   0.8924 B(  1-C , 22-H ) :   0.9120
B(  1-C , 23-H ) :   0.9340 B(  2-O ,  3-P ) :   1.1472 B(  3-P ,  4-S ) :   1.5883
B(  3-P ,  5-O ) :   1.1152 B(  3-P ,  8-S ) :   0.9586 B(  4-S ,  8-S ) :   0.1100
B(  5-O ,  6-C ) :   0.9036 B(  6-C ,  7-C ) :   1.1665 B(  6-C , 24-H ) :   0.9145
B(  6-C , 25-H ) :   0.9361 B(  7-C , 26-H ) :   0.9398 B(  7-C , 27-H ) :   0.9477
B(  7-C , 28-H ) :   0.9329 B(  8-S ,  9-C ) :   1.0016 B(  9-C , 10-S ) :   1.0080
B(  9-C , 29-H ) :   0.8848 B(  9-C , 30-H ) :   0.8841 B( 10-S , 11-P ) :   0.9556
B( 10-S , 12-S ) :   0.1083 B( 11-P , 12-S ) :   1.5901 B( 11-P , 13-O ) :   1.1229
B( 11-P , 16-O ) :   1.1148 B( 13-O , 14-C ) :   0.8990 B( 14-C , 15-C ) :   1.1627
B( 14-C , 31-H ) :   0.9318 B( 14-C , 32-H ) :   0.9105 B( 15-C , 33-H ) :   0.9409
B( 15-C , 34-H ) :   0.9375 B( 15-C , 35-H ) :   0.9474 B( 16-O , 17-C ) :   0.9078
B( 17-C , 18-C ) :   1.1662 B( 17-C , 36-H ) :   0.9163 B( 17-C , 37-H ) :   0.9359
B( 18-C , 38-H ) :   0.9389 B( 18-C , 39-H ) :   0.9474 B( 18-C , 40-H ) :   0.9315

Dispersion correction           -0.066847442
FINAL SINGLE POINT ENERGY     -2929.528256635067

DIPOLE MOMENT
-------------

Method             : SCF
Type of density    : Electron Density
Multiplicity       :   1
Irrep              :   0
Energy             : -2929.6455924294873512 Eh
Relativity type    :
Basis              : AO
                                X                 Y                 Z
Electronic contribution:      4.361515493      -2.338788025     -11.114551519
Nuclear contribution   :     -4.433349197       2.566871377      11.836538072
                        -----------------------------------------
Total Dipole Moment    :     -0.071833704       0.228083352       0.721986553
                        -----------------------------------------
Magnitude (a.u.)       :      0.760556822
Magnitude (Debye)      :      1.933181808

Rotational constants in cm-1:             0.013903             0.004875             0.004769
Rotational constants in MHz :           416.791402           146.154758           142.963986

                             ****ORCA TERMINATED NORMALLY****
TOTAL RUN TIME: 0 days 0 hours 0 minutes 21 seconds 330 msec
