                         Program Version 6.0.0  -   RELEASE  -
|  1> ! pbe def2-sv(p) def2/J RI DEFGRID1 loosescf d4 GCP(DFT/SV(P)) printgap
|  2> %output
|  3>     printlevel normal
|  4> end
|  5> * xyz 0 1
|  6> C 1.4731509435 -0.2412635176 -3.0893935309
|  7> C 2.4492102492 0.4716735052 -2.1746566717
|  8> O 2.8675597051 -0.4000583208 -1.1092905455
|  9> P 2.3852782074 -0.2899208902 0.3876357816
| 10> S 2.3797573108 1.4884779787 1.2222692448
| 11> O 3.4719277947 -1.2906635051 0.954525542
| 12> C 3.5403514954 -1.5697826482 2.3676236042
| 13> C 4.9030935561 -2.1653762049 2.6579911206
| 14> S 0.5669864596 -1.3851620171 0.5459763415
| 15> C -0.3728806557 -0.3015279061 1.6854791774
| 16> S -2.1316572078 -0.2980537386 1.3035022127
| 17> P -2.0054072616 0.5433007156 -0.6498617463
| 18> S -0.6299016392 1.911715762 -0.9280142889
| 19> O -3.4862658374 1.0222796927 -0.9675326453
| 20> C -3.9736454085 2.3291666599 -0.6217788108
| 21> C -4.0598835212 2.5353838444 0.8769447758
| 22> O -1.8113183306 -0.6648170422 -1.6443992615
| 23> C -2.3811778005 -1.9914929492 -1.5200810818
| 24> C -3.8870654718 -1.9739673276 -1.3787480163
| 25> H 1.2726339758 0.3876268968 -3.9508892912
| 26> H 1.8961162371 -1.1865198975 -3.4170600964
| 27> H 0.5344317054 -0.4317092686 -2.5730237321
| 28> H 2.0086868687 1.3830355324 -1.755741456
| 29> H 3.3689140315 0.7287325276 -2.7041175883
| 30> H 3.3872430328 -0.6349680695 2.9189155522
| 31> H 2.7391568703 -2.2722608537 2.6162806689
| 32> H 5.6822863283 -1.4537360659 2.4004878541
| 33> H 4.9700300549 -2.4059206165 3.7138709582
| 34> H 5.0439815705 -3.0677327999 2.0704663486
| 35> H 0.0351249904 0.7102709339 1.6033099521
| 36> H -0.2837337658 -0.6821280701 2.6997489064
| 37> H -3.3141926035 3.0763062461 -1.0749662442
| 38> H -4.9575632447 2.3710442901 -1.0910648475
| 39> H -4.558244113 3.4778379807 1.0803161442
| 40> H -4.6159877909 1.7246362973 1.3405029004
| 41> H -3.0601090297 2.5684262829 1.3075752203
| 42> H -2.0677917084 -2.4816052123 -2.4429968597
| 43> H -1.9077394457 -2.482566712 -0.6646555391
| 44> H -4.2539802123 -2.995587956 -1.3934319658
| 45> H -4.1733349142 -1.5080625468 -0.4380781524
| 46> H -4.3352051896 -1.4179115263 -2.1979099596
| 47> *
| 48>
| 49>                          ****END OF INPUT****

CARTESIAN COORDINATES (ANGSTROEM)
---------------------------------
  C      1.473151   -0.241264   -3.089394
  C      2.449210    0.471674   -2.174657
  O      2.867560   -0.400058   -1.109291
  P      2.385278   -0.289921    0.387636
  S      2.379757    1.488478    1.222269
  O      3.471928   -1.290664    0.954526
  C      3.540351   -1.569783    2.367624
  C      4.903094   -2.165376    2.657991
  S      0.566986   -1.385162    0.545976
  C     -0.372881   -0.301528    1.685479
  S     -2.131657   -0.298054    1.303502
  P     -2.005407    0.543301   -0.649862
  S     -0.629902    1.911716   -0.928014
  O     -3.486266    1.022280   -0.967533
  C     -3.973645    2.329167   -0.621779
  C     -4.059884    2.535384    0.876945
  O     -1.811318   -0.664817   -1.644399
  C     -2.381178   -1.991493   -1.520081
  C     -3.887065   -1.973967   -1.378748
  H      1.272634    0.387627   -3.950889
  H      1.896116   -1.186520   -3.417060
  H      0.534432   -0.431709   -2.573024
  H      2.008687    1.383036   -1.755741
  H      3.368914    0.728733   -2.704118
  H      3.387243   -0.634968    2.918916
  H      2.739157   -2.272261    2.616281
  H      5.682286   -1.453736    2.400488
  H      4.970030   -2.405921    3.713871
  H      5.043982   -3.067733    2.070466
  H      0.035125    0.710271    1.603310
  H     -0.283734   -0.682128    2.699749
  H     -3.314193    3.076306   -1.074966
  H     -4.957563    2.371044   -1.091065
  H     -4.558244    3.477838    1.080316
  H     -4.615988    1.724636    1.340503
  H     -3.060109    2.568426    1.307575
  H     -2.067792   -2.481605   -2.442997
  H     -1.907739   -2.482567   -0.664656
  H     -4.253980   -2.995588   -1.393432
  H     -4.173335   -1.508063   -0.438078
  H     -4.335205   -1.417912   -2.197910

 Total Charge           Charge          ....    0
 Multiplicity           Mult            ....    1
 Number of Electrons    NEL             ....  202
 Basis Dimension        Dim             ....  334

ORBITAL ENERGIES
----------------

  NO   OCC          E(Eh)            E(eV)
   0   2.0000     -88.050794     -2395.9839
   1   2.0000     -88.041546     -2395.7323
   2   2.0000     -87.984446     -2394.1785
   3   2.0000     -87.983402     -2394.1501
   4   2.0000     -76.429665     -2079.7569
   5   2.0000     -76.421735     -2079.5411
   6   2.0000     -18.796486      -511.4784
   7   2.0000     -18.794717      -511.4303
   8   2.0000     -18.785230      -511.1721
   9   2.0000     -18.783333      -511.1205
  10   2.0000      -9.958198      -270.9763
  11   2.0000      -9.955141      -270.8932
  12   2.0000      -9.954812      -270.8842
  13   2.0000      -9.949030      -270.7269
  14   2.0000      -9.940397      -270.4920
  15   2.0000      -9.890558      -269.1358
  16   2.0000      -9.886221      -269.0177
  17   2.0000      -9.884445      -268.9694
  18   2.0000      -9.868719      -268.5415
  19   2.0000      -7.695479      -209.4046
  20   2.0000      -7.685978      -209.1461
  21   2.0000      -7.629260      -207.6027
  22   2.0000      -7.628364      -207.5783
  23   2.0000      -6.426684      -174.8790
  24   2.0000      -6.419176      -174.6747
  25   2.0000      -5.723341      -155.7400
  26   2.0000      -5.719833      -155.6446
  27   2.0000      -5.713826      -155.4811
  28   2.0000      -5.712681      -155.4499
  29   2.0000      -5.710504      -155.3907
  30   2.0000      -5.703090      -155.1890
  31   2.0000      -5.658241      -153.9686
  32   2.0000      -5.657189      -153.9399
  33   2.0000      -5.649745      -153.7374
  34   2.0000      -5.649483      -153.7302
  35   2.0000      -5.648983      -153.7166
  36   2.0000      -5.648623      -153.7068
  37   2.0000      -4.649424      -126.5173
  38   2.0000      -4.648598      -126.4948
  39   2.0000      -4.646924      -126.4492
  40   2.0000      -4.641426      -126.2996
  41   2.0000      -4.641114      -126.2911
  42   2.0000      -4.639713      -126.2530
  43   2.0000      -0.990253       -26.9461
  44   2.0000      -0.983787       -26.7702
  45   2.0000      -0.949026       -25.8243
  46   2.0000      -0.938467       -25.5370
  47   2.0000      -0.763627       -20.7793
  48   2.0000      -0.720667       -19.6103
  49   2.0000      -0.711557       -19.3624
  50   2.0000      -0.693161       -18.8619
  51   2.0000      -0.679500       -18.4901
  52   2.0000      -0.675258       -18.3747
  53   2.0000      -0.650537       -17.7020
  54   2.0000      -0.631635       -17.1877
  55   2.0000      -0.600171       -16.3315
  56   2.0000      -0.591180       -16.0868
  57   2.0000      -0.579633       -15.7726
  58   2.0000      -0.564540       -15.3619
  59   2.0000      -0.552746       -15.0410
  60   2.0000      -0.502039       -13.6612
  61   2.0000      -0.494350       -13.4519
  62   2.0000      -0.474558       -12.9134
  63   2.0000      -0.469351       -12.7717
  64   2.0000      -0.451570       -12.2878
  65   2.0000      -0.447546       -12.1783
  66   2.0000      -0.444579       -12.0976
  67   2.0000      -0.435950       -11.8628
  68   2.0000      -0.432882       -11.7793
  69   2.0000      -0.414596       -11.2817
  70   2.0000      -0.412924       -11.2362
  71   2.0000      -0.401089       -10.9142
  72   2.0000      -0.392965       -10.6931
  73   2.0000      -0.382151       -10.3989
  74   2.0000      -0.374375       -10.1873
  75   2.0000      -0.371449       -10.1076
  76   2.0000      -0.366256        -9.9663
  77   2.0000      -0.359372        -9.7790
  78   2.0000      -0.355955        -9.6860
  79   2.0000      -0.352721        -9.5980
  80   2.0000      -0.349249        -9.5036
  81   2.0000      -0.341596        -9.2953
  82   2.0000      -0.338591        -9.2135
  83   2.0000      -0.335824        -9.1382
  84   2.0000      -0.324588        -8.8325
  85   2.0000      -0.316854        -8.6220
  86   2.0000      -0.309909        -8.4330
  87   2.0000      -0.298013        -8.1093
  88   2.0000      -0.296900        -8.0791
  89   2.0000      -0.294075        -8.0022
  90   2.0000      -0.281610        -7.6630
  91   2.0000      -0.277662        -7.5556
  92   2.0000      -0.265914        -7.2359
  93   2.0000      -0.261757        -7.1228
  94   2.0000      -0.255182        -6.9439
  95   2.0000      -0.236462        -6.4345
  96   2.0000      -0.224517        -6.1094
  97   2.0000      -0.210993        -5.7414
  98   2.0000      -0.201933        -5.4949
  99   2.0000      -0.198889        -5.4120
 100   2.0000      -0.189268        -5.1502
 101   0.0000      -0.046864        -1.2752
 102   0.0000      -0.035281        -0.9600
 103   0.0000      -0.012725        -0.3463
 104   0.0000       0.008550         0.2327
 105   0.0000       0.016157         0.4397

MULLIKEN ATOMIC CHARGES
-----------------------
   0 C :   -0.311105
   1 C :   -0.009279
   2 O :   -0.355638
   3 P :    0.609232
   4 S :   -0.313321
   5 O :   -0.360177
   6 C :   -0.010112
   7 C :   -0.276515
   8 S :   -0.134399
   9 C :   -0.340202
  10 S :   -0.116890
  11 P :    0.600175
  12 S :   -0.304968
  13 O :   -0.371718
  14 C :   -0.000450
  15 C :   -0.320651
  16 O :   -0.351858
  17 C :   -0.002240
  18 C :   -0.305845
  19 H :    0.105207
  20 H :    0.103702
  21 H :    0.143079
  22 H :    0.124107
  23 H :    0.101557
  24 H :    0.099085
  25 H :    0.094586
  26 H :    0.121653
  27 H :    0.108504
  28 H :    0.117133
  29 H :    0.215565
  30 H :    0.176841
  31 H :    0.115248
  32 H :    0.105175
  33 H :    0.115433
  34 H :    0.115659
  35 H :    0.132479
  36 H :    0.110838
  37 H :    0.112857
  38 H :    0.115007
  39 H :    0.118894
  40 H :    0.123354
Sum of atomic charges:    0.0000000

LOEWDIN ATOMIC CHARGES
----------------------
   0 C :   -0.366658
   1 C :   -0.114933
   2 O :   -0.228585
   3 P :    0.567846
   4 S :   -0.299320
   5 O :   -0.241343
   6 C :   -0.123611
   7 C :   -0.349320
   8 S :    0.056633
   9 C :   -0.480800
  10 S :    0.081008
  11 P :    0.570744
  12 S :   -0.294378
  13 O :   -0.241877
  14 C :   -0.117476
  15 C :   -0.370963
  16 O :   -0.229600
  17 C :   -0.114918
  18 C :   -0.366275
  19 H :    0.129198
  20 H :    0.120558
  21 H :    0.122532
  22 H :    0.107258
  23 H :    0.116245
  24 H :    0.104769
  25 H :    0.104699
  26 H :    0.129662
  27 H :    0.128992
  28 H :    0.127391
  29 H :    0.123666
  30 H :    0.132680
  31 H :    0.113733
  32 H :    0.118887
  33 H :    0.132301
  34 H :    0.122437
  35 H :    0.123137
  36 H :    0.123169
  37 H :    0.103925
  38 H :    0.132256
  39 H :    0.116903
  40 H :    0.129429

  Mayer bond orders larger than 0.100000
B(  0-C ,  1-C ) :   1.1713 B(  0-C , 19-H ) :   0.9404 B(  0-C , 20-H ) :   0.9462
B(  0-C , 21-H ) :   0.9259 B(  1-C ,  2-O ) :   0.8970 B(  1-C , 22-H ) :   0.9033
B(  1-C , 23-H ) :   0.9342 B(  2-O ,  3-P ) :   1.1579 B(  3-P ,  4-S ) :   1.6285
B(  3-P ,  5-O ) :   1.1134 B(  3-P ,  8-S ) :   0.9276 B(  4-S ,  8-S ) :   0.1273
B(  5-O ,  6-C ) :   0.9171 B(  6-C ,  7-C ) :   1.1632 B(  6-C , 24-H ) :   0.9076
B(  6-C , 25-H ) :   0.9238 B(  7-C , 26-H ) :   0.9512 B(  7-C , 27-H ) :   0.9422
B(  7-C , 28-H ) :   0.9509 B(  8-S ,  9-C ) :   0.9908 B(  9-C , 10-S ) :   1.0055
B(  9-C , 29-H ) :   0.8417 B(  9-C , 30-H ) :   0.9098 B( 10-S , 11-P ) :   0.9329
B( 10-S , 12-S ) :   0.1064 B( 11-P , 12-S ) :   1.6343 B( 11-P , 13-O ) :   1.0964
B( 11-P , 16-O ) :   1.1275 B( 13-O , 14-C ) :   0.9045 B( 14-C , 15-C ) :   1.1655
B( 14-C , 31-H ) :   0.9162 B( 14-C , 32-H ) :   0.9340 B( 15-C , 33-H ) :   0.9373
B( 15-C , 34-H ) :   0.9446 B( 15-C , 35-H ) :   0.9348 B( 16-O , 17-C ) :   0.8959
B( 17-C , 18-C ) :   1.1715 B( 17-C , 36-H ) :   0.9331 B( 17-C , 37-H ) :   0.9137
B( 18-C , 38-H ) :   0.9361 B( 18-C , 39-H ) :   0.9378 B( 18-C , 40-H ) :   0.9427

Dispersion correction           -0.066186827
FINAL SINGLE POINT ENERGY     -2929.521047103463

DIPOLE MOMENT
-------------

Method             : SCF
Type of density    : Electron Density
Multiplicity       :   1
Irrep              :   0
Energy             : -2929.6397587444484998 Eh
Relativity type    :
Basis              : AO
                                X                 Y                 Z
Electronic contribution:      5.305204640       5.465126078       1.893448448
Nuclear contribution   :     -6.511219846      -6.481015889      -1.700474284
                        -----------------------------------------
Total Dipole Moment    :     -1.206015206      -1.015889811       0.192974164
                        -----------------------------------------
Magnitude (a.u.)       :      1.588629539
Magnitude (Debye)      :      4.037975386

Rotational constants in cm-1:             0.012876             0.004785             0.004738
Rotational constants in MHz :           386.020561           143.465148           142.056235

                             ****ORCA TERMINATED NORMALLY****
TOTAL RUN TIME: 0 days 0 hours 0 minutes 21 seconds 132 msec
