                         Program Version 6.0.0  -   RELEASE  -
|  1> ! pbe def2-sv(p) def2/J RI DEFGRID1 loosescf d4 GCP(DFT/SV(P)) printgap
|  2> %output
|  3>     printlevel normal
|  4> end
|  5> * xyz 0 1
|  6> C 3.8995017433 -1.1826145784 -2.5352723562
|  7> C 4.0963884727 0.2131060883 -1.981083645
|  8> O 3.6216612098 0.3350712929 -0.6278617065
|  9> P 2.0879774489 0.1827447774 -0.2430522298
| 10> S 0.8531706131 1.0338010981 -1.4993251252
| 11> O 1.9967764606 0.8401545807 1.1843261561
| 12> C 2.817777896 0.4743238739 2.3208604922
| 13> C 4.0526552547 1.3475764369 2.4015760631
| 14> S 1.9187313231 -1.9140743467 0.1109433541
| 15> C 0.2134562287 -1.9838962714 0.7051540509
| 16> S -1.0176850677 -1.7557579223 -0.6299005999
| 17> P -2.1413307609 -0.2040934993 0.2455151146
| 18> S -1.2733830569 0.9557654292 1.5740857217
| 19> O -3.3061186226 -1.1028067891 0.8355624532
| 20> C -4.2080214001 -0.6365984064 1.8600569833
| 21> C -5.0966030097 0.4874695048 1.3709566888
| 22> O -2.8618706348 0.5182549685 -0.9660224885
| 23> C -2.4314274866 1.7371700285 -1.5959135721
| 24> C -3.663629308 2.4863532993 -2.06099463
| 25> H 2.8367688291 -1.3873993559 -2.659241699
| 26> H 4.3852971462 -1.2557006752 -3.5029709771
| 27> H 4.3223618858 -1.9222772661 -1.8599666121
| 28> H 3.571271864 0.9496944755 -2.5969226245
| 29> H 5.1531759108 0.4739126737 -1.9095317963
| 30> H 2.1621970033 0.6293193898 3.1805157537
| 31> H 3.086347118 -0.5827344159 2.2391019961
| 32> H 4.6934307469 1.1753630623 1.5411902884
| 33> H 3.7659978143 2.3955500282 2.4228617783
| 34> H 4.5965078242 1.1059263048 3.3094564172
| 35> H 0.0530930925 -1.2064024525 1.4567592281
| 36> H 0.0847313479 -2.9778479045 1.12447153
| 37> H -4.7836998202 -1.5256966206 2.1200773584
| 38> H -3.6123430656 -0.3105467132 2.718671977
| 39> H -4.494300624 1.37377179 1.1746064232
| 40> H -5.6027985349 0.1946547095 0.4548023769
| 41> H -5.8321198544 0.7235752204 2.1336379227
| 42> H -1.8479925517 2.3228040169 -0.8772677937
| 43> H -1.7800684226 1.4748408533 -2.4335339853
| 44> H -3.3517691978 3.3804188048 -2.5905889364
| 45> H -4.2460366871 1.8568410748 -2.7272495555
| 46> H -4.2793547611 2.7687322136 -1.2113633348
| 47> *
| 48>
| 49>                          ****END OF INPUT****

CARTESIAN COORDINATES (ANGSTROEM)
---------------------------------
  C      3.899502   -1.182615   -2.535272
  C      4.096388    0.213106   -1.981084
  O      3.621661    0.335071   -0.627862
  P      2.087977    0.182745   -0.243052
  S      0.853171    1.033801   -1.499325
  O      1.996776    0.840155    1.184326
  C      2.817778    0.474324    2.320860
  C      4.052655    1.347576    2.401576
  S      1.918731   -1.914074    0.110943
  C      0.213456   -1.983896    0.705154
  S     -1.017685   -1.755758   -0.629901
  P     -2.141331   -0.204093    0.245515
  S     -1.273383    0.955765    1.574086
  O     -3.306119   -1.102807    0.835562
  C     -4.208021   -0.636598    1.860057
  C     -5.096603    0.487470    1.370957
  O     -2.861871    0.518255   -0.966022
  C     -2.431427    1.737170   -1.595914
  C     -3.663629    2.486353   -2.060995
  H      2.836769   -1.387399   -2.659242
  H      4.385297   -1.255701   -3.502971
  H      4.322362   -1.922277   -1.859967
  H      3.571272    0.949694   -2.596923
  H      5.153176    0.473913   -1.909532
  H      2.162197    0.629319    3.180516
  H      3.086347   -0.582734    2.239102
  H      4.693431    1.175363    1.541190
  H      3.765998    2.395550    2.422862
  H      4.596508    1.105926    3.309456
  H      0.053093   -1.206402    1.456759
  H      0.084731   -2.977848    1.124472
  H     -4.783700   -1.525697    2.120077
  H     -3.612343   -0.310547    2.718672
  H     -4.494301    1.373772    1.174606
  H     -5.602799    0.194655    0.454802
  H     -5.832120    0.723575    2.133638
  H     -1.847993    2.322804   -0.877268
  H     -1.780068    1.474841   -2.433534
  H     -3.351769    3.380419   -2.590589
  H     -4.246037    1.856841   -2.727250
  H     -4.279355    2.768732   -1.211363

 Total Charge           Charge          ....    0
 Multiplicity           Mult            ....    1
 Number of Electrons    NEL             ....  202
 Basis Dimension        Dim             ....  334

ORBITAL ENERGIES
----------------

  NO   OCC          E(Eh)            E(eV)
   0   2.0000     -88.042300     -2395.7528
   1   2.0000     -88.031358     -2395.4550
   2   2.0000     -87.982164     -2394.1164
   3   2.0000     -87.978467     -2394.0158
   4   2.0000     -76.423210     -2079.5813
   5   2.0000     -76.419084     -2079.4690
   6   2.0000     -18.792683      -511.3749
   7   2.0000     -18.788070      -511.2494
   8   2.0000     -18.787365      -511.2302
   9   2.0000     -18.778810      -510.9974
  10   2.0000      -9.953283      -270.8426
  11   2.0000      -9.952843      -270.8306
  12   2.0000      -9.951972      -270.8069
  13   2.0000      -9.945754      -270.6377
  14   2.0000      -9.942941      -270.5612
  15   2.0000      -9.884137      -268.9610
  16   2.0000      -9.883412      -268.9413
  17   2.0000      -9.881586      -268.8916
  18   2.0000      -9.880655      -268.8663
  19   2.0000      -7.687163      -209.1783
  20   2.0000      -7.676953      -208.9005
  21   2.0000      -7.626972      -207.5405
  22   2.0000      -7.623472      -207.4452
  23   2.0000      -6.420594      -174.7133
  24   2.0000      -6.416746      -174.6085
  25   2.0000      -5.714819      -155.5081
  26   2.0000      -5.711640      -155.4216
  27   2.0000      -5.704966      -155.2400
  28   2.0000      -5.704414      -155.2250
  29   2.0000      -5.701760      -155.1528
  30   2.0000      -5.693378      -154.9247
  31   2.0000      -5.655714      -153.8998
  32   2.0000      -5.652461      -153.8113
  33   2.0000      -5.648010      -153.6902
  34   2.0000      -5.646894      -153.6598
  35   2.0000      -5.643949      -153.5797
  36   2.0000      -5.643670      -153.5721
  37   2.0000      -4.643623      -126.3594
  38   2.0000      -4.642400      -126.3261
  39   2.0000      -4.640631      -126.2780
  40   2.0000      -4.639119      -126.2368
  41   2.0000      -4.638448      -126.2186
  42   2.0000      -4.637426      -126.1908
  43   2.0000      -0.986136       -26.8341
  44   2.0000      -0.978868       -26.6364
  45   2.0000      -0.944240       -25.6941
  46   2.0000      -0.937499       -25.5106
  47   2.0000      -0.757854       -20.6223
  48   2.0000      -0.718256       -19.5447
  49   2.0000      -0.707511       -19.2524
  50   2.0000      -0.689310       -18.7571
  51   2.0000      -0.683228       -18.5916
  52   2.0000      -0.669404       -18.2154
  53   2.0000      -0.647857       -17.6291
  54   2.0000      -0.631798       -17.1921
  55   2.0000      -0.597801       -16.2670
  56   2.0000      -0.588314       -16.0088
  57   2.0000      -0.574170       -15.6240
  58   2.0000      -0.560870       -15.2621
  59   2.0000      -0.556662       -15.1475
  60   2.0000      -0.500737       -13.6258
  61   2.0000      -0.494346       -13.4518
  62   2.0000      -0.473343       -12.8803
  63   2.0000      -0.470279       -12.7969
  64   2.0000      -0.448915       -12.2156
  65   2.0000      -0.445749       -12.1294
  66   2.0000      -0.439203       -11.9513
  67   2.0000      -0.427455       -11.6316
  68   2.0000      -0.426032       -11.5929
  69   2.0000      -0.418549       -11.3893
  70   2.0000      -0.405923       -11.0457
  71   2.0000      -0.392809       -10.6889
  72   2.0000      -0.390497       -10.6260
  73   2.0000      -0.380982       -10.3670
  74   2.0000      -0.378734       -10.3059
  75   2.0000      -0.369236       -10.0474
  76   2.0000      -0.363454        -9.8901
  77   2.0000      -0.356298        -9.6954
  78   2.0000      -0.351342        -9.5605
  79   2.0000      -0.351054        -9.5527
  80   2.0000      -0.345572        -9.4035
  81   2.0000      -0.344004        -9.3608
  82   2.0000      -0.337930        -9.1956
  83   2.0000      -0.336538        -9.1577
  84   2.0000      -0.330371        -8.9899
  85   2.0000      -0.314702        -8.5635
  86   2.0000      -0.307042        -8.3550
  87   2.0000      -0.293937        -7.9984
  88   2.0000      -0.291163        -7.9230
  89   2.0000      -0.288077        -7.8390
  90   2.0000      -0.275483        -7.4963
  91   2.0000      -0.268923        -7.3178
  92   2.0000      -0.267312        -7.2739
  93   2.0000      -0.260324        -7.0838
  94   2.0000      -0.256706        -6.9853
  95   2.0000      -0.238410        -6.4875
  96   2.0000      -0.220893        -6.0108
  97   2.0000      -0.203898        -5.5484
  98   2.0000      -0.201234        -5.4759
  99   2.0000      -0.185461        -5.0467
 100   2.0000      -0.183537        -4.9943
 101   0.0000      -0.036570        -0.9951
 102   0.0000      -0.027126        -0.7381
 103   0.0000      -0.009143        -0.2488
 104   0.0000       0.006451         0.1756
 105   0.0000       0.030358         0.8261

MULLIKEN ATOMIC CHARGES
-----------------------
   0 C :   -0.327362
   1 C :    0.001296
   2 O :   -0.381237
   3 P :    0.614730
   4 S :   -0.318345
   5 O :   -0.345721
   6 C :   -0.014830
   7 C :   -0.290510
   8 S :   -0.109920
   9 C :   -0.353703
  10 S :   -0.067475
  11 P :    0.619906
  12 S :   -0.324170
  13 O :   -0.368774
  14 C :    0.001947
  15 C :   -0.317144
  16 O :   -0.377511
  17 C :   -0.027862
  18 C :   -0.279094
  19 H :    0.135396
  20 H :    0.115238
  21 H :    0.118924
  22 H :    0.113505
  23 H :    0.103914
  24 H :    0.111130
  25 H :    0.098860
  26 H :    0.121796
  27 H :    0.121231
  28 H :    0.107878
  29 H :    0.190617
  30 H :    0.183467
  31 H :    0.102474
  32 H :    0.104562
  33 H :    0.125777
  34 H :    0.118579
  35 H :    0.109723
  36 H :    0.120630
  37 H :    0.119062
  38 H :    0.111537
  39 H :    0.114320
  40 H :    0.117158
Sum of atomic charges:   -0.0000000

LOEWDIN ATOMIC CHARGES
----------------------
   0 C :   -0.373421
   1 C :   -0.117634
   2 O :   -0.247172
   3 P :    0.571743
   4 S :   -0.304618
   5 O :   -0.226261
   6 C :   -0.116767
   7 C :   -0.360051
   8 S :    0.075081
   9 C :   -0.480635
  10 S :    0.084012
  11 P :    0.571725
  12 S :   -0.309752
  13 O :   -0.249112
  14 C :   -0.117940
  15 C :   -0.366674
  16 O :   -0.239834
  17 C :   -0.120405
  18 C :   -0.351892
  19 H :    0.124311
  20 H :    0.132428
  21 H :    0.122916
  22 H :    0.113113
  23 H :    0.117907
  24 H :    0.121096
  25 H :    0.101358
  26 H :    0.125572
  27 H :    0.129327
  28 H :    0.128834
  29 H :    0.120292
  30 H :    0.136780
  31 H :    0.117598
  32 H :    0.107848
  33 H :    0.120963
  34 H :    0.126528
  35 H :    0.129211
  36 H :    0.110186
  37 H :    0.111631
  38 H :    0.130936
  39 H :    0.125963
  40 H :    0.124805

  Mayer bond orders larger than 0.100000
B(  0-C ,  1-C ) :   1.1657 B(  0-C , 19-H ) :   0.9324 B(  0-C , 20-H ) :   0.9370
B(  0-C , 21-H ) :   0.9425 B(  1-C ,  2-O ) :   0.9045 B(  1-C , 22-H ) :   0.9169
B(  1-C , 23-H ) :   0.9335 B(  2-O ,  3-P ) :   1.0819 B(  3-P ,  4-S ) :   1.6475
B(  3-P ,  5-O ) :   1.1410 B(  3-P ,  8-S ) :   0.9486 B(  4-S ,  8-S ) :   0.1138
B(  5-O ,  6-C ) :   0.8973 B(  6-C ,  7-C ) :   1.1667 B(  6-C , 24-H ) :   0.9329
B(  6-C , 25-H ) :   0.9077 B(  7-C , 26-H ) :   0.9414 B(  7-C , 27-H ) :   0.9474
B(  7-C , 28-H ) :   0.9395 B(  8-S ,  9-C ) :   0.9919 B(  9-C , 10-S ) :   1.0002
B(  9-C , 29-H ) :   0.8558 B(  9-C , 30-H ) :   0.9115 B( 10-S , 11-P ) :   0.9660
B( 10-S , 12-S ) :   0.1158 B( 11-P , 12-S ) :   1.5845 B( 11-P , 13-O ) :   1.1190
B( 11-P , 16-O ) :   1.1271 B( 12-S , 29-H ) :   0.1033 B( 13-O , 14-C ) :   0.9180
B( 14-C , 15-C ) :   1.1630 B( 14-C , 31-H ) :   0.9351 B( 14-C , 32-H ) :   0.9158
B( 15-C , 33-H ) :   0.9332 B( 15-C , 34-H ) :   0.9459 B( 15-C , 35-H ) :   0.9377
B( 16-O , 17-C ) :   0.8966 B( 17-C , 18-C ) :   1.1518 B( 17-C , 36-H ) :   0.9114
B( 17-C , 37-H ) :   0.9270 B( 18-C , 38-H ) :   0.9420 B( 18-C , 39-H ) :   0.9489
B( 18-C , 40-H ) :   0.9486

Dispersion correction           -0.066012042
FINAL SINGLE POINT ENERGY     -2929.514671954091

DIPOLE MOMENT
-------------

Method             : SCF
Type of density    : Electron Density
Multiplicity       :   1
Irrep              :   0
Energy             : -2929.6332030862236024 Eh
Relativity type    :
Basis              : AO
                                X                 Y                 Z
Electronic contribution:      1.443923310      -9.350130432      -1.078188755
Nuclear contribution   :     -1.024484677       9.136198932       1.431275542
                        -----------------------------------------
Total Dipole Moment    :      0.419438633      -0.213931500       0.353086787
                        -----------------------------------------
Magnitude (a.u.)       :      0.588528447
Magnitude (Debye)      :      1.495920429

Rotational constants in cm-1:             0.012841             0.004890             0.004664
Rotational constants in MHz :           384.962748           146.589112           139.815766

                             ****ORCA TERMINATED NORMALLY****
TOTAL RUN TIME: 0 days 0 hours 0 minutes 20 seconds 818 msec
