                         Program Version 6.0.0  -   RELEASE  -
|  1> ! wb97x-v def2-tzvp def2/J RIJCOSX DEFGRID2 scfconv7 GCP(DFT/TZ) printgap
|  2> %output
|  3>     printlevel normal
|  4> end
|  5> * xyz 0 1
|  6> C -2.60321993250702 1.4111626759362497 -6.397335289562724e-06
|  7> C -1.6165840323534673 0.2919902482198941 -3.325518386680231e-05
|  8> C -1.8822123175038872 -1.0558918185466495 -4.5302212964462974e-05
|  9> N -0.7010067336797968 -1.7738747674898498 7.867335360777802e-05
| 10> C 0.3565132035294364 -0.8981857736883778 -2.8218992795625637e-05
| 11> C -0.18622494309485244 0.4181104041557225 -2.426758572165563e-05
| 12> C 0.6890860031379346 1.5142421952103338 2.2939918026215286e-05
| 13> C 2.05758766032337 1.280050971063342 1.970242646191901e-05
| 14> C 2.57144529028992 -0.03143677922528449 -1.898819276328027e-05
| 15> C 1.730362472425538 -1.1372749343950375 -3.19312776211849e-05
| 16> H -3.6276512397016782 1.029052725167474 0.0004413058350336125
| 17> H -2.482167896454421 2.0528202164222296 0.8807592038932751
| 18> H -2.4827729896576454 2.0523539616052906 -0.8811972496090422
| 19> H -2.8340572829493684 -1.5695938395685913 -4.914162151274782e-05
| 20> H -0.6310502595450584 -2.779173199482881 -0.0006433953781135535
| 21> H 0.30045795311624957 2.5288816857316543 5.613467634327168e-05
| 22> H 2.747327930305909 2.1185252091296665 4.751173246242113e-05
| 23> H 3.6467309464582676 -0.181241503339349 -2.7116404482996365e-05
| 24> H 2.12540569801253 -2.148555888344662 -4.175423864708635e-05
| 25> *
| 26>
| 27>                          ****END OF INPUT****

CARTESIAN COORDINATES (ANGSTROEM)
---------------------------------
  C     -2.603220    1.411163   -0.000006
  C     -1.616584    0.291990   -0.000033
  C     -1.882212   -1.055892   -0.000045
  N     -0.701007   -1.773875    0.000079
  C      0.356513   -0.898186   -0.000028
  C     -0.186225    0.418110   -0.000024
  C      0.689086    1.514242    0.000023
  C      2.057588    1.280051    0.000020
  C      2.571445   -0.031437   -0.000019
  C      1.730362   -1.137275   -0.000032
  H     -3.627651    1.029053    0.000441
  H     -2.482168    2.052820    0.880759
  H     -2.482773    2.052354   -0.881197
  H     -2.834057   -1.569594   -0.000049
  H     -0.631050   -2.779173   -0.000643
  H      0.300458    2.528882    0.000056
  H      2.747328    2.118525    0.000048
  H      3.646731   -0.181242   -0.000027
  H      2.125406   -2.148556   -0.000042

 Total Charge           Charge          ....    0
 Multiplicity           Mult            ....    1
 Number of Electrons    NEL             ....   70
 Basis Dimension        Dim             ....  364

ORBITAL ENERGIES
----------------

  NO   OCC          E(Eh)            E(eV)
   0   2.0000     -16.565981      -450.7833
   1   2.0000     -12.076991      -328.6316
   2   2.0000     -12.075394      -328.5882
   3   2.0000     -12.047351      -327.8251
   4   2.0000     -12.044174      -327.7386
   5   2.0000     -12.042931      -327.7048
   6   2.0000     -12.041566      -327.6677
   7   2.0000     -12.040261      -327.6322
   8   2.0000     -12.039060      -327.5995
   9   2.0000     -12.036826      -327.5387
  10   2.0000      -1.555018       -42.3142
  11   2.0000      -1.367508       -37.2118
  12   2.0000      -1.324830       -36.0505
  13   2.0000      -1.265605       -34.4389
  14   2.0000      -1.251568       -34.0569
  15   2.0000      -1.199918       -32.6514
  16   2.0000      -1.132936       -30.8287
  17   2.0000      -1.098766       -29.8989
  18   2.0000      -1.060052       -28.8455
  19   2.0000      -1.024704       -27.8836
  20   2.0000      -0.974912       -26.5287
  21   2.0000      -0.940044       -25.5799
  22   2.0000      -0.914309       -24.8796
  23   2.0000      -0.886416       -24.1206
  24   2.0000      -0.882735       -24.0204
  25   2.0000      -0.875243       -23.8166
  26   2.0000      -0.860087       -23.4042
  27   2.0000      -0.829587       -22.5742
  28   2.0000      -0.825757       -22.4700
  29   2.0000      -0.809188       -22.0191
  30   2.0000      -0.795331       -21.6421
  31   2.0000      -0.746723       -20.3194
  32   2.0000      -0.675837       -18.3904
  33   2.0000      -0.616794       -16.7838
  34   2.0000      -0.593324       -16.1452
  35   0.0000      -0.256741        -6.9863
  36   0.0000      -0.224787        -6.1168
  37   0.0000      -0.167261        -4.5514
  38   0.0000      -0.089640        -2.4392
  39   0.0000      -0.059414        -1.6168

MULLIKEN ATOMIC CHARGES
-----------------------
   0 C :   -0.365741
   1 C :   -0.029081
   2 C :   -0.066839
   3 N :   -0.232434
   4 C :    0.167960
   5 C :    0.040674
   6 C :   -0.197058
   7 C :   -0.136159
   8 C :   -0.091121
   9 C :   -0.244737
  10 H :    0.113215
  11 H :    0.123140
  12 H :    0.123146
  13 H :    0.132500
  14 H :    0.221767
  15 H :    0.116615
  16 H :    0.108770
  17 H :    0.111612
  18 H :    0.103771
Sum of atomic charges:   -0.0000000

LOEWDIN ATOMIC CHARGES
----------------------
   0 C :   -0.259402
   1 C :   -0.183057
   2 C :   -0.180702
   3 N :    0.185309
   4 C :   -0.161460
   5 C :   -0.098634
   6 C :   -0.110398
   7 C :   -0.159537
   8 C :   -0.149978
   9 C :   -0.133838
  10 H :    0.125505
  11 H :    0.125451
  12 H :    0.125451
  13 H :    0.131228
  14 H :    0.183946
  15 H :    0.142411
  16 H :    0.138742
  17 H :    0.139673
  18 H :    0.139290

  Mayer bond orders larger than 0.100000
B(  0-C ,  1-C ) :   0.9151 B(  0-C , 10-H ) :   0.9951 B(  0-C , 11-H ) :   0.9837
B(  0-C , 12-H ) :   0.9836 B(  1-C ,  2-C ) :   1.6916 B(  1-C ,  5-C ) :   1.1767
B(  2-C ,  3-N ) :   1.1464 B(  2-C , 13-H ) :   0.9494 B(  3-N ,  4-C ) :   1.1551
B(  3-N , 14-H ) :   0.9230 B(  4-C ,  5-C ) :   1.3086 B(  4-C ,  9-C ) :   1.3139
B(  5-C ,  6-C ) :   1.2818 B(  6-C ,  7-C ) :   1.5319 B(  6-C , 15-H ) :   0.9752
B(  7-C ,  8-C ) :   1.3523 B(  7-C , 16-H ) :   0.9790 B(  8-C ,  9-C ) :   1.5229
B(  8-C , 17-H ) :   0.9748 B(  9-C , 18-H ) :   0.9711

FINAL SINGLE POINT ENERGY      -403.155348537207

DIPOLE MOMENT
-------------

Method             : SCF
Type of density    : Electron Density
Multiplicity       :   1
Irrep              :   0
Energy             :  -403.1653973563074373 Eh
Relativity type    :
Basis              : AO
                                X                 Y                 Z
Electronic contribution:      2.683657522      -3.624244998       0.000135917
Nuclear contribution   :     -3.062762962       2.913428434      -0.000529358
                        -----------------------------------------
Total Dipole Moment    :     -0.379105440      -0.710816564      -0.000393441
                        -----------------------------------------
Magnitude (a.u.)       :      0.805593742
Magnitude (Debye)      :      2.047656562

Rotational constants in cm-1:             0.086888             0.042408             0.028650
Rotational constants in MHz :          2604.825390          1271.369104           858.911357

                             ****ORCA TERMINATED NORMALLY****
TOTAL RUN TIME: 0 days 0 hours 5 minutes 8 seconds 247 msec
