                         Program Version 6.0.0  -   RELEASE  -
|  1> ! wb97x-v def2-tzvp def2/J RIJCOSX DEFGRID2 scfconv7 GCP(DFT/TZ) printgap
|  2> %output
|  3>     printlevel normal
|  4> end
|  5> %cpcm
|  6>     smd true
|  7>     smdsolvent "water"
|  8> end
|  9> * xyz 0 1
| 10> C -2.60321993250702 1.4111626759362497 -6.397335289562724e-06
| 11> C -1.6165840323534673 0.2919902482198941 -3.325518386680231e-05
| 12> C -1.8822123175038872 -1.0558918185466495 -4.5302212964462974e-05
| 13> N -0.7010067336797968 -1.7738747674898498 7.867335360777802e-05
| 14> C 0.3565132035294364 -0.8981857736883778 -2.8218992795625637e-05
| 15> C -0.18622494309485244 0.4181104041557225 -2.426758572165563e-05
| 16> C 0.6890860031379346 1.5142421952103338 2.2939918026215286e-05
| 17> C 2.05758766032337 1.280050971063342 1.970242646191901e-05
| 18> C 2.57144529028992 -0.03143677922528449 -1.898819276328027e-05
| 19> C 1.730362472425538 -1.1372749343950375 -3.19312776211849e-05
| 20> H -3.6276512397016782 1.029052725167474 0.0004413058350336125
| 21> H -2.482167896454421 2.0528202164222296 0.8807592038932751
| 22> H -2.4827729896576454 2.0523539616052906 -0.8811972496090422
| 23> H -2.8340572829493684 -1.5695938395685913 -4.914162151274782e-05
| 24> H -0.6310502595450584 -2.779173199482881 -0.0006433953781135535
| 25> H 0.30045795311624957 2.5288816857316543 5.613467634327168e-05
| 26> H 2.747327930305909 2.1185252091296665 4.751173246242113e-05
| 27> H 3.6467309464582676 -0.181241503339349 -2.7116404482996365e-05
| 28> H 2.12540569801253 -2.148555888344662 -4.175423864708635e-05
| 29> *
| 30>
| 31>                          ****END OF INPUT****

CARTESIAN COORDINATES (ANGSTROEM)
---------------------------------
  C     -2.603220    1.411163   -0.000006
  C     -1.616584    0.291990   -0.000033
  C     -1.882212   -1.055892   -0.000045
  N     -0.701007   -1.773875    0.000079
  C      0.356513   -0.898186   -0.000028
  C     -0.186225    0.418110   -0.000024
  C      0.689086    1.514242    0.000023
  C      2.057588    1.280051    0.000020
  C      2.571445   -0.031437   -0.000019
  C      1.730362   -1.137275   -0.000032
  H     -3.627651    1.029053    0.000441
  H     -2.482168    2.052820    0.880759
  H     -2.482773    2.052354   -0.881197
  H     -2.834057   -1.569594   -0.000049
  H     -0.631050   -2.779173   -0.000643
  H      0.300458    2.528882    0.000056
  H      2.747328    2.118525    0.000048
  H      3.646731   -0.181242   -0.000027
  H      2.125406   -2.148556   -0.000042

 Total Charge           Charge          ....    0
 Multiplicity           Mult            ....    1
 Number of Electrons    NEL             ....   70
 Basis Dimension        Dim             ....  364

ORBITAL ENERGIES
----------------

  NO   OCC          E(Eh)            E(eV)
   0   2.0000     -16.559652      -450.6110
   1   2.0000     -12.078269      -328.6664
   2   2.0000     -12.071775      -328.4897
   3   2.0000     -12.048380      -327.8531
   4   2.0000     -12.047210      -327.8213
   5   2.0000     -12.044895      -327.7583
   6   2.0000     -12.043222      -327.7127
   7   2.0000     -12.040181      -327.6300
   8   2.0000     -12.039324      -327.6067
   9   2.0000     -12.033876      -327.4584
  10   2.0000      -1.551141       -42.2087
  11   2.0000      -1.370990       -37.3065
  12   2.0000      -1.324616       -36.0446
  13   2.0000      -1.267769       -34.4977
  14   2.0000      -1.253231       -34.1021
  15   2.0000      -1.195245       -32.5243
  16   2.0000      -1.132707       -30.8225
  17   2.0000      -1.098722       -29.8978
  18   2.0000      -1.056468       -28.7480
  19   2.0000      -1.023707       -27.8565
  20   2.0000      -0.973624       -26.4937
  21   2.0000      -0.941283       -25.6136
  22   2.0000      -0.913813       -24.8661
  23   2.0000      -0.886425       -24.1208
  24   2.0000      -0.878651       -23.9093
  25   2.0000      -0.873035       -23.7565
  26   2.0000      -0.857895       -23.3445
  27   2.0000      -0.830531       -22.5999
  28   2.0000      -0.820883       -22.3374
  29   2.0000      -0.807645       -21.9771
  30   2.0000      -0.792843       -21.5744
  31   2.0000      -0.751541       -20.4505
  32   2.0000      -0.678805       -18.4712
  33   2.0000      -0.621006       -16.8984
  34   2.0000      -0.595583       -16.2066
  35   0.0000      -0.259396        -7.0585
  36   0.0000      -0.229920        -6.2565
  37   0.0000      -0.168473        -4.5844
  38   0.0000      -0.080603        -2.1933
  39   0.0000      -0.057258        -1.5581

MULLIKEN ATOMIC CHARGES
-----------------------
   0 C :   -0.395818
   1 C :   -0.074426
   2 C :   -0.103629
   3 N :   -0.224704
   4 C :    0.159876
   5 C :    0.010427
   6 C :   -0.241192
   7 C :   -0.196780
   8 C :   -0.133548
   9 C :   -0.312675
  10 H :    0.142353
  11 H :    0.136846
  12 H :    0.136845
  13 H :    0.182887
  14 H :    0.283032
  15 H :    0.161112
  16 H :    0.154284
  17 H :    0.158595
  18 H :    0.156517
Sum of atomic charges:   -0.0000000

LOEWDIN ATOMIC CHARGES
----------------------
   0 C :   -0.264443
   1 C :   -0.199735
   2 C :   -0.175534
   3 N :    0.197273
   4 C :   -0.172554
   5 C :   -0.116178
   6 C :   -0.125480
   7 C :   -0.178833
   8 C :   -0.167425
   9 C :   -0.136760
  10 H :    0.131496
  11 H :    0.128574
  12 H :    0.128573
  13 H :    0.145251
  14 H :    0.205538
  15 H :    0.151757
  16 H :    0.146932
  17 H :    0.148496
  18 H :    0.153053

  Mayer bond orders larger than 0.100000
B(  0-C ,  1-C ) :   0.9266 B(  0-C , 10-H ) :   0.9914 B(  0-C , 11-H ) :   0.9779
B(  0-C , 12-H ) :   0.9779 B(  1-C ,  2-C ) :   1.6634 B(  1-C ,  5-C ) :   1.1525
B(  2-C ,  3-N ) :   1.1689 B(  2-C , 13-H ) :   0.9568 B(  3-N ,  4-C ) :   1.1901
B(  3-N , 14-H ) :   0.8914 B(  4-C ,  5-C ) :   1.2770 B(  4-C ,  9-C ) :   1.2882
B(  5-C ,  6-C ) :   1.2541 B(  6-C ,  7-C ) :   1.5135 B(  6-C , 15-H ) :   0.9815
B(  7-C ,  8-C ) :   1.3238 B(  7-C , 16-H ) :   0.9835 B(  8-C ,  9-C ) :   1.4874
B(  8-C , 17-H ) :   0.9755 B(  9-C , 18-H ) :   0.9878

FINAL SINGLE POINT ENERGY      -403.163173366756

DIPOLE MOMENT
-------------

Method             : SCF
Type of density    : Electron Density
Multiplicity       :   1
Irrep              :   0
Energy             :  -403.1732221858559910 Eh
Relativity type    :
Basis              : AO
                                X                 Y                 Z
Electronic contribution:      2.500039497      -3.970099137      -0.000003361
Nuclear contribution   :     -3.062762962       2.913428434      -0.000529358
                        -----------------------------------------
Total Dipole Moment    :     -0.562723465      -1.056670702      -0.000532718
                        -----------------------------------------
Magnitude (a.u.)       :      1.197167889
Magnitude (Debye)      :      3.042958947

Rotational constants in cm-1:             0.086888             0.042408             0.028650
Rotational constants in MHz :          2604.825390          1271.369104           858.911357

                             ****ORCA TERMINATED NORMALLY****
TOTAL RUN TIME: 0 days 0 hours 5 minutes 0 seconds 145 msec
