                         Program Version 6.0.0  -   RELEASE  -
|  1> ! pbe def2-sv(p) def2/J RI DEFGRID1 loosescf d4 GCP(DFT/SV(P)) printgap
|  2> %output
|  3>     printlevel normal
|  4> end
|  5> * xyz 0 1
|  6> C 4.6743404719 0.3809526327 -1.8378274404
|  7> C 4.4730769025 0.9297828406 -0.44064312
|  8> O 3.4483097476 0.2193197458 0.2766922819
|  9> P 1.9168888438 0.2963417683 -0.1410578105
| 10> S 1.3424863763 2.0872951011 -0.6742639143
| 11> O 1.1694693725 -0.2460911108 1.1414280511
| 12> C 1.7103846978 -1.3248027708 1.9520122363
| 13> C 2.41120484 -0.7632709052 3.170163728
| 14> S 1.7543702553 -1.2885535117 -1.5594788479
| 15> C -0.0198693728 -1.6591988757 -1.4432685242
| 16> S -1.1033082569 -0.2163927624 -1.6122106023
| 17> P -1.9619283875 -0.1625337791 0.3455608451
| 18> S -1.718224264 -1.7725057082 1.4260038361
| 19> O -3.4578326354 0.2754232844 0.0236812489
| 20> C -4.3219857837 -0.3386793366 -0.9505260184
| 21> C -4.501647684 -1.8255723597 -0.7272502798
| 22> O -1.4413994792 1.1015767883 1.1267490625
| 23> C -1.7285146907 2.4692293663 0.7498468061
| 24> C -2.8749285651 3.0148785376 1.5749591739
| 25> H 5.5263280897 0.8717847306 -2.2970149091
| 26> H 4.8488345869 -0.6914932333 -1.8035983921
| 27> H 3.7889775526 0.5722877177 -2.4432272303
| 28> H 4.1976932495 1.9885369575 -0.4779982199
| 29> H 5.3624354192 0.7977415937 0.1769756461
| 30> H 0.8396355659 -1.921059722 2.2345381864
| 31> H 2.3897382804 -1.9229212024 1.3400763054
| 32> H 2.7379913141 -1.5858513904 3.7984877453
| 33> H 3.2726586273 -0.1708278809 2.8727543911
| 34> H 1.7260159561 -0.1332600775 3.7313444583
| 35> H -0.2432229048 -2.1449059685 -0.4878981311
| 36> H -0.2241021143 -2.325226933 -2.2784277421
| 37> H -5.2643025079 0.1982791496 -0.8279137963
| 38> H -3.9115616083 -0.1426288655 -1.9449866775
| 39> H -5.2372220672 -2.2061679292 -1.4284904455
| 40> H -3.5592283105 -2.3484759701 -0.8820014853
| 41> H -4.8378926933 -2.0191850615 0.2885775139
| 42> H -0.8000570426 3.0105060145 0.9428454341
| 43> H -1.945529734 2.509880204 -0.3205731328
| 44> H -3.0269721974 4.0587174953 1.319247522
| 45> H -3.7851412803 2.4562103589 1.3727751066
| 46> H -2.6404124161 2.9334532296 2.6328766576
| 47> *
| 48>
| 49>                          ****END OF INPUT****

CARTESIAN COORDINATES (ANGSTROEM)
---------------------------------
  C      4.674340    0.380953   -1.837827
  C      4.473077    0.929783   -0.440643
  O      3.448310    0.219320    0.276692
  P      1.916889    0.296342   -0.141058
  S      1.342486    2.087295   -0.674264
  O      1.169469   -0.246091    1.141428
  C      1.710385   -1.324803    1.952012
  C      2.411205   -0.763271    3.170164
  S      1.754370   -1.288554   -1.559479
  C     -0.019869   -1.659199   -1.443269
  S     -1.103308   -0.216393   -1.612211
  P     -1.961928   -0.162534    0.345561
  S     -1.718224   -1.772506    1.426004
  O     -3.457833    0.275423    0.023681
  C     -4.321986   -0.338679   -0.950526
  C     -4.501648   -1.825572   -0.727250
  O     -1.441399    1.101577    1.126749
  C     -1.728515    2.469229    0.749847
  C     -2.874929    3.014879    1.574959
  H      5.526328    0.871785   -2.297015
  H      4.848835   -0.691493   -1.803598
  H      3.788978    0.572288   -2.443227
  H      4.197693    1.988537   -0.477998
  H      5.362435    0.797742    0.176976
  H      0.839636   -1.921060    2.234538
  H      2.389738   -1.922921    1.340076
  H      2.737991   -1.585851    3.798488
  H      3.272659   -0.170828    2.872754
  H      1.726016   -0.133260    3.731344
  H     -0.243223   -2.144906   -0.487898
  H     -0.224102   -2.325227   -2.278428
  H     -5.264303    0.198279   -0.827914
  H     -3.911562   -0.142629   -1.944987
  H     -5.237222   -2.206168   -1.428490
  H     -3.559228   -2.348476   -0.882001
  H     -4.837893   -2.019185    0.288578
  H     -0.800057    3.010506    0.942845
  H     -1.945530    2.509880   -0.320573
  H     -3.026972    4.058717    1.319248
  H     -3.785141    2.456210    1.372775
  H     -2.640412    2.933453    2.632877

 Total Charge           Charge          ....    0
 Multiplicity           Mult            ....    1
 Number of Electrons    NEL             ....  202
 Basis Dimension        Dim             ....  334

ORBITAL ENERGIES
----------------

  NO   OCC          E(Eh)            E(eV)
   0   2.0000     -88.043063     -2395.7735
   1   2.0000     -88.038338     -2395.6450
   2   2.0000     -87.984478     -2394.1794
   3   2.0000     -87.981113     -2394.0878
   4   2.0000     -76.425027     -2079.6307
   5   2.0000     -76.423609     -2079.5921
   6   2.0000     -18.794262      -511.4179
   7   2.0000     -18.793030      -511.3843
   8   2.0000     -18.786331      -511.2020
   9   2.0000     -18.782185      -511.0893
  10   2.0000      -9.956765      -270.9374
  11   2.0000      -9.954142      -270.8660
  12   2.0000      -9.953212      -270.8407
  13   2.0000      -9.943595      -270.5790
  14   2.0000      -9.943105      -270.5657
  15   2.0000      -9.885855      -269.0078
  16   2.0000      -9.883444      -268.9422
  17   2.0000      -9.878221      -268.8001
  18   2.0000      -9.877987      -268.7937
  19   2.0000      -7.687444      -209.1860
  20   2.0000      -7.683512      -209.0790
  21   2.0000      -7.629653      -207.6134
  22   2.0000      -7.626200      -207.5194
  23   2.0000      -6.422121      -174.7548
  24   2.0000      -6.421039      -174.7254
  25   2.0000      -5.715226      -155.5192
  26   2.0000      -5.711924      -155.4294
  27   2.0000      -5.711444      -155.4163
  28   2.0000      -5.707946      -155.3211
  29   2.0000      -5.704628      -155.2308
  30   2.0000      -5.700522      -155.1191
  31   2.0000      -5.658628      -153.9791
  32   2.0000      -5.655252      -153.8872
  33   2.0000      -5.650310      -153.7527
  34   2.0000      -5.649598      -153.7334
  35   2.0000      -5.646767      -153.6563
  36   2.0000      -5.646235      -153.6419
  37   2.0000      -4.644902      -126.3942
  38   2.0000      -4.644233      -126.3760
  39   2.0000      -4.643951      -126.3683
  40   2.0000      -4.642770      -126.3362
  41   2.0000      -4.642418      -126.3266
  42   2.0000      -4.640999      -126.2880
  43   2.0000      -0.986558       -26.8456
  44   2.0000      -0.985077       -26.8053
  45   2.0000      -0.942287       -25.6409
  46   2.0000      -0.938916       -25.5492
  47   2.0000      -0.759281       -20.6611
  48   2.0000      -0.717015       -19.5110
  49   2.0000      -0.706448       -19.2234
  50   2.0000      -0.688366       -18.7314
  51   2.0000      -0.687714       -18.7136
  52   2.0000      -0.671764       -18.2796
  53   2.0000      -0.648410       -17.6441
  54   2.0000      -0.638258       -17.3679
  55   2.0000      -0.594117       -16.1668
  56   2.0000      -0.587900       -15.9976
  57   2.0000      -0.570078       -15.5126
  58   2.0000      -0.567796       -15.4505
  59   2.0000      -0.562687       -15.3115
  60   2.0000      -0.502028       -13.6609
  61   2.0000      -0.495195       -13.4749
  62   2.0000      -0.472715       -12.8632
  63   2.0000      -0.468925       -12.7601
  64   2.0000      -0.452645       -12.3171
  65   2.0000      -0.449813       -12.2400
  66   2.0000      -0.435305       -11.8453
  67   2.0000      -0.429152       -11.6778
  68   2.0000      -0.424372       -11.5477
  69   2.0000      -0.420701       -11.4478
  70   2.0000      -0.407667       -11.0932
  71   2.0000      -0.404810       -11.0154
  72   2.0000      -0.387699       -10.5498
  73   2.0000      -0.381541       -10.3823
  74   2.0000      -0.379554       -10.3282
  75   2.0000      -0.363315        -9.8863
  76   2.0000      -0.358893        -9.7660
  77   2.0000      -0.357479        -9.7275
  78   2.0000      -0.350756        -9.5446
  79   2.0000      -0.349098        -9.4994
  80   2.0000      -0.347085        -9.4447
  81   2.0000      -0.343368        -9.3435
  82   2.0000      -0.340407        -9.2629
  83   2.0000      -0.335049        -9.1171
  84   2.0000      -0.328773        -8.9464
  85   2.0000      -0.316772        -8.6198
  86   2.0000      -0.313668        -8.5354
  87   2.0000      -0.297248        -8.0885
  88   2.0000      -0.293860        -7.9964
  89   2.0000      -0.292933        -7.9711
  90   2.0000      -0.281526        -7.6607
  91   2.0000      -0.271006        -7.3744
  92   2.0000      -0.263877        -7.1805
  93   2.0000      -0.258366        -7.0305
  94   2.0000      -0.255458        -6.9514
  95   2.0000      -0.240253        -6.5376
  96   2.0000      -0.224487        -6.1086
  97   2.0000      -0.204570        -5.5666
  98   2.0000      -0.201688        -5.4882
  99   2.0000      -0.192863        -5.2481
 100   2.0000      -0.187735        -5.1085
 101   0.0000      -0.045524        -1.2388
 102   0.0000      -0.031696        -0.8625
 103   0.0000      -0.012838        -0.3493
 104   0.0000       0.003626         0.0987
 105   0.0000       0.016646         0.4530

MULLIKEN ATOMIC CHARGES
-----------------------
   0 C :   -0.328631
   1 C :   -0.000186
   2 O :   -0.380387
   3 P :    0.600448
   4 S :   -0.306535
   5 O :   -0.352369
   6 C :   -0.020174
   7 C :   -0.285961
   8 S :   -0.111976
   9 C :   -0.338249
  10 S :   -0.109309
  11 P :    0.628644
  12 S :   -0.314754
  13 O :   -0.383360
  14 C :   -0.006746
  15 C :   -0.305712
  16 O :   -0.344436
  17 C :   -0.014617
  18 C :   -0.281503
  19 H :    0.116748
  20 H :    0.121187
  21 H :    0.133547
  22 H :    0.112730
  23 H :    0.104625
  24 H :    0.121830
  25 H :    0.097157
  26 H :    0.106820
  27 H :    0.114208
  28 H :    0.122417
  29 H :    0.194714
  30 H :    0.178732
  31 H :    0.106275
  32 H :    0.111847
  33 H :    0.110201
  34 H :    0.118804
  35 H :    0.126283
  36 H :    0.120784
  37 H :    0.096360
  38 H :    0.106649
  39 H :    0.116535
  40 H :    0.117361
Sum of atomic charges:   -0.0000000

LOEWDIN ATOMIC CHARGES
----------------------
   0 C :   -0.373140
   1 C :   -0.119428
   2 O :   -0.245119
   3 P :    0.567769
   4 S :   -0.301727
   5 O :   -0.231419
   6 C :   -0.123023
   7 C :   -0.356545
   8 S :    0.060026
   9 C :   -0.483901
  10 S :    0.078116
  11 P :    0.576498
  12 S :   -0.287441
  13 O :   -0.244643
  14 C :   -0.117984
  15 C :   -0.368498
  16 O :   -0.222138
  17 C :   -0.118171
  18 C :   -0.359145
  19 H :    0.133276
  20 H :    0.124644
  21 H :    0.122999
  22 H :    0.111451
  23 H :    0.118305
  24 H :    0.111029
  25 H :    0.104382
  26 H :    0.128749
  27 H :    0.122523
  28 H :    0.130196
  29 H :    0.119264
  30 H :    0.136827
  31 H :    0.119546
  32 H :    0.106496
  33 H :    0.129463
  34 H :    0.118979
  35 H :    0.130117
  36 H :    0.116882
  37 H :    0.105060
  38 H :    0.128175
  39 H :    0.123628
  40 H :    0.127923

  Mayer bond orders larger than 0.100000
B(  0-C ,  1-C ) :   1.1656 B(  0-C , 19-H ) :   0.9375 B(  0-C , 20-H ) :   0.9428
B(  0-C , 21-H ) :   0.9314 B(  1-C ,  2-O ) :   0.9082 B(  1-C , 22-H ) :   0.9139
B(  1-C , 23-H ) :   0.9326 B(  2-O ,  3-P ) :   1.0675 B(  3-P ,  4-S ) :   1.6485
B(  3-P ,  5-O ) :   1.1318 B(  3-P ,  8-S ) :   0.9555 B(  4-S ,  8-S ) :   0.1087
B(  5-O ,  6-C ) :   0.8858 B(  6-C ,  7-C ) :   1.1701 B(  6-C , 24-H ) :   0.9058
B(  6-C , 25-H ) :   0.9140 B(  7-C , 26-H ) :   0.9402 B(  7-C , 27-H ) :   0.9453
B(  7-C , 28-H ) :   0.9466 B(  8-S ,  9-C ) :   0.9852 B(  9-C , 10-S ) :   1.0140
B(  9-C , 29-H ) :   0.8465 B(  9-C , 30-H ) :   0.9121 B( 10-S , 11-P ) :   0.9426
B( 10-S , 12-S ) :   0.1182 B( 11-P , 12-S ) :   1.6033 B( 11-P , 13-O ) :   1.0721
B( 11-P , 16-O ) :   1.1569 B( 12-S , 29-H ) :   0.1260 B( 13-O , 14-C ) :   0.9133
B( 14-C , 15-C ) :   1.1672 B( 14-C , 31-H ) :   0.9324 B( 14-C , 32-H ) :   0.9221
B( 15-C , 33-H ) :   0.9354 B( 15-C , 34-H ) :   0.9345 B( 15-C , 35-H ) :   0.9436
B( 16-O , 17-C ) :   0.8874 B( 17-C , 18-C ) :   1.1583 B( 17-C , 36-H ) :   0.9201
B( 17-C , 37-H ) :   0.9237 B( 18-C , 38-H ) :   0.9408 B( 18-C , 39-H ) :   0.9430
B( 18-C , 40-H ) :   0.9469

Dispersion correction           -0.068432185
FINAL SINGLE POINT ENERGY     -2929.513343836149

DIPOLE MOMENT
-------------

Method             : SCF
Type of density    : Electron Density
Multiplicity       :   1
Irrep              :   0
Energy             : -2929.6324308703501629 Eh
Relativity type    :
Basis              : AO
                                X                 Y                 Z
Electronic contribution:      0.756999010      -1.742230882      -5.517936503
Nuclear contribution   :     -0.708675438       1.609896400       5.102544934
                        -----------------------------------------
Total Dipole Moment    :      0.048323572      -0.132334482      -0.415391569
                        -----------------------------------------
Magnitude (a.u.)       :      0.438631666
Magnitude (Debye)      :      1.114913092

Rotational constants in cm-1:             0.012482             0.005435             0.005282
Rotational constants in MHz :           374.210617           162.946049           158.363210

                             ****ORCA TERMINATED NORMALLY****
TOTAL RUN TIME: 0 days 0 hours 0 minutes 22 seconds 57 msec
