                         Program Version 6.0.0  -   RELEASE  -
|  1> ! wb97x-v def2-tzvp def2/J RIJCOSX DEFGRID2 scfconv7 GCP(DFT/TZ) printgap
|  2> %output
|  3>     printlevel normal
|  4> end
|  5> * xyz 0 1
|  6> C -0.7977089208987447 6.424904342717121e-06 0.6638518208311958
|  7> C 0.6067210222098433 6.265822158822792e-05 0.00392306698717726
|  8> Cl 0.507464461714704 5.767384359656629e-07 -1.7798606754065325
|  9> Cl 1.4967972822734743 -1.4547931267279457 0.5619565700367563
| 10> Cl 1.4966321582390143 1.4550612319221137 0.5618451487994862
| 11> Cl -1.720857104893548 1.4668035417235692 0.21005080334267107
| 12> Cl -1.7206983038772592 -1.4669256154008825 0.21015268941005205
| 13> H -0.6771758411272902 5.1180076687868364e-05 1.7499024798771596
| 14> *
| 15>
| 16>                          ****END OF INPUT****

CARTESIAN COORDINATES (ANGSTROEM)
---------------------------------
  C     -0.797709    0.000006    0.663852
  C      0.606721    0.000063    0.003923
  Cl     0.507464    0.000001   -1.779861
  Cl     1.496797   -1.454793    0.561957
  Cl     1.496632    1.455061    0.561845
  Cl    -1.720857    1.466804    0.210051
  Cl    -1.720698   -1.466926    0.210153
  H     -0.677176    0.000051    1.749902

 Total Charge           Charge          ....    0
 Multiplicity           Mult            ....    1
 Number of Electrons    NEL             ....   98
 Basis Dimension        Dim             ....  253

ORBITAL ENERGIES
----------------

  NO   OCC          E(Eh)            E(eV)
   0   2.0000    -107.177094     -2916.4370
   1   2.0000    -107.177081     -2916.4366
   2   2.0000    -107.174781     -2916.3741
   3   2.0000    -107.167993     -2916.1893
   4   2.0000    -107.167988     -2916.1892
   5   2.0000     -12.268750      -333.8496
   6   2.0000     -12.215878      -332.4110
   7   2.0000     -11.330590      -308.3210
   8   2.0000     -11.330407      -308.3160
   9   2.0000     -11.328066      -308.2524
  10   2.0000     -11.321409      -308.0712
  11   2.0000     -11.321190      -308.0653
  12   2.0000      -9.122841      -248.2451
  13   2.0000      -9.122015      -248.2227
  14   2.0000      -9.119794      -248.1622
  15   2.0000      -9.119473      -248.1535
  16   2.0000      -9.119176      -248.1454
  17   2.0000      -9.118430      -248.1251
  18   2.0000      -9.118131      -248.1170
  19   2.0000      -9.116377      -248.0692
  20   2.0000      -9.116355      -248.0686
  21   2.0000      -9.113448      -247.9895
  22   2.0000      -9.112358      -247.9599
  23   2.0000      -9.110076      -247.8978
  24   2.0000      -9.109902      -247.8930
  25   2.0000      -9.109604      -247.8849
  26   2.0000      -9.109223      -247.8746
  27   2.0000      -1.511086       -41.1188
  28   2.0000      -1.457780       -39.6682
  29   2.0000      -1.418798       -38.6074
  30   2.0000      -1.416537       -38.5459
  31   2.0000      -1.405016       -38.2324
  32   2.0000      -1.257507       -34.2185
  33   2.0000      -1.121962       -30.5301
  34   2.0000      -0.992083       -26.9959
  35   2.0000      -0.983021       -26.7494
  36   2.0000      -0.980109       -26.6701
  37   2.0000      -0.930691       -25.3254
  38   2.0000      -0.928356       -25.2618
  39   2.0000      -0.838019       -22.8037
  40   2.0000      -0.836110       -22.7517
  41   2.0000      -0.829323       -22.5670
  42   2.0000      -0.822555       -22.3829
  43   2.0000      -0.816844       -22.2275
  44   2.0000      -0.814866       -22.1736
  45   2.0000      -0.813317       -22.1315
  46   2.0000      -0.808463       -21.9994
  47   2.0000      -0.802672       -21.8418
  48   2.0000      -0.796932       -21.6856
  49   0.0000      -0.374795       -10.1987
  50   0.0000      -0.346004        -9.4152
  51   0.0000      -0.337968        -9.1966
  52   0.0000      -0.281644        -7.6639
  53   0.0000      -0.241255        -6.5649

MULLIKEN ATOMIC CHARGES
-----------------------
   0 C :   -0.044298
   1 C :    0.094740
   2 Cl:   -0.027552
   3 Cl:   -0.037117
   4 Cl:   -0.037116
   5 Cl:   -0.059963
   6 Cl:   -0.059966
   7 H :    0.171272
Sum of atomic charges:    0.0000000

LOEWDIN ATOMIC CHARGES
----------------------
   0 C :   -0.803051
   1 C :   -1.079577
   2 Cl:    0.366208
   3 Cl:    0.357482
   4 Cl:    0.357482
   5 Cl:    0.333909
   6 Cl:    0.333906
   7 H :    0.133641

  Mayer bond orders larger than 0.100000
B(  0-C ,  1-C ) :   0.9835 B(  0-C ,  5-Cl) :   1.1210 B(  0-C ,  6-Cl) :   1.1210
B(  0-C ,  7-H ) :   0.9449 B(  1-C ,  2-Cl) :   1.1548 B(  1-C ,  3-Cl) :   1.1348
B(  1-C ,  4-Cl) :   1.1348

FINAL SINGLE POINT ENERGY     -2377.527467216841

DIPOLE MOMENT
-------------

Method             : SCF
Type of density    : Electron Density
Multiplicity       :   1
Irrep              :   0
Energy             : -2377.5326805517406683 Eh
Relativity type    :
Basis              : AO
                                X                 Y                 Z
Electronic contribution:      0.800587759      -0.000006962      -1.616554548
Nuclear contribution   :     -0.739862537       0.000024714       1.998885338
                        -----------------------------------------
Total Dipole Moment    :      0.060725223       0.000017752       0.382330790
                        -----------------------------------------
Magnitude (a.u.)       :      0.387123218
Magnitude (Debye)      :      0.983989021

Rotational constants in cm-1:             0.037567             0.031413             0.024317
Rotational constants in MHz :          1126.229260           941.729524           729.011190

                             ****ORCA TERMINATED NORMALLY****
TOTAL RUN TIME: 0 days 0 hours 1 minutes 34 seconds 412 msec
