                         Program Version 6.0.0  -   RELEASE  -
|  1> ! wb97x-v def2-tzvp def2/J RIJCOSX DEFGRID2 scfconv7 GCP(DFT/TZ) printgap
|  2> %output
|  3>     printlevel normal
|  4> end
|  5> %cpcm
|  6>     smd true
|  7>     smdsolvent "water"
|  8> end
|  9> * xyz 0 1
| 10> C -0.7977089208987447 6.424904342717121e-06 0.6638518208311958
| 11> C 0.6067210222098433 6.265822158822792e-05 0.00392306698717726
| 12> Cl 0.507464461714704 5.767384359656629e-07 -1.7798606754065325
| 13> Cl 1.4967972822734743 -1.4547931267279457 0.5619565700367563
| 14> Cl 1.4966321582390143 1.4550612319221137 0.5618451487994862
| 15> Cl -1.720857104893548 1.4668035417235692 0.21005080334267107
| 16> Cl -1.7206983038772592 -1.4669256154008825 0.21015268941005205
| 17> H -0.6771758411272902 5.1180076687868364e-05 1.7499024798771596
| 18> *
| 19>
| 20>                          ****END OF INPUT****

CARTESIAN COORDINATES (ANGSTROEM)
---------------------------------
  C     -0.797709    0.000006    0.663852
  C      0.606721    0.000063    0.003923
  Cl     0.507464    0.000001   -1.779861
  Cl     1.496797   -1.454793    0.561957
  Cl     1.496632    1.455061    0.561845
  Cl    -1.720857    1.466804    0.210051
  Cl    -1.720698   -1.466926    0.210153
  H     -0.677176    0.000051    1.749902

 Total Charge           Charge          ....    0
 Multiplicity           Mult            ....    1
 Number of Electrons    NEL             ....   98
 Basis Dimension        Dim             ....  253

ORBITAL ENERGIES
----------------

  NO   OCC          E(Eh)            E(eV)
   0   2.0000    -107.175541     -2916.3947
   1   2.0000    -107.175528     -2916.3944
   2   2.0000    -107.175292     -2916.3880
   3   2.0000    -107.165932     -2916.1333
   4   2.0000    -107.165928     -2916.1332
   5   2.0000     -12.266615      -333.7916
   6   2.0000     -12.208192      -332.2018
   7   2.0000     -11.329020      -308.2783
   8   2.0000     -11.328897      -308.2750
   9   2.0000     -11.328553      -308.2656
  10   2.0000     -11.319377      -308.0159
  11   2.0000     -11.319159      -308.0100
  12   2.0000      -9.121304      -248.2033
  13   2.0000      -9.121152      -248.1992
  14   2.0000      -9.119314      -248.1491
  15   2.0000      -9.118146      -248.1174
  16   2.0000      -9.117613      -248.1029
  17   2.0000      -9.117414      -248.0975
  18   2.0000      -9.116733      -248.0789
  19   2.0000      -9.116621      -248.0759
  20   2.0000      -9.116517      -248.0730
  21   2.0000      -9.111413      -247.9341
  22   2.0000      -9.110312      -247.9042
  23   2.0000      -9.108093      -247.8438
  24   2.0000      -9.107900      -247.8386
  25   2.0000      -9.107605      -247.8305
  26   2.0000      -9.107236      -247.8205
  27   2.0000      -1.509175       -41.0667
  28   2.0000      -1.455238       -39.5990
  29   2.0000      -1.417052       -38.5600
  30   2.0000      -1.416418       -38.5427
  31   2.0000      -1.402982       -38.1771
  32   2.0000      -1.253638       -34.1132
  33   2.0000      -1.118103       -30.4251
  34   2.0000      -0.988074       -26.8869
  35   2.0000      -0.980780       -26.6884
  36   2.0000      -0.977320       -26.5942
  37   2.0000      -0.925914       -25.1954
  38   2.0000      -0.925703       -25.1897
  39   2.0000      -0.837086       -22.7783
  40   2.0000      -0.835412       -22.7327
  41   2.0000      -0.827757       -22.5244
  42   2.0000      -0.821141       -22.3444
  43   2.0000      -0.815661       -22.1953
  44   2.0000      -0.814218       -22.1560
  45   2.0000      -0.811796       -22.0901
  46   2.0000      -0.808077       -21.9889
  47   2.0000      -0.801246       -21.8030
  48   2.0000      -0.793917       -21.6036
  49   0.0000      -0.373256       -10.1568
  50   0.0000      -0.343081        -9.3357
  51   0.0000      -0.335011        -9.1161
  52   0.0000      -0.278875        -7.5886
  53   0.0000      -0.237136        -6.4528

MULLIKEN ATOMIC CHARGES
-----------------------
   0 C :   -0.051266
   1 C :    0.090571
   2 Cl:   -0.037126
   3 Cl:   -0.039845
   4 Cl:   -0.039844
   5 Cl:   -0.077957
   6 Cl:   -0.077960
   7 H :    0.233428
Sum of atomic charges:    0.0000000

LOEWDIN ATOMIC CHARGES
----------------------
   0 C :   -0.792683
   1 C :   -1.078932
   2 Cl:    0.358414
   3 Cl:    0.356692
   4 Cl:    0.356692
   5 Cl:    0.323991
   6 Cl:    0.323987
   7 H :    0.151838

  Mayer bond orders larger than 0.100000
B(  0-C ,  1-C ) :   0.9843 B(  0-C ,  5-Cl) :   1.0995 B(  0-C ,  6-Cl) :   1.0995
B(  0-C ,  7-H ) :   0.9257 B(  1-C ,  2-Cl) :   1.1474 B(  1-C ,  3-Cl) :   1.1373
B(  1-C ,  4-Cl) :   1.1373

FINAL SINGLE POINT ENERGY     -2377.529110400734

DIPOLE MOMENT
-------------

Method             : SCF
Type of density    : Electron Density
Multiplicity       :   1
Irrep              :   0
Energy             : -2377.5343237356337340 Eh
Relativity type    :
Basis              : AO
                                X                 Y                 Z
Electronic contribution:      0.823876237       0.000003372      -1.380751833
Nuclear contribution   :     -0.739862537       0.000024714       1.998885338
                        -----------------------------------------
Total Dipole Moment    :      0.084013700       0.000028086       0.618133505
                        -----------------------------------------
Magnitude (a.u.)       :      0.623816746
Magnitude (Debye)      :      1.585616157

Rotational constants in cm-1:             0.037567             0.031413             0.024317
Rotational constants in MHz :          1126.229260           941.729524           729.011190

                             ****ORCA TERMINATED NORMALLY****
TOTAL RUN TIME: 0 days 0 hours 1 minutes 37 seconds 701 msec
