                         Program Version 6.0.0  -   RELEASE  -
|  1> ! pbe def2-sv(p) def2/J RI DEFGRID1 loosescf d4 GCP(DFT/SV(P)) printgap
|  2> %output
|  3>     printlevel normal
|  4> end
|  5> * xyz 0 1
|  6> C 3.0914827876 -2.2100911309 2.4247670949
|  7> C 1.7627131649 -2.118800435 1.7048689934
|  8> O 1.4862523337 -0.7739202018 1.2607478613
|  9> P 2.3232238924 -0.0770138368 0.1084321154
| 10> S 2.9928322261 -1.2603180269 -1.3102218539
| 11> O 3.4402404057 0.68832414 0.937995502
| 12> C 4.6261622549 1.2219218058 0.3246678753
| 13> C 4.3183842972 2.379738266 -0.6028696659
| 14> S 0.953893449 1.4309098356 -0.4539322539
| 15> C 0.0790801281 0.4442416459 -1.6995517327
| 16> S -0.8744945768 -0.9151485811 -0.9877068446
| 17> P -2.6281316803 0.19039561 -0.4265582502
| 18> S -2.8195585598 1.9628845683 -1.2261815253
| 19> O -2.6821699425 0.0633583395 1.1615437333
| 20> C -1.6841457021 0.5422780156 2.0780271513
| 21> C -1.6590876333 2.0544228726 2.1727566891
| 22> O -3.8260748653 -0.7304942424 -0.8591023768
| 23> C -3.952316056 -2.1256562807 -0.4846611386
| 24> C -4.8668682617 -2.2803455072 0.7131012837
| 25> H 3.1340877876 -1.4796822225 3.2284169383
| 26> H 3.2119269641 -3.2082475916 2.8339750509
| 27> H 3.9047610512 -2.0137144413 1.7271469745
| 28> H 0.9268023207 -2.3544098046 2.3647019281
| 29> H 1.7445857206 -2.7801745806 0.8327159734
| 30> H 5.2405451582 1.5348444003 1.1698340195
| 31> H 5.1255410082 0.4155399716 -0.2222381034
| 32> H 3.7557252418 2.02665968 -1.4664331598
| 33> H 3.7282746595 3.1326014074 -0.0862353465
| 34> H 5.2475815899 2.8223890871 -0.9472168829
| 35> H 0.803648948 -0.0056971492 -2.3775440594
| 36> H -0.5938763551 1.1264622583 -2.2201431994
| 37> H -1.973625434 0.0934405186 3.0303946436
| 38> H -0.7059937892 0.1557730398 1.7757291582
| 39> H -1.3326785549 2.4923105677 1.2312910835
| 40> H -2.6511833655 2.4326949986 2.4054755512
| 41> H -0.9667955404 2.3505191064 2.9543738495
| 42> H -4.3718148962 -2.6070209994 -1.3698559245
| 43> H -2.9564873664 -2.5308775505 -0.2845927643
| 44> H -5.8361985041 -1.8394757469 0.49757136
| 45> H -4.9930242296 -3.3366625923 0.9291080748
| 46> H -4.4423839287 -1.7826498686 1.5805164008
| 47> *
| 48>
| 49>                          ****END OF INPUT****

CARTESIAN COORDINATES (ANGSTROEM)
---------------------------------
  C      3.091483   -2.210091    2.424767
  C      1.762713   -2.118800    1.704869
  O      1.486252   -0.773920    1.260748
  P      2.323224   -0.077014    0.108432
  S      2.992832   -1.260318   -1.310222
  O      3.440240    0.688324    0.937996
  C      4.626162    1.221922    0.324668
  C      4.318384    2.379738   -0.602870
  S      0.953893    1.430910   -0.453932
  C      0.079080    0.444242   -1.699552
  S     -0.874495   -0.915149   -0.987707
  P     -2.628132    0.190396   -0.426558
  S     -2.819559    1.962885   -1.226182
  O     -2.682170    0.063358    1.161544
  C     -1.684146    0.542278    2.078027
  C     -1.659088    2.054423    2.172757
  O     -3.826075   -0.730494   -0.859102
  C     -3.952316   -2.125656   -0.484661
  C     -4.866868   -2.280346    0.713101
  H      3.134088   -1.479682    3.228417
  H      3.211927   -3.208248    2.833975
  H      3.904761   -2.013714    1.727147
  H      0.926802   -2.354410    2.364702
  H      1.744586   -2.780175    0.832716
  H      5.240545    1.534844    1.169834
  H      5.125541    0.415540   -0.222238
  H      3.755725    2.026660   -1.466433
  H      3.728275    3.132601   -0.086235
  H      5.247582    2.822389   -0.947217
  H      0.803649   -0.005697   -2.377544
  H     -0.593876    1.126462   -2.220143
  H     -1.973625    0.093441    3.030395
  H     -0.705994    0.155773    1.775729
  H     -1.332679    2.492311    1.231291
  H     -2.651183    2.432695    2.405476
  H     -0.966796    2.350519    2.954374
  H     -4.371815   -2.607021   -1.369856
  H     -2.956487   -2.530878   -0.284593
  H     -5.836199   -1.839476    0.497571
  H     -4.993024   -3.336663    0.929108
  H     -4.442384   -1.782650    1.580516

 Total Charge           Charge          ....    0
 Multiplicity           Mult            ....    1
 Number of Electrons    NEL             ....  202
 Basis Dimension        Dim             ....  334

ORBITAL ENERGIES
----------------

  NO   OCC          E(Eh)            E(eV)
   0   2.0000     -88.046072     -2395.8554
   1   2.0000     -88.040384     -2395.7006
   2   2.0000     -87.995836     -2394.4884
   3   2.0000     -87.985099     -2394.1963
   4   2.0000     -76.432119     -2079.8237
   5   2.0000     -76.425380     -2079.6403
   6   2.0000     -18.799633      -511.5640
   7   2.0000     -18.796655      -511.4830
   8   2.0000     -18.791596      -511.3453
   9   2.0000     -18.790589      -511.3179
  10   2.0000      -9.959899      -271.0226
  11   2.0000      -9.957841      -270.9666
  12   2.0000      -9.956744      -270.9368
  13   2.0000      -9.952576      -270.8234
  14   2.0000      -9.947632      -270.6888
  15   2.0000      -9.889191      -269.0986
  16   2.0000      -9.888088      -269.0686
  17   2.0000      -9.887757      -269.0595
  18   2.0000      -9.874073      -268.6872
  19   2.0000      -7.690952      -209.2814
  20   2.0000      -7.685133      -209.1231
  21   2.0000      -7.640666      -207.9131
  22   2.0000      -7.630345      -207.6322
  23   2.0000      -6.429787      -174.9634
  24   2.0000      -6.422777      -174.7727
  25   2.0000      -5.718727      -155.6145
  26   2.0000      -5.715613      -155.5297
  27   2.0000      -5.712980      -155.4581
  28   2.0000      -5.709692      -155.3686
  29   2.0000      -5.707875      -155.3192
  30   2.0000      -5.702162      -155.1637
  31   2.0000      -5.669433      -154.2731
  32   2.0000      -5.661344      -154.0530
  33   2.0000      -5.660973      -154.0429
  34   2.0000      -5.659387      -153.9997
  35   2.0000      -5.650933      -153.7697
  36   2.0000      -5.650349      -153.7538
  37   2.0000      -4.652187      -126.5925
  38   2.0000      -4.651534      -126.5747
  39   2.0000      -4.650386      -126.5434
  40   2.0000      -4.645499      -126.4105
  41   2.0000      -4.644657      -126.3875
  42   2.0000      -4.643025      -126.3431
  43   2.0000      -0.993534       -27.0354
  44   2.0000      -0.987062       -26.8593
  45   2.0000      -0.952721       -25.9248
  46   2.0000      -0.943144       -25.6642
  47   2.0000      -0.764844       -20.8125
  48   2.0000      -0.723686       -19.6925
  49   2.0000      -0.712196       -19.3798
  50   2.0000      -0.692188       -18.8354
  51   2.0000      -0.687023       -18.6949
  52   2.0000      -0.676348       -18.4044
  53   2.0000      -0.652985       -17.7686
  54   2.0000      -0.641439       -17.4544
  55   2.0000      -0.606450       -16.5023
  56   2.0000      -0.587204       -15.9786
  57   2.0000      -0.577877       -15.7248
  58   2.0000      -0.574695       -15.6382
  59   2.0000      -0.564293       -15.3552
  60   2.0000      -0.504969       -13.7409
  61   2.0000      -0.495676       -13.4880
  62   2.0000      -0.478780       -13.0283
  63   2.0000      -0.473798       -12.8927
  64   2.0000      -0.459963       -12.5162
  65   2.0000      -0.447280       -12.1711
  66   2.0000      -0.445169       -12.1137
  67   2.0000      -0.439652       -11.9635
  68   2.0000      -0.426695       -11.6110
  69   2.0000      -0.420174       -11.4335
  70   2.0000      -0.405366       -11.0306
  71   2.0000      -0.401726       -10.9315
  72   2.0000      -0.397512       -10.8169
  73   2.0000      -0.391281       -10.6473
  74   2.0000      -0.384839       -10.4720
  75   2.0000      -0.377126       -10.2621
  76   2.0000      -0.365956        -9.9582
  77   2.0000      -0.359183        -9.7739
  78   2.0000      -0.356480        -9.7003
  79   2.0000      -0.353588        -9.6216
  80   2.0000      -0.352883        -9.6024
  81   2.0000      -0.345734        -9.4079
  82   2.0000      -0.340352        -9.2614
  83   2.0000      -0.340090        -9.2543
  84   2.0000      -0.332641        -9.0516
  85   2.0000      -0.323948        -8.8151
  86   2.0000      -0.316257        -8.6058
  87   2.0000      -0.301231        -8.1969
  88   2.0000      -0.295061        -8.0290
  89   2.0000      -0.288679        -7.8554
  90   2.0000      -0.286704        -7.8016
  91   2.0000      -0.279659        -7.6099
  92   2.0000      -0.276035        -7.5113
  93   2.0000      -0.269426        -7.3315
  94   2.0000      -0.258475        -7.0335
  95   2.0000      -0.236704        -6.4411
  96   2.0000      -0.219229        -5.9655
  97   2.0000      -0.216102        -5.8804
  98   2.0000      -0.208761        -5.6807
  99   2.0000      -0.204070        -5.5530
 100   2.0000      -0.198746        -5.4082
 101   0.0000      -0.047506        -1.2927
 102   0.0000      -0.029460        -0.8016
 103   0.0000      -0.006685        -0.1819
 104   0.0000       0.000292         0.0079
 105   0.0000       0.009240         0.2514

MULLIKEN ATOMIC CHARGES
-----------------------
   0 C :   -0.307902
   1 C :    0.000495
   2 O :   -0.356678
   3 P :    0.612292
   4 S :   -0.332651
   5 O :   -0.370294
   6 C :   -0.006003
   7 C :   -0.317081
   8 S :   -0.074209
   9 C :   -0.353657
  10 S :   -0.118077
  11 P :    0.605681
  12 S :   -0.306338
  13 O :   -0.378470
  14 C :   -0.045340
  15 C :   -0.303575
  16 O :   -0.354914
  17 C :   -0.017032
  18 C :   -0.288172
  19 H :    0.117491
  20 H :    0.113825
  21 H :    0.123428
  22 H :    0.102381
  23 H :    0.114037
  24 H :    0.107471
  25 H :    0.112287
  26 H :    0.128454
  27 H :    0.120900
  28 H :    0.115520
  29 H :    0.193309
  30 H :    0.195648
  31 H :    0.097049
  32 H :    0.141669
  33 H :    0.134245
  34 H :    0.113345
  35 H :    0.104224
  36 H :    0.114714
  37 H :    0.107071
  38 H :    0.122349
  39 H :    0.109001
  40 H :    0.123508
Sum of atomic charges:   -0.0000000

LOEWDIN ATOMIC CHARGES
----------------------
   0 C :   -0.364701
   1 C :   -0.116580
   2 O :   -0.236650
   3 P :    0.573761
   4 S :   -0.320240
   5 O :   -0.242175
   6 C :   -0.118864
   7 C :   -0.369394
   8 S :    0.105165
   9 C :   -0.485419
  10 S :    0.061132
  11 P :    0.568147
  12 S :   -0.295091
  13 O :   -0.246175
  14 C :   -0.126281
  15 C :   -0.367712
  16 O :   -0.235204
  17 C :   -0.111134
  18 C :   -0.358644
  19 H :    0.126809
  20 H :    0.131213
  21 H :    0.122909
  22 H :    0.117109
  23 H :    0.111811
  24 H :    0.119791
  25 H :    0.111122
  26 H :    0.121915
  27 H :    0.125731
  28 H :    0.132399
  29 H :    0.129681
  30 H :    0.128827
  31 H :    0.114954
  32 H :    0.107234
  33 H :    0.116636
  34 H :    0.125315
  35 H :    0.127895
  36 H :    0.123559
  37 H :    0.104417
  38 H :    0.130459
  39 H :    0.129003
  40 H :    0.127272

  Mayer bond orders larger than 0.100000
B(  0-C ,  1-C ) :   1.1643 B(  0-C , 19-H ) :   0.9457 B(  0-C , 20-H ) :   0.9390
B(  0-C , 21-H ) :   0.9368 B(  1-C ,  2-O ) :   0.9013 B(  1-C , 22-H ) :   0.9340
B(  1-C , 23-H ) :   0.9176 B(  2-O ,  3-P ) :   1.1161 B(  3-P ,  4-S ) :   1.5895
B(  3-P ,  5-O ) :   1.1129 B(  3-P ,  8-S ) :   0.9641 B(  4-S ,  8-S ) :   0.1088
B(  5-O ,  6-C ) :   0.9056 B(  6-C ,  7-C ) :   1.1663 B(  6-C , 24-H ) :   0.9336
B(  6-C , 25-H ) :   0.9167 B(  7-C , 26-H ) :   0.9354 B(  7-C , 27-H ) :   0.9443
B(  7-C , 28-H ) :   0.9374 B(  8-S ,  9-C ) :   0.9994 B(  9-C , 10-S ) :   1.0165
B(  9-C , 29-H ) :   0.8767 B(  9-C , 30-H ) :   0.8644 B( 10-S , 11-P ) :   0.9347
B( 10-S , 12-S ) :   0.1130 B( 11-P , 12-S ) :   1.6522 B( 11-P , 13-O ) :   1.0801
B( 11-P , 16-O ) :   1.1454 B( 13-O , 14-C ) :   0.9087 B( 14-C , 15-C ) :   1.1667
B( 14-C , 31-H ) :   0.9342 B( 14-C , 32-H ) :   0.8964 B( 15-C , 33-H ) :   0.9284
B( 15-C , 34-H ) :   0.9454 B( 15-C , 35-H ) :   0.9380 B( 16-O , 17-C ) :   0.8936
B( 17-C , 18-C ) :   1.1647 B( 17-C , 36-H ) :   0.9358 B( 17-C , 37-H ) :   0.9162
B( 18-C , 38-H ) :   0.9466 B( 18-C , 39-H ) :   0.9395 B( 18-C , 40-H ) :   0.9417

Dispersion correction           -0.065386085
FINAL SINGLE POINT ENERGY     -2929.524017523111

DIPOLE MOMENT
-------------

Method             : SCF
Type of density    : Electron Density
Multiplicity       :   1
Irrep              :   0
Energy             : -2929.6442010297710112 Eh
Relativity type    :
Basis              : AO
                                X                 Y                 Z
Electronic contribution:     -5.129337964       4.269728525     -15.544189628
Nuclear contribution   :      5.870181798      -5.171986739      16.936063299
                        -----------------------------------------
Total Dipole Moment    :      0.740843834      -0.902258213       1.391873671
                        -----------------------------------------
Magnitude (a.u.)       :      1.816654008
Magnitude (Debye)      :      4.617567524

Rotational constants in cm-1:             0.012779             0.004792             0.004416
Rotational constants in MHz :           383.099853           143.668985           132.380182

                             ****ORCA TERMINATED NORMALLY****
TOTAL RUN TIME: 0 days 0 hours 0 minutes 21 seconds 193 msec
