                         Program Version 6.0.1  -  RELEASE   -
|  1> ! pbe def2-sv(p) def2/J RI DEFGRID1 loosescf d4 GCP(DFT/SV(P)) printgap
|  2> %output
|  3>     printlevel normal
|  4> end
|  5> * xyz 0 1
|  6> C 3.443865063 -3.1024130791 0.4246469429
|  7> C 2.9142815324 -1.7706428936 0.9306161758
|  8> O 2.7132868849 -0.8466149103 -0.1568112865
|  9> C 1.609036705 -0.9294993537 -0.8673739441
| 10> O 0.7082320231 -1.7191311486 -0.6577901793
| 11> C 1.5730227737 0.1039624057 -1.9735850506
| 12> C 0.3401926074 0.9995958058 -1.8233117949
| 13> H 0.2958691289 1.7035144511 -2.6587174512
| 14> C 0.3481809665 1.7770916437 -0.5225249853
| 15> O -0.6304617233 1.8310595247 0.2034195901
| 16> O 1.4890273697 2.3435025906 -0.2716109471
| 17> C 1.6424533463 3.0507785357 0.9812079281
| 18> C 3.1174913469 3.3436271628 1.1638887154
| 19> S -1.23653259 0.0778554279 -1.8978199791
| 20> P -1.6331176169 -0.4186571664 0.1251780038
| 21> S -0.5469049017 -0.5574260459 1.7706586027
| 22> O -3.0287142818 0.31727419 0.432281186
| 23> C -3.2125139357 1.436193156 1.2952278563
| 24> O -2.2196521531 -1.8399302943 -0.3235388417
| 25> C -2.7596563019 -2.7699666057 0.6158494883
| 26> H 3.6523167697 -3.7473143488 1.2717584273
| 27> H 2.7019586555 -3.5834225225 -0.2090612778
| 28> H 4.3558088883 -2.9499093574 -0.1460381346
| 29> H 3.6380392223 -1.2727923089 1.5755283335
| 30> H 1.9663448756 -1.8986372543 1.4619410573
| 31> H 1.503852237 -0.4187658313 -2.9280066577
| 32> H 2.4789853503 0.7074024276 -1.9311890173
| 33> H 1.0473986976 3.9665800779 0.9279649349
| 34> H 1.2433285221 2.41966347 1.7815857643
| 35> H 3.6807914899 2.4157279883 1.1933737503
| 36> H 3.4807746619 3.9520637811 0.3416647351
| 37> H 3.2609979846 3.8774221031 2.0971590436
| 38> H -4.2342305693 1.364150034 1.6610033956
| 39> H -3.0623012854 2.3585818035 0.7374561529
| 40> H -2.5030683201 1.3902652089 2.123479499
| 41> H -2.8107179777 -3.7210829678 0.0918836161
| 42> H -3.7523514615 -2.4472904483 0.9306830427
| 43> H -2.1037342798 -2.8504893307 1.4857820664
| 44> *
| 45>
| 46>                          ****END OF INPUT****

CARTESIAN COORDINATES (ANGSTROEM)
---------------------------------
  C      3.443865   -3.102413    0.424647
  C      2.914282   -1.770643    0.930616
  O      2.713287   -0.846615   -0.156811
  C      1.609037   -0.929499   -0.867374
  O      0.708232   -1.719131   -0.657790
  C      1.573023    0.103962   -1.973585
  C      0.340193    0.999596   -1.823312
  H      0.295869    1.703514   -2.658717
  C      0.348181    1.777092   -0.522525
  O     -0.630462    1.831060    0.203420
  O      1.489027    2.343503   -0.271611
  C      1.642453    3.050779    0.981208
  C      3.117491    3.343627    1.163889
  S     -1.236533    0.077855   -1.897820
  P     -1.633118   -0.418657    0.125178
  S     -0.546905   -0.557426    1.770659
  O     -3.028714    0.317274    0.432281
  C     -3.212514    1.436193    1.295228
  O     -2.219652   -1.839930   -0.323539
  C     -2.759656   -2.769967    0.615849
  H      3.652317   -3.747314    1.271758
  H      2.701959   -3.583423   -0.209061
  H      4.355809   -2.949909   -0.146038
  H      3.638039   -1.272792    1.575528
  H      1.966345   -1.898637    1.461941
  H      1.503852   -0.418766   -2.928007
  H      2.478985    0.707402   -1.931189
  H      1.047399    3.966580    0.927965
  H      1.243329    2.419663    1.781586
  H      3.680791    2.415728    1.193374
  H      3.480775    3.952064    0.341665
  H      3.260998    3.877422    2.097159
  H     -4.234231    1.364150    1.661003
  H     -3.062301    2.358582    0.737456
  H     -2.503068    1.390265    2.123479
  H     -2.810718   -3.721083    0.091884
  H     -3.752351   -2.447290    0.930683
  H     -2.103734   -2.850489    1.485782

 Total Charge           Charge          ....    0
 Multiplicity           Mult            ....    1
 Number of Electrons    NEL             ....  174
 Basis Dimension        Dim             ....  316

ORBITAL ENERGIES
----------------

  NO   OCC          E(Eh)            E(eV)
   0   2.0000     -88.023863     -2395.2511
   1   2.0000     -87.963229     -2393.6011
   2   2.0000     -76.410852     -2079.2450
   3   2.0000     -18.826512      -512.2954
   4   2.0000     -18.801503      -511.6149
   5   2.0000     -18.764248      -510.6012
   6   2.0000     -18.763890      -510.5914
   7   2.0000     -18.760160      -510.4899
   8   2.0000     -18.732802      -509.7455
   9   2.0000     -10.031378      -272.9677
  10   2.0000     -10.007034      -272.3053
  11   2.0000      -9.960758      -271.0460
  12   2.0000      -9.954682      -270.8807
  13   2.0000      -9.940117      -270.4843
  14   2.0000      -9.920843      -269.9599
  15   2.0000      -9.920597      -269.9532
  16   2.0000      -9.913240      -269.7530
  17   2.0000      -9.898175      -269.3430
  18   2.0000      -9.882267      -268.9102
  19   2.0000      -7.669243      -208.6907
  20   2.0000      -7.608111      -207.0272
  21   2.0000      -6.405593      -174.3050
  22   2.0000      -5.697763      -155.0440
  23   2.0000      -5.694228      -154.9478
  24   2.0000      -5.684957      -154.6955
  25   2.0000      -5.637370      -153.4006
  26   2.0000      -5.628789      -153.1671
  27   2.0000      -5.627803      -153.1403
  28   2.0000      -4.628310      -125.9427
  29   2.0000      -4.627822      -125.9294
  30   2.0000      -4.626120      -125.8831
  31   2.0000      -1.037746       -28.2385
  32   2.0000      -1.007389       -27.4124
  33   2.0000      -0.957005       -26.0414
  34   2.0000      -0.940701       -25.5978
  35   2.0000      -0.913076       -24.8461
  36   2.0000      -0.910600       -24.7787
  37   2.0000      -0.766369       -20.8540
  38   2.0000      -0.719746       -19.5853
  39   2.0000      -0.705831       -19.2066
  40   2.0000      -0.681429       -18.5426
  41   2.0000      -0.646487       -17.5918
  42   2.0000      -0.621393       -16.9090
  43   2.0000      -0.609973       -16.5982
  44   2.0000      -0.607512       -16.5312
  45   2.0000      -0.592896       -16.1335
  46   2.0000      -0.563811       -15.3421
  47   2.0000      -0.523926       -14.2568
  48   2.0000      -0.499664       -13.5966
  49   2.0000      -0.493660       -13.4332
  50   2.0000      -0.482079       -13.1180
  51   2.0000      -0.464374       -12.6362
  52   2.0000      -0.456935       -12.4338
  53   2.0000      -0.450325       -12.2540
  54   2.0000      -0.435881       -11.8609
  55   2.0000      -0.432762       -11.7760
  56   2.0000      -0.423142       -11.5143
  57   2.0000      -0.405687       -11.0393
  58   2.0000      -0.404111       -10.9964
  59   2.0000      -0.397813       -10.8250
  60   2.0000      -0.388936       -10.5835
  61   2.0000      -0.384280       -10.4568
  62   2.0000      -0.382979       -10.4214
  63   2.0000      -0.380531       -10.3548
  64   2.0000      -0.374302       -10.1853
  65   2.0000      -0.369975       -10.0675
  66   2.0000      -0.367954       -10.0125
  67   2.0000      -0.358481        -9.7548
  68   2.0000      -0.352548        -9.5933
  69   2.0000      -0.336390        -9.1536
  70   2.0000      -0.335498        -9.1294
  71   2.0000      -0.327564        -8.9135
  72   2.0000      -0.321149        -8.7389
  73   2.0000      -0.317075        -8.6280
  74   2.0000      -0.295897        -8.0518
  75   2.0000      -0.289838        -7.8869
  76   2.0000      -0.282961        -7.6998
  77   2.0000      -0.280879        -7.6431
  78   2.0000      -0.266657        -7.2561
  79   2.0000      -0.256989        -6.9930
  80   2.0000      -0.252405        -6.8683
  81   2.0000      -0.246592        -6.7101
  82   2.0000      -0.239988        -6.5304
  83   2.0000      -0.222695        -6.0598
  84   2.0000      -0.191402        -5.2083
  85   2.0000      -0.179579        -4.8866
  86   2.0000      -0.172132        -4.6840
  87   0.0000      -0.050650        -1.3782
  88   0.0000      -0.043092        -1.1726
  89   0.0000      -0.027046        -0.7360
  90   0.0000       0.011847         0.3224
  91   0.0000       0.027815         0.7569

MULLIKEN ATOMIC CHARGES
-----------------------
   0 C :   -0.307834
   1 C :   -0.026039
   2 O :   -0.227208
   3 C :    0.088324
   4 O :   -0.188638
   5 C :   -0.013550
   6 C :   -0.334791
   7 H :    0.155005
   8 C :    0.221073
   9 O :   -0.197193
  10 O :   -0.214250
  11 C :   -0.035498
  12 C :   -0.278921
  13 S :   -0.052645
  14 P :    0.658734
  15 S :   -0.359788
  16 O :   -0.392944
  17 C :   -0.082869
  18 O :   -0.385186
  19 C :   -0.090703
  20 H :    0.112538
  21 H :    0.129943
  22 H :    0.107624
  23 H :    0.095322
  24 H :    0.133518
  25 H :    0.124086
  26 H :    0.110940
  27 H :    0.109400
  28 H :    0.130515
  29 H :    0.124280
  30 H :    0.116042
  31 H :    0.116875
  32 H :    0.109034
  33 H :    0.105259
  34 H :    0.108157
  35 H :    0.116212
  36 H :    0.103657
  37 H :    0.111519
Sum of atomic charges:   -0.0000000

LOEWDIN ATOMIC CHARGES
----------------------
   0 C :   -0.357225
   1 C :   -0.115804
   2 O :   -0.052733
   3 C :    0.020538
   4 O :   -0.162390
   5 C :   -0.249701
   6 C :   -0.263342
   7 H :    0.152135
   8 C :    0.019144
   9 O :   -0.149459
  10 O :   -0.033343
  11 C :   -0.103315
  12 C :   -0.350427
  13 S :    0.128754
  14 P :    0.604625
  15 S :   -0.333136
  16 O :   -0.262502
  17 C :   -0.215109
  18 O :   -0.258365
  19 C :   -0.214535
  20 H :    0.130818
  21 H :    0.131349
  22 H :    0.121457
  23 H :    0.114668
  24 H :    0.121085
  25 H :    0.147086
  26 H :    0.136396
  27 H :    0.119355
  28 H :    0.127131
  29 H :    0.130514
  30 H :    0.127118
  31 H :    0.134024
  32 H :    0.112587
  33 H :    0.107491
  34 H :    0.103539
  35 H :    0.117849
  36 H :    0.107497
  37 H :    0.106226

  Mayer bond orders larger than 0.100000
B(  0-C ,  1-C ) :   1.1682 B(  0-C , 20-H ) :   0.9446 B(  0-C , 21-H ) :   0.9452
B(  0-C , 22-H ) :   0.9481 B(  1-C ,  2-O ) :   0.9097 B(  1-C , 23-H ) :   0.9383
B(  1-C , 24-H ) :   0.9032 B(  2-O ,  3-C ) :   1.2430 B(  3-C ,  4-O ) :   1.9884
B(  3-C ,  5-C ) :   0.9985 B(  5-C ,  6-C ) :   1.0111 B(  5-C , 25-H ) :   0.8883
B(  5-C , 26-H ) :   0.8853 B(  6-C ,  7-H ) :   0.8733 B(  6-C ,  8-C ) :   0.9076
B(  6-C , 13-S ) :   1.0665 B(  8-C ,  9-O ) :   1.9136 B(  8-C , 10-O ) :   1.2875
B(  9-O , 14-P ) :   0.1258 B( 10-O , 11-C ) :   0.8821 B( 11-C , 12-C ) :   1.1573
B( 11-C , 27-H ) :   0.9335 B( 11-C , 28-H ) :   0.9211 B( 12-C , 29-H ) :   0.9489
B( 12-C , 30-H ) :   0.9489 B( 12-C , 31-H ) :   0.9421 B( 13-S , 14-P ) :   0.9123
B( 13-S , 15-S ) :   0.1162 B( 14-P , 15-S ) :   1.4944 B( 14-P , 16-O ) :   1.0813
B( 14-P , 18-O ) :   1.0872 B( 16-O , 17-C ) :   0.9431 B( 17-C , 32-H ) :   0.9566
B( 17-C , 33-H ) :   0.9520 B( 17-C , 34-H ) :   0.9301 B( 18-O , 19-C ) :   0.9437
B( 19-C , 35-H ) :   0.9603 B( 19-C , 36-H ) :   0.9516 B( 19-C , 37-H ) :   0.9308

Dispersion correction           -0.054948381
FINAL SINGLE POINT ENERGY     -1978.995302755292

DIPOLE MOMENT
-------------

Method             : SCF
Type of density    : Electron Density
Multiplicity       :   1
Irrep              :   0
Energy             : -1979.1241147109722078 Eh
Relativity type    :
Basis              : AO
                                X                 Y                 Z
Electronic contribution:    -14.107453550      -0.509341404      -9.048387559
Nuclear contribution   :     15.419010328       1.576644405       9.082190021
                        -----------------------------------------
Total Dipole Moment    :      1.311556778       1.067303002       0.033802462
                        -----------------------------------------
Magnitude (a.u.)       :      1.691289297
Magnitude (Debye)      :      4.298915752

Rotational constants in cm-1:             0.011971             0.009187             0.007134
Rotational constants in MHz :           358.870849           275.422516           213.862128

                             ****ORCA TERMINATED NORMALLY****
TOTAL RUN TIME: 0 days 0 hours 0 minutes 44 seconds 146 msec
