                         Program Version 6.0.1  -  RELEASE   -
|  1> ! pbe def2-sv(p) def2/J RI DEFGRID1 loosescf d4 GCP(DFT/SV(P)) printgap
|  2> %output
|  3>     printlevel normal
|  4> end
|  5> * xyz 0 1
|  6> C 4.9514396099 -2.7806202845 -1.1671663717
|  7> C 3.6422084919 -3.328728005 -0.6233228745
|  8> O 2.5158455176 -2.7192091313 -1.2889207527
|  9> C 2.049213412 -1.5830989539 -0.8270145647
| 10> O 2.4812525969 -1.001631361 0.1491037588
| 11> C 0.859869506 -1.0968685435 -1.6241802813
| 12> C 0.6304534194 0.4000764596 -1.4140287868
| 13> H 1.2075815401 1.0053979981 -2.1128525485
| 14> C 0.9317988893 0.8453653701 0.0028097913
| 15> O 0.2077166932 0.5044152063 0.9266386714
| 16> O 1.9098559294 1.697032795 0.0810825624
| 17> C 2.2466967195 2.2390601832 1.3778431288
| 18> C 1.3439349182 3.4096424992 1.7309453803
| 19> S -1.1266688235 0.8307097703 -1.664425508
| 20> P -2.0505013262 0.3567688894 0.193953532
| 21> S -2.3038058537 1.5965774861 1.7033881012
| 22> O -3.4255789964 0.2341158665 -0.6398187431
| 23> C -4.698135465 0.0970636466 -0.0068390713
| 24> O -1.8539654926 -1.1940136157 0.5727885813
| 25> C -1.2595821465 -1.6654081025 1.7792807062
| 26> H 5.7792722681 -3.305131416 -0.7016899919
| 27> H 4.9977664545 -2.9213528207 -2.2433399813
| 28> H 5.0357174474 -1.7196260699 -0.9431103733
| 29> H 3.5583695469 -3.1405560212 0.4506365302
| 30> H 3.5370085161 -4.3928302019 -0.8339669245
| 31> H -0.0078750887 -1.6611108496 -1.267826889
| 32> H 0.9906865298 -1.3275416739 -2.6799897755
| 33> H 2.1623953801 1.4387735741 2.1172105635
| 34> H 3.2849339629 2.5519949739 1.2702855984
| 35> H 1.6719603205 3.8420893399 2.6701947528
| 36> H 1.3878117989 4.166148408 0.9522466631
| 37> H 0.312633922 3.0788132634 1.8429841395
| 38> H -4.8520994519 -0.9385930666 0.2949077239
| 39> H -5.433772668 0.3927109023 -0.7507928511
| 40> H -4.7577136779 0.7503583978 0.8669809549
| 41> H -1.4042009825 -0.9374268601 2.5793231472
| 42> H -0.1915811815 -1.8234069604 1.6319548829
| 43> H -1.762087326 -2.600986623 2.0139513482
| 44> *
| 45>
| 46>                          ****END OF INPUT****

CARTESIAN COORDINATES (ANGSTROEM)
---------------------------------
  C      4.951440   -2.780620   -1.167166
  C      3.642208   -3.328728   -0.623323
  O      2.515846   -2.719209   -1.288921
  C      2.049213   -1.583099   -0.827015
  O      2.481253   -1.001631    0.149104
  C      0.859870   -1.096869   -1.624180
  C      0.630453    0.400076   -1.414029
  H      1.207582    1.005398   -2.112853
  C      0.931799    0.845365    0.002810
  O      0.207717    0.504415    0.926639
  O      1.909856    1.697033    0.081083
  C      2.246697    2.239060    1.377843
  C      1.343935    3.409642    1.730945
  S     -1.126669    0.830710   -1.664426
  P     -2.050501    0.356769    0.193954
  S     -2.303806    1.596577    1.703388
  O     -3.425579    0.234116   -0.639819
  C     -4.698135    0.097064   -0.006839
  O     -1.853965   -1.194014    0.572789
  C     -1.259582   -1.665408    1.779281
  H      5.779272   -3.305131   -0.701690
  H      4.997766   -2.921353   -2.243340
  H      5.035717   -1.719626   -0.943110
  H      3.558370   -3.140556    0.450637
  H      3.537009   -4.392830   -0.833967
  H     -0.007875   -1.661111   -1.267827
  H      0.990687   -1.327542   -2.679990
  H      2.162395    1.438774    2.117211
  H      3.284934    2.551995    1.270286
  H      1.671960    3.842089    2.670195
  H      1.387812    4.166148    0.952247
  H      0.312634    3.078813    1.842984
  H     -4.852099   -0.938593    0.294908
  H     -5.433773    0.392711   -0.750793
  H     -4.757714    0.750358    0.866981
  H     -1.404201   -0.937427    2.579323
  H     -0.191581   -1.823407    1.631955
  H     -1.762087   -2.600987    2.013951

 Total Charge           Charge          ....    0
 Multiplicity           Mult            ....    1
 Number of Electrons    NEL             ....  174
 Basis Dimension        Dim             ....  316

ORBITAL ENERGIES
----------------

  NO   OCC          E(Eh)            E(eV)
   0   2.0000     -88.032579     -2395.4882
   1   2.0000     -87.962544     -2393.5825
   2   2.0000     -76.413824     -2079.3259
   3   2.0000     -18.821170      -512.1501
   4   2.0000     -18.811116      -511.8765
   5   2.0000     -18.778772      -510.9964
   6   2.0000     -18.764167      -510.5989
   7   2.0000     -18.760351      -510.4951
   8   2.0000     -18.753857      -510.3184
   9   2.0000     -10.029459      -272.9154
  10   2.0000     -10.024776      -272.7880
  11   2.0000      -9.962852      -271.1030
  12   2.0000      -9.948408      -270.7100
  13   2.0000      -9.947455      -270.6840
  14   2.0000      -9.929166      -270.1864
  15   2.0000      -9.924347      -270.0552
  16   2.0000      -9.920523      -269.9512
  17   2.0000      -9.899979      -269.3921
  18   2.0000      -9.876713      -268.7590
  19   2.0000      -7.677402      -208.9127
  20   2.0000      -7.607557      -207.0122
  21   2.0000      -6.409046      -174.3990
  22   2.0000      -5.705912      -155.2658
  23   2.0000      -5.701776      -155.1532
  24   2.0000      -5.693909      -154.9391
  25   2.0000      -5.636696      -153.3823
  26   2.0000      -5.628437      -153.1576
  27   2.0000      -5.627195      -153.1238
  28   2.0000      -4.632000      -126.0431
  29   2.0000      -4.631086      -126.0183
  30   2.0000      -4.629430      -125.9732
  31   2.0000      -1.031294       -28.0629
  32   2.0000      -1.022739       -27.8301
  33   2.0000      -0.963677       -26.2230
  34   2.0000      -0.937763       -25.5178
  35   2.0000      -0.931208       -25.3395
  36   2.0000      -0.920179       -25.0394
  37   2.0000      -0.765971       -20.8431
  38   2.0000      -0.724645       -19.7186
  39   2.0000      -0.703435       -19.1414
  40   2.0000      -0.688806       -18.7434
  41   2.0000      -0.655999       -17.8506
  42   2.0000      -0.621122       -16.9016
  43   2.0000      -0.611705       -16.6453
  44   2.0000      -0.609128       -16.5752
  45   2.0000      -0.606191       -16.4953
  46   2.0000      -0.561797       -15.2873
  47   2.0000      -0.514622       -14.0036
  48   2.0000      -0.506056       -13.7705
  49   2.0000      -0.497081       -13.5263
  50   2.0000      -0.485353       -13.2071
  51   2.0000      -0.465188       -12.6584
  52   2.0000      -0.461276       -12.5520
  53   2.0000      -0.450980       -12.2718
  54   2.0000      -0.444645       -12.0994
  55   2.0000      -0.435317       -11.8456
  56   2.0000      -0.434151       -11.8139
  57   2.0000      -0.419564       -11.4169
  58   2.0000      -0.408855       -11.1255
  59   2.0000      -0.408334       -11.1113
  60   2.0000      -0.401397       -10.9226
  61   2.0000      -0.395544       -10.7633
  62   2.0000      -0.386819       -10.5259
  63   2.0000      -0.385346       -10.4858
  64   2.0000      -0.379700       -10.3321
  65   2.0000      -0.370289       -10.0761
  66   2.0000      -0.362108        -9.8535
  67   2.0000      -0.356073        -9.6892
  68   2.0000      -0.349602        -9.5131
  69   2.0000      -0.340606        -9.2683
  70   2.0000      -0.335442        -9.1279
  71   2.0000      -0.331710        -9.0263
  72   2.0000      -0.324768        -8.8374
  73   2.0000      -0.311342        -8.4720
  74   2.0000      -0.299448        -8.1484
  75   2.0000      -0.295318        -8.0360
  76   2.0000      -0.289470        -7.8769
  77   2.0000      -0.281909        -7.6711
  78   2.0000      -0.269314        -7.3284
  79   2.0000      -0.264560        -7.1991
  80   2.0000      -0.256746        -6.9864
  81   2.0000      -0.251405        -6.8411
  82   2.0000      -0.244187        -6.6447
  83   2.0000      -0.237205        -6.4547
  84   2.0000      -0.213499        -5.8096
  85   2.0000      -0.182337        -4.9616
  86   2.0000      -0.174209        -4.7405
  87   0.0000      -0.052712        -1.4344
  88   0.0000      -0.042188        -1.1480
  89   0.0000      -0.016940        -0.4610
  90   0.0000       0.012069         0.3284
  91   0.0000       0.033751         0.9184

MULLIKEN ATOMIC CHARGES
-----------------------
   0 C :   -0.307188
   1 C :   -0.015775
   2 O :   -0.220620
   3 C :    0.129804
   4 O :   -0.208997
   5 C :   -0.065323
   6 C :   -0.299115
   7 H :    0.131472
   8 C :    0.224002
   9 O :   -0.225377
  10 O :   -0.205064
  11 C :   -0.006531
  12 C :   -0.321737
  13 S :   -0.063208
  14 P :    0.647826
  15 S :   -0.330301
  16 O :   -0.401673
  17 C :   -0.096365
  18 O :   -0.394704
  19 C :   -0.099127
  20 H :    0.118999
  21 H :    0.118573
  22 H :    0.128058
  23 H :    0.113291
  24 H :    0.110169
  25 H :    0.147349
  26 H :    0.122847
  27 H :    0.114677
  28 H :    0.101802
  29 H :    0.109625
  30 H :    0.110763
  31 H :    0.152896
  32 H :    0.103669
  33 H :    0.116293
  34 H :    0.112942
  35 H :    0.119235
  36 H :    0.114063
  37 H :    0.112748
Sum of atomic charges:   -0.0000000

LOEWDIN ATOMIC CHARGES
----------------------
   0 C :   -0.355261
   1 C :   -0.108993
   2 O :   -0.050087
   3 C :    0.041039
   4 O :   -0.152713
   5 C :   -0.255444
   6 C :   -0.262880
   7 H :    0.141377
   8 C :    0.019774
   9 O :   -0.165664
  10 O :   -0.027726
  11 C :   -0.102452
  12 C :   -0.362477
  13 S :    0.127731
  14 P :    0.589259
  15 S :   -0.328103
  16 O :   -0.276734
  17 C :   -0.218580
  18 O :   -0.259485
  19 C :   -0.219949
  20 H :    0.133778
  21 H :    0.127043
  22 H :    0.130891
  23 H :    0.121882
  24 H :    0.121538
  25 H :    0.154456
  26 H :    0.145492
  27 H :    0.124207
  28 H :    0.118198
  29 H :    0.130297
  30 H :    0.124426
  31 H :    0.132091
  32 H :    0.107967
  33 H :    0.117786
  34 H :    0.104901
  35 H :    0.110759
  36 H :    0.107346
  37 H :    0.114306

  Mayer bond orders larger than 0.100000
B(  0-C ,  1-C ) :   1.1751 B(  0-C , 20-H ) :   0.9434 B(  0-C , 21-H ) :   0.9483
B(  0-C , 22-H ) :   0.9464 B(  1-C ,  2-O ) :   0.9052 B(  1-C , 23-H ) :   0.9151
B(  1-C , 24-H ) :   0.9362 B(  2-O ,  3-C ) :   1.2596 B(  3-C ,  4-O ) :   1.9416
B(  3-C ,  5-C ) :   1.0118 B(  4-O ,  8-C ) :   0.1254 B(  5-C ,  6-C ) :   0.9979
B(  5-C , 25-H ) :   0.8656 B(  5-C , 26-H ) :   0.9046 B(  6-C ,  7-H ) :   0.8838
B(  6-C ,  8-C ) :   0.9166 B(  6-C , 13-S ) :   1.0268 B(  8-C ,  9-O ) :   1.8148
B(  8-C , 10-O ) :   1.2985 B(  9-O , 14-P ) :   0.1818 B( 10-O , 11-C ) :   0.8967
B( 11-C , 12-C ) :   1.1742 B( 11-C , 27-H ) :   0.9171 B( 11-C , 28-H ) :   0.9381
B( 12-C , 29-H ) :   0.9417 B( 12-C , 30-H ) :   0.9466 B( 12-C , 31-H ) :   0.9233
B( 13-S , 14-P ) :   0.9218 B( 14-P , 15-S ) :   1.5707 B( 14-P , 16-O ) :   1.0488
B( 14-P , 18-O ) :   1.0521 B( 16-O , 17-C ) :   0.9438 B( 17-C , 32-H ) :   0.9532
B( 17-C , 33-H ) :   0.9605 B( 17-C , 34-H ) :   0.9259 B( 18-O , 19-C ) :   0.9313
B( 19-C , 35-H ) :   0.9319 B( 19-C , 36-H ) :   0.9457 B( 19-C , 37-H ) :   0.9535

Dispersion correction           -0.052167130
FINAL SINGLE POINT ENERGY     -1979.005281521665

DIPOLE MOMENT
-------------

Method             : SCF
Type of density    : Electron Density
Multiplicity       :   1
Irrep              :   0
Energy             : -1979.1383011999455448 Eh
Relativity type    :
Basis              : AO
                                X                 Y                 Z
Electronic contribution:    -14.702240876       6.118423807      -5.089969328
Nuclear contribution   :     16.516046245      -7.501707736       4.660874014
                        -----------------------------------------
Total Dipole Moment    :      1.813805369      -1.383283929      -0.429095314
                        -----------------------------------------
Magnitude (a.u.)       :      2.321096106
Magnitude (Debye)      :      5.899757440

Rotational constants in cm-1:             0.014574             0.006616             0.005542
Rotational constants in MHz :           436.907137           198.352730           166.132941

                             ****ORCA TERMINATED NORMALLY****
TOTAL RUN TIME: 0 days 0 hours 0 minutes 31 seconds 735 msec
