                         Program Version 6.0.0  -   RELEASE  -
|  1> ! pbe def2-sv(p) def2/J RI DEFGRID1 loosescf d4 GCP(DFT/SV(P)) printgap
|  2> %output
|  3>     printlevel normal
|  4> end
|  5> * xyz 0 1
|  6> C 4.9584932384 1.3070309315 -0.3123654127
|  7> C 4.2943041576 0.3606117527 -1.2897872258
|  8> O 3.4800074741 -0.6340797037 -0.6400322755
|  9> P 2.3123633808 -0.3315900056 0.3926084456
| 10> S 2.7833455886 0.135339002 2.2311913654
| 11> O 1.5065322812 -1.6861357419 0.3852018181
| 12> C 1.1801276408 -2.4315133712 -0.8117775956
| 13> C 2.1727856238 -3.554776837 -1.0234876708
| 14> S 1.1391332279 1.1236556246 -0.6488073074
| 15> C 0.2621595444 1.7509253487 0.7995125097
| 16> S -0.9110513762 0.5652975907 1.517193551
| 17> P -2.2482166659 0.3637106521 -0.1181595363
| 18> S -1.7787847367 -0.7661222953 -1.6541030163
| 19> O -2.4852985648 1.895814604 -0.4336111956
| 20> C -3.007621165 2.338894914 -1.7056426864
| 21> C -4.4633163468 1.9599478394 -1.875039975
| 22> O -3.607695014 -0.0663897677 0.5869003265
| 23> C -3.9579966655 -1.4441319081 0.7886406758
| 24> C -3.0950098733 -2.0910034443 1.8532377558
| 25> H 5.6271565289 1.9702204909 -0.8515886453
| 26> H 4.2075717035 1.9024093188 0.2049057054
| 27> H 5.5238764837 0.749703596 0.4307065116
| 28> H 5.0317265046 -0.2299180782 -1.8364222935
| 29> H 3.6634740434 0.9102185985 -1.9941565872
| 30> H 0.1732702544 -2.8164094456 -0.6374158309
| 31> H 1.1537875519 -1.7510011055 -1.6671592408
| 32> H 3.1682673695 -3.1510066077 -1.1880230224
| 33> H 2.1954850672 -4.1979319303 -0.1480596091
| 34> H 1.8699671068 -4.134530727 -1.8896687772
| 35> H -0.2635241425 2.6511530005 0.4931944142
| 36> H 0.9837352145 1.9561946205 1.5923274981
| 37> H -2.8700711863 3.4206380799 -1.6822554816
| 38> H -2.3971063999 1.9014967062 -2.5021559319
| 39> H -5.04550639 2.3176390324 -1.029916369
| 40> H -4.8451780708 2.399356528 -2.7912052684
| 41> H -4.5591698698 0.8766712501 -1.9350981436
| 42> H -5.0071510374 -1.4122731523 1.0849088462
| 43> H -3.8544857942 -1.9722737622 -0.1655783757
| 44> H -3.4308691354 -3.1084072152 2.0260230994
| 45> H -2.0542175023 -2.1115233781 1.5276760256
| 46> H -3.152067934 -1.5275526853 2.7811953383
| 47> *
| 48>
| 49>                          ****END OF INPUT****

CARTESIAN COORDINATES (ANGSTROEM)
---------------------------------
  C      4.958493    1.307031   -0.312365
  C      4.294304    0.360612   -1.289787
  O      3.480007   -0.634080   -0.640032
  P      2.312363   -0.331590    0.392608
  S      2.783346    0.135339    2.231191
  O      1.506532   -1.686136    0.385202
  C      1.180128   -2.431513   -0.811778
  C      2.172786   -3.554777   -1.023488
  S      1.139133    1.123656   -0.648807
  C      0.262160    1.750925    0.799513
  S     -0.911051    0.565298    1.517194
  P     -2.248217    0.363711   -0.118160
  S     -1.778785   -0.766122   -1.654103
  O     -2.485299    1.895815   -0.433611
  C     -3.007621    2.338895   -1.705643
  C     -4.463316    1.959948   -1.875040
  O     -3.607695   -0.066390    0.586900
  C     -3.957997   -1.444132    0.788641
  C     -3.095010   -2.091003    1.853238
  H      5.627157    1.970220   -0.851589
  H      4.207572    1.902409    0.204906
  H      5.523876    0.749704    0.430707
  H      5.031727   -0.229918   -1.836422
  H      3.663474    0.910219   -1.994157
  H      0.173270   -2.816409   -0.637416
  H      1.153788   -1.751001   -1.667159
  H      3.168267   -3.151007   -1.188023
  H      2.195485   -4.197932   -0.148060
  H      1.869967   -4.134531   -1.889669
  H     -0.263524    2.651153    0.493194
  H      0.983735    1.956195    1.592327
  H     -2.870071    3.420638   -1.682255
  H     -2.397106    1.901497   -2.502156
  H     -5.045506    2.317639   -1.029916
  H     -4.845178    2.399357   -2.791205
  H     -4.559170    0.876671   -1.935098
  H     -5.007151   -1.412273    1.084909
  H     -3.854486   -1.972274   -0.165578
  H     -3.430869   -3.108407    2.026023
  H     -2.054218   -2.111523    1.527676
  H     -3.152068   -1.527553    2.781195

 Total Charge           Charge          ....    0
 Multiplicity           Mult            ....    1
 Number of Electrons    NEL             ....  202
 Basis Dimension        Dim             ....  334

ORBITAL ENERGIES
----------------

  NO   OCC          E(Eh)            E(eV)
   0   2.0000     -88.040186     -2395.6953
   1   2.0000     -88.038909     -2395.6605
   2   2.0000     -87.988253     -2394.2821
   3   2.0000     -87.980145     -2394.0615
   4   2.0000     -76.427603     -2079.7008
   5   2.0000     -76.423664     -2079.5936
   6   2.0000     -18.796904      -511.4898
   7   2.0000     -18.795539      -511.4526
   8   2.0000     -18.793422      -511.3950
   9   2.0000     -18.783540      -511.1261
  10   2.0000      -9.958920      -270.9960
  11   2.0000      -9.955873      -270.9131
  12   2.0000      -9.953603      -270.8513
  13   2.0000      -9.953199      -270.8403
  14   2.0000      -9.943096      -270.5654
  15   2.0000      -9.886823      -269.0341
  16   2.0000      -9.885916      -269.0095
  17   2.0000      -9.883001      -268.9301
  18   2.0000      -9.878192      -268.7993
  19   2.0000      -7.685033      -209.1204
  20   2.0000      -7.684007      -209.0924
  21   2.0000      -7.633091      -207.7070
  22   2.0000      -7.625509      -207.5006
  23   2.0000      -6.425305      -174.8414
  24   2.0000      -6.420793      -174.7186
  25   2.0000      -5.712719      -155.4510
  26   2.0000      -5.712057      -155.4330
  27   2.0000      -5.709546      -155.3647
  28   2.0000      -5.708614      -155.3393
  29   2.0000      -5.702229      -155.1655
  30   2.0000      -5.700708      -155.1241
  31   2.0000      -5.661804      -154.0655
  32   2.0000      -5.654588      -153.8692
  33   2.0000      -5.653788      -153.8474
  34   2.0000      -5.653381      -153.8363
  35   2.0000      -5.646037      -153.6365
  36   2.0000      -5.645540      -153.6230
  37   2.0000      -4.647959      -126.4774
  38   2.0000      -4.647125      -126.4547
  39   2.0000      -4.645614      -126.4136
  40   2.0000      -4.643725      -126.3622
  41   2.0000      -4.642712      -126.3346
  42   2.0000      -4.640841      -126.2837
  43   2.0000      -0.990237       -26.9457
  44   2.0000      -0.986221       -26.8364
  45   2.0000      -0.950625       -25.8678
  46   2.0000      -0.940954       -25.6047
  47   2.0000      -0.762016       -20.7355
  48   2.0000      -0.720001       -19.5922
  49   2.0000      -0.708042       -19.2668
  50   2.0000      -0.689807       -18.7706
  51   2.0000      -0.688090       -18.7239
  52   2.0000      -0.671812       -18.2809
  53   2.0000      -0.651820       -17.7369
  54   2.0000      -0.638026       -17.3616
  55   2.0000      -0.601007       -16.3542
  56   2.0000      -0.588583       -16.0162
  57   2.0000      -0.575631       -15.6637
  58   2.0000      -0.568786       -15.4774
  59   2.0000      -0.562923       -15.3179
  60   2.0000      -0.502231       -13.6664
  61   2.0000      -0.493393       -13.4259
  62   2.0000      -0.477119       -12.9831
  63   2.0000      -0.469783       -12.7834
  64   2.0000      -0.460616       -12.5340
  65   2.0000      -0.447808       -12.1855
  66   2.0000      -0.441149       -12.0043
  67   2.0000      -0.430808       -11.7229
  68   2.0000      -0.428593       -11.6626
  69   2.0000      -0.414790       -11.2870
  70   2.0000      -0.408678       -11.1207
  71   2.0000      -0.399477       -10.8703
  72   2.0000      -0.393572       -10.7096
  73   2.0000      -0.390541       -10.6272
  74   2.0000      -0.380662       -10.3583
  75   2.0000      -0.374737       -10.1971
  76   2.0000      -0.363344        -9.8871
  77   2.0000      -0.356913        -9.7121
  78   2.0000      -0.352201        -9.5839
  79   2.0000      -0.350829        -9.5465
  80   2.0000      -0.347867        -9.4659
  81   2.0000      -0.346001        -9.4152
  82   2.0000      -0.344364        -9.3706
  83   2.0000      -0.335302        -9.1240
  84   2.0000      -0.332795        -9.0558
  85   2.0000      -0.320833        -8.7303
  86   2.0000      -0.310629        -8.4526
  87   2.0000      -0.297586        -8.0977
  88   2.0000      -0.295926        -8.0526
  89   2.0000      -0.287584        -7.8255
  90   2.0000      -0.282963        -7.6998
  91   2.0000      -0.277384        -7.5480
  92   2.0000      -0.274160        -7.4603
  93   2.0000      -0.264801        -7.2056
  94   2.0000      -0.257420        -7.0048
  95   2.0000      -0.238898        -6.5008
  96   2.0000      -0.219221        -5.9653
  97   2.0000      -0.205683        -5.5969
  98   2.0000      -0.200325        -5.4511
  99   2.0000      -0.198044        -5.3890
 100   2.0000      -0.191474        -5.2103
 101   0.0000      -0.045813        -1.2466
 102   0.0000      -0.020907        -0.5689
 103   0.0000      -0.013732        -0.3737
 104   0.0000      -0.000593        -0.0161
 105   0.0000       0.015390         0.4188

MULLIKEN ATOMIC CHARGES
-----------------------
   0 C :   -0.307869
   1 C :   -0.009860
   2 O :   -0.381439
   3 P :    0.608141
   4 S :   -0.314279
   5 O :   -0.346892
   6 C :   -0.020608
   7 C :   -0.282487
   8 S :   -0.109152
   9 C :   -0.353880
  10 S :   -0.069387
  11 P :    0.612567
  12 S :   -0.329505
  13 O :   -0.373548
  14 C :   -0.006907
  15 C :   -0.305327
  16 O :   -0.368581
  17 C :   -0.005768
  18 C :   -0.333541
  19 H :    0.110673
  20 H :    0.123859
  21 H :    0.127451
  22 H :    0.108345
  23 H :    0.113759
  24 H :    0.116825
  25 H :    0.104665
  26 H :    0.116387
  27 H :    0.115986
  28 H :    0.107245
  29 H :    0.186857
  30 H :    0.194013
  31 H :    0.104875
  32 H :    0.113596
  33 H :    0.119304
  34 H :    0.113205
  35 H :    0.123295
  36 H :    0.106487
  37 H :    0.108342
  38 H :    0.116080
  39 H :    0.142133
  40 H :    0.124940
Sum of atomic charges:    0.0000000

LOEWDIN ATOMIC CHARGES
----------------------
   0 C :   -0.369101
   1 C :   -0.115003
   2 O :   -0.243460
   3 P :    0.571813
   4 S :   -0.307358
   5 O :   -0.229638
   6 C :   -0.118249
   7 C :   -0.359463
   8 S :    0.062770
   9 C :   -0.482374
  10 S :    0.097428
  11 P :    0.571047
  12 S :   -0.313880
  13 O :   -0.240924
  14 C :   -0.117941
  15 C :   -0.364237
  16 O :   -0.242256
  17 C :   -0.122552
  18 C :   -0.370295
  19 H :    0.129797
  20 H :    0.120626
  21 H :    0.130790
  22 H :    0.120627
  23 H :    0.108312
  24 H :    0.115078
  25 H :    0.104306
  26 H :    0.123715
  27 H :    0.127122
  28 H :    0.128254
  29 H :    0.132736
  30 H :    0.128894
  31 H :    0.118175
  32 H :    0.111584
  33 H :    0.127848
  34 H :    0.131141
  35 H :    0.123274
  36 H :    0.119349
  37 H :    0.107466
  38 H :    0.132795
  39 H :    0.123786
  40 H :    0.127999

  Mayer bond orders larger than 0.100000
B(  0-C ,  1-C ) :   1.1667 B(  0-C , 19-H ) :   0.9349 B(  0-C , 20-H ) :   0.9323
B(  0-C , 21-H ) :   0.9429 B(  1-C ,  2-O ) :   0.9117 B(  1-C , 22-H ) :   0.9330
B(  1-C , 23-H ) :   0.9257 B(  2-O ,  3-P ) :   1.0786 B(  3-P ,  4-S ) :   1.6397
B(  3-P ,  5-O ) :   1.1491 B(  3-P ,  8-S ) :   0.9342 B(  4-S ,  8-S ) :   0.1118
B(  5-O ,  6-C ) :   0.8910 B(  6-C ,  7-C ) :   1.1563 B(  6-C , 24-H ) :   0.9259
B(  6-C , 25-H ) :   0.9183 B(  7-C , 26-H ) :   0.9429 B(  7-C , 27-H ) :   0.9464
B(  7-C , 28-H ) :   0.9414 B(  8-S ,  9-C ) :   1.0128 B(  9-C , 10-S ) :   1.0016
B(  9-C , 29-H ) :   0.8975 B(  9-C , 30-H ) :   0.8710 B( 10-S , 11-P ) :   0.9691
B( 10-S , 12-S ) :   0.1096 B( 11-P , 12-S ) :   1.6032 B( 11-P , 13-O ) :   1.1125
B( 11-P , 16-O ) :   1.1031 B( 13-O , 14-C ) :   0.9006 B( 14-C , 15-C ) :   1.1664
B( 14-C , 31-H ) :   0.9338 B( 14-C , 32-H ) :   0.9151 B( 15-C , 33-H ) :   0.9458
B( 15-C , 34-H ) :   0.9387 B( 15-C , 35-H ) :   0.9361 B( 16-O , 17-C ) :   0.9105
B( 17-C , 18-C ) :   1.1624 B( 17-C , 36-H ) :   0.9321 B( 17-C , 37-H ) :   0.9118
B( 18-C , 38-H ) :   0.9385 B( 18-C , 39-H ) :   0.9313 B( 18-C , 40-H ) :   0.9439

Dispersion correction           -0.065894325
FINAL SINGLE POINT ENERGY     -2929.519130872523

DIPOLE MOMENT
-------------

Method             : SCF
Type of density    : Electron Density
Multiplicity       :   1
Irrep              :   0
Energy             : -2929.6381502384160740 Eh
Relativity type    :
Basis              : AO
                                X                 Y                 Z
Electronic contribution:      3.179814280       5.402506800       8.633552652
Nuclear contribution   :     -3.750456360      -5.092505157      -9.837061173
                        -----------------------------------------
Total Dipole Moment    :     -0.570642080       0.310001643      -1.203508521
                        -----------------------------------------
Magnitude (a.u.)       :      1.367540187
Magnitude (Debye)      :      3.476010911

Rotational constants in cm-1:             0.012531             0.004950             0.004660
Rotational constants in MHz :           375.674946           148.393774           139.700563

                             ****ORCA TERMINATED NORMALLY****
TOTAL RUN TIME: 0 days 0 hours 0 minutes 21 seconds 41 msec
