                         Program Version 6.0.0  -   RELEASE  -
|  1> ! pbe def2-sv(p) def2/J RI DEFGRID1 loosescf d4 GCP(DFT/SV(P)) printgap
|  2> %output
|  3>     printlevel normal
|  4> end
|  5> * xyz 0 1
|  6> C 1.4747066328 -1.5459874932 -2.7049134871
|  7> C 2.595015749 -0.7273514261 -2.0950732879
|  8> O 2.0448333405 0.2991390918 -1.2270144247
|  9> P 2.157540051 0.2567766121 0.3422116447
| 10> S 1.2225776758 1.7288759273 1.2295921231
| 11> O 3.7375406406 0.236181477 0.5375039051
| 12> C 4.3829521968 0.5729099503 1.7787706412
| 13> C 4.0786719948 -0.4195295437 2.8822331711
| 14> S 1.5619191635 -1.6934516304 0.9377471124
| 15> C -0.1500201436 -1.3344765344 1.4098666078
| 16> S -1.3657956123 -1.6039795243 0.0824269621
| 17> P -1.9194494077 0.3831623755 -0.4845698466
| 18> S -0.8596757965 1.3543766405 -1.8107549451
| 19> O -2.0618983476 1.156776473 0.8810647983
| 20> C -2.9859992972 0.7775745052 1.9346245705
| 21> C -4.2651144479 1.5828337015 1.8389418932
| 22> O -3.4323075496 0.1585933418 -0.9304127766
| 23> C -3.783480479 -0.1862473858 -2.2802079596
| 24> C -3.3153788709 -1.5789445797 -2.6486099329
| 25> H 0.9737922874 -2.1441016957 -1.9462529873
| 26> H 0.7473271825 -0.8797585655 -3.1636696392
| 27> H 1.8863775727 -2.2062304354 -3.4611710511
| 28> H 3.1432808697 -0.1757136663 -2.8597495246
| 29> H 3.2847707382 -1.3504456876 -1.5206720708
| 30> H 5.4432920828 0.5783298851 1.521839211
| 31> H 4.0652956085 1.5794673531 2.067794819
| 32> H 4.2779938626 -1.4339613494 2.5464049385
| 33> H 4.7014636322 -0.1948638649 3.7421490063
| 34> H 3.0331476431 -0.3420693959 3.1752318662
| 35> H -0.2023520389 -0.2973769486 1.7495746105
| 36> H -0.4003100983 -2.0326812635 2.2038615303
| 37> H -3.1894610358 -0.294022651 1.8632555486
| 38> H -2.4471081665 0.9983652293 2.8584918817
| 39> H -4.0367529815 2.6451855913 1.8539964705
| 40> H -4.7897306574 1.3496602707 0.9163975521
| 41> H -4.8995861004 1.3396277488 2.6855688809
| 42> H -4.8712826747 -0.1071868725 -2.297290458
| 43> H -3.3438180301 0.5587350045 -2.9511612136
| 44> H -3.677319593 -2.3055753852 -1.9258442021
| 45> H -3.6855831569 -1.8340053267 -3.6362052977
| 46> H -2.2263738383 -1.6095382703 -2.6614603544
| 47> *
| 48>
| 49>                          ****END OF INPUT****

CARTESIAN COORDINATES (ANGSTROEM)
---------------------------------
  C      1.474707   -1.545987   -2.704913
  C      2.595016   -0.727351   -2.095073
  O      2.044833    0.299139   -1.227014
  P      2.157540    0.256777    0.342212
  S      1.222578    1.728876    1.229592
  O      3.737541    0.236181    0.537504
  C      4.382952    0.572910    1.778771
  C      4.078672   -0.419530    2.882233
  S      1.561919   -1.693452    0.937747
  C     -0.150020   -1.334477    1.409867
  S     -1.365796   -1.603980    0.082427
  P     -1.919449    0.383162   -0.484570
  S     -0.859676    1.354377   -1.810755
  O     -2.061898    1.156776    0.881065
  C     -2.985999    0.777575    1.934625
  C     -4.265114    1.582834    1.838942
  O     -3.432308    0.158593   -0.930413
  C     -3.783480   -0.186247   -2.280208
  C     -3.315379   -1.578945   -2.648610
  H      0.973792   -2.144102   -1.946253
  H      0.747327   -0.879759   -3.163670
  H      1.886378   -2.206230   -3.461171
  H      3.143281   -0.175714   -2.859750
  H      3.284771   -1.350446   -1.520672
  H      5.443292    0.578330    1.521839
  H      4.065296    1.579467    2.067795
  H      4.277994   -1.433961    2.546405
  H      4.701464   -0.194864    3.742149
  H      3.033148   -0.342069    3.175232
  H     -0.202352   -0.297377    1.749575
  H     -0.400310   -2.032681    2.203862
  H     -3.189461   -0.294023    1.863256
  H     -2.447108    0.998365    2.858492
  H     -4.036753    2.645186    1.853996
  H     -4.789731    1.349660    0.916398
  H     -4.899586    1.339628    2.685569
  H     -4.871283   -0.107187   -2.297290
  H     -3.343818    0.558735   -2.951161
  H     -3.677320   -2.305575   -1.925844
  H     -3.685583   -1.834005   -3.636205
  H     -2.226374   -1.609538   -2.661460

 Total Charge           Charge          ....    0
 Multiplicity           Mult            ....    1
 Number of Electrons    NEL             ....  202
 Basis Dimension        Dim             ....  334

ORBITAL ENERGIES
----------------

  NO   OCC          E(Eh)            E(eV)
   0   2.0000     -88.041949     -2395.7432
   1   2.0000     -88.039349     -2395.6725
   2   2.0000     -87.982159     -2394.1163
   3   2.0000     -87.974176     -2393.8990
   4   2.0000     -76.420937     -2079.5194
   5   2.0000     -76.419999     -2079.4939
   6   2.0000     -18.788696      -511.2664
   7   2.0000     -18.788439      -511.2594
   8   2.0000     -18.787894      -511.2446
   9   2.0000     -18.780601      -511.0461
  10   2.0000      -9.957452      -270.9560
  11   2.0000      -9.954998      -270.8893
  12   2.0000      -9.950825      -270.7757
  13   2.0000      -9.950150      -270.7574
  14   2.0000      -9.949103      -270.7289
  15   2.0000      -9.885024      -268.9852
  16   2.0000      -9.884350      -268.9668
  17   2.0000      -9.883034      -268.9310
  18   2.0000      -9.872463      -268.6434
  19   2.0000      -7.686977      -209.1733
  20   2.0000      -7.684145      -209.0962
  21   2.0000      -7.627213      -207.5470
  22   2.0000      -7.619260      -207.3306
  23   2.0000      -6.418611      -174.6593
  24   2.0000      -6.417491      -174.6288
  25   2.0000      -5.714703      -155.5050
  26   2.0000      -5.712066      -155.4332
  27   2.0000      -5.711435      -155.4160
  28   2.0000      -5.708438      -155.3345
  29   2.0000      -5.704110      -155.2167
  30   2.0000      -5.701326      -155.1410
  31   2.0000      -5.656226      -153.9137
  32   2.0000      -5.648349      -153.6994
  33   2.0000      -5.647830      -153.6853
  34   2.0000      -5.647248      -153.6694
  35   2.0000      -5.639900      -153.4695
  36   2.0000      -5.639208      -153.4507
  37   2.0000      -4.641272      -126.2954
  38   2.0000      -4.640648      -126.2784
  39   2.0000      -4.640293      -126.2688
  40   2.0000      -4.639303      -126.2419
  41   2.0000      -4.639045      -126.2348
  42   2.0000      -4.637357      -126.1889
  43   2.0000      -0.984602       -26.7924
  44   2.0000      -0.981765       -26.7152
  45   2.0000      -0.942438       -25.6450
  46   2.0000      -0.937521       -25.5112
  47   2.0000      -0.759163       -20.6579
  48   2.0000      -0.716272       -19.4907
  49   2.0000      -0.707634       -19.2557
  50   2.0000      -0.689107       -18.7516
  51   2.0000      -0.683874       -18.6092
  52   2.0000      -0.674790       -18.3620
  53   2.0000      -0.647564       -17.6211
  54   2.0000      -0.630776       -17.1643
  55   2.0000      -0.595364       -16.2007
  56   2.0000      -0.586005       -15.9460
  57   2.0000      -0.573975       -15.6186
  58   2.0000      -0.567211       -15.4346
  59   2.0000      -0.558798       -15.2057
  60   2.0000      -0.499640       -13.5959
  61   2.0000      -0.496891       -13.5211
  62   2.0000      -0.472894       -12.8681
  63   2.0000      -0.466439       -12.6924
  64   2.0000      -0.454525       -12.3683
  65   2.0000      -0.446689       -12.1550
  66   2.0000      -0.437997       -11.9185
  67   2.0000      -0.434996       -11.8368
  68   2.0000      -0.426751       -11.6125
  69   2.0000      -0.423585       -11.5263
  70   2.0000      -0.413213       -11.2441
  71   2.0000      -0.392917       -10.6918
  72   2.0000      -0.388283       -10.5657
  73   2.0000      -0.382119       -10.3980
  74   2.0000      -0.376033       -10.2324
  75   2.0000      -0.363641        -9.8952
  76   2.0000      -0.361515        -9.8373
  77   2.0000      -0.356712        -9.7066
  78   2.0000      -0.352440        -9.5904
  79   2.0000      -0.348864        -9.4931
  80   2.0000      -0.346824        -9.4376
  81   2.0000      -0.344783        -9.3820
  82   2.0000      -0.336491        -9.1564
  83   2.0000      -0.334817        -9.1108
  84   2.0000      -0.329936        -8.9780
  85   2.0000      -0.314718        -8.5639
  86   2.0000      -0.307442        -8.3659
  87   2.0000      -0.294921        -8.0252
  88   2.0000      -0.292898        -7.9701
  89   2.0000      -0.290962        -7.9175
  90   2.0000      -0.288855        -7.8602
  91   2.0000      -0.266887        -7.2624
  92   2.0000      -0.265087        -7.2134
  93   2.0000      -0.258847        -7.0436
  94   2.0000      -0.256098        -6.9688
  95   2.0000      -0.234245        -6.3741
  96   2.0000      -0.218433        -5.9439
  97   2.0000      -0.208841        -5.6828
  98   2.0000      -0.200778        -5.4635
  99   2.0000      -0.186918        -5.0863
 100   2.0000      -0.180022        -4.8987
 101   0.0000      -0.036335        -0.9887
 102   0.0000      -0.028421        -0.7734
 103   0.0000      -0.019765        -0.5378
 104   0.0000       0.003524         0.0959
 105   0.0000       0.019098         0.5197

MULLIKEN ATOMIC CHARGES
-----------------------
   0 C :   -0.307689
   1 C :   -0.007635
   2 O :   -0.337028
   3 P :    0.596536
   4 S :   -0.290209
   5 O :   -0.380570
   6 C :    0.001804
   7 C :   -0.312835
   8 S :   -0.107050
   9 C :   -0.359362
  10 S :   -0.113284
  11 P :    0.590698
  12 S :   -0.276328
  13 O :   -0.350936
  14 C :   -0.023102
  15 C :   -0.281757
  16 O :   -0.383714
  17 C :    0.000498
  18 C :   -0.334147
  19 H :    0.124982
  20 H :    0.135413
  21 H :    0.099747
  22 H :    0.110021
  23 H :    0.099451
  24 H :    0.104085
  25 H :    0.111591
  26 H :    0.116025
  27 H :    0.112031
  28 H :    0.121015
  29 H :    0.209203
  30 H :    0.181515
  31 H :    0.099851
  32 H :    0.110532
  33 H :    0.123259
  34 H :    0.122602
  35 H :    0.107102
  36 H :    0.102626
  37 H :    0.111019
  38 H :    0.120014
  39 H :    0.115938
  40 H :    0.138087
Sum of atomic charges:   -0.0000000

LOEWDIN ATOMIC CHARGES
----------------------
   0 C :   -0.367480
   1 C :   -0.109613
   2 O :   -0.225893
   3 P :    0.568861
   4 S :   -0.288078
   5 O :   -0.250621
   6 C :   -0.115991
   7 C :   -0.371338
   8 S :    0.073445
   9 C :   -0.484468
  10 S :    0.063624
  11 P :    0.562143
  12 S :   -0.282603
  13 O :   -0.229676
  14 C :   -0.116868
  15 C :   -0.357552
  16 O :   -0.250264
  17 C :   -0.121081
  18 C :   -0.373555
  19 H :    0.115588
  20 H :    0.127139
  21 H :    0.124821
  22 H :    0.122186
  23 H :    0.104363
  24 H :    0.118376
  25 H :    0.112559
  26 H :    0.122516
  27 H :    0.130358
  28 H :    0.119144
  29 H :    0.125613
  30 H :    0.137184
  31 H :    0.104032
  32 H :    0.119728
  33 H :    0.130431
  34 H :    0.127101
  35 H :    0.128737
  36 H :    0.117294
  37 H :    0.110481
  38 H :    0.124064
  39 H :    0.132778
  40 H :    0.122513

  Mayer bond orders larger than 0.100000
B(  0-C ,  1-C ) :   1.1643 B(  0-C , 19-H ) :   0.9337 B(  0-C , 20-H ) :   0.9331
B(  0-C , 21-H ) :   0.9366 B(  1-C ,  2-O ) :   0.8893 B(  1-C , 22-H ) :   0.9331
B(  1-C , 23-H ) :   0.9194 B(  2-O ,  3-P ) :   1.1608 B(  3-P ,  4-S ) :   1.6320
B(  3-P ,  5-O ) :   1.0884 B(  3-P ,  8-S ) :   0.9318 B(  4-S ,  8-S ) :   0.1090
B(  4-S , 29-H ) :   0.1046 B(  5-O ,  6-C ) :   0.9098 B(  6-C ,  7-C ) :   1.1669
B(  6-C , 24-H ) :   0.9347 B(  6-C , 25-H ) :   0.9180 B(  7-C , 26-H ) :   0.9435
B(  7-C , 27-H ) :   0.9372 B(  7-C , 28-H ) :   0.9360 B(  8-S ,  9-C ) :   1.0141
B(  9-C , 10-S ) :   0.9916 B(  9-C , 29-H ) :   0.8459 B(  9-C , 30-H ) :   0.9115
B( 10-S , 11-P ) :   0.9407 B( 10-S , 12-S ) :   0.1076 B( 11-P , 12-S ) :   1.6880
B( 11-P , 13-O ) :   1.1260 B( 11-P , 16-O ) :   1.0546 B( 13-O , 14-C ) :   0.8922
B( 14-C , 15-C ) :   1.1720 B( 14-C , 31-H ) :   0.9096 B( 14-C , 32-H ) :   0.9314
B( 15-C , 33-H ) :   0.9473 B( 15-C , 34-H ) :   0.9418 B( 15-C , 35-H ) :   0.9394
B( 16-O , 17-C ) :   0.9127 B( 17-C , 18-C ) :   1.1648 B( 17-C , 36-H ) :   0.9322
B( 17-C , 37-H ) :   0.9119 B( 18-C , 38-H ) :   0.9419 B( 18-C , 39-H ) :   0.9377
B( 18-C , 40-H ) :   0.9300

Dispersion correction           -0.067691417
FINAL SINGLE POINT ENERGY     -2929.511469255281

DIPOLE MOMENT
-------------

Method             : SCF
Type of density    : Electron Density
Multiplicity       :   1
Irrep              :   0
Energy             : -2929.6296509279854945 Eh
Relativity type    :
Basis              : AO
                                X                 Y                 Z
Electronic contribution:      5.776795672       6.887120564      -0.256918679
Nuclear contribution   :     -6.053451750      -8.191935852       0.817579664
                        -----------------------------------------
Total Dipole Moment    :     -0.276656077      -1.304815288       0.560660985
                        -----------------------------------------
Magnitude (a.u.)       :      1.446866359
Magnitude (Debye)      :      3.677642018

Rotational constants in cm-1:             0.012439             0.005572             0.004892
Rotational constants in MHz :           372.909086           167.044874           146.646332

                             ****ORCA TERMINATED NORMALLY****
TOTAL RUN TIME: 0 days 0 hours 0 minutes 22 seconds 44 msec
