                         Program Version 6.0.1  -  RELEASE   -
|  1> ! pbe def2-sv(p) def2/J RI DEFGRID1 loosescf d4 GCP(DFT/SV(P)) printgap
|  2> %output
|  3>     printlevel normal
|  4> end
|  5> * xyz 0 1
|  6> C 4.5113729733 -3.0330658899 -1.814710251
|  7> C 2.9964102456 -2.9491951801 -1.9163739079
|  8> O 2.5117663909 -1.7218143854 -1.3404937945
|  9> C 2.2440473131 -1.6948421129 -0.051173212
| 10> O 2.3718879569 -2.6351855277 0.7004827872
| 11> C 1.7614044663 -0.3290922057 0.4041626852
| 12> C 0.9729949021 0.4015283068 -0.6812779507
| 13> H 1.6040259453 0.5650460595 -1.5575693586
| 14> C 0.4474870749 1.7233969135 -0.1655996058
| 15> O -0.745631174 1.9547367888 -0.0717370154
| 16> O 1.389539184 2.5486246578 0.1710431067
| 17> C 1.0062924409 3.8275045068 0.731709461
| 18> C 2.2718507995 4.5486341204 1.1475824488
| 19> S -0.453502581 -0.5683296685 -1.2844015998
| 20> P -1.883904454 -0.1940178316 0.2246368755
| 21> S -1.4677395709 0.1363845522 2.1247542723
| 22> O -3.1330296565 0.6207065529 -0.3507461644
| 23> C -3.4956265308 1.9610452875 -0.0199619426
| 24> O -2.4728227869 -1.6780549331 0.0191042794
| 25> C -3.5835926842 -2.1514004005 0.7834241376
| 26> H 4.8548685199 -3.9317268658 -2.3161500992
| 27> H 4.9665069087 -2.1648161656 -2.2827611094
| 28> H 4.8135439172 -3.0747473482 -0.7707736447
| 29> H 2.5247544374 -3.7885890908 -1.3980099357
| 30> H 2.6659979718 -2.91057864 -2.9543510272
| 31> H 2.6367362859 0.2681051278 0.6714140478
| 32> H 1.1581938963 -0.4723835451 1.3043253805
| 33> H 0.4542741755 4.3814145467 -0.0325362685
| 34> H 0.3399807416 3.6416291291 1.579230098
| 35> H 2.9260658209 4.6772928109 0.2909181688
| 36> H 2.0107571158 5.5222666858 1.548311587
| 37> H 2.7955243322 3.9796590881 1.9094894467
| 38> H -3.0479441731 2.6462054697 -0.7363674391
| 39> H -3.153625836 2.2050638201 0.9866612949
| 40> H -4.5815967993 1.9961774918 -0.0744257021
| 41> H -4.5048138235 -1.6875027316 0.4320796374
| 42> H -3.4345379449 -1.925177366 1.8417283785
| 43> H -3.6118336783 -3.2269164742 0.6276347525
| 44> *
| 45>
| 46>                          ****END OF INPUT****

CARTESIAN COORDINATES (ANGSTROEM)
---------------------------------
  C      4.511373   -3.033066   -1.814710
  C      2.996410   -2.949195   -1.916374
  O      2.511766   -1.721814   -1.340494
  C      2.244047   -1.694842   -0.051173
  O      2.371888   -2.635186    0.700483
  C      1.761404   -0.329092    0.404163
  C      0.972995    0.401528   -0.681278
  H      1.604026    0.565046   -1.557569
  C      0.447487    1.723397   -0.165600
  O     -0.745631    1.954737   -0.071737
  O      1.389539    2.548625    0.171043
  C      1.006292    3.827505    0.731709
  C      2.271851    4.548634    1.147582
  S     -0.453503   -0.568330   -1.284402
  P     -1.883904   -0.194018    0.224637
  S     -1.467740    0.136385    2.124754
  O     -3.133030    0.620707   -0.350746
  C     -3.495627    1.961045   -0.019962
  O     -2.472823   -1.678055    0.019104
  C     -3.583593   -2.151400    0.783424
  H      4.854869   -3.931727   -2.316150
  H      4.966507   -2.164816   -2.282761
  H      4.813544   -3.074747   -0.770774
  H      2.524754   -3.788589   -1.398010
  H      2.665998   -2.910579   -2.954351
  H      2.636736    0.268105    0.671414
  H      1.158194   -0.472384    1.304325
  H      0.454274    4.381415   -0.032536
  H      0.339981    3.641629    1.579230
  H      2.926066    4.677293    0.290918
  H      2.010757    5.522267    1.548312
  H      2.795524    3.979659    1.909489
  H     -3.047944    2.646205   -0.736367
  H     -3.153626    2.205064    0.986661
  H     -4.581597    1.996177   -0.074426
  H     -4.504814   -1.687503    0.432080
  H     -3.434538   -1.925177    1.841728
  H     -3.611834   -3.226916    0.627635

 Total Charge           Charge          ....    0
 Multiplicity           Mult            ....    1
 Number of Electrons    NEL             ....  174
 Basis Dimension        Dim             ....  316

ORBITAL ENERGIES
----------------

  NO   OCC          E(Eh)            E(eV)
   0   2.0000     -88.032337     -2395.4817
   1   2.0000     -87.968233     -2393.7373
   2   2.0000     -76.415907     -2079.3825
   3   2.0000     -18.832067      -512.4466
   4   2.0000     -18.804219      -511.6888
   5   2.0000     -18.778757      -510.9959
   6   2.0000     -18.767060      -510.6777
   7   2.0000     -18.766234      -510.6552
   8   2.0000     -18.733476      -509.7638
   9   2.0000     -10.035024      -273.0669
  10   2.0000     -10.008477      -272.3445
  11   2.0000      -9.966372      -271.1988
  12   2.0000      -9.951581      -270.7963
  13   2.0000      -9.948096      -270.7015
  14   2.0000      -9.931132      -270.2398
  15   2.0000      -9.926074      -270.1022
  16   2.0000      -9.907860      -269.6066
  17   2.0000      -9.902326      -269.4560
  18   2.0000      -9.888216      -269.0720
  19   2.0000      -7.677432      -208.9136
  20   2.0000      -7.613340      -207.1695
  21   2.0000      -6.411488      -174.4655
  22   2.0000      -5.705713      -155.2603
  23   2.0000      -5.702120      -155.1626
  24   2.0000      -5.693776      -154.9355
  25   2.0000      -5.642468      -153.5394
  26   2.0000      -5.634266      -153.3162
  27   2.0000      -5.632948      -153.2803
  28   2.0000      -4.634178      -126.1024
  29   2.0000      -4.633493      -126.0838
  30   2.0000      -4.632098      -126.0458
  31   2.0000      -1.042447       -28.3664
  32   2.0000      -1.010866       -27.5071
  33   2.0000      -0.966672       -26.3045
  34   2.0000      -0.944963       -25.7137
  35   2.0000      -0.920883       -25.0585
  36   2.0000      -0.912086       -24.8191
  37   2.0000      -0.768655       -20.9162
  38   2.0000      -0.725761       -19.7490
  39   2.0000      -0.708275       -19.2731
  40   2.0000      -0.686113       -18.6701
  41   2.0000      -0.649426       -17.6718
  42   2.0000      -0.628480       -17.1018
  43   2.0000      -0.617049       -16.7908
  44   2.0000      -0.612865       -16.6769
  45   2.0000      -0.594545       -16.1784
  46   2.0000      -0.566789       -15.4231
  47   2.0000      -0.528394       -14.3783
  48   2.0000      -0.505210       -13.7475
  49   2.0000      -0.498150       -13.5554
  50   2.0000      -0.486411       -13.2359
  51   2.0000      -0.468891       -12.7592
  52   2.0000      -0.463640       -12.6163
  53   2.0000      -0.450782       -12.2664
  54   2.0000      -0.447015       -12.1639
  55   2.0000      -0.438328       -11.9275
  56   2.0000      -0.419385       -11.4120
  57   2.0000      -0.411972       -11.2103
  58   2.0000      -0.410340       -11.1659
  59   2.0000      -0.403402       -10.9771
  60   2.0000      -0.397485       -10.8161
  61   2.0000      -0.388697       -10.5770
  62   2.0000      -0.387323       -10.5396
  63   2.0000      -0.384699       -10.4682
  64   2.0000      -0.378646       -10.3035
  65   2.0000      -0.372920       -10.1477
  66   2.0000      -0.367796       -10.0082
  67   2.0000      -0.356755        -9.7078
  68   2.0000      -0.350223        -9.5300
  69   2.0000      -0.343659        -9.3514
  70   2.0000      -0.335519        -9.1299
  71   2.0000      -0.330997        -9.0069
  72   2.0000      -0.328263        -8.9325
  73   2.0000      -0.318342        -8.6625
  74   2.0000      -0.302026        -8.2185
  75   2.0000      -0.294996        -8.0272
  76   2.0000      -0.291469        -7.9313
  77   2.0000      -0.289241        -7.8707
  78   2.0000      -0.273774        -7.4498
  79   2.0000      -0.260966        -7.1012
  80   2.0000      -0.258863        -7.0440
  81   2.0000      -0.255663        -6.9569
  82   2.0000      -0.244952        -6.6655
  83   2.0000      -0.217454        -5.9172
  84   2.0000      -0.210510        -5.7283
  85   2.0000      -0.189162        -5.1474
  86   2.0000      -0.181389        -4.9358
  87   0.0000      -0.049634        -1.3506
  88   0.0000      -0.036862        -1.0031
  89   0.0000      -0.016890        -0.4596
  90   0.0000       0.008500         0.2313
  91   0.0000       0.027967         0.7610

MULLIKEN ATOMIC CHARGES
-----------------------
   0 C :   -0.304824
   1 C :   -0.009231
   2 O :   -0.241847
   3 C :    0.145063
   4 O :   -0.189981
   5 C :   -0.118188
   6 C :   -0.301637
   7 H :    0.146808
   8 C :    0.236778
   9 O :   -0.203967
  10 O :   -0.215732
  11 C :   -0.035002
  12 C :   -0.275413
  13 S :   -0.060256
  14 P :    0.648604
  15 S :   -0.357511
  16 O :   -0.390648
  17 C :   -0.082897
  18 O :   -0.393756
  19 C :   -0.095218
  20 H :    0.114538
  21 H :    0.110592
  22 H :    0.127411
  23 H :    0.115468
  24 H :    0.103885
  25 H :    0.123651
  26 H :    0.130190
  27 H :    0.111643
  28 H :    0.126399
  29 H :    0.118711
  30 H :    0.118475
  31 H :    0.124155
  32 H :    0.110881
  33 H :    0.111815
  34 H :    0.113945
  35 H :    0.104871
  36 H :    0.112428
  37 H :    0.119794
Sum of atomic charges:    0.0000000

LOEWDIN ATOMIC CHARGES
----------------------
   0 C :   -0.356074
   1 C :   -0.109178
   2 O :   -0.062657
   3 C :    0.029655
   4 O :   -0.157102
   5 C :   -0.256614
   6 C :   -0.267503
   7 H :    0.149223
   8 C :    0.030531
   9 O :   -0.152091
  10 O :   -0.034100
  11 C :   -0.102092
  12 C :   -0.349942
  13 S :    0.126560
  14 P :    0.589978
  15 S :   -0.349536
  16 O :   -0.252568
  17 C :   -0.212028
  18 O :   -0.271337
  19 C :   -0.216343
  20 H :    0.131432
  21 H :    0.123149
  22 H :    0.130924
  23 H :    0.123844
  24 H :    0.118271
  25 H :    0.145899
  26 H :    0.140605
  27 H :    0.120077
  28 H :    0.126990
  29 H :    0.128651
  30 H :    0.135080
  31 H :    0.130936
  32 H :    0.110734
  33 H :    0.107505
  34 H :    0.114661
  35 H :    0.107581
  36 H :    0.107310
  37 H :    0.119570

  Mayer bond orders larger than 0.100000
B(  0-C ,  1-C ) :   1.1748 B(  0-C , 20-H ) :   0.9445 B(  0-C , 21-H ) :   0.9491
B(  0-C , 22-H ) :   0.9460 B(  1-C ,  2-O ) :   0.9108 B(  1-C , 23-H ) :   0.9134
B(  1-C , 24-H ) :   0.9374 B(  2-O ,  3-C ) :   1.2084 B(  3-C ,  4-O ) :   2.0743
B(  3-C ,  5-C ) :   1.0198 B(  5-C ,  6-C ) :   1.0363 B(  5-C , 25-H ) :   0.8722
B(  5-C , 26-H ) :   0.8783 B(  6-C ,  7-H ) :   0.8558 B(  6-C ,  8-C ) :   0.9281
B(  6-C , 13-S ) :   1.0387 B(  8-C ,  9-O ) :   1.8962 B(  8-C , 10-O ) :   1.2916
B(  9-O , 14-P ) :   0.1368 B( 10-O , 11-C ) :   0.8832 B( 11-C , 12-C ) :   1.1561
B( 11-C , 27-H ) :   0.9328 B( 11-C , 28-H ) :   0.9271 B( 12-C , 29-H ) :   0.9490
B( 12-C , 30-H ) :   0.9416 B( 12-C , 31-H ) :   0.9496 B( 13-S , 14-P ) :   0.9317
B( 13-S , 15-S ) :   0.1086 B( 14-P , 15-S ) :   1.5473 B( 14-P , 16-O ) :   1.0912
B( 14-P , 18-O ) :   1.0712 B( 16-O , 17-C ) :   0.9333 B( 17-C , 32-H ) :   0.9534
B( 17-C , 33-H ) :   0.9347 B( 17-C , 34-H ) :   0.9544 B( 18-O , 19-C ) :   0.9431
B( 19-C , 35-H ) :   0.9509 B( 19-C , 36-H ) :   0.9328 B( 19-C , 37-H ) :   0.9609

Dispersion correction           -0.050523405
FINAL SINGLE POINT ENERGY     -1979.012015438838

DIPOLE MOMENT
-------------

Method             : SCF
Type of density    : Electron Density
Multiplicity       :   1
Irrep              :   0
Energy             : -1979.1433140411882050 Eh
Relativity type    :
Basis              : AO
                                X                 Y                 Z
Electronic contribution:    -11.709531745      -4.910180387       0.134878424
Nuclear contribution   :     12.448726245       6.458512555      -1.111541212
                        -----------------------------------------
Total Dipole Moment    :      0.739194500       1.548332168      -0.976662788
                        -----------------------------------------
Magnitude (a.u.)       :      1.974236868
Magnitude (Debye)      :      5.018111323

Rotational constants in cm-1:             0.010803             0.007570             0.005236
Rotational constants in MHz :           323.852195           226.931696           156.967567

                             ****ORCA TERMINATED NORMALLY****
TOTAL RUN TIME: 0 days 0 hours 0 minutes 38 seconds 177 msec
