                         Program Version 6.0.0  -   RELEASE  -
|  1> ! pbe def2-sv(p) def2/J RI DEFGRID1 loosescf d4 GCP(DFT/SV(P)) printgap
|  2> %output
|  3>     printlevel normal
|  4> end
|  5> * xyz 0 1
|  6> C 0.6172590879 1.6958017732 -0.0268874657
|  7> C 1.3967492954 0.3997032519 -0.2603882407
|  8> H 1.5913587005 0.2779606844 -1.3378752225
|  9> C 0.5450411591 -0.790064708 0.2067502318
| 10> H 0.3627268883 -0.6862784076 1.284041447
| 11> C -0.8029373564 -0.7461181277 -0.5343041841
| 12> H -0.619201377 -0.8415360828 -1.6113415912
| 13> C -1.4645484948 0.6254351385 -0.2799051536
| 14> H -2.3643862794 0.7170881011 -0.9082958115
| 15> O -0.6393753136 1.6715365466 -0.6873632241
| 16> O -1.7983905267 0.7720790076 1.0717363769
| 17> O -1.7029086554 -1.7276622366 -0.0749210295
| 18> O 1.2677768501 -1.971806605 -0.0694199565
| 19> O 2.6057809766 0.4790644801 0.4486340215
| 20> H 1.1546568043 2.5453955879 -0.4454444277
| 21> H 0.480051882 1.8436392514 1.0497670142
| 22> H -2.3287245762 0.0032164605 1.3345982647
| 23> H -1.5073061682 -2.5768014852 -0.4943277223
| 24> H 0.9403624895 -2.6935543864 0.4844091626
| 25> H 3.0561476568 -0.376971198 0.3750116165
| 26> *
| 27>
| 28>                          ****END OF INPUT****

CARTESIAN COORDINATES (ANGSTROEM)
---------------------------------
  C      0.617259    1.695802   -0.026887
  C      1.396749    0.399703   -0.260388
  H      1.591359    0.277961   -1.337875
  C      0.545041   -0.790065    0.206750
  H      0.362727   -0.686278    1.284041
  C     -0.802937   -0.746118   -0.534304
  H     -0.619201   -0.841536   -1.611342
  C     -1.464548    0.625435   -0.279905
  H     -2.364386    0.717088   -0.908296
  O     -0.639375    1.671537   -0.687363
  O     -1.798391    0.772079    1.071736
  O     -1.702909   -1.727662   -0.074921
  O      1.267777   -1.971807   -0.069420
  O      2.605781    0.479064    0.448634
  H      1.154657    2.545396   -0.445444
  H      0.480052    1.843639    1.049767
  H     -2.328725    0.003216    1.334598
  H     -1.507306   -2.576801   -0.494328
  H      0.940362   -2.693554    0.484409
  H      3.056148   -0.376971    0.375012

 Total Charge           Charge          ....    0
 Multiplicity           Mult            ....    1
 Number of Electrons    NEL             ....   80
 Basis Dimension        Dim             ....  160

ORBITAL ENERGIES
----------------

  NO   OCC          E(Eh)            E(eV)
   0   2.0000     -18.772775      -510.8332
   1   2.0000     -18.768319      -510.7119
   2   2.0000     -18.765134      -510.6253
   3   2.0000     -18.754090      -510.3247
   4   2.0000     -18.745264      -510.0846
   5   2.0000      -9.983098      -271.6539
   6   2.0000      -9.943192      -270.5680
   7   2.0000      -9.940457      -270.4936
   8   2.0000      -9.938036      -270.4277
   9   2.0000      -9.926648      -270.1178
  10   2.0000      -0.978521       -26.6269
  11   2.0000      -0.951477       -25.8910
  12   2.0000      -0.939263       -25.5586
  13   2.0000      -0.917687       -24.9715
  14   2.0000      -0.907051       -24.6821
  15   2.0000      -0.703096       -19.1322
  16   2.0000      -0.676826       -18.4174
  17   2.0000      -0.585950       -15.9445
  18   2.0000      -0.572732       -15.5848
  19   2.0000      -0.520810       -14.1720
  20   2.0000      -0.493107       -13.4181
  21   2.0000      -0.491638       -13.3782
  22   2.0000      -0.468805       -12.7568
  23   2.0000      -0.463260       -12.6060
  24   2.0000      -0.429997       -11.7008
  25   2.0000      -0.418932       -11.3997
  26   2.0000      -0.409979       -11.1561
  27   2.0000      -0.371365       -10.1054
  28   2.0000      -0.367898       -10.0110
  29   2.0000      -0.348717        -9.4891
  30   2.0000      -0.326353        -8.8805
  31   2.0000      -0.306233        -8.3330
  32   2.0000      -0.302627        -8.2349
  33   2.0000      -0.285529        -7.7696
  34   2.0000      -0.274670        -7.4742
  35   2.0000      -0.265136        -7.2147
  36   2.0000      -0.241399        -6.5688
  37   2.0000      -0.228232        -6.2105
  38   2.0000      -0.215564        -5.8658
  39   2.0000      -0.204094        -5.5537
  40   0.0000      -0.006801        -0.1851
  41   0.0000       0.028523         0.7761
  42   0.0000       0.049021         1.3339
  43   0.0000       0.053181         1.4471
  44   0.0000       0.065741         1.7889

MULLIKEN ATOMIC CHARGES
-----------------------
   0 C :    0.100634
   1 C :    0.003438
   2 H :    0.059327
   3 C :    0.030668
   4 H :    0.055226
   5 C :    0.019728
   6 H :    0.066029
   7 C :    0.183933
   8 H :    0.064213
   9 O :   -0.304739
  10 O :   -0.412854
  11 O :   -0.425237
  12 O :   -0.423069
  13 O :   -0.419982
  14 H :    0.100435
  15 H :    0.084290
  16 H :    0.309254
  17 H :    0.305100
  18 H :    0.300770
  19 H :    0.302836
Sum of atomic charges:    0.0000000

LOEWDIN ATOMIC CHARGES
----------------------
   0 C :   -0.109688
   1 C :   -0.075953
   2 H :    0.101394
   3 C :   -0.090204
   4 H :    0.106635
   5 C :   -0.103542
   6 H :    0.109616
   7 C :    0.009939
   8 H :    0.096734
   9 O :   -0.134562
  10 O :   -0.320763
  11 O :   -0.327184
  12 O :   -0.327068
  13 O :   -0.322041
  14 H :    0.121559
  15 H :    0.113673
  16 H :    0.290590
  17 H :    0.289763
  18 H :    0.286451
  19 H :    0.284652

  Mayer bond orders larger than 0.100000
B(  0-C ,  1-C ) :   1.0672 B(  0-C ,  9-O ) :   0.9966 B(  0-C , 14-H ) :   0.9266
B(  0-C , 15-H ) :   0.8927 B(  1-C ,  2-H ) :   0.8782 B(  1-C ,  3-C ) :   1.0186
B(  1-C , 13-O ) :   1.0763 B(  3-C ,  4-H ) :   0.8808 B(  3-C ,  5-C ) :   0.9572
B(  3-C , 12-O ) :   1.0772 B(  5-C ,  6-H ) :   0.8833 B(  5-C ,  7-C ) :   0.9918
B(  5-C , 11-O ) :   1.0637 B(  7-C ,  8-H ) :   0.9036 B(  7-C ,  9-O ) :   1.0948
B(  7-C , 10-O ) :   1.0376 B( 10-O , 16-H ) :   0.8268 B( 11-O , 17-H ) :   0.8428
B( 12-O , 18-H ) :   0.8455 B( 13-O , 19-H ) :   0.8377

Dispersion correction           -0.019161176
FINAL SINGLE POINT ENERGY      -571.416168248454

DIPOLE MOMENT
-------------

Method             : SCF
Type of density    : Electron Density
Multiplicity       :   1
Irrep              :   0
Energy             :  -571.5243797150043292 Eh
Relativity type    :
Basis              : AO
                                X                 Y                 Z
Electronic contribution:     -0.890943682       0.045336809       0.143174287
Nuclear contribution   :      0.714386547      -1.688807178      -0.242594520
                        -----------------------------------------
Total Dipole Moment    :     -0.176557135      -1.643470370      -0.099420233
                        -----------------------------------------
Magnitude (a.u.)       :      1.655914146
Magnitude (Debye)      :      4.208999266

Rotational constants in cm-1:             0.057197             0.044581             0.028985
Rotational constants in MHz :          1714.727562          1336.503469           868.938774

                             ****ORCA TERMINATED NORMALLY****
TOTAL RUN TIME: 0 days 0 hours 0 minutes 10 seconds 868 msec
