                         Program Version 6.0.0  -   RELEASE  -
|  1> ! r2scan-3c def2/J RI DEFGRID2 scfconv6 printgap
|  2> %output
|  3>     printlevel normal
|  4> end
|  5> * xyz 0 1
|  6> C 2.3354287721 -2.3971809155 2.4498444874
|  7> C 1.4600986501 -1.8105375881 1.3601046555
|  8> O 1.8921124578 -0.4653318963 1.0929566751
|  9> P 2.3296522726 0.0848695999 -0.336770338
| 10> S 2.9369430192 -1.2594102032 -1.6182648935
| 11> O 3.4588359805 1.1227831978 0.0247300266
| 12> C 3.482825626 1.9839229534 1.1905358226
| 13> C 2.6277959707 3.2192751482 0.9984845452
| 14> S 0.7099421011 1.3039616268 -1.0181193266
| 15> C -0.089250871 0.0898006141 -2.087574313
| 16> S -0.842049731 -1.2866463006 -1.1717386978
| 17> P -2.1688590416 -0.1070779104 -0.0312863317
| 18> S -2.9579816124 1.4800193099 -0.877700193
| 19> O -1.2620241151 0.1475189541 1.2421729863
| 20> C -1.5777286512 1.1782863873 2.2079690566
| 21> C -0.4266523175 1.2519522524 3.1889431551
| 22> O -3.2333172273 -1.1302052124 0.5609726801
| 23> C -4.4690427359 -1.431066526 -0.1105486097
| 24> C -4.2435953402 -2.216652742 -1.3860897221
| 25> H 2.2918526598 -1.778997676 3.3420656408
| 26> H 1.9839959954 -3.3960707169 2.6867402433
| 27> H 3.3660956223 -2.4541923435 2.1077668189
| 28> H 0.4143671316 -1.7495734837 1.6703758918
| 29> H 1.5316059266 -2.4009321103 0.4405361857
| 30> H 3.1604344712 1.4056972454 2.0582813934
| 31> H 4.5379639972 2.2437174656 1.2892880776
| 32> H 2.7397012645 3.8662207161 1.8630968208
| 33> H 2.9373909273 3.756019616 0.1058469849
| 34> H 1.5787650549 2.9500930406 0.8889559969
| 35> H 0.6479014908 -0.3542846669 -2.7563802492
| 36> H -0.8599773812 0.6268997584 -2.6387785148
| 37> H -1.713528414 2.1214022482 1.6684966387
| 38> H -2.5151653527 0.9132112204 2.7034443774
| 39> H 0.5031504168 1.4225726016 2.653096685
| 40> H -0.5984304681 2.0700403461 3.8805663292
| 41> H -0.3464142063 0.3208464619 3.7424560888
| 42> H -5.0341058852 -2.0062805344 0.623987052
| 43> H -4.9835152113 -0.4886954734 -0.3244610452
| 44> H -3.6417472575 -3.0995062488 -1.1856045395
| 45> H -5.2014903628 -2.5176251489 -1.7979461434
| 46> H -3.7240921185 -1.5979569675 -2.1169143638
| 47> *
| 48>
| 49>                          ****END OF INPUT****

CARTESIAN COORDINATES (ANGSTROEM)
---------------------------------
  C      2.335429   -2.397181    2.449844
  C      1.460099   -1.810538    1.360105
  O      1.892112   -0.465332    1.092957
  P      2.329652    0.084870   -0.336770
  S      2.936943   -1.259410   -1.618265
  O      3.458836    1.122783    0.024730
  C      3.482826    1.983923    1.190536
  C      2.627796    3.219275    0.998485
  S      0.709942    1.303962   -1.018119
  C     -0.089251    0.089801   -2.087574
  S     -0.842050   -1.286646   -1.171739
  P     -2.168859   -0.107078   -0.031286
  S     -2.957982    1.480019   -0.877700
  O     -1.262024    0.147519    1.242173
  C     -1.577729    1.178286    2.207969
  C     -0.426652    1.251952    3.188943
  O     -3.233317   -1.130205    0.560973
  C     -4.469043   -1.431067   -0.110549
  C     -4.243595   -2.216653   -1.386090
  H      2.291853   -1.778998    3.342066
  H      1.983996   -3.396071    2.686740
  H      3.366096   -2.454192    2.107767
  H      0.414367   -1.749573    1.670376
  H      1.531606   -2.400932    0.440536
  H      3.160434    1.405697    2.058281
  H      4.537964    2.243717    1.289288
  H      2.739701    3.866221    1.863097
  H      2.937391    3.756020    0.105847
  H      1.578765    2.950093    0.888956
  H      0.647901   -0.354285   -2.756380
  H     -0.859977    0.626900   -2.638779
  H     -1.713528    2.121402    1.668497
  H     -2.515165    0.913211    2.703444
  H      0.503150    1.422573    2.653097
  H     -0.598430    2.070040    3.880566
  H     -0.346414    0.320846    3.742456
  H     -5.034106   -2.006281    0.623987
  H     -4.983515   -0.488695   -0.324461
  H     -3.641747   -3.099506   -1.185605
  H     -5.201490   -2.517625   -1.797946
  H     -3.724092   -1.597957   -2.116914

 Total Charge           Charge          ....    0
 Multiplicity           Mult            ....    1
 Number of Electrons    NEL             ....  202
 Basis Dimension        Dim             ....  539

ORBITAL ENERGIES
----------------

  NO   OCC          E(Eh)            E(eV)
   0   2.0000     -88.577568     -2410.3182
   1   2.0000     -88.571155     -2410.1437
   2   2.0000     -88.523494     -2408.8467
   3   2.0000     -88.518072     -2408.6992
   4   2.0000     -76.915860     -2092.9869
   5   2.0000     -76.914016     -2092.9368
   6   2.0000     -18.995327      -516.8891
   7   2.0000     -18.992999      -516.8258
   8   2.0000     -18.990964      -516.7704
   9   2.0000     -18.989471      -516.7298
  10   2.0000     -10.107243      -275.0321
  11   2.0000     -10.104281      -274.9515
  12   2.0000     -10.101237      -274.8686
  13   2.0000     -10.100307      -274.8433
  14   2.0000     -10.091399      -274.6009
  15   2.0000     -10.037978      -273.1473
  16   2.0000     -10.036710      -273.1128
  17   2.0000     -10.030547      -272.9451
  18   2.0000     -10.028717      -272.8953
  19   2.0000      -7.871967      -214.2071
  20   2.0000      -7.865406      -214.0286
  21   2.0000      -7.818198      -212.7440
  22   2.0000      -7.812975      -212.6019
  23   2.0000      -6.594521      -179.4460
  24   2.0000      -6.592041      -179.3786
  25   2.0000      -5.818838      -158.3386
  26   2.0000      -5.815879      -158.2581
  27   2.0000      -5.812422      -158.1640
  28   2.0000      -5.809203      -158.0765
  29   2.0000      -5.809031      -158.0718
  30   2.0000      -5.802448      -157.8926
  31   2.0000      -5.765790      -156.8951
  32   2.0000      -5.760699      -156.7566
  33   2.0000      -5.758517      -156.6972
  34   2.0000      -5.758231      -156.6894
  35   2.0000      -5.753155      -156.5513
  36   2.0000      -5.752970      -156.5463
  37   2.0000      -4.739953      -128.9807
  38   2.0000      -4.739380      -128.9651
  39   2.0000      -4.738355      -128.9372
  40   2.0000      -4.738016      -128.9280
  41   2.0000      -4.736651      -128.8908
  42   2.0000      -4.735701      -128.8650
  43   2.0000      -1.052187       -28.6315
  44   2.0000      -1.049760       -28.5654
  45   2.0000      -1.012417       -27.5493
  46   2.0000      -1.008203       -27.4346
  47   2.0000      -0.802449       -21.8357
  48   2.0000      -0.762068       -20.7369
  49   2.0000      -0.754274       -20.5249
  50   2.0000      -0.735825       -20.0228
  51   2.0000      -0.734308       -19.9815
  52   2.0000      -0.710952       -19.3460
  53   2.0000      -0.685879       -18.6637
  54   2.0000      -0.669410       -18.2156
  55   2.0000      -0.633004       -17.2249
  56   2.0000      -0.622683       -16.9441
  57   2.0000      -0.609815       -16.5939
  58   2.0000      -0.607586       -16.5333
  59   2.0000      -0.589782       -16.0488
  60   2.0000      -0.533264       -14.5109
  61   2.0000      -0.524907       -14.2835
  62   2.0000      -0.498672       -13.5696
  63   2.0000      -0.496155       -13.5011
  64   2.0000      -0.475144       -12.9293
  65   2.0000      -0.466627       -12.6976
  66   2.0000      -0.461504       -12.5582
  67   2.0000      -0.451698       -12.2913
  68   2.0000      -0.448773       -12.2117
  69   2.0000      -0.437967       -11.9177
  70   2.0000      -0.427947       -11.6450
  71   2.0000      -0.418517       -11.3884
  72   2.0000      -0.407041       -11.0761
  73   2.0000      -0.401246       -10.9185
  74   2.0000      -0.395326       -10.7574
  75   2.0000      -0.391750       -10.6601
  76   2.0000      -0.383315       -10.4305
  77   2.0000      -0.376401       -10.2424
  78   2.0000      -0.374908       -10.2018
  79   2.0000      -0.370627       -10.0853
  80   2.0000      -0.369469       -10.0538
  81   2.0000      -0.364787        -9.9264
  82   2.0000      -0.358403        -9.7527
  83   2.0000      -0.355597        -9.6763
  84   2.0000      -0.351076        -9.5533
  85   2.0000      -0.336418        -9.1544
  86   2.0000      -0.324461        -8.8290
  87   2.0000      -0.316895        -8.6231
  88   2.0000      -0.311660        -8.4807
  89   2.0000      -0.306366        -8.3366
  90   2.0000      -0.304426        -8.2839
  91   2.0000      -0.293543        -7.9877
  92   2.0000      -0.286281        -7.7901
  93   2.0000      -0.281604        -7.6628
  94   2.0000      -0.270268        -7.3544
  95   2.0000      -0.248010        -6.7487
  96   2.0000      -0.229301        -6.2396
  97   2.0000      -0.225709        -6.1419
  98   2.0000      -0.221179        -6.0186
  99   2.0000      -0.215354        -5.8601
 100   2.0000      -0.209617        -5.7040
 101   0.0000      -0.048456        -1.3185
 102   0.0000      -0.026113        -0.7106
 103   0.0000      -0.003054        -0.0831
 104   0.0000      -0.000089        -0.0024
 105   0.0000       0.006453         0.1756

MULLIKEN ATOMIC CHARGES
-----------------------
   0 C :   -0.492146
   1 C :   -0.111886
   2 O :   -0.269320
   3 P :    0.672117
   4 S :   -0.458100
   5 O :   -0.281605
   6 C :   -0.166661
   7 C :   -0.426319
   8 S :   -0.145324
   9 C :   -0.238868
  10 S :   -0.130614
  11 P :    0.680587
  12 S :   -0.478841
  13 O :   -0.244148
  14 C :   -0.156537
  15 C :   -0.448230
  16 O :   -0.307163
  17 C :   -0.150890
  18 C :   -0.446878
  19 H :    0.149252
  20 H :    0.147972
  21 H :    0.163171
  22 H :    0.170938
  23 H :    0.175352
  24 H :    0.164170
  25 H :    0.153874
  26 H :    0.151322
  27 H :    0.166733
  28 H :    0.148447
  29 H :    0.212106
  30 H :    0.215206
  31 H :    0.173957
  32 H :    0.149437
  33 H :    0.159622
  34 H :    0.147745
  35 H :    0.151594
  36 H :    0.147631
  37 H :    0.173343
  38 H :    0.155659
  39 H :    0.148514
  40 H :    0.174780
Sum of atomic charges:    0.0000000

LOEWDIN ATOMIC CHARGES
----------------------
   0 C :   -0.391339
   1 C :    0.005341
   2 O :   -0.679603
   3 P :    0.390003
   4 S :   -0.105444
   5 O :   -0.646369
   6 C :    0.029618
   7 C :   -0.403086
   8 S :    0.146373
   9 C :   -0.422849
  10 S :    0.170642
  11 P :    0.376372
  12 S :   -0.126220
  13 O :   -0.688400
  14 C :    0.022006
  15 C :   -0.387209
  16 O :   -0.661370
  17 C :    0.019038
  18 C :   -0.405828
  19 H :    0.155778
  20 H :    0.159797
  21 H :    0.162197
  22 H :    0.182348
  23 H :    0.184104
  24 H :    0.178139
  25 H :    0.183114
  26 H :    0.161004
  27 H :    0.165405
  28 H :    0.161416
  29 H :    0.193137
  30 H :    0.189518
  31 H :    0.181517
  32 H :    0.172401
  33 H :    0.165407
  34 H :    0.159641
  35 H :    0.158912
  36 H :    0.179234
  37 H :    0.180144
  38 H :    0.160297
  39 H :    0.159690
  40 H :    0.165124

  Mayer bond orders larger than 0.100000
B(  0-C ,  1-C ) :   0.9305 B(  0-C , 19-H ) :   0.9828 B(  0-C , 20-H ) :   0.9680
B(  0-C , 21-H ) :   0.9730 B(  1-C ,  2-O ) :   0.7050 B(  1-C , 22-H ) :   0.9535
B(  1-C , 23-H ) :   0.9408 B(  2-O ,  3-P ) :   1.0347 B(  3-P ,  4-S ) :   1.8321
B(  3-P ,  5-O ) :   1.1629 B(  3-P ,  8-S ) :   1.0038 B(  5-O ,  6-C ) :   0.7845
B(  6-C ,  7-C ) :   0.9428 B(  6-C , 24-H ) :   0.9729 B(  6-C , 25-H ) :   0.9576
B(  7-C , 26-H ) :   0.9642 B(  7-C , 27-H ) :   0.9673 B(  7-C , 28-H ) :   0.9513
B(  8-S ,  9-C ) :   0.9044 B(  9-C , 10-S ) :   0.8832 B(  9-C , 29-H ) :   0.9067
B(  9-C , 30-H ) :   0.9148 B( 10-S , 11-P ) :   1.0985 B( 11-P , 12-S ) :   1.7429
B( 11-P , 13-O ) :   1.1591 B( 11-P , 16-O ) :   1.0689 B( 13-O , 14-C ) :   0.7898
B( 14-C , 15-C ) :   0.9424 B( 14-C , 31-H ) :   0.9547 B( 14-C , 32-H ) :   0.9463
B( 15-C , 33-H ) :   0.9686 B( 15-C , 34-H ) :   0.9632 B( 15-C , 35-H ) :   0.9700
B( 16-O , 17-C ) :   0.8143 B( 17-C , 18-C ) :   0.9237 B( 17-C , 36-H ) :   0.9586
B( 17-C , 37-H ) :   0.9669 B( 18-C , 38-H ) :   0.9683 B( 18-C , 39-H ) :   0.9591
B( 18-C , 40-H ) :   0.9622

Dispersion correction           -0.022275312
FINAL SINGLE POINT ENERGY     -2932.462049343259

DIPOLE MOMENT
-------------

Method             : SCF
Type of density    : Electron Density
Multiplicity       :   1
Irrep              :   0
Energy             : -2932.4863396019391075 Eh
Relativity type    :
Basis              : AO
                                X                 Y                 Z
Electronic contribution:      2.225222387       0.160816515     -18.365024948
Nuclear contribution   :     -2.870944093      -0.130142309      20.120163320
                        -----------------------------------------
Total Dipole Moment    :     -0.645721705       0.030674206       1.755138372
                        -----------------------------------------
Magnitude (a.u.)       :      1.870403201
Magnitude (Debye)      :      4.754187115

Rotational constants in cm-1:             0.011525             0.005569             0.005229
Rotational constants in MHz :           345.523145           166.947456           156.761033

                             ****ORCA TERMINATED NORMALLY****
TOTAL RUN TIME: 0 days 0 hours 1 minutes 24 seconds 15 msec
