                         Program Version 6.0.0  -   RELEASE  -
|  1> ! r2scan-3c def2/J RI DEFGRID2 scfconv6 printgap
|  2> %output
|  3>     printlevel normal
|  4> end
|  5> %cpcm
|  6>     smd true
|  7>     smdsolvent "water"
|  8> end
|  9> * xyz 0 1
| 10> C 2.3354287721 -2.3971809155 2.4498444874
| 11> C 1.4600986501 -1.8105375881 1.3601046555
| 12> O 1.8921124578 -0.4653318963 1.0929566751
| 13> P 2.3296522726 0.0848695999 -0.336770338
| 14> S 2.9369430192 -1.2594102032 -1.6182648935
| 15> O 3.4588359805 1.1227831978 0.0247300266
| 16> C 3.482825626 1.9839229534 1.1905358226
| 17> C 2.6277959707 3.2192751482 0.9984845452
| 18> S 0.7099421011 1.3039616268 -1.0181193266
| 19> C -0.089250871 0.0898006141 -2.087574313
| 20> S -0.842049731 -1.2866463006 -1.1717386978
| 21> P -2.1688590416 -0.1070779104 -0.0312863317
| 22> S -2.9579816124 1.4800193099 -0.877700193
| 23> O -1.2620241151 0.1475189541 1.2421729863
| 24> C -1.5777286512 1.1782863873 2.2079690566
| 25> C -0.4266523175 1.2519522524 3.1889431551
| 26> O -3.2333172273 -1.1302052124 0.5609726801
| 27> C -4.4690427359 -1.431066526 -0.1105486097
| 28> C -4.2435953402 -2.216652742 -1.3860897221
| 29> H 2.2918526598 -1.778997676 3.3420656408
| 30> H 1.9839959954 -3.3960707169 2.6867402433
| 31> H 3.3660956223 -2.4541923435 2.1077668189
| 32> H 0.4143671316 -1.7495734837 1.6703758918
| 33> H 1.5316059266 -2.4009321103 0.4405361857
| 34> H 3.1604344712 1.4056972454 2.0582813934
| 35> H 4.5379639972 2.2437174656 1.2892880776
| 36> H 2.7397012645 3.8662207161 1.8630968208
| 37> H 2.9373909273 3.756019616 0.1058469849
| 38> H 1.5787650549 2.9500930406 0.8889559969
| 39> H 0.6479014908 -0.3542846669 -2.7563802492
| 40> H -0.8599773812 0.6268997584 -2.6387785148
| 41> H -1.713528414 2.1214022482 1.6684966387
| 42> H -2.5151653527 0.9132112204 2.7034443774
| 43> H 0.5031504168 1.4225726016 2.653096685
| 44> H -0.5984304681 2.0700403461 3.8805663292
| 45> H -0.3464142063 0.3208464619 3.7424560888
| 46> H -5.0341058852 -2.0062805344 0.623987052
| 47> H -4.9835152113 -0.4886954734 -0.3244610452
| 48> H -3.6417472575 -3.0995062488 -1.1856045395
| 49> H -5.2014903628 -2.5176251489 -1.7979461434
| 50> H -3.7240921185 -1.5979569675 -2.1169143638
| 51> *
| 52>
| 53>                          ****END OF INPUT****

CARTESIAN COORDINATES (ANGSTROEM)
---------------------------------
  C      2.335429   -2.397181    2.449844
  C      1.460099   -1.810538    1.360105
  O      1.892112   -0.465332    1.092957
  P      2.329652    0.084870   -0.336770
  S      2.936943   -1.259410   -1.618265
  O      3.458836    1.122783    0.024730
  C      3.482826    1.983923    1.190536
  C      2.627796    3.219275    0.998485
  S      0.709942    1.303962   -1.018119
  C     -0.089251    0.089801   -2.087574
  S     -0.842050   -1.286646   -1.171739
  P     -2.168859   -0.107078   -0.031286
  S     -2.957982    1.480019   -0.877700
  O     -1.262024    0.147519    1.242173
  C     -1.577729    1.178286    2.207969
  C     -0.426652    1.251952    3.188943
  O     -3.233317   -1.130205    0.560973
  C     -4.469043   -1.431067   -0.110549
  C     -4.243595   -2.216653   -1.386090
  H      2.291853   -1.778998    3.342066
  H      1.983996   -3.396071    2.686740
  H      3.366096   -2.454192    2.107767
  H      0.414367   -1.749573    1.670376
  H      1.531606   -2.400932    0.440536
  H      3.160434    1.405697    2.058281
  H      4.537964    2.243717    1.289288
  H      2.739701    3.866221    1.863097
  H      2.937391    3.756020    0.105847
  H      1.578765    2.950093    0.888956
  H      0.647901   -0.354285   -2.756380
  H     -0.859977    0.626900   -2.638779
  H     -1.713528    2.121402    1.668497
  H     -2.515165    0.913211    2.703444
  H      0.503150    1.422573    2.653097
  H     -0.598430    2.070040    3.880566
  H     -0.346414    0.320846    3.742456
  H     -5.034106   -2.006281    0.623987
  H     -4.983515   -0.488695   -0.324461
  H     -3.641747   -3.099506   -1.185605
  H     -5.201490   -2.517625   -1.797946
  H     -3.724092   -1.597957   -2.116914

 Total Charge           Charge          ....    0
 Multiplicity           Mult            ....    1
 Number of Electrons    NEL             ....  202
 Basis Dimension        Dim             ....  539

ORBITAL ENERGIES
----------------

  NO   OCC          E(Eh)            E(eV)
   0   2.0000     -88.579546     -2410.3720
   1   2.0000     -88.576138     -2410.2793
   2   2.0000     -88.529640     -2409.0140
   3   2.0000     -88.528474     -2408.9822
   4   2.0000     -76.921218     -2093.1328
   5   2.0000     -76.918357     -2093.0549
   6   2.0000     -18.996067      -516.9093
   7   2.0000     -18.995269      -516.8876
   8   2.0000     -18.992460      -516.8111
   9   2.0000     -18.990024      -516.7448
  10   2.0000     -10.103862      -274.9401
  11   2.0000     -10.093289      -274.6523
  12   2.0000     -10.089180      -274.5406
  13   2.0000     -10.088851      -274.5316
  14   2.0000     -10.086424      -274.4655
  15   2.0000     -10.021556      -272.7004
  16   2.0000     -10.018972      -272.6301
  17   2.0000     -10.018622      -272.6206
  18   2.0000     -10.017335      -272.5855
  19   2.0000      -7.873986      -214.2621
  20   2.0000      -7.870381      -214.1640
  21   2.0000      -7.824910      -212.9266
  22   2.0000      -7.823473      -212.8875
  23   2.0000      -6.599280      -179.5755
  24   2.0000      -6.597039      -179.5146
  25   2.0000      -5.820854      -158.3935
  26   2.0000      -5.817909      -158.3134
  27   2.0000      -5.817367      -158.2986
  28   2.0000      -5.814152      -158.2111
  29   2.0000      -5.811041      -158.1265
  30   2.0000      -5.807492      -158.0299
  31   2.0000      -5.772515      -157.0781
  32   2.0000      -5.770999      -157.0369
  33   2.0000      -5.765110      -156.8766
  34   2.0000      -5.764930      -156.8717
  35   2.0000      -5.763790      -156.8407
  36   2.0000      -5.763519      -156.8333
  37   2.0000      -4.745202      -129.1235
  38   2.0000      -4.743871      -129.0873
  39   2.0000      -4.743056      -129.0651
  40   2.0000      -4.742415      -129.0477
  41   2.0000      -4.741895      -129.0335
  42   2.0000      -4.740968      -129.0083
  43   2.0000      -1.052649       -28.6440
  44   2.0000      -1.051209       -28.6049
  45   2.0000      -1.011170       -27.5153
  46   2.0000      -1.010087       -27.4859
  47   2.0000      -0.804272       -21.8854
  48   2.0000      -0.757337       -20.6082
  49   2.0000      -0.745791       -20.2940
  50   2.0000      -0.726757       -19.7761
  51   2.0000      -0.722807       -19.6686
  52   2.0000      -0.708974       -19.2921
  53   2.0000      -0.688422       -18.7329
  54   2.0000      -0.675127       -18.3711
  55   2.0000      -0.630301       -17.1514
  56   2.0000      -0.617466       -16.8021
  57   2.0000      -0.602642       -16.3987
  58   2.0000      -0.598025       -16.2731
  59   2.0000      -0.586020       -15.9464
  60   2.0000      -0.527962       -14.3666
  61   2.0000      -0.520770       -14.1709
  62   2.0000      -0.493575       -13.4309
  63   2.0000      -0.490427       -13.3452
  64   2.0000      -0.475411       -12.9366
  65   2.0000      -0.460272       -12.5246
  66   2.0000      -0.455528       -12.3956
  67   2.0000      -0.446093       -12.1388
  68   2.0000      -0.438726       -11.9383
  69   2.0000      -0.434056       -11.8113
  70   2.0000      -0.424756       -11.5582
  71   2.0000      -0.413955       -11.2643
  72   2.0000      -0.403520       -10.9803
  73   2.0000      -0.395599       -10.7648
  74   2.0000      -0.392532       -10.6813
  75   2.0000      -0.388572       -10.5736
  76   2.0000      -0.380448       -10.3525
  77   2.0000      -0.367823       -10.0090
  78   2.0000      -0.363281        -9.8854
  79   2.0000      -0.361113        -9.8264
  80   2.0000      -0.357347        -9.7239
  81   2.0000      -0.356781        -9.7085
  82   2.0000      -0.349015        -9.4972
  83   2.0000      -0.348302        -9.4778
  84   2.0000      -0.340329        -9.2608
  85   2.0000      -0.333385        -9.0719
  86   2.0000      -0.320207        -8.7133
  87   2.0000      -0.309860        -8.4317
  88   2.0000      -0.305149        -8.3035
  89   2.0000      -0.303536        -8.2596
  90   2.0000      -0.301787        -8.2120
  91   2.0000      -0.289859        -7.8875
  92   2.0000      -0.284410        -7.7392
  93   2.0000      -0.280106        -7.6221
  94   2.0000      -0.271490        -7.3876
  95   2.0000      -0.250877        -6.8267
  96   2.0000      -0.237314        -6.4576
  97   2.0000      -0.234861        -6.3909
  98   2.0000      -0.228166        -6.2087
  99   2.0000      -0.223561        -6.0834
 100   2.0000      -0.217738        -5.9250
 101   0.0000      -0.052794        -1.4366
 102   0.0000      -0.032389        -0.8814
 103   0.0000      -0.007043        -0.1916
 104   0.0000      -0.003535        -0.0962
 105   0.0000       0.007280         0.1981

MULLIKEN ATOMIC CHARGES
-----------------------
   0 C :   -0.528331
   1 C :   -0.090820
   2 O :   -0.289847
   3 P :    0.683610
   4 S :   -0.511761
   5 O :   -0.319059
   6 C :   -0.147287
   7 C :   -0.467539
   8 S :   -0.160383
   9 C :   -0.249348
  10 S :   -0.137836
  11 P :    0.721401
  12 S :   -0.528324
  13 O :   -0.269362
  14 C :   -0.148706
  15 C :   -0.495351
  16 O :   -0.333559
  17 C :   -0.149828
  18 C :   -0.484124
  19 H :    0.167993
  20 H :    0.169844
  21 H :    0.165979
  22 H :    0.180437
  23 H :    0.172807
  24 H :    0.178789
  25 H :    0.176367
  26 H :    0.176892
  27 H :    0.175640
  28 H :    0.153086
  29 H :    0.228851
  30 H :    0.238683
  31 H :    0.174949
  32 H :    0.171631
  33 H :    0.169186
  34 H :    0.170264
  35 H :    0.169469
  36 H :    0.174636
  37 H :    0.177479
  38 H :    0.169612
  39 H :    0.172638
  40 H :    0.171224
Sum of atomic charges:    0.0000000

LOEWDIN ATOMIC CHARGES
----------------------
   0 C :   -0.394052
   1 C :    0.009984
   2 O :   -0.683259
   3 P :    0.389835
   4 S :   -0.147179
   5 O :   -0.668011
   6 C :    0.038359
   7 C :   -0.403727
   8 S :    0.140409
   9 C :   -0.418445
  10 S :    0.168106
  11 P :    0.382886
  12 S :   -0.157182
  13 O :   -0.698388
  14 C :    0.026053
  15 C :   -0.389636
  16 O :   -0.671505
  17 C :    0.024292
  18 C :   -0.409353
  19 H :    0.162490
  20 H :    0.167929
  21 H :    0.162080
  22 H :    0.186465
  23 H :    0.182887
  24 H :    0.186342
  25 H :    0.192712
  26 H :    0.171798
  27 H :    0.165363
  28 H :    0.161498
  29 H :    0.197700
  30 H :    0.196804
  31 H :    0.181804
  32 H :    0.180714
  33 H :    0.166752
  34 H :    0.168773
  35 H :    0.163346
  36 H :    0.190623
  37 H :    0.181378
  38 H :    0.163637
  39 H :    0.168396
  40 H :    0.161320

  Mayer bond orders larger than 0.100000
B(  0-C ,  1-C ) :   0.9312 B(  0-C , 19-H ) :   0.9764 B(  0-C , 20-H ) :   0.9624
B(  0-C , 21-H ) :   0.9713 B(  1-C ,  2-O ) :   0.6964 B(  1-C , 22-H ) :   0.9446
B(  1-C , 23-H ) :   0.9410 B(  2-O ,  3-P ) :   1.0429 B(  3-P ,  4-S ) :   1.8112
B(  3-P ,  5-O ) :   1.1708 B(  3-P ,  8-S ) :   1.0165 B(  5-O ,  6-C ) :   0.7753
B(  6-C ,  7-C ) :   0.9316 B(  6-C , 24-H ) :   0.9606 B(  6-C , 25-H ) :   0.9499
B(  7-C , 26-H ) :   0.9565 B(  7-C , 27-H ) :   0.9693 B(  7-C , 28-H ) :   0.9490
B(  8-S ,  9-C ) :   0.8911 B(  9-C , 10-S ) :   0.8772 B(  9-C , 29-H ) :   0.9034
B(  9-C , 30-H ) :   0.9074 B( 10-S , 11-P ) :   1.1043 B( 11-P , 12-S ) :   1.6992
B( 11-P , 13-O ) :   1.1715 B( 11-P , 16-O ) :   1.0772 B( 13-O , 14-C ) :   0.7820
B( 14-C , 15-C ) :   0.9326 B( 14-C , 31-H ) :   0.9513 B( 14-C , 32-H ) :   0.9370
B( 15-C , 33-H ) :   0.9668 B( 15-C , 34-H ) :   0.9567 B( 15-C , 35-H ) :   0.9674
B( 16-O , 17-C ) :   0.8028 B( 17-C , 18-C ) :   0.9114 B( 17-C , 36-H ) :   0.9490
B( 17-C , 37-H ) :   0.9654 B( 18-C , 38-H ) :   0.9658 B( 18-C , 39-H ) :   0.9538
B( 18-C , 40-H ) :   0.9630

Dispersion correction           -0.022275312
FINAL SINGLE POINT ENERGY     -2932.471916288866

DIPOLE MOMENT
-------------

Method             : SCF
Type of density    : Electron Density
Multiplicity       :   1
Irrep              :   0
Energy             : -2932.4962065475456257 Eh
Relativity type    :
Basis              : AO
                                X                 Y                 Z
Electronic contribution:      1.877818115       0.162740610     -17.706796763
Nuclear contribution   :     -2.870944093      -0.130142309      20.120163320
                        -----------------------------------------
Total Dipole Moment    :     -0.993125977       0.032598302       2.413366558
                        -----------------------------------------
Magnitude (a.u.)       :      2.609923370
Magnitude (Debye)      :      6.633898002

Rotational constants in cm-1:             0.011525             0.005569             0.005229
Rotational constants in MHz :           345.523145           166.947456           156.761033

                             ****ORCA TERMINATED NORMALLY****
TOTAL RUN TIME: 0 days 0 hours 1 minutes 55 seconds 356 msec
