                         Program Version 6.0.0  -   RELEASE  -
|  1> ! pbe def2-sv(p) def2/J RI DEFGRID1 loosescf d4 GCP(DFT/SV(P)) printgap
|  2> %output
|  3>     printlevel normal
|  4> end
|  5> * xyz 0 1
|  6> C 1.4732298986 -1.0292805642 -2.8078952161
|  7> C 2.4933390126 0.0233019306 -2.4276974413
|  8> O 2.2273621648 0.6117325056 -1.1321866742
|  9> P 2.2491388415 -0.1325922923 0.2551334073
| 10> S 2.4284648883 1.1530036499 1.7222303755
| 11> O 3.4568021537 -1.1440070743 0.0158084991
| 12> C 3.7874778209 -2.2692017818 0.8497647492
| 13> C 4.2601323626 -1.857342026 2.2288947309
| 14> S 0.5882137536 -1.4564368353 0.4264301286
| 15> C -0.3335721597 -0.6905036618 1.7930522433
| 16> S -2.0892271751 -0.4965626361 1.4146809725
| 17> P -1.9039609855 0.7201316188 -0.3205165138
| 18> S -0.4834555069 2.0698960308 -0.2742089259
| 19> O -3.3789837048 1.2913409971 -0.4765868404
| 20> C -3.9009291751 2.2879549077 0.4252777072
| 21> C -5.1214031569 2.907206284 -0.2249135473
| 22> O -1.796198006 -0.2302547043 -1.5692968614
| 23> C -2.7665668176 -1.2812769269 -1.8481223739
| 24> C -2.1344069996 -2.6442018675 -1.655315733
| 25> H 1.6478912929 -1.337168948 -3.8341746082
| 26> H 1.5602370649 -1.8965087834 -2.1548583012
| 27> H 0.468124559 -0.6209476779 -2.7211492624
| 28> H 2.4510460362 0.8827899333 -3.0991126025
| 29> H 3.5037089409 -0.3900687125 -2.4130506483
| 30> H 2.9113119009 -2.9203950343 0.9165890172
| 31> H 4.5806825694 -2.7723961564 0.2935592057
| 32> H 4.5736438955 -2.7392744732 2.7779756171
| 33> H 5.0947899803 -1.1651039636 2.1511692411
| 34> H 3.4586617852 -1.3624082764 2.7738025848
| 35> H 0.1191647972 0.2826681697 2.0059108709
| 36> H -0.2856541829 -1.343801154 2.6608364633
| 37> H -4.1553037732 1.7948036931 1.3673645255
| 38> H -3.1205478695 3.033747806 0.6100258928
| 39> H -5.8658708869 2.1413885078 -0.4212475127
| 40> H -5.5393592363 3.653888406 0.4421551226
| 41> H -4.8444385492 3.3792307969 -1.1633856781
| 42> H -3.6311257092 -1.1471490104 -1.1955256516
| 43> H -3.0610245626 -1.1185867805 -2.8856782328
| 44> H -1.8325864718 -2.7841277605 -0.6200670904
| 45> H -2.8599454352 -3.4063748488 -1.9208067579
| 46> H -1.2576631337 -2.7465669242 -2.2878053338
| 47> *
| 48>
| 49>                          ****END OF INPUT****

CARTESIAN COORDINATES (ANGSTROEM)
---------------------------------
  C      1.473230   -1.029281   -2.807895
  C      2.493339    0.023302   -2.427697
  O      2.227362    0.611733   -1.132187
  P      2.249139   -0.132592    0.255133
  S      2.428465    1.153004    1.722230
  O      3.456802   -1.144007    0.015808
  C      3.787478   -2.269202    0.849765
  C      4.260132   -1.857342    2.228895
  S      0.588214   -1.456437    0.426430
  C     -0.333572   -0.690504    1.793052
  S     -2.089227   -0.496563    1.414681
  P     -1.903961    0.720132   -0.320517
  S     -0.483456    2.069896   -0.274209
  O     -3.378984    1.291341   -0.476587
  C     -3.900929    2.287955    0.425278
  C     -5.121403    2.907206   -0.224914
  O     -1.796198   -0.230255   -1.569297
  C     -2.766567   -1.281277   -1.848122
  C     -2.134407   -2.644202   -1.655316
  H      1.647891   -1.337169   -3.834175
  H      1.560237   -1.896509   -2.154858
  H      0.468125   -0.620948   -2.721149
  H      2.451046    0.882790   -3.099113
  H      3.503709   -0.390069   -2.413051
  H      2.911312   -2.920395    0.916589
  H      4.580683   -2.772396    0.293559
  H      4.573644   -2.739274    2.777976
  H      5.094790   -1.165104    2.151169
  H      3.458662   -1.362408    2.773803
  H      0.119165    0.282668    2.005911
  H     -0.285654   -1.343801    2.660836
  H     -4.155304    1.794804    1.367365
  H     -3.120548    3.033748    0.610026
  H     -5.865871    2.141389   -0.421248
  H     -5.539359    3.653888    0.442155
  H     -4.844439    3.379231   -1.163386
  H     -3.631126   -1.147149   -1.195526
  H     -3.061025   -1.118587   -2.885678
  H     -1.832586   -2.784128   -0.620067
  H     -2.859945   -3.406375   -1.920807
  H     -1.257663   -2.746567   -2.287805

 Total Charge           Charge          ....    0
 Multiplicity           Mult            ....    1
 Number of Electrons    NEL             ....  202
 Basis Dimension        Dim             ....  334

ORBITAL ENERGIES
----------------

  NO   OCC          E(Eh)            E(eV)
   0   2.0000     -88.043317     -2395.7804
   1   2.0000     -88.041735     -2395.7374
   2   2.0000     -87.976985     -2393.9755
   3   2.0000     -87.974869     -2393.9179
   4   2.0000     -76.421951     -2079.5470
   5   2.0000     -76.421294     -2079.5291
   6   2.0000     -18.791849      -511.3522
   7   2.0000     -18.791143      -511.3330
   8   2.0000     -18.789774      -511.2957
   9   2.0000     -18.781312      -511.0655
  10   2.0000      -9.958526      -270.9853
  11   2.0000      -9.953164      -270.8394
  12   2.0000      -9.952172      -270.8124
  13   2.0000      -9.951439      -270.7924
  14   2.0000      -9.948783      -270.7201
  15   2.0000      -9.888221      -269.0722
  16   2.0000      -9.887568      -269.0544
  17   2.0000      -9.882144      -268.9068
  18   2.0000      -9.878920      -268.8191
  19   2.0000      -7.688394      -209.2118
  20   2.0000      -7.685615      -209.1362
  21   2.0000      -7.621830      -207.4005
  22   2.0000      -7.620140      -207.3545
  23   2.0000      -6.419418      -174.6812
  24   2.0000      -6.418043      -174.6438
  25   2.0000      -5.716206      -155.5459
  26   2.0000      -5.713453      -155.4710
  27   2.0000      -5.712712      -155.4508
  28   2.0000      -5.710033      -155.3779
  29   2.0000      -5.705662      -155.2589
  30   2.0000      -5.702861      -155.1827
  31   2.0000      -5.651012      -153.7718
  32   2.0000      -5.649293      -153.7251
  33   2.0000      -5.642285      -153.5344
  34   2.0000      -5.641927      -153.5246
  35   2.0000      -5.640581      -153.4880
  36   2.0000      -5.640173      -153.4769
  37   2.0000      -4.642228      -126.3214
  38   2.0000      -4.641334      -126.2971
  39   2.0000      -4.640926      -126.2860
  40   2.0000      -4.639897      -126.2580
  41   2.0000      -4.639482      -126.2467
  42   2.0000      -4.638270      -126.2137
  43   2.0000      -0.987923       -26.8827
  44   2.0000      -0.982193       -26.7268
  45   2.0000      -0.944025       -25.6882
  46   2.0000      -0.936241       -25.4764
  47   2.0000      -0.760620       -20.6975
  48   2.0000      -0.718938       -19.5633
  49   2.0000      -0.710015       -19.3205
  50   2.0000      -0.692028       -18.8310
  51   2.0000      -0.686213       -18.6728
  52   2.0000      -0.675267       -18.3749
  53   2.0000      -0.645238       -17.5578
  54   2.0000      -0.630092       -17.1457
  55   2.0000      -0.588297       -16.0084
  56   2.0000      -0.582187       -15.8421
  57   2.0000      -0.576106       -15.6766
  58   2.0000      -0.573046       -15.5934
  59   2.0000      -0.563385       -15.3305
  60   2.0000      -0.509000       -13.8506
  61   2.0000      -0.494399       -13.4533
  62   2.0000      -0.479763       -13.0550
  63   2.0000      -0.467191       -12.7129
  64   2.0000      -0.448428       -12.2023
  65   2.0000      -0.447004       -12.1636
  66   2.0000      -0.438985       -11.9454
  67   2.0000      -0.434485       -11.8229
  68   2.0000      -0.431404       -11.7391
  69   2.0000      -0.422455       -11.4956
  70   2.0000      -0.405628       -11.0377
  71   2.0000      -0.401917       -10.9367
  72   2.0000      -0.391222       -10.6457
  73   2.0000      -0.384835       -10.4719
  74   2.0000      -0.382244       -10.4014
  75   2.0000      -0.365878        -9.9561
  76   2.0000      -0.356511        -9.7011
  77   2.0000      -0.353095        -9.6082
  78   2.0000      -0.351514        -9.5652
  79   2.0000      -0.349970        -9.5232
  80   2.0000      -0.347082        -9.4446
  81   2.0000      -0.344863        -9.3842
  82   2.0000      -0.340602        -9.2683
  83   2.0000      -0.334892        -9.1129
  84   2.0000      -0.331791        -9.0285
  85   2.0000      -0.316760        -8.6195
  86   2.0000      -0.311278        -8.4703
  87   2.0000      -0.301570        -8.2061
  88   2.0000      -0.297699        -8.1008
  89   2.0000      -0.292461        -7.9583
  90   2.0000      -0.283342        -7.7101
  91   2.0000      -0.275558        -7.4983
  92   2.0000      -0.269285        -7.3276
  93   2.0000      -0.259369        -7.0578
  94   2.0000      -0.253713        -6.9039
  95   2.0000      -0.233327        -6.3492
  96   2.0000      -0.222140        -6.0447
  97   2.0000      -0.206013        -5.6059
  98   2.0000      -0.194344        -5.2884
  99   2.0000      -0.188347        -5.1252
 100   2.0000      -0.178982        -4.8703
 101   0.0000      -0.042098        -1.1455
 102   0.0000      -0.033801        -0.9198
 103   0.0000      -0.002785        -0.0758
 104   0.0000       0.009588         0.2609
 105   0.0000       0.015785         0.4295

MULLIKEN ATOMIC CHARGES
-----------------------
   0 C :   -0.357415
   1 C :    0.014619
   2 O :   -0.346462
   3 P :    0.633964
   4 S :   -0.296220
   5 O :   -0.385379
   6 C :   -0.007720
   7 C :   -0.301852
   8 S :   -0.148345
   9 C :   -0.328006
  10 S :   -0.126562
  11 P :    0.582930
  12 S :   -0.278034
  13 O :   -0.382961
  14 C :   -0.009517
  15 C :   -0.280956
  16 O :   -0.352072
  17 C :   -0.011598
  18 C :   -0.288743
  19 H :    0.109348
  20 H :    0.118561
  21 H :    0.153652
  22 H :    0.110784
  23 H :    0.105940
  24 H :    0.104538
  25 H :    0.102828
  26 H :    0.106079
  27 H :    0.121336
  28 H :    0.122382
  29 H :    0.210617
  30 H :    0.174743
  31 H :    0.102768
  32 H :    0.107438
  33 H :    0.112563
  34 H :    0.113251
  35 H :    0.122127
  36 H :    0.105678
  37 H :    0.111548
  38 H :    0.121952
  39 H :    0.108249
  40 H :    0.123947
Sum of atomic charges:    0.0000000

LOEWDIN ATOMIC CHARGES
----------------------
   0 C :   -0.376107
   1 C :   -0.107000
   2 O :   -0.224272
   3 P :    0.571423
   4 S :   -0.291491
   5 O :   -0.248326
   6 C :   -0.119136
   7 C :   -0.367727
   8 S :    0.071562
   9 C :   -0.480194
  10 S :    0.057686
  11 P :    0.553657
  12 S :   -0.286806
  13 O :   -0.253379
  14 C :   -0.120376
  15 C :   -0.350577
  16 O :   -0.232328
  17 C :   -0.110369
  18 C :   -0.359823
  19 H :    0.129271
  20 H :    0.112394
  21 H :    0.132119
  22 H :    0.123917
  23 H :    0.111871
  24 H :    0.101713
  25 H :    0.117545
  26 H :    0.127523
  27 H :    0.129459
  28 H :    0.120170
  29 H :    0.125594
  30 H :    0.133381
  31 H :    0.108138
  32 H :    0.110702
  33 H :    0.124962
  34 H :    0.131441
  35 H :    0.129774
  36 H :    0.108604
  37 H :    0.121672
  38 H :    0.116399
  39 H :    0.128963
  40 H :    0.127969

  Mayer bond orders larger than 0.100000
B(  0-C ,  1-C ) :   1.1683 B(  0-C , 19-H ) :   0.9355 B(  0-C , 20-H ) :   0.9358
B(  0-C , 21-H ) :   0.9254 B(  1-C ,  2-O ) :   0.9035 B(  1-C , 22-H ) :   0.9319
B(  1-C , 23-H ) :   0.9272 B(  2-O ,  3-P ) :   1.1423 B(  3-P ,  4-S ) :   1.6411
B(  3-P ,  5-O ) :   1.0658 B(  3-P ,  8-S ) :   0.9266 B(  4-S ,  8-S ) :   0.1173
B(  4-S , 29-H ) :   0.1076 B(  5-O ,  6-C ) :   0.9184 B(  6-C ,  7-C ) :   1.1653
B(  6-C , 24-H ) :   0.9172 B(  6-C , 25-H ) :   0.9342 B(  7-C , 26-H ) :   0.9365
B(  7-C , 27-H ) :   0.9462 B(  7-C , 28-H ) :   0.9318 B(  8-S ,  9-C ) :   0.9987
B(  9-C , 10-S ) :   1.0027 B(  9-C , 29-H ) :   0.8417 B(  9-C , 30-H ) :   0.9103
B( 10-S , 11-P ) :   0.9316 B( 10-S , 12-S ) :   0.1092 B( 11-P , 12-S ) :   1.6860
B( 11-P , 13-O ) :   1.0814 B( 11-P , 16-O ) :   1.1218 B( 13-O , 14-C ) :   0.9036
B( 14-C , 15-C ) :   1.1602 B( 14-C , 31-H ) :   0.9289 B( 14-C , 32-H ) :   0.9090
B( 15-C , 33-H ) :   0.9513 B( 15-C , 34-H ) :   0.9419 B( 15-C , 35-H ) :   0.9508
B( 16-O , 17-C ) :   0.8829 B( 17-C , 18-C ) :   1.1671 B( 17-C , 36-H ) :   0.9170
B( 17-C , 37-H ) :   0.9348 B( 18-C , 38-H ) :   0.9325 B( 18-C , 39-H ) :   0.9385
B( 18-C , 40-H ) :   0.9444

Dispersion correction           -0.067003701
FINAL SINGLE POINT ENERGY     -2929.514557436141

DIPOLE MOMENT
-------------

Method             : SCF
Type of density    : Electron Density
Multiplicity       :   1
Irrep              :   0
Energy             : -2929.6329597136855227 Eh
Relativity type    :
Basis              : AO
                                X                 Y                 Z
Electronic contribution:      5.075743256      10.641585648       7.595174267
Nuclear contribution   :     -6.021810922     -12.358314270      -8.262112358
                        -----------------------------------------
Total Dipole Moment    :     -0.946067666      -1.716728621      -0.666938091
                        -----------------------------------------
Magnitude (a.u.)       :      2.070509021
Magnitude (Debye)      :      5.262815688

Rotational constants in cm-1:             0.012946             0.005134             0.004848
Rotational constants in MHz :           388.101488           153.924509           145.330236

                             ****ORCA TERMINATED NORMALLY****
TOTAL RUN TIME: 0 days 0 hours 0 minutes 21 seconds 710 msec
