                         Program Version 6.0.0  -   RELEASE  -
|  1> ! pbe def2-sv(p) def2/J RI DEFGRID1 loosescf d4 GCP(DFT/SV(P)) printgap
|  2> %output
|  3>     printlevel normal
|  4> end
|  5> * xyz 0 1
|  6> C 4.3761474413 1.3923334069 -0.0005096817
|  7> C 3.0993866023 1.9317868092 0.0003955233
|  8> C 1.9932749082 1.1001102325 0.0013599324
|  9> C 2.1617780587 -0.283364158 0.0012668559
| 10> C 3.4316644621 -0.8314770525 0.0002250055
| 11> C 4.5305725325 0.0170300039 -0.0004589085
| 12> Cl 6.118354327 -0.6727050591 -0.002193121
| 13> O 1.0861836586 -1.1488214125 0.002364595
| 14> C -0.1447605216 -0.568767057 0.0015197588
| 15> C -0.3146355655 0.8200549497 0.0014266323
| 16> C -1.5986579987 1.3559054298 0.0003736268
| 17> C -2.7159237839 0.5201938094 -0.0003079451
| 18> C -2.5466457992 -0.8592713459 -7.58348e-05
| 19> C -1.2601425018 -1.399655394 0.0007369404
| 20> Cl -1.0233225926 -3.0996101743 0.0008105327
| 21> Cl -3.9107350564 -1.8987853291 -0.0011051635
| 22> Cl -4.2910259854 1.1983165633 -0.0017540362
| 23> Cl -1.7806320911 3.0621087385 6.62797e-05
| 24> O 0.73822134 1.6789778123 0.0024561194
| 25> H 5.238176198 2.0372540745 -0.0012533336
| 26> H 2.9440483287 2.9973000584 0.0005770127
| 27> H 3.5415691792 -1.9025108466 9.83102e-05
| 28> *
| 29>
| 30>                          ****END OF INPUT****

CARTESIAN COORDINATES (ANGSTROEM)
---------------------------------
  C      4.376147    1.392333   -0.000510
  C      3.099387    1.931787    0.000396
  C      1.993275    1.100110    0.001360
  C      2.161778   -0.283364    0.001267
  C      3.431664   -0.831477    0.000225
  C      4.530573    0.017030   -0.000459
  Cl     6.118354   -0.672705   -0.002193
  O      1.086184   -1.148821    0.002365
  C     -0.144761   -0.568767    0.001520
  C     -0.314636    0.820055    0.001427
  C     -1.598658    1.355905    0.000374
  C     -2.715924    0.520194   -0.000308
  C     -2.546646   -0.859271   -0.000076
  C     -1.260143   -1.399655    0.000737
  Cl    -1.023323   -3.099610    0.000811
  Cl    -3.910735   -1.898785   -0.001105
  Cl    -4.291026    1.198317   -0.001754
  Cl    -1.780632    3.062109    0.000066
  O      0.738221    1.678978    0.002456
  H      5.238176    2.037254   -0.001253
  H      2.944048    2.997300    0.000577
  H      3.541569   -1.902511    0.000098

 Total Charge           Charge          ....    0
 Multiplicity           Mult            ....    1
 Number of Electrons    NEL             ....  176
 Basis Dimension        Dim             ....  292

ORBITAL ENERGIES
----------------

  NO   OCC          E(Eh)            E(eV)
   0   2.0000    -100.660735     -2739.1178
   1   2.0000    -100.660628     -2739.1149
   2   2.0000    -100.659875     -2739.0944
   3   2.0000    -100.659722     -2739.0903
   4   2.0000    -100.651616     -2738.8697
   5   2.0000     -18.840347      -512.6719
   6   2.0000     -18.839228      -512.6414
   7   2.0000      -9.997710      -272.0515
   8   2.0000      -9.997446      -272.0443
   9   2.0000      -9.990428      -271.8534
  10   2.0000      -9.986526      -271.7472
  11   2.0000      -9.980216      -271.5755
  12   2.0000      -9.979912      -271.5672
  13   2.0000      -9.979705      -271.5616
  14   2.0000      -9.979610      -271.5590
  15   2.0000      -9.969671      -271.2885
  16   2.0000      -9.925007      -270.0732
  17   2.0000      -9.924668      -270.0640
  18   2.0000      -9.921976      -269.9907
  19   2.0000      -9.196282      -250.2435
  20   2.0000      -9.196171      -250.2405
  21   2.0000      -9.195568      -250.2241
  22   2.0000      -9.195413      -250.2199
  23   2.0000      -9.187520      -250.0051
  24   2.0000      -7.028110      -191.2446
  25   2.0000      -7.028010      -191.2419
  26   2.0000      -7.027390      -191.2250
  27   2.0000      -7.027242      -191.2210
  28   2.0000      -7.018949      -190.9953
  29   2.0000      -7.016216      -190.9210
  30   2.0000      -7.016112      -190.9181
  31   2.0000      -7.015525      -190.9021
  32   2.0000      -7.015388      -190.8984
  33   2.0000      -7.015217      -190.8938
  34   2.0000      -7.015108      -190.8908
  35   2.0000      -7.014484      -190.8738
  36   2.0000      -7.014352      -190.8702
  37   2.0000      -7.007469      -190.6829
  38   2.0000      -7.006865      -190.6665
  39   2.0000      -1.047808       -28.5123
  40   2.0000      -1.012774       -27.5590
  41   2.0000      -0.872919       -23.7533
  42   2.0000      -0.834240       -22.7008
  43   2.0000      -0.833202       -22.6726
  44   2.0000      -0.812509       -22.1095
  45   2.0000      -0.785337       -21.3701
  46   2.0000      -0.784835       -21.3564
  47   2.0000      -0.762897       -20.7595
  48   2.0000      -0.719985       -19.5918
  49   2.0000      -0.700228       -19.0542
  50   2.0000      -0.670712       -18.2510
  51   2.0000      -0.660547       -17.9744
  52   2.0000      -0.620224       -16.8771
  53   2.0000      -0.597788       -16.2666
  54   2.0000      -0.571179       -15.5426
  55   2.0000      -0.557373       -15.1669
  56   2.0000      -0.536423       -14.5968
  57   2.0000      -0.511257       -13.9120
  58   2.0000      -0.480764       -13.0823
  59   2.0000      -0.467160       -12.7121
  60   2.0000      -0.460493       -12.5307
  61   2.0000      -0.456824       -12.4308
  62   2.0000      -0.439009       -11.9460
  63   2.0000      -0.428150       -11.6506
  64   2.0000      -0.420607       -11.4453
  65   2.0000      -0.405107       -11.0235
  66   2.0000      -0.404662       -11.0114
  67   2.0000      -0.402038       -10.9400
  68   2.0000      -0.397490       -10.8162
  69   2.0000      -0.388195       -10.5633
  70   2.0000      -0.370671       -10.0865
  71   2.0000      -0.367753       -10.0071
  72   2.0000      -0.365709        -9.9515
  73   2.0000      -0.347761        -9.4631
  74   2.0000      -0.329543        -8.9673
  75   2.0000      -0.319382        -8.6908
  76   2.0000      -0.304229        -8.2785
  77   2.0000      -0.302719        -8.2374
  78   2.0000      -0.301137        -8.1944
  79   2.0000      -0.297097        -8.0844
  80   2.0000      -0.283266        -7.7081
  81   2.0000      -0.280206        -7.6248
  82   2.0000      -0.273963        -7.4549
  83   2.0000      -0.261824        -7.1246
  84   2.0000      -0.252973        -6.8837
  85   2.0000      -0.238505        -6.4901
  86   2.0000      -0.219439        -5.9712
  87   2.0000      -0.194305        -5.2873
  88   0.0000      -0.077074        -2.0973
  89   0.0000      -0.066803        -1.8178
  90   0.0000      -0.062942        -1.7128
  91   0.0000      -0.056864        -1.5473
  92   0.0000      -0.034210        -0.9309

MULLIKEN ATOMIC CHARGES
-----------------------
   0 C :   -0.063132
   1 C :   -0.172977
   2 C :    0.225728
   3 C :    0.203790
   4 C :   -0.181617
   5 C :    0.132779
   6 Cl:   -0.074293
   7 O :   -0.190488
   8 C :    0.121360
   9 C :    0.125117
  10 C :   -0.022953
  11 C :   -0.016520
  12 C :   -0.017246
  13 C :   -0.021043
  14 Cl:   -0.005476
  15 Cl:   -0.015009
  16 Cl:   -0.014937
  17 Cl:   -0.006322
  18 O :   -0.189695
  19 H :    0.060056
  20 H :    0.066349
  21 H :    0.056528
Sum of atomic charges:    0.0000000

LOEWDIN ATOMIC CHARGES
----------------------
   0 C :   -0.140313
   1 C :   -0.122558
   2 C :    0.015520
   3 C :    0.026202
   4 C :   -0.146678
   5 C :   -0.133081
   6 Cl:    0.136891
   7 O :   -0.012548
   8 C :   -0.006214
   9 C :   -0.005894
  10 C :   -0.179823
  11 C :   -0.185954
  12 C :   -0.186452
  13 C :   -0.179071
  14 Cl:    0.178414
  15 Cl:    0.174824
  16 Cl:    0.175043
  17 Cl:    0.178083
  18 O :   -0.013673
  19 H :    0.136761
  20 H :    0.144040
  21 H :    0.146480

  Mayer bond orders larger than 0.100000
B(  0-C ,  1-C ) :   1.3074 B(  0-C ,  5-C ) :   1.3885 B(  0-C , 19-H ) :   0.9716
B(  1-C ,  2-C ) :   1.3764 B(  1-C ,  4-C ) :   0.1021 B(  1-C , 20-H ) :   0.9662
B(  2-C ,  3-C ) :   1.2888 B(  2-C , 18-O ) :   1.0310 B(  3-C ,  4-C ) :   1.3550
B(  3-C ,  7-O ) :   1.0320 B(  4-C ,  5-C ) :   1.3050 B(  4-C , 21-H ) :   0.9767
B(  5-C ,  6-Cl) :   0.9680 B(  7-O ,  8-C ) :   1.1444 B(  8-C ,  9-C ) :   1.2257
B(  8-C , 13-C ) :   1.3836 B(  9-C , 10-C ) :   1.3813 B(  9-C , 18-O ) :   1.1503
B( 10-C , 11-C ) :   1.4312 B( 10-C , 17-Cl) :   1.0974 B( 11-C , 12-C ) :   1.4304
B( 11-C , 16-Cl) :   1.1113 B( 12-C , 13-C ) :   1.4297 B( 12-C , 15-Cl) :   1.1111
B( 13-C , 14-Cl) :   1.0979

Dispersion correction           -0.043618686
FINAL SINGLE POINT ENERGY     -2907.664305354381

DIPOLE MOMENT
-------------

Method             : SCF
Type of density    : Electron Density
Multiplicity       :   1
Irrep              :   0
Energy             : -2907.6976987019943408 Eh
Relativity type    :
Basis              : AO
                                X                 Y                 Z
Electronic contribution:    -17.110293187      -4.522087216      -0.005248285
Nuclear contribution   :     17.585826102       4.839669725       0.005133396
                        -----------------------------------------
Total Dipole Moment    :      0.475532915       0.317582509      -0.000114890
                        -----------------------------------------
Magnitude (a.u.)       :      0.571830584
Magnitude (Debye)      :      1.453477834

Rotational constants in cm-1:             0.015153             0.004432             0.003429
Rotational constants in MHz :           454.261316           132.880319           102.807229

                             ****ORCA TERMINATED NORMALLY****
TOTAL RUN TIME: 0 days 0 hours 0 minutes 18 seconds 118 msec
