                         Program Version 6.0.1  -  RELEASE   -
|  1> ! pbe def2-sv(p) def2/J RI DEFGRID1 loosescf d4 GCP(DFT/SV(P)) printgap
|  2> %output
|  3>     printlevel normal
|  4> end
|  5> * xyz 0 1
|  6> C 4.6027226771 -3.9778331086 -1.7446485612
|  7> C 4.138661243 -2.8213040444 -0.8810741312
|  8> O 3.1965919838 -2.0420146074 -1.646608784
|  9> C 2.4073884627 -1.2116882271 -1.0067274048
| 10> O 2.411722339 -1.0488157885 0.1976205245
| 11> C 1.4878777383 -0.4607736373 -1.9461414239
| 12> C 0.4223910196 0.2671990376 -1.1382983287
| 13> H -0.1397605388 0.96083299 -1.7729390511
| 14> C 1.0817926215 1.0847190235 -0.0390752382
| 15> O 2.0314241388 1.8022270959 -0.2579738464
| 16> O 0.4734922641 0.9650084999 1.122882636
| 17> C 0.9924864351 1.708544535 2.2424171356
| 18> C 0.3614123962 3.0879177079 2.3214270647
| 19> S -0.7699094774 -0.9298939358 -0.4528762429
| 20> P -2.1735351293 0.4580711266 0.3367870518
| 21> S -2.1606637327 2.2523078953 -0.4449148361
| 22> O -3.5531975714 -0.3329056217 0.1322617771
| 23> C -4.0943077132 -0.5534816322 -1.1747801872
| 24> O -2.1021792561 0.4628628491 1.9146203152
| 25> C -2.1019729533 -0.7533779794 2.6860710118
| 26> H 5.329705665 -4.5658285909 -1.1945621542
| 27> H 3.7595635769 -4.6079673899 -2.0110943119
| 28> H 5.0601242007 -3.6002960608 -2.6539422251
| 29> H 4.9698152188 -2.1666354348 -0.6020288199
| 30> H 3.6429454487 -3.162350806 0.0329125552
| 31> H 1.0448763952 -1.1523113543 -2.6617087813
| 32> H 2.091819696 0.2709974759 -2.4875750291
| 33> H 0.7395533197 1.1030137178 3.1130614077
| 34> H 2.0775585832 1.7758671051 2.1246243177
| 35> H 0.7237094067 3.5985495956 3.2071568441
| 36> H 0.6214017065 3.6711698661 1.440491294
| 37> H -0.7217996556 3.0004450253 2.3714472279
| 38> H -5.101757795 -0.9287357585 -1.0145217171
| 39> H -3.4889964761 -1.2871457264 -1.7067657006
| 40> H -4.12106595 0.3841668202 -1.7321424956
| 41> H -1.2137355044 -1.339572781 2.4495981434
| 42> H -2.9996853572 -1.331047273 2.4744882156
| 43> H -2.0859211056 -0.4314865128 3.7241117384
| 44> *
| 45>
| 46>                          ****END OF INPUT****

CARTESIAN COORDINATES (ANGSTROEM)
---------------------------------
  C      4.602723   -3.977833   -1.744649
  C      4.138661   -2.821304   -0.881074
  O      3.196592   -2.042015   -1.646609
  C      2.407388   -1.211688   -1.006727
  O      2.411722   -1.048816    0.197621
  C      1.487878   -0.460774   -1.946141
  C      0.422391    0.267199   -1.138298
  H     -0.139761    0.960833   -1.772939
  C      1.081793    1.084719   -0.039075
  O      2.031424    1.802227   -0.257974
  O      0.473492    0.965008    1.122883
  C      0.992486    1.708545    2.242417
  C      0.361412    3.087918    2.321427
  S     -0.769909   -0.929894   -0.452876
  P     -2.173535    0.458071    0.336787
  S     -2.160664    2.252308   -0.444915
  O     -3.553198   -0.332906    0.132262
  C     -4.094308   -0.553482   -1.174780
  O     -2.102179    0.462863    1.914620
  C     -2.101973   -0.753378    2.686071
  H      5.329706   -4.565829   -1.194562
  H      3.759564   -4.607967   -2.011094
  H      5.060124   -3.600296   -2.653942
  H      4.969815   -2.166635   -0.602029
  H      3.642945   -3.162351    0.032913
  H      1.044876   -1.152311   -2.661709
  H      2.091820    0.270997   -2.487575
  H      0.739553    1.103014    3.113061
  H      2.077559    1.775867    2.124624
  H      0.723709    3.598550    3.207157
  H      0.621402    3.671170    1.440491
  H     -0.721800    3.000445    2.371447
  H     -5.101758   -0.928736   -1.014522
  H     -3.488996   -1.287146   -1.706766
  H     -4.121066    0.384167   -1.732142
  H     -1.213736   -1.339573    2.449598
  H     -2.999685   -1.331047    2.474488
  H     -2.085921   -0.431487    3.724112

 Total Charge           Charge          ....    0
 Multiplicity           Mult            ....    1
 Number of Electrons    NEL             ....  174
 Basis Dimension        Dim             ....  316

ORBITAL ENERGIES
----------------

  NO   OCC          E(Eh)            E(eV)
   0   2.0000     -88.037315     -2395.6171
   1   2.0000     -87.981724     -2394.1044
   2   2.0000     -76.424274     -2079.6102
   3   2.0000     -18.810168      -511.8507
   4   2.0000     -18.795161      -511.4423
   5   2.0000     -18.793063      -511.3852
   6   2.0000     -18.789970      -511.3011
   7   2.0000     -18.748107      -510.1619
   8   2.0000     -18.724499      -509.5195
   9   2.0000     -10.017208      -272.5821
  10   2.0000     -10.005976      -272.2765
  11   2.0000      -9.954969      -270.8885
  12   2.0000      -9.949246      -270.7327
  13   2.0000      -9.943408      -270.5739
  14   2.0000      -9.941674      -270.5267
  15   2.0000      -9.936505      -270.3860
  16   2.0000      -9.917491      -269.8686
  17   2.0000      -9.895055      -269.2581
  18   2.0000      -9.868895      -268.5463
  19   2.0000      -7.681880      -209.0346
  20   2.0000      -7.626844      -207.5370
  21   2.0000      -6.421140      -174.7281
  22   2.0000      -5.709571      -155.3653
  23   2.0000      -5.706613      -155.2848
  24   2.0000      -5.698913      -155.0753
  25   2.0000      -5.655983      -153.9071
  26   2.0000      -5.647273      -153.6701
  27   2.0000      -5.646936      -153.6609
  28   2.0000      -4.643833      -126.3651
  29   2.0000      -4.643049      -126.3438
  30   2.0000      -4.641490      -126.3014
  31   2.0000      -1.019739       -27.7485
  32   2.0000      -1.002614       -27.2825
  33   2.0000      -0.985657       -26.8211
  34   2.0000      -0.941334       -25.6150
  35   2.0000      -0.924455       -25.1557
  36   2.0000      -0.906236       -24.6599
  37   2.0000      -0.763505       -20.7760
  38   2.0000      -0.720788       -19.6137
  39   2.0000      -0.698057       -18.9951
  40   2.0000      -0.688964       -18.7477
  41   2.0000      -0.659985       -17.9591
  42   2.0000      -0.635875       -17.3030
  43   2.0000      -0.620373       -16.8812
  44   2.0000      -0.610775       -16.6200
  45   2.0000      -0.592026       -16.1098
  46   2.0000      -0.557046       -15.1580
  47   2.0000      -0.516367       -14.0510
  48   2.0000      -0.513680       -13.9780
  49   2.0000      -0.492470       -13.4008
  50   2.0000      -0.478750       -13.0275
  51   2.0000      -0.473008       -12.8712
  52   2.0000      -0.462994       -12.5987
  53   2.0000      -0.452061       -12.3012
  54   2.0000      -0.433289       -11.7904
  55   2.0000      -0.428750       -11.6669
  56   2.0000      -0.421086       -11.4583
  57   2.0000      -0.419246       -11.4083
  58   2.0000      -0.414866       -11.2891
  59   2.0000      -0.412932       -11.2364
  60   2.0000      -0.400780       -10.9058
  61   2.0000      -0.398255       -10.8371
  62   2.0000      -0.387370       -10.5409
  63   2.0000      -0.380673       -10.3586
  64   2.0000      -0.370412       -10.0794
  65   2.0000      -0.366254        -9.9663
  66   2.0000      -0.358914        -9.7666
  67   2.0000      -0.349291        -9.5047
  68   2.0000      -0.344917        -9.3857
  69   2.0000      -0.339169        -9.2293
  70   2.0000      -0.329665        -8.9706
  71   2.0000      -0.320555        -8.7227
  72   2.0000      -0.317295        -8.6340
  73   2.0000      -0.314381        -8.5547
  74   2.0000      -0.306991        -8.3536
  75   2.0000      -0.304327        -8.2812
  76   2.0000      -0.296774        -8.0756
  77   2.0000      -0.285752        -7.7757
  78   2.0000      -0.269679        -7.3383
  79   2.0000      -0.267505        -7.2792
  80   2.0000      -0.258504        -7.0343
  81   2.0000      -0.248552        -6.7635
  82   2.0000      -0.238033        -6.4772
  83   2.0000      -0.229941        -6.2570
  84   2.0000      -0.205384        -5.5888
  85   2.0000      -0.200485        -5.4555
  86   2.0000      -0.196222        -5.3395
  87   0.0000      -0.039242        -1.0678
  88   0.0000      -0.025583        -0.6961
  89   0.0000      -0.011506        -0.3131
  90   0.0000       0.009421         0.2564
  91   0.0000       0.019792         0.5386

MULLIKEN ATOMIC CHARGES
-----------------------
   0 C :   -0.276768
   1 C :   -0.029824
   2 O :   -0.226625
   3 C :    0.112607
   4 O :   -0.198953
   5 C :   -0.097622
   6 C :   -0.309433
   7 H :    0.152152
   8 C :    0.237638
   9 O :   -0.210523
  10 O :   -0.231752
  11 C :   -0.004403
  12 C :   -0.301294
  13 S :   -0.101298
  14 P :    0.624171
  15 S :   -0.317314
  16 O :   -0.390613
  17 C :   -0.098277
  18 O :   -0.360738
  19 C :   -0.112477
  20 H :    0.114237
  21 H :    0.116379
  22 H :    0.117877
  23 H :    0.111601
  24 H :    0.113848
  25 H :    0.127010
  26 H :    0.145554
  27 H :    0.093985
  28 H :    0.109758
  29 H :    0.102174
  30 H :    0.124151
  31 H :    0.126153
  32 H :    0.124238
  33 H :    0.111778
  34 H :    0.117592
  35 H :    0.130745
  36 H :    0.124124
  37 H :    0.130139
Sum of atomic charges:    0.0000000

LOEWDIN ATOMIC CHARGES
----------------------
   0 C :   -0.350452
   1 C :   -0.105387
   2 O :   -0.056993
   3 C :    0.035832
   4 O :   -0.150895
   5 C :   -0.249124
   6 C :   -0.268555
   7 H :    0.141671
   8 C :    0.018113
   9 O :   -0.170913
  10 O :   -0.054704
  11 C :   -0.104469
  12 C :   -0.358329
  13 S :    0.088431
  14 P :    0.579695
  15 S :   -0.308456
  16 O :   -0.262813
  17 C :   -0.217199
  18 O :   -0.234924
  19 C :   -0.211870
  20 H :    0.131973
  21 H :    0.127316
  22 H :    0.128076
  23 H :    0.119857
  24 H :    0.119741
  25 H :    0.142132
  26 H :    0.160606
  27 H :    0.113462
  28 H :    0.121052
  29 H :    0.125117
  30 H :    0.130341
  31 H :    0.125964
  32 H :    0.121844
  33 H :    0.106666
  34 H :    0.111672
  35 H :    0.115049
  36 H :    0.115307
  37 H :    0.125162

  Mayer bond orders larger than 0.100000
B(  0-C ,  1-C ) :   1.1561 B(  0-C , 20-H ) :   0.9437 B(  0-C , 21-H ) :   0.9516
B(  0-C , 22-H ) :   0.9483 B(  1-C ,  2-O ) :   0.8998 B(  1-C , 23-H ) :   0.9353
B(  1-C , 24-H ) :   0.9242 B(  2-O ,  3-C ) :   1.2495 B(  3-C ,  4-O ) :   2.0119
B(  3-C ,  5-C ) :   0.9989 B(  5-C ,  6-C ) :   1.0641 B(  5-C , 25-H ) :   0.9008
B(  5-C , 26-H ) :   0.8731 B(  6-C ,  7-H ) :   0.8486 B(  6-C ,  8-C ) :   0.8650
B(  6-C , 13-S ) :   1.0204 B(  8-C ,  9-O ) :   2.0462 B(  8-C , 10-O ) :   1.2396
B( 10-O , 11-C ) :   0.9055 B( 11-C , 12-C ) :   1.1795 B( 11-C , 27-H ) :   0.9355
B( 11-C , 28-H ) :   0.9157 B( 12-C , 29-H ) :   0.9428 B( 12-C , 30-H ) :   0.9441
B( 12-C , 31-H ) :   0.9406 B( 13-S , 14-P ) :   0.9605 B( 13-S , 15-S ) :   0.1133
B( 14-P , 15-S ) :   1.6339 B( 14-P , 16-O ) :   1.0665 B( 14-P , 18-O ) :   1.1192
B( 16-O , 17-C ) :   0.9337 B( 17-C , 32-H ) :   0.9586 B( 17-C , 33-H ) :   0.9453
B( 17-C , 34-H ) :   0.9360 B( 18-O , 19-C ) :   0.9178 B( 19-C , 35-H ) :   0.9391
B( 19-C , 36-H ) :   0.9457 B( 19-C , 37-H ) :   0.9587

Dispersion correction           -0.052657223
FINAL SINGLE POINT ENERGY     -1979.022099370532

DIPOLE MOMENT
-------------

Method             : SCF
Type of density    : Electron Density
Multiplicity       :   1
Irrep              :   0
Energy             : -1979.1520967285341612 Eh
Relativity type    :
Basis              : AO
                                X                 Y                 Z
Electronic contribution:    -11.418045904       7.707636479      -2.602551016
Nuclear contribution   :     11.621723583      -9.652338338       2.655637572
                        -----------------------------------------
Total Dipole Moment    :      0.203677680      -1.944701859       0.053086557
                        -----------------------------------------
Magnitude (a.u.)       :      1.956059330
Magnitude (Debye)      :      4.971907692

Rotational constants in cm-1:             0.015008             0.006202             0.005404
Rotational constants in MHz :           449.926967           185.936792           162.015903

                             ****ORCA TERMINATED NORMALLY****
TOTAL RUN TIME: 0 days 0 hours 0 minutes 45 seconds 538 msec
