                         Program Version 6.0.0  -   RELEASE  -
|  1> ! r2scan-3c def2/J RI DEFGRID2 scfconv6 printgap
|  2> %output
|  3>     printlevel normal
|  4> end
|  5> * xyz 0 1
|  6> C 4.3744046094 2.1271889813 -0.9479615536
|  7> C 4.6342271115 0.6434802522 -0.785872005
|  8> O 3.4275640439 -0.1332653267 -0.8982699657
|  9> P 2.2805856855 -0.0826799398 0.1977282426
| 10> S 2.9041160076 0.0316989951 2.0554458498
| 11> O 1.4128022207 -1.3535815195 -0.1725952663
| 12> C 1.6129097905 -2.6424255194 0.4373194011
| 13> C 2.9479566822 -3.2457197205 0.0569442054
| 14> S 0.978613336 1.4335475971 -0.4724380241
| 15> C 0.0594841534 1.6110929895 1.0801029376
| 16> S -0.8897130851 0.1299959326 1.5407328628
| 17> P -2.0386520133 -0.1463057037 -0.2248462829
| 18> S -1.3500999449 -1.1079007661 -1.7780369562
| 19> O -2.4566488389 1.3767247787 -0.4711580674
| 20> C -2.8068310454 1.860305819 -1.7827709726
| 21> C -4.1920652462 1.3957741674 -2.1828787354
| 22> O -3.3075800524 -0.9146821928 0.3347748329
| 23> C -4.1418962589 -0.3927985297 1.4003413172
| 24> C -5.5641575715 -0.850272517 1.1483406402
| 25> H 3.7886576781 2.4969089789 -0.1072704066
| 26> H 5.3216341375 2.6560363393 -0.9775738194
| 27> H 3.8251367563 2.3158428321 -1.8670633369
| 28> H 5.0871797293 0.4369203808 0.1892392316
| 29> H 5.2699824961 0.2544745245 -1.5822447879
| 30> H 1.5306488171 -2.5252600499 1.5234026136
| 31> H 0.7756382425 -3.2357551327 0.0647870616
| 32> H 3.0493874335 -3.2741536836 -1.0249829741
| 33> H 3.7565745345 -2.6454569311 0.4731211761
| 34> H 3.0135335476 -4.2533441414 0.4552307213
| 35> H -0.6137383407 2.4544257769 0.9548900793
| 36> H 0.7576350357 1.7755389575 1.9016114361
| 37> H -2.7488236448 2.9457363527 -1.6923030874
| 38> H -2.0577233654 1.5055910715 -2.4973513636
| 39> H -4.4414491845 1.8028348509 -3.1575970146
| 40> H -4.2092424892 0.3074581878 -2.2391569282
| 41> H -4.9284366109 1.7275593798 -1.4553008273
| 42> H -3.7543645913 -0.7895864268 2.3412636429
| 43> H -4.0662561765 0.6972613424 1.4089782362
| 44> H -5.9302900836 -0.4481939648 0.2076692926
| 45> H -5.6006415395 -1.9347620354 1.1001419902
| 46> H -6.1976942892 -0.5044858688 1.9587758529
| 47> *
| 48>
| 49>                          ****END OF INPUT****

CARTESIAN COORDINATES (ANGSTROEM)
---------------------------------
  C      4.374405    2.127189   -0.947962
  C      4.634227    0.643480   -0.785872
  O      3.427564   -0.133265   -0.898270
  P      2.280586   -0.082680    0.197728
  S      2.904116    0.031699    2.055446
  O      1.412802   -1.353582   -0.172595
  C      1.612910   -2.642426    0.437319
  C      2.947957   -3.245720    0.056944
  S      0.978613    1.433548   -0.472438
  C      0.059484    1.611093    1.080103
  S     -0.889713    0.129996    1.540733
  P     -2.038652   -0.146306   -0.224846
  S     -1.350100   -1.107901   -1.778037
  O     -2.456649    1.376725   -0.471158
  C     -2.806831    1.860306   -1.782771
  C     -4.192065    1.395774   -2.182879
  O     -3.307580   -0.914682    0.334775
  C     -4.141896   -0.392799    1.400341
  C     -5.564158   -0.850273    1.148341
  H      3.788658    2.496909   -0.107270
  H      5.321634    2.656036   -0.977574
  H      3.825137    2.315843   -1.867063
  H      5.087180    0.436920    0.189239
  H      5.269982    0.254475   -1.582245
  H      1.530649   -2.525260    1.523403
  H      0.775638   -3.235755    0.064787
  H      3.049387   -3.274154   -1.024983
  H      3.756575   -2.645457    0.473121
  H      3.013534   -4.253344    0.455231
  H     -0.613738    2.454426    0.954890
  H      0.757635    1.775539    1.901611
  H     -2.748824    2.945736   -1.692303
  H     -2.057723    1.505591   -2.497351
  H     -4.441449    1.802835   -3.157597
  H     -4.209242    0.307458   -2.239157
  H     -4.928437    1.727559   -1.455301
  H     -3.754365   -0.789586    2.341264
  H     -4.066256    0.697261    1.408978
  H     -5.930290   -0.448194    0.207669
  H     -5.600642   -1.934762    1.100142
  H     -6.197694   -0.504486    1.958776

 Total Charge           Charge          ....    0
 Multiplicity           Mult            ....    1
 Number of Electrons    NEL             ....  202
 Basis Dimension        Dim             ....  539

ORBITAL ENERGIES
----------------

  NO   OCC          E(Eh)            E(eV)
   0   2.0000     -88.573148     -2410.1979
   1   2.0000     -88.571056     -2410.1410
   2   2.0000     -88.518091     -2408.6997
   3   2.0000     -88.509988     -2408.4792
   4   2.0000     -76.909930     -2092.8256
   5   2.0000     -76.909411     -2092.8115
   6   2.0000     -18.992612      -516.8152
   7   2.0000     -18.990668      -516.7623
   8   2.0000     -18.989362      -516.7268
   9   2.0000     -18.978278      -516.4252
  10   2.0000     -10.107172      -275.0301
  11   2.0000     -10.101057      -274.8637
  12   2.0000     -10.098200      -274.7860
  13   2.0000     -10.097027      -274.7541
  14   2.0000     -10.086243      -274.4606
  15   2.0000     -10.035198      -273.0716
  16   2.0000     -10.031443      -272.9694
  17   2.0000     -10.027642      -272.8660
  18   2.0000     -10.020436      -272.6699
  19   2.0000      -7.867697      -214.0909
  20   2.0000      -7.865368      -214.0275
  21   2.0000      -7.812943      -212.6010
  22   2.0000      -7.804776      -212.3787
  23   2.0000      -6.588501      -179.2822
  24   2.0000      -6.587641      -179.2588
  25   2.0000      -5.814581      -158.2228
  26   2.0000      -5.812528      -158.1669
  27   2.0000      -5.811631      -158.1425
  28   2.0000      -5.809017      -158.0714
  29   2.0000      -5.804676      -157.9533
  30   2.0000      -5.802402      -157.8914
  31   2.0000      -5.760481      -156.7507
  32   2.0000      -5.753316      -156.5557
  33   2.0000      -5.752948      -156.5457
  34   2.0000      -5.752666      -156.5380
  35   2.0000      -5.744993      -156.3292
  36   2.0000      -5.744609      -156.3188
  37   2.0000      -4.733829      -128.8140
  38   2.0000      -4.733721      -128.8111
  39   2.0000      -4.733355      -128.8011
  40   2.0000      -4.732502      -128.7779
  41   2.0000      -4.732475      -128.7772
  42   2.0000      -4.730912      -128.7347
  43   2.0000      -1.046778       -28.4843
  44   2.0000      -1.044474       -28.4216
  45   2.0000      -1.009819       -27.4786
  46   2.0000      -1.004563       -27.3355
  47   2.0000      -0.799865       -21.7654
  48   2.0000      -0.757678       -20.6175
  49   2.0000      -0.745969       -20.2989
  50   2.0000      -0.736184       -20.0326
  51   2.0000      -0.725940       -19.7538
  52   2.0000      -0.705450       -19.1963
  53   2.0000      -0.682976       -18.5847
  54   2.0000      -0.667723       -18.1697
  55   2.0000      -0.629509       -17.1298
  56   2.0000      -0.618755       -16.8372
  57   2.0000      -0.605068       -16.4647
  58   2.0000      -0.600142       -16.3307
  59   2.0000      -0.591877       -16.1058
  60   2.0000      -0.528329       -14.3766
  61   2.0000      -0.512525       -13.9465
  62   2.0000      -0.500884       -13.6298
  63   2.0000      -0.487099       -13.2546
  64   2.0000      -0.473810       -12.8930
  65   2.0000      -0.460351       -12.5268
  66   2.0000      -0.457937       -12.4611
  67   2.0000      -0.453348       -12.3362
  68   2.0000      -0.439659       -11.9637
  69   2.0000      -0.425777       -11.5860
  70   2.0000      -0.420347       -11.4382
  71   2.0000      -0.412685       -11.2297
  72   2.0000      -0.408655       -11.1201
  73   2.0000      -0.404036       -10.9944
  74   2.0000      -0.398624       -10.8471
  75   2.0000      -0.388950       -10.5839
  76   2.0000      -0.379918       -10.3381
  77   2.0000      -0.373279       -10.1574
  78   2.0000      -0.370964       -10.0944
  79   2.0000      -0.362867        -9.8741
  80   2.0000      -0.361464        -9.8359
  81   2.0000      -0.358378        -9.7520
  82   2.0000      -0.358067        -9.7435
  83   2.0000      -0.350921        -9.5491
  84   2.0000      -0.344172        -9.3654
  85   2.0000      -0.332100        -9.0369
  86   2.0000      -0.323873        -8.8130
  87   2.0000      -0.319898        -8.7049
  88   2.0000      -0.307235        -8.3603
  89   2.0000      -0.296318        -8.0632
  90   2.0000      -0.292033        -7.9466
  91   2.0000      -0.283448        -7.7130
  92   2.0000      -0.281718        -7.6659
  93   2.0000      -0.279849        -7.6151
  94   2.0000      -0.276041        -7.5115
  95   2.0000      -0.245734        -6.6868
  96   2.0000      -0.227863        -6.2005
  97   2.0000      -0.220044        -5.9877
  98   2.0000      -0.216565        -5.8930
  99   2.0000      -0.205493        -5.5917
 100   2.0000      -0.200466        -5.4550
 101   0.0000      -0.048210        -1.3119
 102   0.0000      -0.021185        -0.5765
 103   0.0000      -0.008107        -0.2206
 104   0.0000       0.008328         0.2266
 105   0.0000       0.020549         0.5592

MULLIKEN ATOMIC CHARGES
-----------------------
   0 C :   -0.454939
   1 C :   -0.150014
   2 O :   -0.304242
   3 P :    0.713501
   4 S :   -0.492934
   5 O :   -0.253833
   6 C :   -0.162296
   7 C :   -0.447298
   8 S :   -0.130252
   9 C :   -0.218727
  10 S :   -0.158606
  11 P :    0.695579
  12 S :   -0.426133
  13 O :   -0.332422
  14 C :   -0.145120
  15 C :   -0.464292
  16 O :   -0.282665
  17 C :   -0.121195
  18 C :   -0.455740
  19 H :    0.176300
  20 H :    0.147670
  21 H :    0.156571
  22 H :    0.172398
  23 H :    0.149168
  24 H :    0.169253
  25 H :    0.165700
  26 H :    0.159159
  27 H :    0.164238
  28 H :    0.145505
  29 H :    0.187580
  30 H :    0.209747
  31 H :    0.146697
  32 H :    0.181638
  33 H :    0.149121
  34 H :    0.184973
  35 H :    0.147788
  36 H :    0.154460
  37 H :    0.162163
  38 H :    0.153916
  39 H :    0.160029
  40 H :    0.147554
Sum of atomic charges:   -0.0000000

LOEWDIN ATOMIC CHARGES
----------------------
   0 C :   -0.407432
   1 C :    0.019785
   2 O :   -0.656811
   3 P :    0.379261
   4 S :   -0.135671
   5 O :   -0.681641
   6 C :    0.018769
   7 C :   -0.400164
   8 S :    0.176510
   9 C :   -0.412108
  10 S :    0.171520
  11 P :    0.379729
  12 S :   -0.067141
  13 O :   -0.707237
  14 C :    0.016187
  15 C :   -0.400617
  16 O :   -0.667405
  17 C :    0.014832
  18 C :   -0.386564
  19 H :    0.165154
  20 H :    0.159105
  21 H :    0.160469
  22 H :    0.179622
  23 H :    0.179806
  24 H :    0.179269
  25 H :    0.186191
  26 H :    0.161750
  27 H :    0.162813
  28 H :    0.158589
  29 H :    0.183262
  30 H :    0.191290
  31 H :    0.176605
  32 H :    0.183879
  33 H :    0.161014
  34 H :    0.169339
  35 H :    0.154859
  36 H :    0.174586
  37 H :    0.177111
  38 H :    0.159210
  39 H :    0.162988
  40 H :    0.159288

  Mayer bond orders larger than 0.100000
B(  0-C ,  1-C ) :   0.9217 B(  0-C , 19-H ) :   0.9632 B(  0-C , 20-H ) :   0.9588
B(  0-C , 21-H ) :   0.9687 B(  1-C ,  2-O ) :   0.8113 B(  1-C , 22-H ) :   0.9677
B(  1-C , 23-H ) :   0.9579 B(  2-O ,  3-P ) :   1.0677 B(  3-P ,  4-S ) :   1.7316
B(  3-P ,  5-O ) :   1.1635 B(  3-P ,  8-S ) :   1.0813 B(  5-O ,  6-C ) :   0.7893
B(  6-C ,  7-C ) :   0.9162 B(  6-C , 24-H ) :   0.9670 B(  6-C , 25-H ) :   0.9591
B(  7-C , 26-H ) :   0.9724 B(  7-C , 27-H ) :   0.9619 B(  7-C , 28-H ) :   0.9622
B(  8-S ,  9-C ) :   0.9161 B(  9-C , 10-S ) :   0.9018 B(  9-C , 29-H ) :   0.9161
B(  9-C , 30-H ) :   0.9113 B( 10-S , 11-P ) :   1.0344 B( 11-P , 12-S ) :   1.8669
B( 11-P , 13-O ) :   1.0441 B( 11-P , 16-O ) :   1.1124 B( 13-O , 14-C ) :   0.8012
B( 14-C , 15-C ) :   0.9218 B( 14-C , 31-H ) :   0.9620 B( 14-C , 32-H ) :   0.9582
B( 15-C , 33-H ) :   0.9608 B( 15-C , 34-H ) :   0.9607 B( 15-C , 35-H ) :   0.9731
B( 16-O , 17-C ) :   0.7419 B( 17-C , 18-C ) :   0.9576 B( 17-C , 36-H ) :   0.9419
B( 17-C , 37-H ) :   0.9636 B( 18-C , 38-H ) :   0.9708 B( 18-C , 39-H ) :   0.9716
B( 18-C , 40-H ) :   0.9662

Dispersion correction           -0.021668302
FINAL SINGLE POINT ENERGY     -2932.457339127345

DIPOLE MOMENT
-------------

Method             : SCF
Type of density    : Electron Density
Multiplicity       :   1
Irrep              :   0
Energy             : -2932.4819734357452035 Eh
Relativity type    :
Basis              : AO
                                X                 Y                 Z
Electronic contribution:      7.433362409      -0.903331199       3.790333346
Nuclear contribution   :     -8.132395281       1.831742552      -3.805680568
                        -----------------------------------------
Total Dipole Moment    :     -0.699032872       0.928411354      -0.015347222
                        -----------------------------------------
Magnitude (a.u.)       :      1.162252182
Magnitude (Debye)      :      2.954210273

Rotational constants in cm-1:             0.013820             0.004772             0.004477
Rotational constants in MHz :           414.322390           143.072798           134.229165

                             ****ORCA TERMINATED NORMALLY****
TOTAL RUN TIME: 0 days 0 hours 1 minutes 19 seconds 909 msec
