                         Program Version 6.0.0  -   RELEASE  -
|  1> ! r2scan-3c def2/J RI DEFGRID2 scfconv6 printgap
|  2> %output
|  3>     printlevel normal
|  4> end
|  5> %cpcm
|  6>     smd true
|  7>     smdsolvent "water"
|  8> end
|  9> * xyz 0 1
| 10> C 4.3744046094 2.1271889813 -0.9479615536
| 11> C 4.6342271115 0.6434802522 -0.785872005
| 12> O 3.4275640439 -0.1332653267 -0.8982699657
| 13> P 2.2805856855 -0.0826799398 0.1977282426
| 14> S 2.9041160076 0.0316989951 2.0554458498
| 15> O 1.4128022207 -1.3535815195 -0.1725952663
| 16> C 1.6129097905 -2.6424255194 0.4373194011
| 17> C 2.9479566822 -3.2457197205 0.0569442054
| 18> S 0.978613336 1.4335475971 -0.4724380241
| 19> C 0.0594841534 1.6110929895 1.0801029376
| 20> S -0.8897130851 0.1299959326 1.5407328628
| 21> P -2.0386520133 -0.1463057037 -0.2248462829
| 22> S -1.3500999449 -1.1079007661 -1.7780369562
| 23> O -2.4566488389 1.3767247787 -0.4711580674
| 24> C -2.8068310454 1.860305819 -1.7827709726
| 25> C -4.1920652462 1.3957741674 -2.1828787354
| 26> O -3.3075800524 -0.9146821928 0.3347748329
| 27> C -4.1418962589 -0.3927985297 1.4003413172
| 28> C -5.5641575715 -0.850272517 1.1483406402
| 29> H 3.7886576781 2.4969089789 -0.1072704066
| 30> H 5.3216341375 2.6560363393 -0.9775738194
| 31> H 3.8251367563 2.3158428321 -1.8670633369
| 32> H 5.0871797293 0.4369203808 0.1892392316
| 33> H 5.2699824961 0.2544745245 -1.5822447879
| 34> H 1.5306488171 -2.5252600499 1.5234026136
| 35> H 0.7756382425 -3.2357551327 0.0647870616
| 36> H 3.0493874335 -3.2741536836 -1.0249829741
| 37> H 3.7565745345 -2.6454569311 0.4731211761
| 38> H 3.0135335476 -4.2533441414 0.4552307213
| 39> H -0.6137383407 2.4544257769 0.9548900793
| 40> H 0.7576350357 1.7755389575 1.9016114361
| 41> H -2.7488236448 2.9457363527 -1.6923030874
| 42> H -2.0577233654 1.5055910715 -2.4973513636
| 43> H -4.4414491845 1.8028348509 -3.1575970146
| 44> H -4.2092424892 0.3074581878 -2.2391569282
| 45> H -4.9284366109 1.7275593798 -1.4553008273
| 46> H -3.7543645913 -0.7895864268 2.3412636429
| 47> H -4.0662561765 0.6972613424 1.4089782362
| 48> H -5.9302900836 -0.4481939648 0.2076692926
| 49> H -5.6006415395 -1.9347620354 1.1001419902
| 50> H -6.1976942892 -0.5044858688 1.9587758529
| 51> *
| 52>
| 53>                          ****END OF INPUT****

CARTESIAN COORDINATES (ANGSTROEM)
---------------------------------
  C      4.374405    2.127189   -0.947962
  C      4.634227    0.643480   -0.785872
  O      3.427564   -0.133265   -0.898270
  P      2.280586   -0.082680    0.197728
  S      2.904116    0.031699    2.055446
  O      1.412802   -1.353582   -0.172595
  C      1.612910   -2.642426    0.437319
  C      2.947957   -3.245720    0.056944
  S      0.978613    1.433548   -0.472438
  C      0.059484    1.611093    1.080103
  S     -0.889713    0.129996    1.540733
  P     -2.038652   -0.146306   -0.224846
  S     -1.350100   -1.107901   -1.778037
  O     -2.456649    1.376725   -0.471158
  C     -2.806831    1.860306   -1.782771
  C     -4.192065    1.395774   -2.182879
  O     -3.307580   -0.914682    0.334775
  C     -4.141896   -0.392799    1.400341
  C     -5.564158   -0.850273    1.148341
  H      3.788658    2.496909   -0.107270
  H      5.321634    2.656036   -0.977574
  H      3.825137    2.315843   -1.867063
  H      5.087180    0.436920    0.189239
  H      5.269982    0.254475   -1.582245
  H      1.530649   -2.525260    1.523403
  H      0.775638   -3.235755    0.064787
  H      3.049387   -3.274154   -1.024983
  H      3.756575   -2.645457    0.473121
  H      3.013534   -4.253344    0.455231
  H     -0.613738    2.454426    0.954890
  H      0.757635    1.775539    1.901611
  H     -2.748824    2.945736   -1.692303
  H     -2.057723    1.505591   -2.497351
  H     -4.441449    1.802835   -3.157597
  H     -4.209242    0.307458   -2.239157
  H     -4.928437    1.727559   -1.455301
  H     -3.754365   -0.789586    2.341264
  H     -4.066256    0.697261    1.408978
  H     -5.930290   -0.448194    0.207669
  H     -5.600642   -1.934762    1.100142
  H     -6.197694   -0.504486    1.958776

 Total Charge           Charge          ....    0
 Multiplicity           Mult            ....    1
 Number of Electrons    NEL             ....  202
 Basis Dimension        Dim             ....  539

ORBITAL ENERGIES
----------------

  NO   OCC          E(Eh)            E(eV)
   0   2.0000     -88.577579     -2410.3185
   1   2.0000     -88.575143     -2410.2522
   2   2.0000     -88.526726     -2408.9347
   3   2.0000     -88.521427     -2408.7905
   4   2.0000     -76.916949     -2093.0166
   5   2.0000     -76.916171     -2092.9954
   6   2.0000     -18.995545      -516.8950
   7   2.0000     -18.992778      -516.8198
   8   2.0000     -18.992344      -516.8080
   9   2.0000     -18.986033      -516.6362
  10   2.0000     -10.105055      -274.9725
  11   2.0000     -10.090010      -274.5631
  12   2.0000     -10.089668      -274.5538
  13   2.0000     -10.087427      -274.4928
  14   2.0000     -10.086879      -274.4779
  15   2.0000     -10.019644      -272.6484
  16   2.0000     -10.018599      -272.6199
  17   2.0000     -10.018121      -272.6069
  18   2.0000     -10.017704      -272.5956
  19   2.0000      -7.872100      -214.2107
  20   2.0000      -7.869479      -214.1394
  21   2.0000      -7.821840      -212.8431
  22   2.0000      -7.816628      -212.7013
  23   2.0000      -6.595612      -179.4757
  24   2.0000      -6.594393      -179.4426
  25   2.0000      -5.818966      -158.3421
  26   2.0000      -5.816640      -158.2788
  27   2.0000      -5.816025      -158.2621
  28   2.0000      -5.813106      -158.1826
  29   2.0000      -5.809121      -158.0742
  30   2.0000      -5.806542      -158.0041
  31   2.0000      -5.769332      -156.9915
  32   2.0000      -5.764391      -156.8571
  33   2.0000      -5.762180      -156.7969
  34   2.0000      -5.761876      -156.7886
  35   2.0000      -5.756816      -156.6509
  36   2.0000      -5.756540      -156.6434
  37   2.0000      -4.740926      -129.0072
  38   2.0000      -4.740481      -128.9950
  39   2.0000      -4.740385      -128.9924
  40   2.0000      -4.739596      -128.9710
  41   2.0000      -4.739224      -128.9608
  42   2.0000      -4.737841      -128.9232
  43   2.0000      -1.050330       -28.5809
  44   2.0000      -1.047805       -28.5122
  45   2.0000      -1.010534       -27.4980
  46   2.0000      -1.010376       -27.4937
  47   2.0000      -0.801605       -21.8128
  48   2.0000      -0.754548       -20.5323
  49   2.0000      -0.742419       -20.2022
  50   2.0000      -0.725847       -19.7513
  51   2.0000      -0.722467       -19.6593
  52   2.0000      -0.705988       -19.2109
  53   2.0000      -0.686943       -18.6927
  54   2.0000      -0.674670       -18.3587
  55   2.0000      -0.630621       -17.1601
  56   2.0000      -0.614087       -16.7102
  57   2.0000      -0.598417       -16.2838
  58   2.0000      -0.597286       -16.2530
  59   2.0000      -0.590960       -16.0808
  60   2.0000      -0.525011       -14.2863
  61   2.0000      -0.512144       -13.9361
  62   2.0000      -0.496162       -13.5013
  63   2.0000      -0.487917       -13.2769
  64   2.0000      -0.473207       -12.8766
  65   2.0000      -0.455581       -12.3970
  66   2.0000      -0.453400       -12.3376
  67   2.0000      -0.451649       -12.2900
  68   2.0000      -0.437495       -11.9048
  69   2.0000      -0.422780       -11.5044
  70   2.0000      -0.417000       -11.3471
  71   2.0000      -0.409520       -11.1436
  72   2.0000      -0.406033       -11.0487
  73   2.0000      -0.405262       -11.0277
  74   2.0000      -0.400019       -10.8851
  75   2.0000      -0.386326       -10.5125
  76   2.0000      -0.375539       -10.2189
  77   2.0000      -0.367910       -10.0114
  78   2.0000      -0.362409        -9.8616
  79   2.0000      -0.361455        -9.8357
  80   2.0000      -0.352913        -9.6033
  81   2.0000      -0.350843        -9.5469
  82   2.0000      -0.348337        -9.4787
  83   2.0000      -0.347844        -9.4653
  84   2.0000      -0.343920        -9.3586
  85   2.0000      -0.330847        -9.0028
  86   2.0000      -0.320264        -8.7148
  87   2.0000      -0.315484        -8.5848
  88   2.0000      -0.304467        -8.2850
  89   2.0000      -0.296881        -8.0786
  90   2.0000      -0.294779        -8.0214
  91   2.0000      -0.286208        -7.7881
  92   2.0000      -0.281324        -7.6552
  93   2.0000      -0.278715        -7.5842
  94   2.0000      -0.278281        -7.5724
  95   2.0000      -0.251441        -6.8421
  96   2.0000      -0.234445        -6.3796
  97   2.0000      -0.229671        -6.2497
  98   2.0000      -0.226306        -6.1581
  99   2.0000      -0.215162        -5.8549
 100   2.0000      -0.212316        -5.7774
 101   0.0000      -0.053384        -1.4526
 102   0.0000      -0.027976        -0.7613
 103   0.0000      -0.013005        -0.3539
 104   0.0000       0.003332         0.0907
 105   0.0000       0.016609         0.4519

MULLIKEN ATOMIC CHARGES
-----------------------
   0 C :   -0.488402
   1 C :   -0.151530
   2 O :   -0.330848
   3 P :    0.740738
   4 S :   -0.538594
   5 O :   -0.276258
   6 C :   -0.163662
   7 C :   -0.484131
   8 S :   -0.137361
   9 C :   -0.224900
  10 S :   -0.174658
  11 P :    0.719529
  12 S :   -0.497574
  13 O :   -0.340689
  14 C :   -0.135684
  15 C :   -0.492035
  16 O :   -0.314729
  17 C :   -0.109189
  18 C :   -0.505547
  19 H :    0.172915
  20 H :    0.173026
  21 H :    0.169420
  22 H :    0.178472
  23 H :    0.175585
  24 H :    0.174993
  25 H :    0.177652
  26 H :    0.169411
  27 H :    0.168219
  28 H :    0.171259
  29 H :    0.224779
  30 H :    0.226703
  31 H :    0.175867
  32 H :    0.176486
  33 H :    0.171337
  34 H :    0.172105
  35 H :    0.169160
  36 H :    0.172517
  37 H :    0.178122
  38 H :    0.168575
  39 H :    0.167863
  40 H :    0.171059
Sum of atomic charges:   -0.0000000

LOEWDIN ATOMIC CHARGES
----------------------
   0 C :   -0.409881
   1 C :    0.025270
   2 O :   -0.671871
   3 P :    0.382491
   4 S :   -0.163015
   5 O :   -0.698327
   6 C :    0.019947
   7 C :   -0.403317
   8 S :    0.174516
   9 C :   -0.401831
  10 S :    0.166156
  11 P :    0.384240
  12 S :   -0.118209
  13 O :   -0.704506
  14 C :    0.022607
  15 C :   -0.402558
  16 O :   -0.687168
  17 C :    0.022007
  18 C :   -0.390285
  19 H :    0.161619
  20 H :    0.168525
  21 H :    0.163673
  22 H :    0.181717
  23 H :    0.190934
  24 H :    0.181013
  25 H :    0.190382
  26 H :    0.163893
  27 H :    0.162454
  28 H :    0.168030
  29 H :    0.197379
  30 H :    0.197240
  31 H :    0.189037
  32 H :    0.181867
  33 H :    0.168563
  34 H :    0.163090
  35 H :    0.162952
  36 H :    0.181627
  37 H :    0.184088
  38 H :    0.162696
  39 H :    0.163794
  40 H :    0.169162

  Mayer bond orders larger than 0.100000
B(  0-C ,  1-C ) :   0.9095 B(  0-C , 19-H ) :   0.9637 B(  0-C , 20-H ) :   0.9533
B(  0-C , 21-H ) :   0.9658 B(  1-C ,  2-O ) :   0.7991 B(  1-C , 22-H ) :   0.9656
B(  1-C , 23-H ) :   0.9483 B(  2-O ,  3-P ) :   1.0736 B(  3-P ,  4-S ) :   1.6905
B(  3-P ,  5-O ) :   1.1667 B(  3-P ,  8-S ) :   1.0993 B(  5-O ,  6-C ) :   0.7803
B(  6-C ,  7-C ) :   0.9084 B(  6-C , 24-H ) :   0.9621 B(  6-C , 25-H ) :   0.9536
B(  7-C , 26-H ) :   0.9712 B(  7-C , 27-H ) :   0.9603 B(  7-C , 28-H ) :   0.9562
B(  8-S ,  9-C ) :   0.9129 B(  9-C , 10-S ) :   0.8930 B(  9-C , 29-H ) :   0.9052
B(  9-C , 30-H ) :   0.9073 B( 10-S , 11-P ) :   1.0477 B( 11-P , 12-S ) :   1.8226
B( 11-P , 13-O ) :   1.0662 B( 11-P , 16-O ) :   1.1210 B( 13-O , 14-C ) :   0.7857
B( 14-C , 15-C ) :   0.9173 B( 14-C , 31-H ) :   0.9520 B( 14-C , 32-H ) :   0.9576
B( 15-C , 33-H ) :   0.9566 B( 15-C , 34-H ) :   0.9629 B( 15-C , 35-H ) :   0.9677
B( 16-O , 17-C ) :   0.7338 B( 17-C , 18-C ) :   0.9497 B( 17-C , 36-H ) :   0.9348
B( 17-C , 37-H ) :   0.9518 B( 18-C , 38-H ) :   0.9688 B( 18-C , 39-H ) :   0.9706
B( 18-C , 40-H ) :   0.9591

Dispersion correction           -0.021668302
FINAL SINGLE POINT ENERGY     -2932.467560640252

DIPOLE MOMENT
-------------

Method             : SCF
Type of density    : Electron Density
Multiplicity       :   1
Irrep              :   0
Energy             : -2932.4921949486529229 Eh
Relativity type    :
Basis              : AO
                                X                 Y                 Z
Electronic contribution:      7.219312679      -0.257584545       3.995470416
Nuclear contribution   :     -8.132395281       1.831742552      -3.805680568
                        -----------------------------------------
Total Dipole Moment    :     -0.913082602       1.574158008       0.189789848
                        -----------------------------------------
Magnitude (a.u.)       :      1.829675779
Magnitude (Debye)      :      4.650666236

Rotational constants in cm-1:             0.013820             0.004772             0.004477
Rotational constants in MHz :           414.322390           143.072798           134.229165

                             ****ORCA TERMINATED NORMALLY****
TOTAL RUN TIME: 0 days 0 hours 1 minutes 54 seconds 791 msec
