                         Program Version 6.0.1  -  RELEASE   -
|  1> ! pbe def2-sv(p) def2/J RI DEFGRID1 loosescf d4 GCP(DFT/SV(P)) printgap
|  2> %output
|  3>     printlevel normal
|  4> end
|  5> * xyz 0 1
|  6> C 2.0813455631 -3.3099429507 0.7274182043
|  7> C 3.1820461896 -2.4048538708 0.1987673289
|  8> O 2.7235906728 -1.6586278644 -0.9455791238
|  9> C 2.1470434435 -0.4947829686 -0.7585484081
| 10> O 1.9764574487 0.0400169559 0.3188096039
| 11> C 1.7212883402 0.1557625994 -2.0585772203
| 12> C 0.4051236495 0.8978579221 -1.8395552811
| 13> H 0.1900928684 1.5446860054 -2.6936993702
| 14> C 0.4353378765 1.7549351342 -0.5876424245
| 15> O -0.4077115472 1.654829007 0.2896667486
| 16> O 1.3620048396 2.6663531515 -0.6391275629
| 17> C 1.5076456736 3.5787234951 0.4735273135
| 18> C 2.502813237 3.0372972982 1.4849849747
| 19> S -1.0069309219 -0.2549779853 -1.72023838
| 20> P -1.6868748003 -0.3004471625 0.2789447733
| 21> S -0.6566534372 -0.7613874294 1.8966605683
| 22> O -2.7891535893 0.8521246525 0.3697305275
| 23> C -3.8121414892 0.7897408698 1.3734412961
| 24> O -2.7225667364 -1.5271399742 0.012210893
| 25> C -2.3242929722 -2.8955346825 0.0327480905
| 26> H 1.707060595 -3.949822587 -0.0669241585
| 27> H 2.4750062206 -3.9244556235 1.5299338446
| 28> H 1.2604160267 -2.7122228373 1.121056386
| 29> H 4.0276214085 -2.9823961882 -0.1752398045
| 30> H 3.5056795554 -1.701542041 0.9710463156
| 31> H 1.6164363443 -0.5960306423 -2.8385599943
| 32> H 2.4945282971 0.873268354 -2.3423819938
| 33> H 1.8621435638 4.5027081494 0.0157934395
| 34> H 0.5267732849 3.7264939943 0.9328653996
| 35> H 2.1677027265 2.0692969018 1.8527174384
| 36> H 3.4791774455 2.9140287314 1.0255646555
| 37> H 2.5796308419 3.7271340508 2.3187167395
| 38> H -3.3739009106 0.5592512885 2.3464278562
| 39> H -4.5444346163 0.0282547677 1.1073814522
| 40> H -4.2648012346 1.7781595381 1.3842244571
| 41> H -3.2386555663 -3.4703253745 0.1577535193
| 42> H -1.6464688646 -3.0734500441 0.8708976355
| 43> H -1.83433095 -3.1543502738 -0.9058826417
| 44> *
| 45>
| 46>                          ****END OF INPUT****

CARTESIAN COORDINATES (ANGSTROEM)
---------------------------------
  C      2.081346   -3.309943    0.727418
  C      3.182046   -2.404854    0.198767
  O      2.723591   -1.658628   -0.945579
  C      2.147043   -0.494783   -0.758548
  O      1.976457    0.040017    0.318810
  C      1.721288    0.155763   -2.058577
  C      0.405124    0.897858   -1.839555
  H      0.190093    1.544686   -2.693699
  C      0.435338    1.754935   -0.587642
  O     -0.407712    1.654829    0.289667
  O      1.362005    2.666353   -0.639128
  C      1.507646    3.578723    0.473527
  C      2.502813    3.037297    1.484985
  S     -1.006931   -0.254978   -1.720238
  P     -1.686875   -0.300447    0.278945
  S     -0.656653   -0.761387    1.896661
  O     -2.789154    0.852125    0.369731
  C     -3.812141    0.789741    1.373441
  O     -2.722567   -1.527140    0.012211
  C     -2.324293   -2.895535    0.032748
  H      1.707061   -3.949823   -0.066924
  H      2.475006   -3.924456    1.529934
  H      1.260416   -2.712223    1.121056
  H      4.027621   -2.982396   -0.175240
  H      3.505680   -1.701542    0.971046
  H      1.616436   -0.596031   -2.838560
  H      2.494528    0.873268   -2.342382
  H      1.862144    4.502708    0.015793
  H      0.526773    3.726494    0.932865
  H      2.167703    2.069297    1.852717
  H      3.479177    2.914029    1.025565
  H      2.579631    3.727134    2.318717
  H     -3.373901    0.559251    2.346428
  H     -4.544435    0.028255    1.107381
  H     -4.264801    1.778160    1.384224
  H     -3.238656   -3.470325    0.157754
  H     -1.646469   -3.073450    0.870898
  H     -1.834331   -3.154350   -0.905883

 Total Charge           Charge          ....    0
 Multiplicity           Mult            ....    1
 Number of Electrons    NEL             ....  174
 Basis Dimension        Dim             ....  316

ORBITAL ENERGIES
----------------

  NO   OCC          E(Eh)            E(eV)
   0   2.0000     -88.033422     -2395.5112
   1   2.0000     -87.958009     -2393.4591
   2   2.0000     -76.412367     -2079.2862
   3   2.0000     -18.816131      -512.0130
   4   2.0000     -18.810206      -511.8517
   5   2.0000     -18.765200      -510.6271
   6   2.0000     -18.764620      -510.6113
   7   2.0000     -18.756143      -510.3806
   8   2.0000     -18.748050      -510.1604
   9   2.0000     -10.028251      -272.8826
  10   2.0000     -10.017687      -272.5951
  11   2.0000      -9.953465      -270.8475
  12   2.0000      -9.952199      -270.8131
  13   2.0000      -9.948074      -270.7009
  14   2.0000      -9.926780      -270.1214
  15   2.0000      -9.923587      -270.0345
  16   2.0000      -9.920143      -269.9408
  17   2.0000      -9.881131      -268.8792
  18   2.0000      -9.877685      -268.7855
  19   2.0000      -7.678549      -208.9440
  20   2.0000      -7.603033      -206.8890
  21   2.0000      -6.407179      -174.3482
  22   2.0000      -5.706834      -155.2908
  23   2.0000      -5.702663      -155.1773
  24   2.0000      -5.695469      -154.9816
  25   2.0000      -5.632147      -153.2585
  26   2.0000      -5.624192      -153.0420
  27   2.0000      -5.622401      -152.9933
  28   2.0000      -4.630335      -125.9978
  29   2.0000      -4.629004      -125.9616
  30   2.0000      -4.627657      -125.9250
  31   2.0000      -1.027765       -27.9669
  32   2.0000      -1.017445       -27.6861
  33   2.0000      -0.960199       -26.1283
  34   2.0000      -0.933599       -25.4045
  35   2.0000      -0.925354       -25.1802
  36   2.0000      -0.913449       -24.8562
  37   2.0000      -0.767621       -20.8880
  38   2.0000      -0.711572       -19.3629
  39   2.0000      -0.706825       -19.2337
  40   2.0000      -0.682096       -18.5608
  41   2.0000      -0.649378       -17.6705
  42   2.0000      -0.619767       -16.8647
  43   2.0000      -0.611976       -16.6527
  44   2.0000      -0.605193       -16.4681
  45   2.0000      -0.594662       -16.1816
  46   2.0000      -0.565740       -15.3946
  47   2.0000      -0.509072       -13.8526
  48   2.0000      -0.500064       -13.6074
  49   2.0000      -0.498485       -13.5645
  50   2.0000      -0.488718       -13.2987
  51   2.0000      -0.462621       -12.5885
  52   2.0000      -0.455148       -12.3852
  53   2.0000      -0.446349       -12.1458
  54   2.0000      -0.438041       -11.9197
  55   2.0000      -0.428765       -11.6673
  56   2.0000      -0.427242       -11.6258
  57   2.0000      -0.417624       -11.3641
  58   2.0000      -0.405289       -11.0285
  59   2.0000      -0.398342       -10.8394
  60   2.0000      -0.395507       -10.7623
  61   2.0000      -0.392590       -10.6829
  62   2.0000      -0.385599       -10.4927
  63   2.0000      -0.379960       -10.3392
  64   2.0000      -0.377240       -10.2652
  65   2.0000      -0.365401        -9.9431
  66   2.0000      -0.358301        -9.7499
  67   2.0000      -0.354025        -9.6335
  68   2.0000      -0.346097        -9.4178
  69   2.0000      -0.335530        -9.1302
  70   2.0000      -0.332916        -9.0591
  71   2.0000      -0.326894        -8.8952
  72   2.0000      -0.321933        -8.7602
  73   2.0000      -0.303644        -8.2626
  74   2.0000      -0.296358        -8.0643
  75   2.0000      -0.292936        -7.9712
  76   2.0000      -0.283456        -7.7132
  77   2.0000      -0.272873        -7.4252
  78   2.0000      -0.271905        -7.3989
  79   2.0000      -0.262098        -7.1320
  80   2.0000      -0.251086        -6.8324
  81   2.0000      -0.243105        -6.6152
  82   2.0000      -0.235323        -6.4035
  83   2.0000      -0.233821        -6.3626
  84   2.0000      -0.220262        -5.9936
  85   2.0000      -0.179348        -4.8803
  86   2.0000      -0.167483        -4.5574
  87   0.0000      -0.040537        -1.1031
  88   0.0000      -0.031639        -0.8609
  89   0.0000      -0.024399        -0.6639
  90   0.0000       0.004206         0.1145
  91   0.0000       0.036971         1.0060

MULLIKEN ATOMIC CHARGES
-----------------------
   0 C :   -0.327745
   1 C :   -0.013092
   2 O :   -0.219143
   3 C :    0.111487
   4 O :   -0.180070
   5 C :   -0.065329
   6 C :   -0.278926
   7 H :    0.148745
   8 C :    0.240002
   9 O :   -0.201092
  10 O :   -0.227932
  11 C :   -0.018773
  12 C :   -0.305387
  13 S :   -0.104080
  14 P :    0.662294
  15 S :   -0.331192
  16 O :   -0.382228
  17 C :   -0.090386
  18 O :   -0.412728
  19 C :   -0.101416
  20 H :    0.108099
  21 H :    0.109094
  22 H :    0.155107
  23 H :    0.102111
  24 H :    0.110063
  25 H :    0.120287
  26 H :    0.129124
  27 H :    0.103494
  28 H :    0.118804
  29 H :    0.157299
  30 H :    0.106328
  31 H :    0.110396
  32 H :    0.110188
  33 H :    0.113217
  34 H :    0.116419
  35 H :    0.112181
  36 H :    0.112907
  37 H :    0.101871
Sum of atomic charges:    0.0000000

LOEWDIN ATOMIC CHARGES
----------------------
   0 C :   -0.364576
   1 C :   -0.108455
   2 O :   -0.046897
   3 C :    0.035875
   4 O :   -0.138924
   5 C :   -0.250272
   6 C :   -0.260027
   7 H :    0.148796
   8 C :    0.030700
   9 O :   -0.142148
  10 O :   -0.041047
  11 C :   -0.103398
  12 C :   -0.356847
  13 S :    0.104885
  14 P :    0.589711
  15 S :   -0.325882
  16 O :   -0.258256
  17 C :   -0.209796
  18 O :   -0.279359
  19 C :   -0.225189
  20 H :    0.122475
  21 H :    0.130149
  22 H :    0.127659
  23 H :    0.116966
  24 H :    0.121117
  25 H :    0.137998
  26 H :    0.149562
  27 H :    0.117603
  28 H :    0.124458
  29 H :    0.141597
  30 H :    0.122470
  31 H :    0.129667
  32 H :    0.109652
  33 H :    0.110601
  34 H :    0.118168
  35 H :    0.115788
  36 H :    0.102403
  37 H :    0.102773

  Mayer bond orders larger than 0.100000
B(  0-C ,  1-C ) :   1.1778 B(  0-C , 20-H ) :   0.9477 B(  0-C , 21-H ) :   0.9409
B(  0-C , 22-H ) :   0.9169 B(  1-C ,  2-O ) :   0.9034 B(  1-C , 23-H ) :   0.9370
B(  1-C , 24-H ) :   0.9125 B(  2-O ,  3-C ) :   1.2670 B(  3-C ,  4-O ) :   1.9583
B(  3-C ,  5-C ) :   0.9924 B(  4-O ,  8-C ) :   0.1216 B(  5-C ,  6-C ) :   1.0312
B(  5-C , 25-H ) :   0.9071 B(  5-C , 26-H ) :   0.8721 B(  6-C ,  7-H ) :   0.8754
B(  6-C ,  8-C ) :   0.9061 B(  6-C , 13-S ) :   1.0225 B(  8-C ,  9-O ) :   1.8645
B(  8-C , 10-O ) :   1.2658 B(  9-O , 14-P ) :   0.1935 B( 10-O , 11-C ) :   0.9002
B( 11-C , 12-C ) :   1.1815 B( 11-C , 27-H ) :   0.9374 B( 11-C , 28-H ) :   0.9140
B( 12-C , 29-H ) :   0.9318 B( 12-C , 30-H ) :   0.9493 B( 12-C , 31-H ) :   0.9411
B( 13-S , 14-P ) :   0.9477 B( 13-S , 15-S ) :   0.1166 B( 14-P , 15-S ) :   1.5731
B( 14-P , 16-O ) :   1.0919 B( 14-P , 18-O ) :   0.9940 B( 16-O , 17-C ) :   0.9377
B( 17-C , 32-H ) :   0.9348 B( 17-C , 33-H ) :   0.9500 B( 17-C , 34-H ) :   0.9595
B( 18-O , 19-C ) :   0.9531 B( 19-C , 35-H ) :   0.9587 B( 19-C , 36-H ) :   0.9224
B( 19-C , 37-H ) :   0.9507

Dispersion correction           -0.053941529
FINAL SINGLE POINT ENERGY     -1979.006523253184

DIPOLE MOMENT
-------------

Method             : SCF
Type of density    : Electron Density
Multiplicity       :   1
Irrep              :   0
Energy             : -1979.1364599694888966 Eh
Relativity type    :
Basis              : AO
                                X                 Y                 Z
Electronic contribution:     -9.007837363       3.605541475      -6.721585718
Nuclear contribution   :      9.991361623      -3.275908119       5.939751291
                        -----------------------------------------
Total Dipole Moment    :      0.983524260       0.329633356      -0.781834427
                        -----------------------------------------
Magnitude (a.u.)       :      1.298939256
Magnitude (Debye)      :      3.301641203

Rotational constants in cm-1:             0.011583             0.009301             0.006988
Rotational constants in MHz :           347.254915           278.850896           209.504932

                             ****ORCA TERMINATED NORMALLY****
TOTAL RUN TIME: 0 days 0 hours 0 minutes 37 seconds 553 msec
