                         Program Version 6.0.0  -   RELEASE  -
|  1> ! pbe def2-sv(p) def2/J RI DEFGRID1 loosescf d4 GCP(DFT/SV(P)) printgap
|  2> %output
|  3>     printlevel normal
|  4> end
|  5> * xyz 0 1
|  6> C 3.6032291999 1.7893079984 -1.8470825387
|  7> C 2.3428360354 1.0101254994 -2.1540565868
|  8> O 2.2618076386 -0.2122582435 -1.3940294508
|  9> P 2.1603238815 -0.2494637302 0.1837313991
| 10> S 1.0947728721 1.1756933981 1.0245808417
| 11> O 3.6829250816 -0.250132569 0.6321389141
| 12> C 4.0909652064 0.0113978317 1.9858375943
| 13> C 3.6422991721 -1.0804866799 2.9353630728
| 14> S 1.6046790035 -2.2684487644 0.4202742649
| 15> C -0.1165855375 -2.1967374568 -0.1350334391
| 16> S -1.2313499667 -1.4113960011 1.0860565499
| 17> P -2.1273897862 0.0238490331 -0.1636834268
| 18> S -1.1884058378 0.5703683903 -1.8015345831
| 19> O -2.5996209791 1.217062542 0.7675672565
| 20> C -1.9597236846 2.4988568155 0.892767806
| 21> C -3.0374438717 3.5602029247 0.9819642129
| 22> O -3.4932085716 -0.7504433395 -0.3879385193
| 23> C -4.5505007756 -0.2170807789 -1.2169965862
| 24> C -4.5114286333 -0.8436979474 -2.5969967704
| 25> H 3.6717596482 2.6382219441 -2.5200622627
| 26> H 3.5737179173 2.152544678 -0.8203878317
| 27> H 4.4759411752 1.1535669561 -1.9716234278
| 28> H 2.3131617908 0.6698140019 -3.1899958308
| 29> H 1.4498429743 1.6078514289 -1.9454761164
| 30> H 5.1781764101 0.0725214068 1.9240163257
| 31> H 3.6783367002 0.9786993583 2.2907280835
| 32> H 2.5553827629 -1.0805261888 3.0150497907
| 33> H 3.9642726078 -2.0530576029 2.5717738715
| 34> H 4.066913226 -0.9011577124 3.9178969305
| 35> H -0.4292695387 -3.2291813923 -0.2633401412
| 36> H -0.1755192658 -1.6408433407 -1.0739440655
| 37> H -1.3402672724 2.4742394645 1.7922244117
| 38> H -1.3090330383 2.6587336177 0.0266130213
| 39> H -3.6149527764 3.5904483672 0.0615171961
| 40> H -3.703158634 3.3406563779 1.8115771388
| 41> H -2.5683347511 4.5253858906 1.1411269019
| 42> H -5.4703718706 -0.4720123572 -0.688208009
| 43> H -4.4518572916 0.8703744943 -1.273855075
| 44> H -3.5867906205 -0.5782527722 -3.1053314073
| 45> H -4.5683726832 -1.9253725318 -2.5149608343
| 46> H -5.3525914857 -0.4811323357 -3.1791230117
| 47> *
| 48>
| 49>                          ****END OF INPUT****

CARTESIAN COORDINATES (ANGSTROEM)
---------------------------------
  C      3.603229    1.789308   -1.847083
  C      2.342836    1.010125   -2.154057
  O      2.261808   -0.212258   -1.394029
  P      2.160324   -0.249464    0.183731
  S      1.094773    1.175693    1.024581
  O      3.682925   -0.250133    0.632139
  C      4.090965    0.011398    1.985838
  C      3.642299   -1.080487    2.935363
  S      1.604679   -2.268449    0.420274
  C     -0.116586   -2.196737   -0.135033
  S     -1.231350   -1.411396    1.086057
  P     -2.127390    0.023849   -0.163683
  S     -1.188406    0.570368   -1.801535
  O     -2.599621    1.217063    0.767567
  C     -1.959724    2.498857    0.892768
  C     -3.037444    3.560203    0.981964
  O     -3.493209   -0.750443   -0.387939
  C     -4.550501   -0.217081   -1.216997
  C     -4.511429   -0.843698   -2.596997
  H      3.671760    2.638222   -2.520062
  H      3.573718    2.152545   -0.820388
  H      4.475941    1.153567   -1.971623
  H      2.313162    0.669814   -3.189996
  H      1.449843    1.607851   -1.945476
  H      5.178176    0.072521    1.924016
  H      3.678337    0.978699    2.290728
  H      2.555383   -1.080526    3.015050
  H      3.964273   -2.053058    2.571774
  H      4.066913   -0.901158    3.917897
  H     -0.429270   -3.229181   -0.263340
  H     -0.175519   -1.640843   -1.073944
  H     -1.340267    2.474239    1.792224
  H     -1.309033    2.658734    0.026613
  H     -3.614953    3.590448    0.061517
  H     -3.703159    3.340656    1.811577
  H     -2.568335    4.525386    1.141127
  H     -5.470372   -0.472012   -0.688208
  H     -4.451857    0.870374   -1.273855
  H     -3.586791   -0.578253   -3.105331
  H     -4.568373   -1.925373   -2.514961
  H     -5.352591   -0.481132   -3.179123

 Total Charge           Charge          ....    0
 Multiplicity           Mult            ....    1
 Number of Electrons    NEL             ....  202
 Basis Dimension        Dim             ....  334

ORBITAL ENERGIES
----------------

  NO   OCC          E(Eh)            E(eV)
   0   2.0000     -88.040397     -2395.7010
   1   2.0000     -88.035013     -2395.5545
   2   2.0000     -87.985902     -2394.2181
   3   2.0000     -87.982641     -2394.1294
   4   2.0000     -76.423502     -2079.5892
   5   2.0000     -76.423043     -2079.5767
   6   2.0000     -18.791099      -511.3318
   7   2.0000     -18.790855      -511.3252
   8   2.0000     -18.785143      -511.1697
   9   2.0000     -18.782529      -511.0986
  10   2.0000      -9.953176      -270.8397
  11   2.0000      -9.950990      -270.7802
  12   2.0000      -9.950512      -270.7672
  13   2.0000      -9.945450      -270.6294
  14   2.0000      -9.942930      -270.5609
  15   2.0000      -9.884432      -268.9691
  16   2.0000      -9.882660      -268.9209
  17   2.0000      -9.879028      -268.8220
  18   2.0000      -9.878614      -268.8108
  19   2.0000      -7.685945      -209.1452
  20   2.0000      -7.680575      -208.9991
  21   2.0000      -7.630649      -207.6405
  22   2.0000      -7.627224      -207.5473
  23   2.0000      -6.420964      -174.7233
  24   2.0000      -6.420698      -174.7161
  25   2.0000      -5.713752      -155.4791
  26   2.0000      -5.710523      -155.3912
  27   2.0000      -5.708602      -155.3390
  28   2.0000      -5.705381      -155.2513
  29   2.0000      -5.702824      -155.1817
  30   2.0000      -5.696998      -155.0232
  31   2.0000      -5.659346      -153.9986
  32   2.0000      -5.655994      -153.9074
  33   2.0000      -5.651752      -153.7920
  34   2.0000      -5.650504      -153.7580
  35   2.0000      -5.647918      -153.6877
  36   2.0000      -5.647509      -153.6765
  37   2.0000      -4.643487      -126.3557
  38   2.0000      -4.643249      -126.3492
  39   2.0000      -4.642726      -126.3350
  40   2.0000      -4.642263      -126.3224
  41   2.0000      -4.641503      -126.3017
  42   2.0000      -4.641375      -126.2982
  43   2.0000      -0.983826       -26.7713
  44   2.0000      -0.982343       -26.7309
  45   2.0000      -0.942861       -25.6565
  46   2.0000      -0.939115       -25.5546
  47   2.0000      -0.759202       -20.6589
  48   2.0000      -0.720593       -19.6083
  49   2.0000      -0.705124       -19.1874
  50   2.0000      -0.685379       -18.6501
  51   2.0000      -0.683882       -18.6094
  52   2.0000      -0.669137       -18.2081
  53   2.0000      -0.650668       -17.7056
  54   2.0000      -0.633881       -17.2488
  55   2.0000      -0.599806       -16.3216
  56   2.0000      -0.586652       -15.9636
  57   2.0000      -0.569999       -15.5105
  58   2.0000      -0.568579       -15.4718
  59   2.0000      -0.555718       -15.1218
  60   2.0000      -0.503764       -13.7081
  61   2.0000      -0.487992       -13.2789
  62   2.0000      -0.473777       -12.8921
  63   2.0000      -0.469484       -12.7753
  64   2.0000      -0.449692       -12.2367
  65   2.0000      -0.444528       -12.0962
  66   2.0000      -0.436637       -11.8815
  67   2.0000      -0.429699       -11.6927
  68   2.0000      -0.425628       -11.5819
  69   2.0000      -0.415361       -11.3026
  70   2.0000      -0.408836       -11.1250
  71   2.0000      -0.391730       -10.6595
  72   2.0000      -0.385914       -10.5012
  73   2.0000      -0.382130       -10.3983
  74   2.0000      -0.378994       -10.3129
  75   2.0000      -0.374313       -10.1856
  76   2.0000      -0.372354       -10.1323
  77   2.0000      -0.353151        -9.6097
  78   2.0000      -0.350139        -9.5278
  79   2.0000      -0.347909        -9.4671
  80   2.0000      -0.344815        -9.3829
  81   2.0000      -0.340570        -9.2674
  82   2.0000      -0.337886        -9.1943
  83   2.0000      -0.334935        -9.1140
  84   2.0000      -0.331464        -9.0196
  85   2.0000      -0.311361        -8.4726
  86   2.0000      -0.305453        -8.3118
  87   2.0000      -0.293601        -7.9893
  88   2.0000      -0.291493        -7.9319
  89   2.0000      -0.285544        -7.7701
  90   2.0000      -0.278814        -7.5869
  91   2.0000      -0.272748        -7.4218
  92   2.0000      -0.268646        -7.3102
  93   2.0000      -0.260636        -7.0923
  94   2.0000      -0.259964        -7.0740
  95   2.0000      -0.239298        -6.5116
  96   2.0000      -0.222643        -6.0584
  97   2.0000      -0.209456        -5.6996
  98   2.0000      -0.202628        -5.5138
  99   2.0000      -0.189429        -5.1546
 100   2.0000      -0.185884        -5.0582
 101   0.0000      -0.038217        -1.0400
 102   0.0000      -0.030144        -0.8203
 103   0.0000      -0.008799        -0.2394
 104   0.0000       0.006085         0.1656
 105   0.0000       0.024126         0.6565

MULLIKEN ATOMIC CHARGES
-----------------------
   0 C :   -0.307224
   1 C :   -0.008078
   2 O :   -0.366091
   3 P :    0.625279
   4 S :   -0.343718
   5 O :   -0.372004
   6 C :   -0.002424
   7 C :   -0.322323
   8 S :   -0.085207
   9 C :   -0.357209
  10 S :   -0.067075
  11 P :    0.628649
  12 S :   -0.337461
  13 O :   -0.379789
  14 C :   -0.028048
  15 C :   -0.277289
  16 O :   -0.367980
  17 C :   -0.004917
  18 C :   -0.289578
  19 H :    0.109976
  20 H :    0.119807
  21 H :    0.115248
  22 H :    0.103193
  23 H :    0.126575
  24 H :    0.104935
  25 H :    0.109707
  26 H :    0.132304
  27 H :    0.119787
  28 H :    0.113608
  29 H :    0.184907
  30 H :    0.197664
  31 H :    0.117774
  32 H :    0.118850
  33 H :    0.113449
  34 H :    0.115210
  35 H :    0.111587
  36 H :    0.106452
  37 H :    0.098718
  38 H :    0.124926
  39 H :    0.112405
  40 H :    0.105404
Sum of atomic charges:    0.0000000

LOEWDIN ATOMIC CHARGES
----------------------
   0 C :   -0.366571
   1 C :   -0.118697
   2 O :   -0.237284
   3 P :    0.574313
   4 S :   -0.319554
   5 O :   -0.241911
   6 C :   -0.119982
   7 C :   -0.371290
   8 S :    0.092628
   9 C :   -0.477719
  10 S :    0.088814
  11 P :    0.572311
  12 S :   -0.308301
  13 O :   -0.241171
  14 C :   -0.122556
  15 C :   -0.352430
  16 O :   -0.249172
  17 C :   -0.113465
  18 C :   -0.361947
  19 H :    0.129547
  20 H :    0.120774
  21 H :    0.125304
  22 H :    0.119068
  23 H :    0.108725
  24 H :    0.118597
  25 H :    0.109710
  26 H :    0.123345
  27 H :    0.124326
  28 H :    0.131533
  29 H :    0.137828
  30 H :    0.123502
  31 H :    0.112548
  32 H :    0.106519
  33 H :    0.123573
  34 H :    0.125964
  35 H :    0.130978
  36 H :    0.118697
  37 H :    0.106712
  38 H :    0.123881
  39 H :    0.125581
  40 H :    0.127273

  Mayer bond orders larger than 0.100000
B(  0-C ,  1-C ) :   1.1624 B(  0-C , 19-H ) :   0.9387 B(  0-C , 20-H ) :   0.9359
B(  0-C , 21-H ) :   0.9448 B(  1-C ,  2-O ) :   0.8996 B(  1-C , 22-H ) :   0.9362
B(  1-C , 23-H ) :   0.9099 B(  2-O ,  3-P ) :   1.1347 B(  3-P ,  4-S ) :   1.5956
B(  3-P ,  5-O ) :   1.1052 B(  3-P ,  8-S ) :   0.9672 B(  4-S ,  8-S ) :   0.1170
B(  5-O ,  6-C ) :   0.9071 B(  6-C ,  7-C ) :   1.1664 B(  6-C , 24-H ) :   0.9332
B(  6-C , 25-H ) :   0.9141 B(  7-C , 26-H ) :   0.9334 B(  7-C , 27-H ) :   0.9437
B(  7-C , 28-H ) :   0.9377 B(  8-S ,  9-C ) :   0.9985 B(  9-C , 10-S ) :   0.9966
B(  9-C , 29-H ) :   0.9117 B(  9-C , 30-H ) :   0.8546 B( 10-S , 11-P ) :   0.9719
B( 10-S , 12-S ) :   0.1169 B( 11-P , 12-S ) :   1.5735 B( 11-P , 13-O ) :   1.1245
B( 11-P , 16-O ) :   1.1257 B( 13-O , 14-C ) :   0.8969 B( 14-C , 15-C ) :   1.1528
B( 14-C , 31-H ) :   0.9275 B( 14-C , 32-H ) :   0.9069 B( 15-C , 33-H ) :   0.9488
B( 15-C , 34-H ) :   0.9498 B( 15-C , 35-H ) :   0.9421 B( 16-O , 17-C ) :   0.8985
B( 17-C , 18-C ) :   1.1684 B( 17-C , 36-H ) :   0.9355 B( 17-C , 37-H ) :   0.9151
B( 18-C , 38-H ) :   0.9340 B( 18-C , 39-H ) :   0.9474 B( 18-C , 40-H ) :   0.9408

Dispersion correction           -0.066041902
FINAL SINGLE POINT ENERGY     -2929.518682967117

DIPOLE MOMENT
-------------

Method             : SCF
Type of density    : Electron Density
Multiplicity       :   1
Irrep              :   0
Energy             : -2929.6366965051897751 Eh
Relativity type    :
Basis              : AO
                                X                 Y                 Z
Electronic contribution:      1.529438667     -13.335772237       3.759484595
Nuclear contribution   :     -1.581145906      13.740584717      -3.791543519
                        -----------------------------------------
Total Dipole Moment    :     -0.051707239       0.404812480      -0.032058924
                        -----------------------------------------
Magnitude (a.u.)       :      0.409358714
Magnitude (Debye)      :      1.040507162

Rotational constants in cm-1:             0.012099             0.005054             0.004854
Rotational constants in MHz :           362.732086           151.530074           145.518816

                             ****ORCA TERMINATED NORMALLY****
TOTAL RUN TIME: 0 days 0 hours 0 minutes 20 seconds 887 msec
