                         Program Version 6.0.0  -   RELEASE  -
|  1> ! pbe def2-sv(p) def2/J RI DEFGRID1 loosescf d4 GCP(DFT/SV(P)) printgap
|  2> %output
|  3>     printlevel normal
|  4> end
|  5> * xyz 0 1
|  6> C 4.1989447697 0.078652675 -2.400827584
|  7> C 2.800794694 -0.4584850027 -2.1770633992
|  8> O 2.0780730999 0.3579298825 -1.2235525376
|  9> P 2.0023974196 0.0940502422 0.3275399664
| 10> S 0.9377605626 1.4609038459 1.2347805196
| 11> O 3.5297079251 0.0571158095 0.7712813342
| 12> C 3.9383493432 0.2185773111 2.1412563423
| 13> C 3.4856161691 -0.9337976589 3.0139593814
| 14> S 1.4367208829 -1.9461038072 0.5209165301
| 15> C -0.2014827088 -1.908861609 -0.2542320333
| 16> S -1.4753075993 -1.0937258937 0.7554178368
| 17> P -2.0348295488 0.5106975307 -0.5336420213
| 18> S -1.0022654364 0.6553579625 -2.1908575046
| 19> O -2.0203804381 1.8459823402 0.2969570051
| 20> C -2.9732278524 2.2256870051 1.3184543675
| 21> C -2.9555797817 1.2845905905 2.5034059967
| 22> O -3.6039353658 0.3130267798 -0.7538365344
| 23> C -4.159396022 -0.5036960348 -1.7978977155
| 24> C -3.8329172812 -1.9734469528 -1.6274538905
| 25> H 4.7810497702 0.0069348512 -1.4859232554
| 26> H 4.6795971005 -0.5038083871 -3.1806093257
| 27> H 4.1524973543 1.1201850633 -2.7075947108
| 28> H 2.82931165 -1.4894650204 -1.8128386365
| 29> H 2.1963963579 -0.3989385878 -3.0851773148
| 30> H 5.0260120425 0.2786861758 2.0825505007
| 31> H 3.5319569262 1.1650587116 2.5114662059
| 32> H 3.925304985 -0.8300120281 4.000634094
| 33> H 2.4007223174 -0.9234925863 3.1092895412
| 34> H 3.7910616311 -1.8819527923 2.5785480018
| 35> H -0.4835434282 -2.9517887329 -0.3730598349
| 36> H -0.1440789296 -1.3919936803 -1.2172717799
| 37> H -2.6428107952 3.2271572032 1.5987568756
| 38> H -3.963779147 2.269100545 0.8606841929
| 39> H -1.9411684389 1.1870102001 2.8845057336
| 40> H -3.5950591978 1.6838839348 3.2842938879
| 41> H -3.3202084873 0.3002247255 2.2130549209
| 42> H -5.2321540126 -0.3190662005 -1.7237241236
| 43> H -3.7838235237 -0.1358199405 -2.7578271759
| 44> H -2.7706448134 -2.1392032787 -1.7988012624
| 45> H -4.0878743193 -2.3058843273 -0.6245305304
| 46> H -4.3985915768 -2.5488414557 -2.3532144214
| 47> *
| 48>
| 49>                          ****END OF INPUT****

CARTESIAN COORDINATES (ANGSTROEM)
---------------------------------
  C      4.198945    0.078653   -2.400828
  C      2.800795   -0.458485   -2.177063
  O      2.078073    0.357930   -1.223553
  P      2.002397    0.094050    0.327540
  S      0.937761    1.460904    1.234781
  O      3.529708    0.057116    0.771281
  C      3.938349    0.218577    2.141256
  C      3.485616   -0.933798    3.013959
  S      1.436721   -1.946104    0.520917
  C     -0.201483   -1.908862   -0.254232
  S     -1.475308   -1.093726    0.755418
  P     -2.034830    0.510698   -0.533642
  S     -1.002265    0.655358   -2.190858
  O     -2.020380    1.845982    0.296957
  C     -2.973228    2.225687    1.318454
  C     -2.955580    1.284591    2.503406
  O     -3.603935    0.313027   -0.753837
  C     -4.159396   -0.503696   -1.797898
  C     -3.832917   -1.973447   -1.627454
  H      4.781050    0.006935   -1.485923
  H      4.679597   -0.503808   -3.180609
  H      4.152497    1.120185   -2.707595
  H      2.829312   -1.489465   -1.812839
  H      2.196396   -0.398939   -3.085177
  H      5.026012    0.278686    2.082551
  H      3.531957    1.165059    2.511466
  H      3.925305   -0.830012    4.000634
  H      2.400722   -0.923493    3.109290
  H      3.791062   -1.881953    2.578548
  H     -0.483543   -2.951789   -0.373060
  H     -0.144079   -1.391994   -1.217272
  H     -2.642811    3.227157    1.598757
  H     -3.963779    2.269101    0.860684
  H     -1.941168    1.187010    2.884506
  H     -3.595059    1.683884    3.284294
  H     -3.320208    0.300225    2.213055
  H     -5.232154   -0.319066   -1.723724
  H     -3.783824   -0.135820   -2.757827
  H     -2.770645   -2.139203   -1.798801
  H     -4.087874   -2.305884   -0.624531
  H     -4.398592   -2.548841   -2.353214

 Total Charge           Charge          ....    0
 Multiplicity           Mult            ....    1
 Number of Electrons    NEL             ....  202
 Basis Dimension        Dim             ....  334

ORBITAL ENERGIES
----------------

  NO   OCC          E(Eh)            E(eV)
   0   2.0000     -88.039937     -2395.6885
   1   2.0000     -88.036395     -2395.5921
   2   2.0000     -87.980970     -2394.0839
   3   2.0000     -87.974728     -2393.9140
   4   2.0000     -76.421374     -2079.5313
   5   2.0000     -76.418375     -2079.4497
   6   2.0000     -18.787697      -511.2392
   7   2.0000     -18.785350      -511.1754
   8   2.0000     -18.782756      -511.1048
   9   2.0000     -18.782520      -511.0983
  10   2.0000      -9.952705      -270.8269
  11   2.0000      -9.951287      -270.7883
  12   2.0000      -9.951180      -270.7854
  13   2.0000      -9.949632      -270.7433
  14   2.0000      -9.948374      -270.7090
  15   2.0000      -9.884989      -268.9842
  16   2.0000      -9.883555      -268.9452
  17   2.0000      -9.882509      -268.9167
  18   2.0000      -9.880462      -268.8610
  19   2.0000      -7.684877      -209.1161
  20   2.0000      -7.680979      -209.0101
  21   2.0000      -7.626123      -207.5173
  22   2.0000      -7.619734      -207.3435
  23   2.0000      -6.418524      -174.6569
  24   2.0000      -6.415884      -174.5851
  25   2.0000      -5.712562      -155.4467
  26   2.0000      -5.709287      -155.3576
  27   2.0000      -5.708951      -155.3485
  28   2.0000      -5.705575      -155.2566
  29   2.0000      -5.702146      -155.1633
  30   2.0000      -5.697843      -155.0462
  31   2.0000      -5.655028      -153.8811
  32   2.0000      -5.648706      -153.7091
  33   2.0000      -5.646716      -153.6550
  34   2.0000      -5.646248      -153.6422
  35   2.0000      -5.640235      -153.4786
  36   2.0000      -5.639943      -153.4707
  37   2.0000      -4.641413      -126.2993
  38   2.0000      -4.639954      -126.2596
  39   2.0000      -4.639079      -126.2357
  40   2.0000      -4.638907      -126.2311
  41   2.0000      -4.637728      -126.1990
  42   2.0000      -4.635860      -126.1482
  43   2.0000      -0.981630       -26.7115
  44   2.0000      -0.981090       -26.6968
  45   2.0000      -0.939463       -25.5641
  46   2.0000      -0.936683       -25.4884
  47   2.0000      -0.757067       -20.6008
  48   2.0000      -0.715270       -19.4635
  49   2.0000      -0.707036       -19.2394
  50   2.0000      -0.687698       -18.7132
  51   2.0000      -0.686158       -18.6713
  52   2.0000      -0.674989       -18.3674
  53   2.0000      -0.646391       -17.5892
  54   2.0000      -0.630712       -17.1625
  55   2.0000      -0.595666       -16.2089
  56   2.0000      -0.586430       -15.9576
  57   2.0000      -0.576403       -15.6847
  58   2.0000      -0.570252       -15.5174
  59   2.0000      -0.556287       -15.1373
  60   2.0000      -0.495083       -13.4719
  61   2.0000      -0.491345       -13.3702
  62   2.0000      -0.470052       -12.7908
  63   2.0000      -0.464494       -12.6395
  64   2.0000      -0.447779       -12.1847
  65   2.0000      -0.445766       -12.1299
  66   2.0000      -0.442097       -12.0301
  67   2.0000      -0.435185       -11.8420
  68   2.0000      -0.424287       -11.5454
  69   2.0000      -0.423142       -11.5143
  70   2.0000      -0.411667       -11.2020
  71   2.0000      -0.396938       -10.8012
  72   2.0000      -0.386937       -10.5291
  73   2.0000      -0.383288       -10.4298
  74   2.0000      -0.377128       -10.2622
  75   2.0000      -0.366136        -9.9631
  76   2.0000      -0.360074        -9.7981
  77   2.0000      -0.355003        -9.6601
  78   2.0000      -0.352506        -9.5922
  79   2.0000      -0.348995        -9.4966
  80   2.0000      -0.347829        -9.4649
  81   2.0000      -0.342078        -9.3084
  82   2.0000      -0.340098        -9.2545
  83   2.0000      -0.334739        -9.1087
  84   2.0000      -0.333079        -9.0635
  85   2.0000      -0.312400        -8.5008
  86   2.0000      -0.306371        -8.3368
  87   2.0000      -0.293061        -7.9746
  88   2.0000      -0.289944        -7.8898
  89   2.0000      -0.289057        -7.8656
  90   2.0000      -0.285147        -7.7592
  91   2.0000      -0.268290        -7.3005
  92   2.0000      -0.264506        -7.1976
  93   2.0000      -0.258145        -7.0245
  94   2.0000      -0.253742        -6.9047
  95   2.0000      -0.234941        -6.3931
  96   2.0000      -0.216094        -5.8802
  97   2.0000      -0.199772        -5.4361
  98   2.0000      -0.197197        -5.3660
  99   2.0000      -0.188202        -5.1212
 100   2.0000      -0.184385        -5.0174
 101   0.0000      -0.035399        -0.9633
 102   0.0000      -0.028431        -0.7736
 103   0.0000      -0.010649        -0.2898
 104   0.0000       0.005263         0.1432
 105   0.0000       0.017527         0.4769

MULLIKEN ATOMIC CHARGES
-----------------------
   0 C :   -0.287113
   1 C :   -0.016567
   2 O :   -0.342992
   3 P :    0.599436
   4 S :   -0.298203
   5 O :   -0.382020
   6 C :    0.001566
   7 C :   -0.325775
   8 S :   -0.107890
   9 C :   -0.351897
  10 S :   -0.102607
  11 P :    0.621254
  12 S :   -0.303608
  13 O :   -0.346662
  14 C :    0.007286
  15 C :   -0.335824
  16 O :   -0.389982
  17 C :    0.007182
  18 C :   -0.320095
  19 H :    0.120487
  20 H :    0.106296
  21 H :    0.121530
  22 H :    0.097424
  23 H :    0.110110
  24 H :    0.103070
  25 H :    0.111903
  26 H :    0.114090
  27 H :    0.132715
  28 H :    0.117859
  29 H :    0.180422
  30 H :    0.194615
  31 H :    0.112100
  32 H :    0.107807
  33 H :    0.141994
  34 H :    0.113936
  35 H :    0.124573
  36 H :    0.101924
  37 H :    0.109516
  38 H :    0.121700
  39 H :    0.119094
  40 H :    0.111348
Sum of atomic charges:    0.0000000

LOEWDIN ATOMIC CHARGES
----------------------
   0 C :   -0.359565
   1 C :   -0.117411
   2 O :   -0.225402
   3 P :    0.562932
   4 S :   -0.303128
   5 O :   -0.249232
   6 C :   -0.118780
   7 C :   -0.373497
   8 S :    0.073685
   9 C :   -0.488304
  10 S :    0.078578
  11 P :    0.576297
  12 S :   -0.293941
  13 O :   -0.223594
  14 C :   -0.106956
  15 C :   -0.371947
  16 O :   -0.256004
  17 C :   -0.115792
  18 C :   -0.370862
  19 H :    0.125283
  20 H :    0.128093
  21 H :    0.129522
  22 H :    0.100400
  23 H :    0.119558
  24 H :    0.117444
  25 H :    0.112095
  26 H :    0.131766
  27 H :    0.123232
  28 H :    0.122730
  29 H :    0.135094
  30 H :    0.119338
  31 H :    0.124198
  32 H :    0.112938
  33 H :    0.132719
  34 H :    0.131801
  35 H :    0.115444
  36 H :    0.117409
  37 H :    0.111011
  38 H :    0.119016
  39 H :    0.123949
  40 H :    0.129881

  Mayer bond orders larger than 0.100000
B(  0-C ,  1-C ) :   1.1670 B(  0-C , 19-H ) :   0.9414 B(  0-C , 20-H ) :   0.9396
B(  0-C , 21-H ) :   0.9474 B(  1-C ,  2-O ) :   0.8989 B(  1-C , 22-H ) :   0.9069
B(  1-C , 23-H ) :   0.9310 B(  2-O ,  3-P ) :   1.1410 B(  3-P ,  4-S ) :   1.6667
B(  3-P ,  5-O ) :   1.0737 B(  3-P ,  8-S ) :   0.9480 B(  4-S ,  8-S ) :   0.1124
B(  5-O ,  6-C ) :   0.9081 B(  6-C ,  7-C ) :   1.1652 B(  6-C , 24-H ) :   0.9336
B(  6-C , 25-H ) :   0.9153 B(  7-C , 26-H ) :   0.9374 B(  7-C , 27-H ) :   0.9327
B(  7-C , 28-H ) :   0.9428 B(  8-S ,  9-C ) :   0.9895 B(  9-C , 10-S ) :   1.0073
B(  9-C , 29-H ) :   0.9081 B(  9-C , 30-H ) :   0.8418 B( 10-S , 11-P ) :   0.9419
B( 10-S , 12-S ) :   0.1177 B( 11-P , 12-S ) :   1.6182 B( 11-P , 13-O ) :   1.1509
B( 11-P , 16-O ) :   1.0549 B( 12-S , 30-H ) :   0.1259 B( 13-O , 14-C ) :   0.9005
B( 14-C , 15-C ) :   1.1701 B( 14-C , 31-H ) :   0.9325 B( 14-C , 32-H ) :   0.9265
B( 15-C , 33-H ) :   0.9379 B( 15-C , 34-H ) :   0.9356 B( 15-C , 35-H ) :   0.9325
B( 16-O , 17-C ) :   0.9197 B( 17-C , 18-C ) :   1.1649 B( 17-C , 36-H ) :   0.9348
B( 17-C , 37-H ) :   0.9175 B( 18-C , 38-H ) :   0.9374 B( 18-C , 39-H ) :   0.9415
B( 18-C , 40-H ) :   0.9366

Dispersion correction           -0.067913103
FINAL SINGLE POINT ENERGY     -2929.511108659379

DIPOLE MOMENT
-------------

Method             : SCF
Type of density    : Electron Density
Multiplicity       :   1
Irrep              :   0
Energy             : -2929.6288780320082878 Eh
Relativity type    :
Basis              : AO
                                X                 Y                 Z
Electronic contribution:     -1.153803393       5.610321877      -1.808514632
Nuclear contribution   :      0.923143544      -6.650559121       2.040774712
                        -----------------------------------------
Total Dipole Moment    :     -0.230659849      -1.040237243       0.232260080
                        -----------------------------------------
Magnitude (a.u.)       :      1.090523834
Magnitude (Debye)      :      2.771891301

Rotational constants in cm-1:             0.012293             0.005490             0.004924
Rotational constants in MHz :           368.542611           164.591802           147.616311

                             ****ORCA TERMINATED NORMALLY****
TOTAL RUN TIME: 0 days 0 hours 0 minutes 21 seconds 352 msec
