                         Program Version 6.0.0  -   RELEASE  -
|  1> ! pbe def2-sv(p) def2/J RI DEFGRID1 loosescf d4 GCP(DFT/SV(P)) printgap
|  2> %output
|  3>     printlevel normal
|  4> end
|  5> * xyz 0 1
|  6> C 1.2628662734 -0.290285732 0.0031684276
|  7> C 0.006523242 0.5660711097 -0.0499146804
|  8> O -1.1261848807 -0.2799215662 0.0446774602
|  9> H 1.290085176 -0.8459701258 0.9364209436
| 10> H 1.2588408621 -0.999493388 -0.8200228963
| 11> H 2.1433218897 0.340585405 -0.0676663236
| 12> H -0.0206542932 1.1256573914 -0.9947548454
| 13> H 0.0097885367 1.2831675851 0.7821250889
| 14> H -1.9312347079 0.2530587876 0.0117503195
| 15> *
| 16>
| 17>                          ****END OF INPUT****

CARTESIAN COORDINATES (ANGSTROEM)
---------------------------------
  C      1.262866   -0.290286    0.003168
  C      0.006523    0.566071   -0.049915
  O     -1.126185   -0.279922    0.044677
  H      1.290085   -0.845970    0.936421
  H      1.258841   -0.999493   -0.820023
  H      2.143322    0.340585   -0.067666
  H     -0.020654    1.125657   -0.994755
  H      0.009789    1.283168    0.782125
  H     -1.931235    0.253059    0.011750

 Total Charge           Charge          ....    0
 Multiplicity           Mult            ....    1
 Number of Electrons    NEL             ....   26
 Basis Dimension        Dim             ....   54

ORBITAL ENERGIES
----------------

  NO   OCC          E(Eh)            E(eV)
   0   2.0000     -18.735410      -509.8164
   1   2.0000      -9.928347      -270.1640
   2   2.0000      -9.872114      -268.6339
   3   2.0000      -0.910852       -24.7855
   4   2.0000      -0.668358       -18.1869
   5   2.0000      -0.540232       -14.7005
   6   2.0000      -0.460883       -12.5413
   7   2.0000      -0.411274       -11.1913
   8   2.0000      -0.348218        -9.4755
   9   2.0000      -0.338483        -9.2106
  10   2.0000      -0.316600        -8.6151
  11   2.0000      -0.271472        -7.3871
  12   2.0000      -0.208045        -5.6612
  13   0.0000       0.030276         0.8238
  14   0.0000       0.066443         1.8080
  15   0.0000       0.098231         2.6730
  16   0.0000       0.103811         2.8248
  17   0.0000       0.120074         3.2674

MULLIKEN ATOMIC CHARGES
-----------------------
   0 C :   -0.286752
   1 C :   -0.026895
   2 O :   -0.444496
   3 H :    0.110041
   4 H :    0.109979
   5 H :    0.100502
   6 H :    0.071197
   7 H :    0.071195
   8 H :    0.295229
Sum of atomic charges:    0.0000000

LOEWDIN ATOMIC CHARGES
----------------------
   0 C :   -0.353391
   1 C :   -0.126711
   2 O :   -0.357499
   3 H :    0.123661
   4 H :    0.123664
   5 H :    0.123047
   6 H :    0.092293
   7 H :    0.092291
   8 H :    0.282645

  Mayer bond orders larger than 0.100000
B(  0-C ,  1-C ) :   1.1600 B(  0-C ,  3-H ) :   0.9518 B(  0-C ,  4-H ) :   0.9519
B(  0-C ,  5-H ) :   0.9485 B(  1-C ,  2-O ) :   1.0768 B(  1-C ,  6-H ) :   0.9289
B(  1-C ,  7-H ) :   0.9290 B(  2-O ,  8-H ) :   0.8557

Dispersion correction           -0.003665605
FINAL SINGLE POINT ENERGY      -154.661139847966

DIPOLE MOMENT
-------------

Method             : SCF
Type of density    : Electron Density
Multiplicity       :   1
Irrep              :   0
Energy             :  -154.6998596763010028 Eh
Relativity type    :
Basis              : AO
                                X                 Y                 Z
Electronic contribution:     -2.667344268      -0.491489091       0.091768855
Nuclear contribution   :      2.563351109       1.081304369      -0.142075815
                        -----------------------------------------
Total Dipole Moment    :     -0.103993158       0.589815278      -0.050306960
                        -----------------------------------------
Magnitude (a.u.)       :      0.601021987
Magnitude (Debye)      :      1.527676485

Rotational constants in cm-1:             1.192095             0.310184             0.271262
Rotational constants in MHz :         35738.108642          9299.097232          8132.219854

                             ****ORCA TERMINATED NORMALLY****
TOTAL RUN TIME: 0 days 0 hours 0 minutes 3 seconds 639 msec
