                         Program Version 6.0.1  -  RELEASE   -
|  1> ! pbe def2-sv(p) def2/J RI DEFGRID1 loosescf d4 GCP(DFT/SV(P)) printgap
|  2> %output
|  3>     printlevel normal
|  4> end
|  5> * xyz 0 1
|  6> C 3.1117276666 -3.9325709791 0.1454829314
|  7> C 2.7167623197 -2.5309424706 0.5653615447
|  8> O 2.2086498046 -1.8458257728 -0.5953785803
|  9> C 2.0403744434 -0.5474994751 -0.5341125344
| 10> O 2.2733250443 0.1401552717 0.4417932737
| 11> C 1.5588968973 0.0320570491 -1.8513793633
| 12> C 0.3395665758 0.9366326271 -1.6444304452
| 13> H 0.2423787267 1.6261341809 -2.4860613299
| 14> C 0.4567588654 1.7322483997 -0.3585049108
| 15> O -0.280568083 1.5423275386 0.5946921918
| 16> O 1.3676604672 2.6544542288 -0.4296815004
| 17> C 1.6497258874 3.4253160387 0.7584935241
| 18> C 2.5618136401 4.5690707905 0.3643286003
| 19> S -1.2244504959 0.004177571 -1.613924705
| 20> P -1.7132837271 -0.4019640638 0.4225377727
| 21> S -0.4596155582 -1.1955621911 1.70515653
| 22> O -2.6725963613 0.7255717906 0.9915833107
| 23> C -3.8970277505 1.1005449289 0.3329729355
| 24> O -2.8574661563 -1.4901486398 0.0630403339
| 25> C -2.5365648226 -2.8183793143 -0.3495587298
| 26> H 2.2482207615 -4.4555582538 -0.2534967907
| 27> H 3.8843276491 -3.891128208 -0.6165763023
| 28> H 3.4867464918 -4.4695134622 1.0100708083
| 29> H 3.5655717022 -1.9610251484 0.9561316747
| 30> H 1.9283123445 -2.5350347835 1.3257013084
| 31> H 1.3206852285 -0.7729492115 -2.5450503323
| 32> H 2.375975057 0.6359897139 -2.2520426994
| 33> H 0.7012178327 3.7747823082 1.1778544007
| 34> H 2.1206518906 2.7485186027 1.4784430576
| 35> H 3.4805856399 4.1791038658 -0.0623635467
| 36> H 2.0719627304 5.2038818605 -0.3678622684
| 37> H 2.7975639334 5.1547804701 1.2463795718
| 38> H -4.2109114211 2.0179752654 0.8246149115
| 39> H -4.6391890822 0.3149329679 0.4629188448
| 40> H -3.7196021116 1.2714605791 -0.7291763633
| 41> H -3.4524521405 -3.3924235965 -0.2339572075
| 42> H -1.7489287976 -3.2257559673 0.287588746
| 43> H -2.2124997219 -2.8162416081 -1.3901752522
| 44> *
| 45>
| 46>                          ****END OF INPUT****

CARTESIAN COORDINATES (ANGSTROEM)
---------------------------------
  C      3.111728   -3.932571    0.145483
  C      2.716762   -2.530942    0.565362
  O      2.208650   -1.845826   -0.595379
  C      2.040374   -0.547499   -0.534113
  O      2.273325    0.140155    0.441793
  C      1.558897    0.032057   -1.851379
  C      0.339567    0.936633   -1.644430
  H      0.242379    1.626134   -2.486061
  C      0.456759    1.732248   -0.358505
  O     -0.280568    1.542328    0.594692
  O      1.367660    2.654454   -0.429682
  C      1.649726    3.425316    0.758494
  C      2.561814    4.569071    0.364329
  S     -1.224450    0.004178   -1.613925
  P     -1.713284   -0.401964    0.422538
  S     -0.459616   -1.195562    1.705157
  O     -2.672596    0.725572    0.991583
  C     -3.897028    1.100545    0.332973
  O     -2.857466   -1.490149    0.063040
  C     -2.536565   -2.818379   -0.349559
  H      2.248221   -4.455558   -0.253497
  H      3.884328   -3.891128   -0.616576
  H      3.486746   -4.469513    1.010071
  H      3.565572   -1.961025    0.956132
  H      1.928312   -2.535035    1.325701
  H      1.320685   -0.772949   -2.545050
  H      2.375975    0.635990   -2.252043
  H      0.701218    3.774782    1.177854
  H      2.120652    2.748519    1.478443
  H      3.480586    4.179104   -0.062364
  H      2.071963    5.203882   -0.367862
  H      2.797564    5.154780    1.246380
  H     -4.210911    2.017975    0.824615
  H     -4.639189    0.314933    0.462919
  H     -3.719602    1.271461   -0.729176
  H     -3.452452   -3.392424   -0.233957
  H     -1.748929   -3.225756    0.287589
  H     -2.212500   -2.816242   -1.390175

 Total Charge           Charge          ....    0
 Multiplicity           Mult            ....    1
 Number of Electrons    NEL             ....  174
 Basis Dimension        Dim             ....  316

ORBITAL ENERGIES
----------------

  NO   OCC          E(Eh)            E(eV)
   0   2.0000     -88.033533     -2395.5142
   1   2.0000     -87.960215     -2393.5191
   2   2.0000     -76.415004     -2079.3580
   3   2.0000     -18.813949      -511.9536
   4   2.0000     -18.803284      -511.6634
   5   2.0000     -18.772672      -510.8304
   6   2.0000     -18.771103      -510.7877
   7   2.0000     -18.750958      -510.2395
   8   2.0000     -18.737057      -509.8612
   9   2.0000     -10.023846      -272.7627
  10   2.0000     -10.010914      -272.4108
  11   2.0000      -9.953836      -270.8577
  12   2.0000      -9.949154      -270.7302
  13   2.0000      -9.939507      -270.4677
  14   2.0000      -9.935773      -270.3661
  15   2.0000      -9.928212      -270.1604
  16   2.0000      -9.916724      -269.8478
  17   2.0000      -9.891164      -269.1523
  18   2.0000      -9.884562      -268.9726
  19   2.0000      -7.678399      -208.9399
  20   2.0000      -7.605400      -206.9535
  21   2.0000      -6.409888      -174.4219
  22   2.0000      -5.706501      -155.2818
  23   2.0000      -5.702453      -155.1716
  24   2.0000      -5.695601      -154.9852
  25   2.0000      -5.634732      -153.3289
  26   2.0000      -5.626161      -153.0956
  27   2.0000      -5.624905      -153.0614
  28   2.0000      -4.633108      -126.0733
  29   2.0000      -4.632000      -126.0431
  30   2.0000      -4.630008      -125.9889
  31   2.0000      -1.025558       -27.9069
  32   2.0000      -1.009915       -27.4812
  33   2.0000      -0.967646       -26.3310
  34   2.0000      -0.929737       -25.2994
  35   2.0000      -0.919943       -25.0329
  36   2.0000      -0.914592       -24.8873
  37   2.0000      -0.765945       -20.8424
  38   2.0000      -0.713274       -19.4092
  39   2.0000      -0.707481       -19.2515
  40   2.0000      -0.683770       -18.6063
  41   2.0000      -0.654998       -17.8234
  42   2.0000      -0.622785       -16.9468
  43   2.0000      -0.618509       -16.8305
  44   2.0000      -0.602993       -16.4083
  45   2.0000      -0.587050       -15.9745
  46   2.0000      -0.557687       -15.1754
  47   2.0000      -0.515577       -14.0296
  48   2.0000      -0.506803       -13.7908
  49   2.0000      -0.499557       -13.5936
  50   2.0000      -0.487536       -13.2665
  51   2.0000      -0.461686       -12.5631
  52   2.0000      -0.457315       -12.4442
  53   2.0000      -0.449320       -12.2266
  54   2.0000      -0.441242       -12.0068
  55   2.0000      -0.423204       -11.5160
  56   2.0000      -0.420604       -11.4452
  57   2.0000      -0.416429       -11.3316
  58   2.0000      -0.408755       -11.1228
  59   2.0000      -0.407231       -11.0813
  60   2.0000      -0.399732       -10.8773
  61   2.0000      -0.393734       -10.7141
  62   2.0000      -0.384493       -10.4626
  63   2.0000      -0.375127       -10.2077
  64   2.0000      -0.368222       -10.0198
  65   2.0000      -0.361621        -9.8402
  66   2.0000      -0.359082        -9.7711
  67   2.0000      -0.358441        -9.7537
  68   2.0000      -0.352093        -9.5809
  69   2.0000      -0.340540        -9.2666
  70   2.0000      -0.329092        -8.9550
  71   2.0000      -0.322483        -8.7752
  72   2.0000      -0.316750        -8.6192
  73   2.0000      -0.312219        -8.4959
  74   2.0000      -0.302874        -8.2416
  75   2.0000      -0.297279        -8.0894
  76   2.0000      -0.283169        -7.7054
  77   2.0000      -0.279835        -7.6147
  78   2.0000      -0.271900        -7.3988
  79   2.0000      -0.256856        -6.9894
  80   2.0000      -0.254351        -6.9213
  81   2.0000      -0.242662        -6.6032
  82   2.0000      -0.236415        -6.4332
  83   2.0000      -0.224167        -6.0999
  84   2.0000      -0.222620        -6.0578
  85   2.0000      -0.181143        -4.9291
  86   2.0000      -0.170508        -4.6397
  87   0.0000      -0.037784        -1.0281
  88   0.0000      -0.028897        -0.7863
  89   0.0000      -0.023062        -0.6276
  90   0.0000       0.004491         0.1222
  91   0.0000       0.032037         0.8718

MULLIKEN ATOMIC CHARGES
-----------------------
   0 C :   -0.274432
   1 C :   -0.038181
   2 O :   -0.216268
   3 C :    0.101173
   4 O :   -0.206504
   5 C :   -0.028338
   6 C :   -0.285025
   7 H :    0.143288
   8 C :    0.220567
   9 O :   -0.194393
  10 O :   -0.220798
  11 C :   -0.029524
  12 C :   -0.277374
  13 S :   -0.116003
  14 P :    0.638951
  15 S :   -0.326325
  16 O :   -0.366146
  17 C :   -0.096274
  18 O :   -0.409547
  19 C :   -0.096122
  20 H :    0.115947
  21 H :    0.109238
  22 H :    0.111868
  23 H :    0.102380
  24 H :    0.131550
  25 H :    0.114978
  26 H :    0.122791
  27 H :    0.114268
  28 H :    0.128346
  29 H :    0.117764
  30 H :    0.112797
  31 H :    0.115150
  32 H :    0.123034
  33 H :    0.121156
  34 H :    0.106858
  35 H :    0.115431
  36 H :    0.107899
  37 H :    0.105822
Sum of atomic charges:   -0.0000000

LOEWDIN ATOMIC CHARGES
----------------------
   0 C :   -0.350401
   1 C :   -0.111091
   2 O :   -0.044226
   3 C :    0.026721
   4 O :   -0.157274
   5 C :   -0.246347
   6 C :   -0.260614
   7 H :    0.146378
   8 C :    0.022447
   9 O :   -0.141714
  10 O :   -0.038576
  11 C :   -0.102300
  12 C :   -0.350672
  13 S :    0.086033
  14 P :    0.585774
  15 S :   -0.314445
  16 O :   -0.241421
  17 C :   -0.209104
  18 O :   -0.275328
  19 C :   -0.222833
  20 H :    0.127226
  21 H :    0.123331
  22 H :    0.131106
  23 H :    0.115530
  24 H :    0.117617
  25 H :    0.135516
  26 H :    0.148484
  27 H :    0.120240
  28 H :    0.128755
  29 H :    0.128021
  30 H :    0.125296
  31 H :    0.133080
  32 H :    0.121395
  33 H :    0.114993
  34 H :    0.104255
  35 H :    0.117407
  36 H :    0.103617
  37 H :    0.103126

  Mayer bond orders larger than 0.100000
B(  0-C ,  1-C ) :   1.1543 B(  0-C , 20-H ) :   0.9485 B(  0-C , 21-H ) :   0.9517
B(  0-C , 22-H ) :   0.9444 B(  1-C ,  2-O ) :   0.8971 B(  1-C , 23-H ) :   0.9260
B(  1-C , 24-H ) :   0.9149 B(  2-O ,  3-C ) :   1.2693 B(  2-O ,  4-O ) :   0.1009
B(  3-C ,  4-O ) :   1.9556 B(  3-C ,  5-C ) :   1.0092 B(  4-O ,  8-C ) :   0.1074
B(  5-C ,  6-C ) :   1.0238 B(  5-C , 25-H ) :   0.9045 B(  5-C , 26-H ) :   0.8753
B(  6-C ,  7-H ) :   0.8773 B(  6-C ,  8-C ) :   0.9132 B(  6-C , 13-S ) :   1.0287
B(  8-C ,  9-O ) :   1.9067 B(  8-C , 10-O ) :   1.2703 B(  9-O , 14-P ) :   0.1644
B( 10-O , 11-C ) :   0.8902 B( 11-C , 12-C ) :   1.1546 B( 11-C , 27-H ) :   0.9285
B( 11-C , 28-H ) :   0.9261 B( 12-C , 29-H ) :   0.9488 B( 12-C , 30-H ) :   0.9513
B( 12-C , 31-H ) :   0.9432 B( 13-S , 14-P ) :   0.9325 B( 13-S , 15-S ) :   0.1098
B( 14-P , 15-S ) :   1.6089 B( 14-P , 16-O ) :   1.1046 B( 14-P , 18-O ) :   1.0020
B( 16-O , 17-C ) :   0.9303 B( 17-C , 32-H ) :   0.9587 B( 17-C , 33-H ) :   0.9488
B( 17-C , 34-H ) :   0.9387 B( 18-O , 19-C ) :   0.9475 B( 19-C , 35-H ) :   0.9590
B( 19-C , 36-H ) :   0.9264 B( 19-C , 37-H ) :   0.9480

Dispersion correction           -0.052730706
FINAL SINGLE POINT ENERGY     -1979.006076648145

DIPOLE MOMENT
-------------

Method             : SCF
Type of density    : Electron Density
Multiplicity       :   1
Irrep              :   0
Energy             : -1979.1359308699798021 Eh
Relativity type    :
Basis              : AO
                                X                 Y                 Z
Electronic contribution:    -10.678938321       0.649748796       1.044385072
Nuclear contribution   :     11.187612231      -0.136246693      -2.397465496
                        -----------------------------------------
Total Dipole Moment    :      0.508673910       0.513502103      -1.353080424
                        -----------------------------------------
Magnitude (a.u.)       :      1.534033960
Magnitude (Debye)      :      3.899204450

Rotational constants in cm-1:             0.010545             0.009394             0.006202
Rotational constants in MHz :           316.116726           281.632720           185.920282

                             ****ORCA TERMINATED NORMALLY****
TOTAL RUN TIME: 0 days 0 hours 0 minutes 36 seconds 451 msec
