                         Program Version 6.0.0  -   RELEASE  -
|  1> ! pbe def2-sv(p) def2/J RI DEFGRID1 loosescf d4 GCP(DFT/SV(P)) printgap
|  2> %output
|  3>     printlevel normal
|  4> end
|  5> * xyz 0 1
|  6> C 2.5876372947 -3.1670215631 -0.3891855664
|  7> C 3.3592712694 -2.1781246787 -1.2377983275
|  8> O 3.5332482824 -0.9012109289 -0.5812393316
|  9> P 2.3751429983 0.1013689653 -0.1648084257
| 10> S 3.1302926013 1.8757965786 0.1493539106
| 11> O 1.6082253297 -0.5452601869 1.0800567859
| 12> C 1.9661128908 -0.2516175441 2.4472216027
| 13> C 1.0351370405 0.7878921156 3.037582735
| 14> S 0.9238736168 -0.1180981602 -1.6835904779
| 15> C 0.1652015961 1.5118249931 -1.4794185984
| 16> S -0.7298688801 1.7044809803 0.0796561252
| 17> P -2.1853652624 0.2146214597 -0.2957406514
| 18> S -2.8235779297 0.0647397192 -2.1358430814
| 19> O -3.3746165128 0.5331533466 0.7017509444
| 20> C -3.2523918355 0.5113498078 2.1451334453
| 21> C -2.9837923725 1.8982842791 2.6934812035
| 22> O -1.4367251426 -1.067841887 0.3017817189
| 23> C -1.6434830855 -2.3881436295 -0.2322181922
| 24> C -3.02018694 -2.917708972 0.1144910824
| 25> H 1.5754902221 -2.8035223059 -0.2249166821
| 26> H 2.5426697136 -4.119652308 -0.9075911553
| 27> H 3.0774353409 -3.30327864 0.5716585731
| 28> H 2.8541129417 -2.0067810412 -2.1921334916
| 29> H 4.383299944 -2.5103271428 -1.4161454012
| 30> H 1.8771154749 -1.2070093026 2.9675613947
| 31> H 3.0041505396 0.0923840865 2.4819371511
| 32> H 0.0031364149 0.4650927238 2.9329225977
| 33> H 1.268109422 0.9214319341 4.0889236947
| 34> H 1.1575515832 1.7375380369 2.5210606731
| 35> H -0.5265507722 1.6327626954 -2.3129834454
| 36> H 0.9408054763 2.2778902979 -1.4867908314
| 37> H -4.2171709403 0.1327943409 2.4875297281
| 38> H -2.4606018872 -0.1886358397 2.4227642045
| 39> H -3.7577543419 2.584769377 2.3618985026
| 40> H -2.9823002715 1.85684846 3.7782646868
| 41> H -2.0200784843 2.2691444598 2.349886421
| 42> H -1.5034346529 -2.3515634623 -1.3171003288
| 43> H -0.8536678015 -2.9864978034 0.2246306381
| 44> H -3.160527743 -2.9406594757 1.1921180431
| 45> H -3.7815480917 -2.2759339496 -0.3287179857
| 46> H -3.1306561756 -3.9210698576 -0.2844193339
| 47> *
| 48>
| 49>                          ****END OF INPUT****

CARTESIAN COORDINATES (ANGSTROEM)
---------------------------------
  C      2.587637   -3.167022   -0.389186
  C      3.359271   -2.178125   -1.237798
  O      3.533248   -0.901211   -0.581239
  P      2.375143    0.101369   -0.164808
  S      3.130293    1.875797    0.149354
  O      1.608225   -0.545260    1.080057
  C      1.966113   -0.251618    2.447222
  C      1.035137    0.787892    3.037583
  S      0.923874   -0.118098   -1.683590
  C      0.165202    1.511825   -1.479419
  S     -0.729869    1.704481    0.079656
  P     -2.185365    0.214621   -0.295741
  S     -2.823578    0.064740   -2.135843
  O     -3.374617    0.533153    0.701751
  C     -3.252392    0.511350    2.145133
  C     -2.983792    1.898284    2.693481
  O     -1.436725   -1.067842    0.301782
  C     -1.643483   -2.388144   -0.232218
  C     -3.020187   -2.917709    0.114491
  H      1.575490   -2.803522   -0.224917
  H      2.542670   -4.119652   -0.907591
  H      3.077435   -3.303279    0.571659
  H      2.854113   -2.006781   -2.192133
  H      4.383300   -2.510327   -1.416145
  H      1.877115   -1.207009    2.967561
  H      3.004151    0.092384    2.481937
  H      0.003136    0.465093    2.932923
  H      1.268109    0.921432    4.088924
  H      1.157552    1.737538    2.521061
  H     -0.526551    1.632763   -2.312983
  H      0.940805    2.277890   -1.486791
  H     -4.217171    0.132794    2.487530
  H     -2.460602   -0.188636    2.422764
  H     -3.757754    2.584769    2.361899
  H     -2.982300    1.856848    3.778265
  H     -2.020078    2.269144    2.349886
  H     -1.503435   -2.351563   -1.317100
  H     -0.853668   -2.986498    0.224631
  H     -3.160528   -2.940659    1.192118
  H     -3.781548   -2.275934   -0.328718
  H     -3.130656   -3.921070   -0.284419

 Total Charge           Charge          ....    0
 Multiplicity           Mult            ....    1
 Number of Electrons    NEL             ....  202
 Basis Dimension        Dim             ....  334

ORBITAL ENERGIES
----------------

  NO   OCC          E(Eh)            E(eV)
   0   2.0000     -88.045302     -2395.8345
   1   2.0000     -88.042196     -2395.7500
   2   2.0000     -87.987868     -2394.2716
   3   2.0000     -87.984515     -2394.1804
   4   2.0000     -76.427291     -2079.6923
   5   2.0000     -76.425472     -2079.6428
   6   2.0000     -18.797226      -511.4985
   7   2.0000     -18.793066      -511.3853
   8   2.0000     -18.790312      -511.3104
   9   2.0000     -18.787173      -511.2250
  10   2.0000      -9.962923      -271.1049
  11   2.0000      -9.962096      -271.0824
  12   2.0000      -9.955571      -270.9049
  13   2.0000      -9.952751      -270.8281
  14   2.0000      -9.952496      -270.8212
  15   2.0000      -9.894826      -269.2519
  16   2.0000      -9.893218      -269.2081
  17   2.0000      -9.887135      -269.0426
  18   2.0000      -9.881045      -268.8769
  19   2.0000      -7.690293      -209.2635
  20   2.0000      -7.687140      -209.1777
  21   2.0000      -7.633108      -207.7074
  22   2.0000      -7.629816      -207.6178
  23   2.0000      -6.425010      -174.8334
  24   2.0000      -6.423301      -174.7869
  25   2.0000      -5.718102      -155.5975
  26   2.0000      -5.715006      -155.5132
  27   2.0000      -5.714950      -155.5117
  28   2.0000      -5.711791      -155.4257
  29   2.0000      -5.707164      -155.2998
  30   2.0000      -5.703949      -155.2123
  31   2.0000      -5.662152      -154.0750
  32   2.0000      -5.658851      -153.9852
  33   2.0000      -5.653669      -153.8442
  34   2.0000      -5.653153      -153.8301
  35   2.0000      -5.650765      -153.7651
  36   2.0000      -5.649458      -153.7296
  37   2.0000      -4.647963      -126.4775
  38   2.0000      -4.646331      -126.4331
  39   2.0000      -4.646170      -126.4287
  40   2.0000      -4.645569      -126.4124
  41   2.0000      -4.644825      -126.3921
  42   2.0000      -4.643725      -126.3622
  43   2.0000      -0.987415       -26.8689
  44   2.0000      -0.982347       -26.7310
  45   2.0000      -0.945826       -25.7372
  46   2.0000      -0.943292       -25.6683
  47   2.0000      -0.767659       -20.8891
  48   2.0000      -0.724607       -19.7176
  49   2.0000      -0.713643       -19.4192
  50   2.0000      -0.696307       -18.9475
  51   2.0000      -0.692004       -18.8304
  52   2.0000      -0.675242       -18.3743
  53   2.0000      -0.652425       -17.7534
  54   2.0000      -0.640582       -17.4311
  55   2.0000      -0.598012       -16.2727
  56   2.0000      -0.590862       -16.0782
  57   2.0000      -0.582933       -15.8624
  58   2.0000      -0.580079       -15.7847
  59   2.0000      -0.559802       -15.2330
  60   2.0000      -0.505385       -13.7522
  61   2.0000      -0.498347       -13.5607
  62   2.0000      -0.481104       -13.0915
  63   2.0000      -0.478245       -13.0137
  64   2.0000      -0.459209       -12.4957
  65   2.0000      -0.451335       -12.2814
  66   2.0000      -0.445454       -12.1214
  67   2.0000      -0.436058       -11.8657
  68   2.0000      -0.432583       -11.7712
  69   2.0000      -0.414786       -11.2869
  70   2.0000      -0.407483       -11.0882
  71   2.0000      -0.402378       -10.9493
  72   2.0000      -0.397337       -10.8121
  73   2.0000      -0.386334       -10.5127
  74   2.0000      -0.377757       -10.2793
  75   2.0000      -0.375741       -10.2244
  76   2.0000      -0.368304       -10.0221
  77   2.0000      -0.362676        -9.8689
  78   2.0000      -0.361095        -9.8259
  79   2.0000      -0.356720        -9.7068
  80   2.0000      -0.353128        -9.6091
  81   2.0000      -0.349405        -9.5078
  82   2.0000      -0.347447        -9.4545
  83   2.0000      -0.345358        -9.3977
  84   2.0000      -0.337589        -9.1863
  85   2.0000      -0.322129        -8.7656
  86   2.0000      -0.314151        -8.5485
  87   2.0000      -0.306566        -8.3421
  88   2.0000      -0.305589        -8.3155
  89   2.0000      -0.283153        -7.7050
  90   2.0000      -0.280026        -7.6199
  91   2.0000      -0.277785        -7.5589
  92   2.0000      -0.274809        -7.4779
  93   2.0000      -0.271833        -7.3969
  94   2.0000      -0.259356        -7.0574
  95   2.0000      -0.229405        -6.2424
  96   2.0000      -0.217305        -5.9132
  97   2.0000      -0.214345        -5.8326
  98   2.0000      -0.204275        -5.5586
  99   2.0000      -0.201700        -5.4885
 100   2.0000      -0.197049        -5.3620
 101   0.0000      -0.046978        -1.2783
 102   0.0000      -0.025068        -0.6821
 103   0.0000      -0.002184        -0.0594
 104   0.0000      -0.000391        -0.0106
 105   0.0000       0.004568         0.1243

MULLIKEN ATOMIC CHARGES
-----------------------
   0 C :   -0.337103
   1 C :   -0.019725
   2 O :   -0.369750
   3 P :    0.617374
   4 S :   -0.318429
   5 O :   -0.375224
   6 C :   -0.007442
   7 C :   -0.303313
   8 S :   -0.099295
   9 C :   -0.342587
  10 S :   -0.096190
  11 P :    0.625103
  12 S :   -0.316280
  13 O :   -0.366578
  14 C :   -0.043393
  15 C :   -0.304402
  16 O :   -0.379276
  17 C :   -0.027148
  18 C :   -0.302267
  19 H :    0.152114
  20 H :    0.114856
  21 H :    0.118177
  22 H :    0.120785
  23 H :    0.115970
  24 H :    0.097236
  25 H :    0.106699
  26 H :    0.117424
  27 H :    0.104083
  28 H :    0.131473
  29 H :    0.194545
  30 H :    0.194864
  31 H :    0.111968
  32 H :    0.123618
  33 H :    0.125892
  34 H :    0.112671
  35 H :    0.143181
  36 H :    0.112648
  37 H :    0.117024
  38 H :    0.108207
  39 H :    0.130519
  40 H :    0.111972
Sum of atomic charges:    0.0000000

LOEWDIN ATOMIC CHARGES
----------------------
   0 C :   -0.368961
   1 C :   -0.115544
   2 O :   -0.246747
   3 P :    0.571506
   4 S :   -0.313755
   5 O :   -0.251572
   6 C :   -0.114704
   7 C :   -0.364497
   8 S :    0.090226
   9 C :   -0.478887
  10 S :    0.098296
  11 P :    0.572679
  12 S :   -0.309792
  13 O :   -0.242309
  14 C :   -0.117681
  15 C :   -0.361650
  16 O :   -0.248460
  17 C :   -0.123342
  18 C :   -0.366146
  19 H :    0.124225
  20 H :    0.131777
  21 H :    0.127587
  22 H :    0.109717
  23 H :    0.124703
  24 H :    0.113888
  25 H :    0.109555
  26 H :    0.117549
  27 H :    0.126462
  28 H :    0.123436
  29 H :    0.132094
  30 H :    0.132174
  31 H :    0.122312
  32 H :    0.109169
  33 H :    0.132374
  34 H :    0.131928
  35 H :    0.120322
  36 H :    0.108805
  37 H :    0.115594
  38 H :    0.121103
  39 H :    0.125525
  40 H :    0.131039

  Mayer bond orders larger than 0.100000
B(  0-C ,  1-C ) :   1.1607 B(  0-C , 19-H ) :   0.9264 B(  0-C , 20-H ) :   0.9364
B(  0-C , 21-H ) :   0.9447 B(  1-C ,  2-O ) :   0.9128 B(  1-C , 22-H ) :   0.9179
B(  1-C , 23-H ) :   0.9348 B(  2-O ,  3-P ) :   1.1205 B(  3-P ,  4-S ) :   1.6222
B(  3-P ,  5-O ) :   1.0861 B(  3-P ,  8-S ) :   0.9559 B(  4-S ,  8-S ) :   0.1001
B(  5-O ,  6-C ) :   0.9058 B(  6-C ,  7-C ) :   1.1731 B(  6-C , 24-H ) :   0.9327
B(  6-C , 25-H ) :   0.9130 B(  7-C , 26-H ) :   0.9367 B(  7-C , 27-H ) :   0.9370
B(  7-C , 28-H ) :   0.9338 B(  8-S ,  9-C ) :   1.0107 B(  9-C , 10-S ) :   1.0103
B(  9-C , 29-H ) :   0.8811 B(  9-C , 30-H ) :   0.8784 B( 10-S , 11-P ) :   0.9596
B( 10-S , 12-S ) :   0.1023 B( 11-P , 12-S ) :   1.6268 B( 11-P , 13-O ) :   1.1244
B( 11-P , 16-O ) :   1.0725 B( 13-O , 14-C ) :   0.9021 B( 14-C , 15-C ) :   1.1702
B( 14-C , 31-H ) :   0.9321 B( 14-C , 32-H ) :   0.9086 B( 15-C , 33-H ) :   0.9447
B( 15-C , 34-H ) :   0.9382 B( 15-C , 35-H ) :   0.9296 B( 16-O , 17-C ) :   0.9073
B( 17-C , 18-C ) :   1.1607 B( 17-C , 36-H ) :   0.9143 B( 17-C , 37-H ) :   0.9216
B( 18-C , 38-H ) :   0.9467 B( 18-C , 39-H ) :   0.9318 B( 18-C , 40-H ) :   0.9400

Dispersion correction           -0.067917486
FINAL SINGLE POINT ENERGY     -2929.516954131306

DIPOLE MOMENT
-------------

Method             : SCF
Type of density    : Electron Density
Multiplicity       :   1
Irrep              :   0
Energy             : -2929.6354415839136891 Eh
Relativity type    :
Basis              : AO
                                X                 Y                 Z
Electronic contribution:      5.371470478      14.372329997     -17.814293250
Nuclear contribution   :     -5.536521958     -16.028964259      19.217022026
                        -----------------------------------------
Total Dipole Moment    :     -0.165051480      -1.656634262       1.402728776
                        -----------------------------------------
Magnitude (a.u.)       :      2.176999561
Magnitude (Debye)      :      5.533493129

Rotational constants in cm-1:             0.010934             0.005983             0.005380
Rotational constants in MHz :           327.800128           179.371927           161.290889

                             ****ORCA TERMINATED NORMALLY****
TOTAL RUN TIME: 0 days 0 hours 0 minutes 22 seconds 425 msec
