                         Program Version 6.0.0  -   RELEASE  -
|  1> ! pbe def2-sv(p) def2/J RI DEFGRID1 loosescf d4 GCP(DFT/SV(P)) printgap
|  2> %output
|  3>     printlevel normal
|  4> end
|  5> * xyz 0 1
|  6> C 4.6288813437 -1.6083916065 0.6774352855
|  7> C 4.1280426808 -0.1855810672 0.8253771586
|  8> O 3.5828980071 0.3002280231 -0.4283898032
|  9> P 2.0230614837 0.3946982358 -0.7184498756
| 10> S 1.7401308626 1.1560714981 -2.494865679
| 11> O 1.4141488276 1.1970717521 0.526086541
| 12> C 1.5381560485 2.6321385872 0.5807778732
| 13> C 0.9945107697 3.0897326165 1.9173357314
| 14> S 1.2711364434 -1.522488537 -0.3365118941
| 15> C -0.1394227348 -1.5495265938 -1.4953766398
| 16> S -1.7063037588 -1.8830198734 -0.679022021
| 17> P -1.91009902 -0.0112958567 0.3231462601
| 18> S -1.5163577411 1.5411076013 -0.8108779577
| 19> O -0.9842475585 0.0198526271 1.5963177521
| 20> C -1.1854635061 -0.7086623308 2.8339189305
| 21> C -1.043683804 -2.2074359275 2.6662774705
| 22> O -3.3519817538 -0.1097412282 0.9796635075
| 23> C -4.5453534318 -0.5452645626 0.3025608734
| 24> C -4.8506260745 0.2740287118 -0.933456784
| 25> H 3.8025646534 -2.2872762403 0.4805461208
| 26> H 5.3356793527 -1.6667588942 -0.1455396824
| 27> H 5.1234482643 -1.9050041861 1.5970177943
| 28> H 4.9485241973 0.4989495992 1.0492395099
| 29> H 3.3614508825 -0.1112105712 1.6011826707
| 30> H 2.5918908067 2.9008597534 0.4525442805
| 31> H 0.963226424 3.0542550477 -0.2503222588
| 32> H 1.0532281026 4.1716988401 1.9731415209
| 33> H -0.0437592549 2.780475342 2.0079880796
| 34> H 1.5686887698 2.6506846857 2.7280021365
| 35> H 0.019734165 -2.3648554229 -2.196480845
| 36> H -0.1798513293 -0.5866028394 -2.0133062236
| 37> H -0.4058897209 -0.3054857987 3.4823853106
| 38> H -2.1690565239 -0.4462302888 3.2271281159
| 39> H -0.1097585165 -2.4465810139 2.1622472808
| 40> H -1.0466033018 -2.6699504182 3.6484678035
| 41> H -1.8695027439 -2.6105220728 2.0847706183
| 42> H -4.4261017487 -1.601237072 0.0456544856
| 43> H -5.3241157539 -0.4306446548 1.0586953763
| 44> H -4.9060336168 1.331376604 -0.6851788694
| 45> H -4.0672337811 0.1390047751 -1.6779160022
| 46> H -5.7975996766 -0.0471877028 -1.3549108051
| 47> *
| 48>
| 49>                          ****END OF INPUT****

CARTESIAN COORDINATES (ANGSTROEM)
---------------------------------
  C      4.628881   -1.608392    0.677435
  C      4.128043   -0.185581    0.825377
  O      3.582898    0.300228   -0.428390
  P      2.023061    0.394698   -0.718450
  S      1.740131    1.156071   -2.494866
  O      1.414149    1.197072    0.526087
  C      1.538156    2.632139    0.580778
  C      0.994511    3.089733    1.917336
  S      1.271136   -1.522489   -0.336512
  C     -0.139423   -1.549527   -1.495377
  S     -1.706304   -1.883020   -0.679022
  P     -1.910099   -0.011296    0.323146
  S     -1.516358    1.541108   -0.810878
  O     -0.984248    0.019853    1.596318
  C     -1.185464   -0.708662    2.833919
  C     -1.043684   -2.207436    2.666277
  O     -3.351982   -0.109741    0.979664
  C     -4.545353   -0.545265    0.302561
  C     -4.850626    0.274029   -0.933457
  H      3.802565   -2.287276    0.480546
  H      5.335679   -1.666759   -0.145540
  H      5.123448   -1.905004    1.597018
  H      4.948524    0.498950    1.049240
  H      3.361451   -0.111211    1.601183
  H      2.591891    2.900860    0.452544
  H      0.963226    3.054255   -0.250322
  H      1.053228    4.171699    1.973142
  H     -0.043759    2.780475    2.007988
  H      1.568689    2.650685    2.728002
  H      0.019734   -2.364855   -2.196481
  H     -0.179851   -0.586603   -2.013306
  H     -0.405890   -0.305486    3.482385
  H     -2.169057   -0.446230    3.227128
  H     -0.109759   -2.446581    2.162247
  H     -1.046603   -2.669950    3.648468
  H     -1.869503   -2.610522    2.084771
  H     -4.426102   -1.601237    0.045654
  H     -5.324116   -0.430645    1.058695
  H     -4.906034    1.331377   -0.685179
  H     -4.067234    0.139005   -1.677916
  H     -5.797600   -0.047188   -1.354911

 Total Charge           Charge          ....    0
 Multiplicity           Mult            ....    1
 Number of Electrons    NEL             ....  202
 Basis Dimension        Dim             ....  334

ORBITAL ENERGIES
----------------

  NO   OCC          E(Eh)            E(eV)
   0   2.0000     -88.045941     -2395.8519
   1   2.0000     -88.041195     -2395.7227
   2   2.0000     -87.977708     -2393.9951
   3   2.0000     -87.973581     -2393.8828
   4   2.0000     -76.426024     -2079.6578
   5   2.0000     -76.415844     -2079.3808
   6   2.0000     -18.798360      -511.5294
   7   2.0000     -18.787888      -511.2444
   8   2.0000     -18.787427      -511.2319
   9   2.0000     -18.776364      -510.9308
  10   2.0000      -9.962542      -271.0946
  11   2.0000      -9.956204      -270.9221
  12   2.0000      -9.956018      -270.9170
  13   2.0000      -9.955462      -270.9019
  14   2.0000      -9.938064      -270.4285
  15   2.0000      -9.887374      -269.0491
  16   2.0000      -9.887014      -269.0393
  17   2.0000      -9.884044      -268.9585
  18   2.0000      -9.875597      -268.7286
  19   2.0000      -7.690882      -209.2795
  20   2.0000      -7.686519      -209.1608
  21   2.0000      -7.622567      -207.4206
  22   2.0000      -7.618977      -207.3229
  23   2.0000      -6.422962      -174.7777
  24   2.0000      -6.414095      -174.5364
  25   2.0000      -5.718650      -155.6124
  26   2.0000      -5.715297      -155.5211
  27   2.0000      -5.714367      -155.4958
  28   2.0000      -5.711073      -155.4062
  29   2.0000      -5.708081      -155.3248
  30   2.0000      -5.703340      -155.1958
  31   2.0000      -5.651691      -153.7903
  32   2.0000      -5.648153      -153.6940
  33   2.0000      -5.643134      -153.5575
  34   2.0000      -5.642571      -153.5422
  35   2.0000      -5.639736      -153.4650
  36   2.0000      -5.638674      -153.4361
  37   2.0000      -4.645995      -126.4240
  38   2.0000      -4.644944      -126.3954
  39   2.0000      -4.642858      -126.3386
  40   2.0000      -4.636963      -126.1782
  41   2.0000      -4.635554      -126.1398
  42   2.0000      -4.634514      -126.1115
  43   2.0000      -0.990093       -26.9418
  44   2.0000      -0.976626       -26.5753
  45   2.0000      -0.944875       -25.7114
  46   2.0000      -0.932413       -25.3722
  47   2.0000      -0.764044       -20.7907
  48   2.0000      -0.720783       -19.6135
  49   2.0000      -0.710307       -19.3284
  50   2.0000      -0.692838       -18.8531
  51   2.0000      -0.688028       -18.7222
  52   2.0000      -0.673702       -18.3324
  53   2.0000      -0.647738       -17.6258
  54   2.0000      -0.629519       -17.1301
  55   2.0000      -0.591120       -16.0852
  56   2.0000      -0.584871       -15.9152
  57   2.0000      -0.579469       -15.7682
  58   2.0000      -0.570415       -15.5218
  59   2.0000      -0.554156       -15.0794
  60   2.0000      -0.503955       -13.7133
  61   2.0000      -0.499607       -13.5950
  62   2.0000      -0.473214       -12.8768
  63   2.0000      -0.472427       -12.8554
  64   2.0000      -0.454597       -12.3702
  65   2.0000      -0.445945       -12.1348
  66   2.0000      -0.439464       -11.9584
  67   2.0000      -0.435142       -11.8408
  68   2.0000      -0.431173       -11.7328
  69   2.0000      -0.418079       -11.3765
  70   2.0000      -0.411568       -11.1993
  71   2.0000      -0.404604       -11.0098
  72   2.0000      -0.388266       -10.5652
  73   2.0000      -0.386768       -10.5245
  74   2.0000      -0.377177       -10.2635
  75   2.0000      -0.360516        -9.8101
  76   2.0000      -0.355956        -9.6861
  77   2.0000      -0.355379        -9.6704
  78   2.0000      -0.353667        -9.6238
  79   2.0000      -0.349471        -9.5096
  80   2.0000      -0.347413        -9.4536
  81   2.0000      -0.342854        -9.3295
  82   2.0000      -0.341743        -9.2993
  83   2.0000      -0.338842        -9.2204
  84   2.0000      -0.328691        -8.9441
  85   2.0000      -0.322882        -8.7861
  86   2.0000      -0.308605        -8.3976
  87   2.0000      -0.302708        -8.2371
  88   2.0000      -0.299314        -8.1447
  89   2.0000      -0.291602        -7.9349
  90   2.0000      -0.278760        -7.5855
  91   2.0000      -0.270936        -7.3725
  92   2.0000      -0.269214        -7.3257
  93   2.0000      -0.260978        -7.1016
  94   2.0000      -0.253906        -6.9091
  95   2.0000      -0.234811        -6.3895
  96   2.0000      -0.217533        -5.9194
  97   2.0000      -0.207264        -5.6399
  98   2.0000      -0.195845        -5.3292
  99   2.0000      -0.188239        -5.1222
 100   2.0000      -0.179580        -4.8866
 101   0.0000      -0.043758        -1.1907
 102   0.0000      -0.029954        -0.8151
 103   0.0000      -0.013061        -0.3554
 104   0.0000       0.007641         0.2079
 105   0.0000       0.017719         0.4821

MULLIKEN ATOMIC CHARGES
-----------------------
   0 C :   -0.289054
   1 C :   -0.032783
   2 O :   -0.371997
   3 P :    0.612397
   4 S :   -0.302572
   5 O :   -0.372118
   6 C :   -0.012781
   7 C :   -0.276506
   8 S :   -0.115982
   9 C :   -0.340159
  10 S :   -0.125197
  11 P :    0.606379
  12 S :   -0.293697
  13 O :   -0.342194
  14 C :    0.003786
  15 C :   -0.320472
  16 O :   -0.383664
  17 C :   -0.016430
  18 C :   -0.306578
  19 H :    0.126686
  20 H :    0.123560
  21 H :    0.108077
  22 H :    0.109776
  23 H :    0.106143
  24 H :    0.094488
  25 H :    0.119367
  26 H :    0.105486
  27 H :    0.125055
  28 H :    0.098838
  29 H :    0.185775
  30 H :    0.211960
  31 H :    0.105683
  32 H :    0.108298
  33 H :    0.129782
  34 H :    0.109946
  35 H :    0.119212
  36 H :    0.114669
  37 H :    0.109243
  38 H :    0.126577
  39 H :    0.129732
  40 H :    0.111272
Sum of atomic charges:   -0.0000000

LOEWDIN ATOMIC CHARGES
----------------------
   0 C :   -0.360828
   1 C :   -0.119946
   2 O :   -0.248769
   3 P :    0.565158
   4 S :   -0.301648
   5 O :   -0.247817
   6 C :   -0.122580
   7 C :   -0.352013
   8 S :    0.078110
   9 C :   -0.475497
  10 S :    0.069649
  11 P :    0.564753
  12 S :   -0.288263
  13 O :   -0.225178
  14 C :   -0.108506
  15 C :   -0.372172
  16 O :   -0.246667
  17 C :   -0.115103
  18 C :   -0.368706
  19 H :    0.118874
  20 H :    0.131106
  21 H :    0.128962
  22 H :    0.120304
  23 H :    0.107004
  24 H :    0.103615
  25 H :    0.111487
  26 H :    0.127988
  27 H :    0.128402
  28 H :    0.117806
  29 H :    0.138822
  30 H :    0.127830
  31 H :    0.120196
  32 H :    0.113125
  33 H :    0.122223
  34 H :    0.129378
  35 H :    0.115867
  36 H :    0.107383
  37 H :    0.121067
  38 H :    0.131087
  39 H :    0.123332
  40 H :    0.130164

  Mayer bond orders larger than 0.100000
B(  0-C ,  1-C ) :   1.1669 B(  0-C , 19-H ) :   0.9369 B(  0-C , 20-H ) :   0.9462
B(  0-C , 21-H ) :   0.9390 B(  1-C ,  2-O ) :   0.9055 B(  1-C , 22-H ) :   0.9346
B(  1-C , 23-H ) :   0.9150 B(  2-O ,  3-P ) :   1.1026 B(  3-P ,  4-S ) :   1.6552
B(  3-P ,  5-O ) :   1.0925 B(  3-P ,  8-S ) :   0.9669 B(  4-S ,  8-S ) :   0.1104
B(  5-O ,  6-C ) :   0.8947 B(  6-C ,  7-C ) :   1.1621 B(  6-C , 24-H ) :   0.9254
B(  6-C , 25-H ) :   0.9125 B(  7-C , 26-H ) :   0.9420 B(  7-C , 27-H ) :   0.9421
B(  7-C , 28-H ) :   0.9517 B(  8-S ,  9-C ) :   0.9945 B(  9-C , 10-S ) :   1.0128
B(  9-C , 29-H ) :   0.9110 B(  9-C , 30-H ) :   0.8405 B( 10-S , 11-P ) :   0.9228
B( 10-S , 12-S ) :   0.1062 B( 11-P , 12-S ) :   1.6551 B( 11-P , 13-O ) :   1.1394
B( 11-P , 16-O ) :   1.0756 B( 13-O , 14-C ) :   0.9010 B( 14-C , 15-C ) :   1.1701
B( 14-C , 31-H ) :   0.9336 B( 14-C , 32-H ) :   0.9277 B( 15-C , 33-H ) :   0.9363
B( 15-C , 34-H ) :   0.9355 B( 15-C , 35-H ) :   0.9401 B( 16-O , 17-C ) :   0.9130
B( 17-C , 18-C ) :   1.1670 B( 17-C , 36-H ) :   0.9252 B( 17-C , 37-H ) :   0.9334
B( 18-C , 38-H ) :   0.9434 B( 18-C , 39-H ) :   0.9312 B( 18-C , 40-H ) :   0.9348

Dispersion correction           -0.068169029
FINAL SINGLE POINT ENERGY     -2929.509589123338

DIPOLE MOMENT
-------------

Method             : SCF
Type of density    : Electron Density
Multiplicity       :   1
Irrep              :   0
Energy             : -2929.6278054332619831 Eh
Relativity type    :
Basis              : AO
                                X                 Y                 Z
Electronic contribution:      1.100433593       1.059422947     -16.634651467
Nuclear contribution   :     -1.564589435      -2.132762765      18.601488471
                        -----------------------------------------
Total Dipole Moment    :     -0.464155842      -1.073339819       1.966837004
                        -----------------------------------------
Magnitude (a.u.)       :      2.288219136
Magnitude (Debye)      :      5.816190823

Rotational constants in cm-1:             0.011892             0.005683             0.005427
Rotational constants in MHz :           356.525846           170.384887           162.690527

                             ****ORCA TERMINATED NORMALLY****
TOTAL RUN TIME: 0 days 0 hours 0 minutes 22 seconds 37 msec
