                         Program Version 6.0.0  -   RELEASE  -
|  1> ! r2scan-3c def2/J RI DEFGRID2 scfconv6 printgap
|  2> %output
|  3>     printlevel normal
|  4> end
|  5> * xyz 0 1
|  6> C 4.5399500175 -0.9870725214 -2.3491355437
|  7> C 3.8342091695 -1.9779563535 -1.4477310363
|  8> O 3.416977082 -1.3961308669 -0.1977150074
|  9> P 2.5052966595 -0.1039668057 -0.0401243873
| 10> S 3.3057273377 1.6600320917 -0.3086412176
| 11> O 2.031399625 -0.2418234346 1.4549463709
| 12> C 1.4420827075 -1.4502374165 1.9984169333
| 13> C 0.5430160404 -1.0553252269 3.1515386575
| 14> S 0.8322405191 -0.5535565093 -1.2915539929
| 15> C 0.1312936756 1.1082766289 -1.2510556839
| 16> S -0.5978959493 1.5269937037 0.3556978944
| 17> P -2.3351168142 0.3561452355 0.1131736099
| 18> S -3.1970700305 0.3883546455 -1.6527995065
| 19> O -3.2858694162 0.7601118856 1.3226280371
| 20> C -4.263701671 1.8094177001 1.2190195851
| 21> C -3.6201905434 3.1747188064 1.0889894972
| 22> O -1.7994057724 -1.0536432083 0.5923470048
| 23> C -2.5329263118 -2.2757947614 0.3367680702
| 24> C -1.542435974 -3.3916645774 0.0742449489
| 25> H 5.3747345418 -0.5261481256 -1.8265157339
| 26> H 4.9067938906 -1.5002504228 -3.2321717208
| 27> H 3.8519337998 -0.2003924149 -2.655481649
| 28> H 4.5009333559 -2.7863658173 -1.1426988269
| 29> H 2.9507646097 -2.3899385848 -1.9431241308
| 30> H 0.8782369312 -1.9516111872 1.2065393943
| 31> H 2.2608441647 -2.0933257554 2.3262997332
| 32> H 1.1044096482 -0.4721005943 3.8758026385
| 33> H -0.2904159099 -0.4559558515 2.7922328167
| 34> H 0.1589608567 -1.9512795957 3.6287911344
| 35> H -0.6391404358 1.151784585 -2.0215389357
| 36> H 0.924388307 1.8347199656 -1.4337975747
| 37> H -4.9023661769 1.6015290363 0.3545624915
| 38> H -4.8420359076 1.7211062925 2.139557319
| 39> H -4.3879352667 3.9407160087 1.1290726265
| 40> H -2.9065598149 3.3354284055 1.8933843804
| 41> H -3.0959196128 3.2504568151 0.1368814119
| 42> H -3.145287396 -2.4786049849 1.2176346222
| 43> H -3.1848345324 -2.1171435096 -0.5291052528
| 44> H -0.920444896 -3.5574808644 0.9490850421
| 45> H -2.0891035375 -4.3013354535 -0.152461947
| 46> H -0.9097483543 -3.1352878929 -0.7722482335
| 47> *
| 48>
| 49>                          ****END OF INPUT****

CARTESIAN COORDINATES (ANGSTROEM)
---------------------------------
  C      4.539950   -0.987073   -2.349136
  C      3.834209   -1.977956   -1.447731
  O      3.416977   -1.396131   -0.197715
  P      2.505297   -0.103967   -0.040124
  S      3.305727    1.660032   -0.308641
  O      2.031400   -0.241823    1.454946
  C      1.442083   -1.450237    1.998417
  C      0.543016   -1.055325    3.151539
  S      0.832241   -0.553557   -1.291554
  C      0.131294    1.108277   -1.251056
  S     -0.597896    1.526994    0.355698
  P     -2.335117    0.356145    0.113174
  S     -3.197070    0.388355   -1.652800
  O     -3.285869    0.760112    1.322628
  C     -4.263702    1.809418    1.219020
  C     -3.620191    3.174719    1.088989
  O     -1.799406   -1.053643    0.592347
  C     -2.532926   -2.275795    0.336768
  C     -1.542436   -3.391665    0.074245
  H      5.374735   -0.526148   -1.826516
  H      4.906794   -1.500250   -3.232172
  H      3.851934   -0.200392   -2.655482
  H      4.500933   -2.786366   -1.142699
  H      2.950765   -2.389939   -1.943124
  H      0.878237   -1.951611    1.206539
  H      2.260844   -2.093326    2.326300
  H      1.104410   -0.472101    3.875803
  H     -0.290416   -0.455956    2.792233
  H      0.158961   -1.951280    3.628791
  H     -0.639140    1.151785   -2.021539
  H      0.924388    1.834720   -1.433798
  H     -4.902366    1.601529    0.354562
  H     -4.842036    1.721106    2.139557
  H     -4.387935    3.940716    1.129073
  H     -2.906560    3.335428    1.893384
  H     -3.095920    3.250457    0.136881
  H     -3.145287   -2.478605    1.217635
  H     -3.184835   -2.117144   -0.529105
  H     -0.920445   -3.557481    0.949085
  H     -2.089104   -4.301335   -0.152462
  H     -0.909748   -3.135288   -0.772248

 Total Charge           Charge          ....    0
 Multiplicity           Mult            ....    1
 Number of Electrons    NEL             ....  202
 Basis Dimension        Dim             ....  539

ORBITAL ENERGIES
----------------

  NO   OCC          E(Eh)            E(eV)
   0   2.0000     -88.578026     -2410.3306
   1   2.0000     -88.575939     -2410.2738
   2   2.0000     -88.524052     -2408.8619
   3   2.0000     -88.516049     -2408.6442
   4   2.0000     -76.916990     -2093.0177
   5   2.0000     -76.912906     -2092.9066
   6   2.0000     -18.997048      -516.9360
   7   2.0000     -18.995408      -516.8913
   8   2.0000     -18.994362      -516.8629
   9   2.0000     -18.987443      -516.6746
  10   2.0000     -10.106246      -275.0049
  11   2.0000     -10.104154      -274.9480
  12   2.0000     -10.102157      -274.8937
  13   2.0000     -10.101009      -274.8624
  14   2.0000     -10.097540      -274.7680
  15   2.0000     -10.037186      -273.1257
  16   2.0000     -10.030296      -272.9382
  17   2.0000     -10.028255      -272.8827
  18   2.0000     -10.027207      -272.8542
  19   2.0000      -7.872238      -214.2145
  20   2.0000      -7.870380      -214.1639
  21   2.0000      -7.818842      -212.7615
  22   2.0000      -7.810868      -212.5445
  23   2.0000      -6.595709      -179.4784
  24   2.0000      -6.591248      -179.3570
  25   2.0000      -5.819156      -158.3473
  26   2.0000      -5.817097      -158.2913
  27   2.0000      -5.816149      -158.2655
  28   2.0000      -5.814142      -158.2109
  29   2.0000      -5.809268      -158.0782
  30   2.0000      -5.807732      -158.0364
  31   2.0000      -5.766344      -156.9102
  32   2.0000      -5.759136      -156.7141
  33   2.0000      -5.758960      -156.7093
  34   2.0000      -5.758680      -156.7016
  35   2.0000      -5.751118      -156.4959
  36   2.0000      -5.750742      -156.4857
  37   2.0000      -4.741245      -129.0158
  38   2.0000      -4.740551      -128.9969
  39   2.0000      -4.739432      -128.9665
  40   2.0000      -4.737064      -128.9021
  41   2.0000      -4.736471      -128.8859
  42   2.0000      -4.734449      -128.8309
  43   2.0000      -1.053975       -28.6801
  44   2.0000      -1.051226       -28.6053
  45   2.0000      -1.014758       -27.6130
  46   2.0000      -1.008961       -27.4552
  47   2.0000      -0.804314       -21.8865
  48   2.0000      -0.761915       -20.7328
  49   2.0000      -0.753055       -20.4917
  50   2.0000      -0.734970       -19.9996
  51   2.0000      -0.733953       -19.9719
  52   2.0000      -0.714001       -19.4289
  53   2.0000      -0.685579       -18.6555
  54   2.0000      -0.670087       -18.2340
  55   2.0000      -0.633297       -17.2329
  56   2.0000      -0.620898       -16.8955
  57   2.0000      -0.609963       -16.5979
  58   2.0000      -0.602539       -16.3959
  59   2.0000      -0.592573       -16.1247
  60   2.0000      -0.535377       -14.5683
  61   2.0000      -0.527152       -14.3445
  62   2.0000      -0.496700       -13.5159
  63   2.0000      -0.494111       -13.4454
  64   2.0000      -0.480294       -13.0695
  65   2.0000      -0.464778       -12.6473
  66   2.0000      -0.461401       -12.5554
  67   2.0000      -0.452323       -12.3083
  68   2.0000      -0.449804       -12.2398
  69   2.0000      -0.437700       -11.9104
  70   2.0000      -0.433647       -11.8001
  71   2.0000      -0.416299       -11.3281
  72   2.0000      -0.410621       -11.1736
  73   2.0000      -0.404991       -11.0204
  74   2.0000      -0.400402       -10.8955
  75   2.0000      -0.391812       -10.6617
  76   2.0000      -0.377592       -10.2748
  77   2.0000      -0.374939       -10.2026
  78   2.0000      -0.369821       -10.0633
  79   2.0000      -0.364885        -9.9290
  80   2.0000      -0.362377        -9.8608
  81   2.0000      -0.359783        -9.7902
  82   2.0000      -0.358944        -9.7674
  83   2.0000      -0.355308        -9.6684
  84   2.0000      -0.352449        -9.5906
  85   2.0000      -0.334227        -9.0948
  86   2.0000      -0.328770        -8.9463
  87   2.0000      -0.313820        -8.5395
  88   2.0000      -0.312626        -8.5070
  89   2.0000      -0.310454        -8.4479
  90   2.0000      -0.306509        -8.3405
  91   2.0000      -0.295505        -8.0411
  92   2.0000      -0.289830        -7.8867
  93   2.0000      -0.282263        -7.6808
  94   2.0000      -0.272159        -7.4058
  95   2.0000      -0.249064        -6.7774
  96   2.0000      -0.234022        -6.3681
  97   2.0000      -0.226097        -6.1524
  98   2.0000      -0.218319        -5.9408
  99   2.0000      -0.213956        -5.8220
 100   2.0000      -0.210819        -5.7367
 101   0.0000      -0.047221        -1.2850
 102   0.0000      -0.026853        -0.7307
 103   0.0000      -0.007217        -0.1964
 104   0.0000      -0.002176        -0.0592
 105   0.0000       0.013495         0.3672

MULLIKEN ATOMIC CHARGES
-----------------------
   0 C :   -0.425833
   1 C :   -0.160884
   2 O :   -0.293607
   3 P :    0.652693
   4 S :   -0.432006
   5 O :   -0.262590
   6 C :   -0.105242
   7 C :   -0.459012
   8 S :   -0.179680
   9 C :   -0.243652
  10 S :   -0.092259
  11 P :    0.680993
  12 S :   -0.493725
  13 O :   -0.314519
  14 C :   -0.147642
  15 C :   -0.456761
  16 O :   -0.262185
  17 C :   -0.117770
  18 C :   -0.480516
  19 H :    0.164803
  20 H :    0.146223
  21 H :    0.170036
  22 H :    0.149736
  23 H :    0.150138
  24 H :    0.156699
  25 H :    0.153805
  26 H :    0.155726
  27 H :    0.172849
  28 H :    0.140252
  29 H :    0.215498
  30 H :    0.220552
  31 H :    0.171991
  32 H :    0.148000
  33 H :    0.148856
  34 H :    0.157643
  35 H :    0.178611
  36 H :    0.151192
  37 H :    0.170452
  38 H :    0.150071
  39 H :    0.148758
  40 H :    0.172303
Sum of atomic charges:    0.0000000

LOEWDIN ATOMIC CHARGES
----------------------
   0 C :   -0.405301
   1 C :    0.023999
   2 O :   -0.661920
   3 P :    0.377624
   4 S :   -0.102540
   5 O :   -0.653857
   6 C :    0.022116
   7 C :   -0.390726
   8 S :    0.132974
   9 C :   -0.423414
  10 S :    0.190890
  11 P :    0.372231
  12 S :   -0.141915
  13 O :   -0.658730
  14 C :    0.020378
  15 C :   -0.405858
  16 O :   -0.680073
  17 C :    0.023349
  18 C :   -0.395237
  19 H :    0.165895
  20 H :    0.158338
  21 H :    0.167301
  22 H :    0.181255
  23 H :    0.171001
  24 H :    0.177924
  25 H :    0.173326
  26 H :    0.162421
  27 H :    0.168548
  28 H :    0.158221
  29 H :    0.192930
  30 H :    0.195285
  31 H :    0.179936
  32 H :    0.179622
  33 H :    0.160154
  34 H :    0.160751
  35 H :    0.166342
  36 H :    0.172409
  37 H :    0.183432
  38 H :    0.155385
  39 H :    0.160244
  40 H :    0.165290

  Mayer bond orders larger than 0.100000
B(  0-C ,  1-C ) :   0.9446 B(  0-C , 19-H ) :   0.9658 B(  0-C , 20-H ) :   0.9620
B(  0-C , 21-H ) :   0.9540 B(  1-C ,  2-O ) :   0.8046 B(  1-C , 22-H ) :   0.9586
B(  1-C , 23-H ) :   0.9615 B(  2-O ,  3-P ) :   1.0403 B(  3-P ,  4-S ) :   1.8628
B(  3-P ,  5-O ) :   1.1576 B(  3-P ,  8-S ) :   0.9821 B(  5-O ,  6-C ) :   0.7383
B(  6-C ,  7-C ) :   0.9471 B(  6-C , 24-H ) :   0.9480 B(  6-C , 25-H ) :   0.9483
B(  7-C , 26-H ) :   0.9712 B(  7-C , 27-H ) :   0.9628 B(  7-C , 28-H ) :   0.9677
B(  8-S ,  9-C ) :   0.9197 B(  9-C , 10-S ) :   0.9140 B(  9-C , 29-H ) :   0.9036
B(  9-C , 30-H ) :   0.9007 B( 10-S , 11-P ) :   1.1115 B( 11-P , 12-S ) :   1.7459
B( 11-P , 13-O ) :   1.0603 B( 11-P , 16-O ) :   1.1382 B( 13-O , 14-C ) :   0.8153
B( 14-C , 15-C ) :   0.9228 B( 14-C , 31-H ) :   0.9661 B( 14-C , 32-H ) :   0.9583
B( 15-C , 33-H ) :   0.9583 B( 15-C , 34-H ) :   0.9687 B( 15-C , 35-H ) :   0.9609
B( 16-O , 17-C ) :   0.7628 B( 17-C , 18-C ) :   0.9463 B( 17-C , 36-H ) :   0.9489
B( 17-C , 37-H ) :   0.9504 B( 18-C , 38-H ) :   0.9739 B( 18-C , 39-H ) :   0.9627
B( 18-C , 40-H ) :   0.9703

Dispersion correction           -0.021814770
FINAL SINGLE POINT ENERGY     -2932.462118057134

DIPOLE MOMENT
-------------

Method             : SCF
Type of density    : Electron Density
Multiplicity       :   1
Irrep              :   0
Energy             : -2932.4869112020637658 Eh
Relativity type    :
Basis              : AO
                                X                 Y                 Z
Electronic contribution:      3.597380667      11.053161634      -5.140797031
Nuclear contribution   :     -4.286244853     -12.614077524       5.638976685
                        -----------------------------------------
Total Dipole Moment    :     -0.688864186      -1.560915890       0.498179654
                        -----------------------------------------
Magnitude (a.u.)       :      1.777406889
Magnitude (Debye)      :      4.517809276

Rotational constants in cm-1:             0.012499             0.004972             0.004699
Rotational constants in MHz :           374.716378           149.054644           140.885702

                             ****ORCA TERMINATED NORMALLY****
TOTAL RUN TIME: 0 days 0 hours 1 minutes 21 seconds 852 msec
