                         Program Version 6.0.0  -   RELEASE  -
|  1> ! r2scan-3c def2/J RI DEFGRID2 scfconv6 printgap
|  2> %output
|  3>     printlevel normal
|  4> end
|  5> %cpcm
|  6>     smd true
|  7>     smdsolvent "water"
|  8> end
|  9> * xyz 0 1
| 10> C 4.5399500175 -0.9870725214 -2.3491355437
| 11> C 3.8342091695 -1.9779563535 -1.4477310363
| 12> O 3.416977082 -1.3961308669 -0.1977150074
| 13> P 2.5052966595 -0.1039668057 -0.0401243873
| 14> S 3.3057273377 1.6600320917 -0.3086412176
| 15> O 2.031399625 -0.2418234346 1.4549463709
| 16> C 1.4420827075 -1.4502374165 1.9984169333
| 17> C 0.5430160404 -1.0553252269 3.1515386575
| 18> S 0.8322405191 -0.5535565093 -1.2915539929
| 19> C 0.1312936756 1.1082766289 -1.2510556839
| 20> S -0.5978959493 1.5269937037 0.3556978944
| 21> P -2.3351168142 0.3561452355 0.1131736099
| 22> S -3.1970700305 0.3883546455 -1.6527995065
| 23> O -3.2858694162 0.7601118856 1.3226280371
| 24> C -4.263701671 1.8094177001 1.2190195851
| 25> C -3.6201905434 3.1747188064 1.0889894972
| 26> O -1.7994057724 -1.0536432083 0.5923470048
| 27> C -2.5329263118 -2.2757947614 0.3367680702
| 28> C -1.542435974 -3.3916645774 0.0742449489
| 29> H 5.3747345418 -0.5261481256 -1.8265157339
| 30> H 4.9067938906 -1.5002504228 -3.2321717208
| 31> H 3.8519337998 -0.2003924149 -2.655481649
| 32> H 4.5009333559 -2.7863658173 -1.1426988269
| 33> H 2.9507646097 -2.3899385848 -1.9431241308
| 34> H 0.8782369312 -1.9516111872 1.2065393943
| 35> H 2.2608441647 -2.0933257554 2.3262997332
| 36> H 1.1044096482 -0.4721005943 3.8758026385
| 37> H -0.2904159099 -0.4559558515 2.7922328167
| 38> H 0.1589608567 -1.9512795957 3.6287911344
| 39> H -0.6391404358 1.151784585 -2.0215389357
| 40> H 0.924388307 1.8347199656 -1.4337975747
| 41> H -4.9023661769 1.6015290363 0.3545624915
| 42> H -4.8420359076 1.7211062925 2.139557319
| 43> H -4.3879352667 3.9407160087 1.1290726265
| 44> H -2.9065598149 3.3354284055 1.8933843804
| 45> H -3.0959196128 3.2504568151 0.1368814119
| 46> H -3.145287396 -2.4786049849 1.2176346222
| 47> H -3.1848345324 -2.1171435096 -0.5291052528
| 48> H -0.920444896 -3.5574808644 0.9490850421
| 49> H -2.0891035375 -4.3013354535 -0.152461947
| 50> H -0.9097483543 -3.1352878929 -0.7722482335
| 51> *
| 52>
| 53>                          ****END OF INPUT****

CARTESIAN COORDINATES (ANGSTROEM)
---------------------------------
  C      4.539950   -0.987073   -2.349136
  C      3.834209   -1.977956   -1.447731
  O      3.416977   -1.396131   -0.197715
  P      2.505297   -0.103967   -0.040124
  S      3.305727    1.660032   -0.308641
  O      2.031400   -0.241823    1.454946
  C      1.442083   -1.450237    1.998417
  C      0.543016   -1.055325    3.151539
  S      0.832241   -0.553557   -1.291554
  C      0.131294    1.108277   -1.251056
  S     -0.597896    1.526994    0.355698
  P     -2.335117    0.356145    0.113174
  S     -3.197070    0.388355   -1.652800
  O     -3.285869    0.760112    1.322628
  C     -4.263702    1.809418    1.219020
  C     -3.620191    3.174719    1.088989
  O     -1.799406   -1.053643    0.592347
  C     -2.532926   -2.275795    0.336768
  C     -1.542436   -3.391665    0.074245
  H      5.374735   -0.526148   -1.826516
  H      4.906794   -1.500250   -3.232172
  H      3.851934   -0.200392   -2.655482
  H      4.500933   -2.786366   -1.142699
  H      2.950765   -2.389939   -1.943124
  H      0.878237   -1.951611    1.206539
  H      2.260844   -2.093326    2.326300
  H      1.104410   -0.472101    3.875803
  H     -0.290416   -0.455956    2.792233
  H      0.158961   -1.951280    3.628791
  H     -0.639140    1.151785   -2.021539
  H      0.924388    1.834720   -1.433798
  H     -4.902366    1.601529    0.354562
  H     -4.842036    1.721106    2.139557
  H     -4.387935    3.940716    1.129073
  H     -2.906560    3.335428    1.893384
  H     -3.095920    3.250457    0.136881
  H     -3.145287   -2.478605    1.217635
  H     -3.184835   -2.117144   -0.529105
  H     -0.920445   -3.557481    0.949085
  H     -2.089104   -4.301335   -0.152462
  H     -0.909748   -3.135288   -0.772248

 Total Charge           Charge          ....    0
 Multiplicity           Mult            ....    1
 Number of Electrons    NEL             ....  202
 Basis Dimension        Dim             ....  539

ORBITAL ENERGIES
----------------

  NO   OCC          E(Eh)            E(eV)
   0   2.0000     -88.581297     -2410.4196
   1   2.0000     -88.578932     -2410.3553
   2   2.0000     -88.528925     -2408.9945
   3   2.0000     -88.528134     -2408.9730
   4   2.0000     -76.920366     -2093.1096
   5   2.0000     -76.919634     -2093.0897
   6   2.0000     -18.997136      -516.9383
   7   2.0000     -18.996969      -516.9338
   8   2.0000     -18.993604      -516.8422
   9   2.0000     -18.992552      -516.8136
  10   2.0000     -10.104585      -274.9597
  11   2.0000     -10.093816      -274.6667
  12   2.0000     -10.090343      -274.5722
  13   2.0000     -10.089883      -274.5597
  14   2.0000     -10.088700      -274.5275
  15   2.0000     -10.019052      -272.6323
  16   2.0000     -10.018941      -272.6292
  17   2.0000     -10.018774      -272.6247
  18   2.0000     -10.018480      -272.6167
  19   2.0000      -7.875619      -214.3065
  20   2.0000      -7.873286      -214.2430
  21   2.0000      -7.823999      -212.9018
  22   2.0000      -7.823348      -212.8841
  23   2.0000      -6.598757      -179.5613
  24   2.0000      -6.598344      -179.5501
  25   2.0000      -5.822505      -158.4384
  26   2.0000      -5.820045      -158.3715
  27   2.0000      -5.819519      -158.3572
  28   2.0000      -5.817073      -158.2906
  29   2.0000      -5.812688      -158.1713
  30   2.0000      -5.810579      -158.1139
  31   2.0000      -5.771448      -157.0491
  32   2.0000      -5.771019      -157.0374
  33   2.0000      -5.764292      -156.8544
  34   2.0000      -5.764120      -156.8497
  35   2.0000      -5.763601      -156.8356
  36   2.0000      -5.763282      -156.8269
  37   2.0000      -4.744512      -129.1047
  38   2.0000      -4.743927      -129.0888
  39   2.0000      -4.743805      -129.0855
  40   2.0000      -4.743188      -129.0687
  41   2.0000      -4.742178      -129.0412
  42   2.0000      -4.742108      -129.0393
  43   2.0000      -1.054612       -28.6975
  44   2.0000      -1.052727       -28.6462
  45   2.0000      -1.012696       -27.5569
  46   2.0000      -1.012005       -27.5380
  47   2.0000      -0.806365       -21.9423
  48   2.0000      -0.757914       -20.6239
  49   2.0000      -0.746547       -20.3146
  50   2.0000      -0.726125       -19.7589
  51   2.0000      -0.723342       -19.6831
  52   2.0000      -0.712033       -19.3754
  53   2.0000      -0.689123       -18.7520
  54   2.0000      -0.675524       -18.3819
  55   2.0000      -0.629352       -17.1255
  56   2.0000      -0.617500       -16.8030
  57   2.0000      -0.600526       -16.3411
  58   2.0000      -0.598946       -16.2982
  59   2.0000      -0.589153       -16.0317
  60   2.0000      -0.530376       -14.4323
  61   2.0000      -0.522012       -14.2047
  62   2.0000      -0.490666       -13.3517
  63   2.0000      -0.490413       -13.3448
  64   2.0000      -0.480148       -13.0655
  65   2.0000      -0.458433       -12.4746
  66   2.0000      -0.456112       -12.4114
  67   2.0000      -0.446922       -12.1614
  68   2.0000      -0.442054       -12.0289
  69   2.0000      -0.433871       -11.8062
  70   2.0000      -0.430295       -11.7089
  71   2.0000      -0.413078       -11.2404
  72   2.0000      -0.405221       -11.0266
  73   2.0000      -0.401101       -10.9145
  74   2.0000      -0.397155       -10.8071
  75   2.0000      -0.390442       -10.6245
  76   2.0000      -0.374336       -10.1862
  77   2.0000      -0.365216        -9.9380
  78   2.0000      -0.360976        -9.8227
  79   2.0000      -0.359089        -9.7713
  80   2.0000      -0.355757        -9.6806
  81   2.0000      -0.353651        -9.6233
  82   2.0000      -0.349495        -9.5102
  83   2.0000      -0.348626        -9.4866
  84   2.0000      -0.346278        -9.4227
  85   2.0000      -0.330188        -8.9849
  86   2.0000      -0.323464        -8.8019
  87   2.0000      -0.311713        -8.4821
  88   2.0000      -0.308646        -8.3987
  89   2.0000      -0.306138        -8.3304
  90   2.0000      -0.303649        -8.2627
  91   2.0000      -0.290163        -7.8957
  92   2.0000      -0.287842        -7.8326
  93   2.0000      -0.280361        -7.6290
  94   2.0000      -0.273730        -7.4486
  95   2.0000      -0.252156        -6.8615
  96   2.0000      -0.239284        -6.5112
  97   2.0000      -0.232876        -6.3369
  98   2.0000      -0.225902        -6.1471
  99   2.0000      -0.223817        -6.0904
 100   2.0000      -0.221174        -6.0185
 101   0.0000      -0.051961        -1.4139
 102   0.0000      -0.032696        -0.8897
 103   0.0000      -0.009673        -0.2632
 104   0.0000      -0.006709        -0.1826
 105   0.0000       0.014179         0.3858

MULLIKEN ATOMIC CHARGES
-----------------------
   0 C :   -0.464776
   1 C :   -0.160226
   2 O :   -0.315303
   3 P :    0.670103
   4 S :   -0.495588
   5 O :   -0.292857
   6 C :   -0.104299
   7 C :   -0.502975
   8 S :   -0.169848
   9 C :   -0.250360
  10 S :   -0.116538
  11 P :    0.719178
  12 S :   -0.538366
  13 O :   -0.338925
  14 C :   -0.146787
  15 C :   -0.493060
  16 O :   -0.283969
  17 C :   -0.116386
  18 C :   -0.507936
  19 H :    0.170460
  20 H :    0.173605
  21 H :    0.164532
  22 H :    0.177730
  23 H :    0.172036
  24 H :    0.174244
  25 H :    0.176380
  26 H :    0.167016
  27 H :    0.168443
  28 H :    0.172173
  29 H :    0.233966
  30 H :    0.234011
  31 H :    0.177700
  32 H :    0.175231
  33 H :    0.173390
  34 H :    0.170947
  35 H :    0.172893
  36 H :    0.174225
  37 H :    0.169370
  38 H :    0.170643
  39 H :    0.169462
  40 H :    0.170461
Sum of atomic charges:    0.0000000

LOEWDIN ATOMIC CHARGES
----------------------
   0 C :   -0.409033
   1 C :    0.031662
   2 O :   -0.669460
   3 P :    0.380098
   4 S :   -0.150571
   5 O :   -0.677333
   6 C :    0.028466
   7 C :   -0.395444
   8 S :    0.145135
   9 C :   -0.419768
  10 S :    0.176119
  11 P :    0.378580
  12 S :   -0.170224
  13 O :   -0.668349
  14 C :    0.025684
  15 C :   -0.409531
  16 O :   -0.687747
  17 C :    0.029000
  18 C :   -0.396823
  19 H :    0.164425
  20 H :    0.168755
  21 H :    0.162042
  22 H :    0.193315
  23 H :    0.179540
  24 H :    0.184546
  25 H :    0.183571
  26 H :    0.164576
  27 H :    0.164406
  28 H :    0.170455
  29 H :    0.198278
  30 H :    0.198768
  31 H :    0.181680
  32 H :    0.191114
  33 H :    0.168952
  34 H :    0.163815
  35 H :    0.161672
  36 H :    0.182047
  37 H :    0.183139
  38 H :    0.162753
  39 H :    0.167909
  40 H :    0.163781

  Mayer bond orders larger than 0.100000
B(  0-C ,  1-C ) :   0.9225 B(  0-C , 19-H ) :   0.9670 B(  0-C , 20-H ) :   0.9560
B(  0-C , 21-H ) :   0.9575 B(  1-C ,  2-O ) :   0.7931 B(  1-C , 22-H ) :   0.9488
B(  1-C , 23-H ) :   0.9571 B(  2-O ,  3-P ) :   1.0588 B(  3-P ,  4-S ) :   1.8277
B(  3-P ,  5-O ) :   1.1632 B(  3-P ,  8-S ) :   0.9986 B(  5-O ,  6-C ) :   0.7264
B(  6-C ,  7-C ) :   0.9333 B(  6-C , 24-H ) :   0.9426 B(  6-C , 25-H ) :   0.9378
B(  7-C , 26-H ) :   0.9696 B(  7-C , 27-H ) :   0.9646 B(  7-C , 28-H ) :   0.9608
B(  8-S ,  9-C ) :   0.9076 B(  9-C , 10-S ) :   0.8998 B(  9-C , 29-H ) :   0.9003
B(  9-C , 30-H ) :   0.8975 B( 10-S , 11-P ) :   1.1129 B( 11-P , 12-S ) :   1.7097
B( 11-P , 13-O ) :   1.0688 B( 11-P , 16-O ) :   1.1530 B( 13-O , 14-C ) :   0.8039
B( 14-C , 15-C ) :   0.9096 B( 14-C , 31-H ) :   0.9648 B( 14-C , 32-H ) :   0.9487
B( 15-C , 33-H ) :   0.9531 B( 15-C , 34-H ) :   0.9660 B( 15-C , 35-H ) :   0.9625
B( 16-O , 17-C ) :   0.7527 B( 17-C , 18-C ) :   0.9449 B( 17-C , 36-H ) :   0.9393
B( 17-C , 37-H ) :   0.9497 B( 18-C , 38-H ) :   0.9678 B( 18-C , 39-H ) :   0.9581
B( 18-C , 40-H ) :   0.9688

Dispersion correction           -0.021814770
FINAL SINGLE POINT ENERGY     -2932.471806467444

DIPOLE MOMENT
-------------

Method             : SCF
Type of density    : Electron Density
Multiplicity       :   1
Irrep              :   0
Energy             : -2932.4965996123733021 Eh
Relativity type    :
Basis              : AO
                                X                 Y                 Z
Electronic contribution:      3.260157033      10.268836423      -5.107619601
Nuclear contribution   :     -4.286244853     -12.614077524       5.638976685
                        -----------------------------------------
Total Dipole Moment    :     -1.026087820      -2.345241102       0.531357084
                        -----------------------------------------
Magnitude (a.u.)       :      2.614450686
Magnitude (Debye)      :      6.645405524

Rotational constants in cm-1:             0.012499             0.004972             0.004699
Rotational constants in MHz :           374.716378           149.054644           140.885702

                             ****ORCA TERMINATED NORMALLY****
TOTAL RUN TIME: 0 days 0 hours 1 minutes 53 seconds 529 msec
