                         Program Version 6.0.1  -  RELEASE   -
|  1> ! pbe def2-sv(p) def2/J RI DEFGRID1 loosescf d4 GCP(DFT/SV(P)) printgap
|  2> %output
|  3>     printlevel normal
|  4> end
|  5> * xyz 0 1
|  6> C 4.2606829417 -3.8134383129 -1.3708712909
|  7> C 4.025269756 -2.5407858258 -0.5794085228
|  8> O 3.2492351879 -1.6374826502 -1.3930833378
|  9> C 2.3834723947 -0.8399160138 -0.8193487767
| 10> O 2.1782841128 -0.7811661935 0.3782560314
| 11> C 1.6589608021 0.0353767788 -1.8201652606
| 12> C 0.3658843861 0.5365460585 -1.19315232
| 13> H -0.0961024593 1.31513111 -1.8062158384
| 14> C 0.6053094094 1.1029675942 0.1929838422
| 15> O -0.1144903332 0.8293489871 1.1378502049
| 16> O 1.5575982522 1.9926868284 0.2032713518
| 17> C 1.8767107352 2.6534244853 1.4475446349
| 18> C 3.0073576316 1.9284482071 2.1579292928
| 19> S -0.8331128426 -0.8355828659 -1.0251549447
| 20> P -2.2765078543 0.0624616686 0.2404201377
| 21> S -2.6037883066 1.9980603365 0.0794486412
| 22> O -3.5548962845 -0.7699249058 -0.2691370983
| 23> C -4.0993062413 -0.5687250021 -1.5750575734
| 24> O -2.313147973 -0.6293861732 1.6686425069
| 25> C -2.0106082392 -0.0083114061 2.9176221423
| 26> H 4.876497237 -4.489521151 -0.7870950698
| 27> H 3.3148101108 -4.2974779349 -1.5964963461
| 28> H 4.7667471961 -3.5803156041 -2.3025838636
| 29> H 4.9683537816 -2.040015858 -0.3439694036
| 30> H 3.4793589065 -2.7302256706 0.3494924926
| 31> H 1.4626219478 -0.5287817077 -2.7304766618
| 32> H 2.3013214473 0.8858549085 -2.058332661
| 33> H 2.1676268134 3.6620244977 1.1523770603
| 34> H 0.975395796 2.6838634394 2.0653819402
| 35> H 3.9111657717 1.9601050954 1.5564680697
| 36> H 3.1943160876 2.4034582299 3.1150910318
| 37> H 2.7336151063 0.8879822381 2.320540556
| 38> H -5.0574366334 -1.0820268801 -1.5736652823
| 39> H -3.4369308982 -0.9942626922 -2.3295350629
| 40> H -4.2398982213 0.4982250827 -1.7611943413
| 41> H -0.9833197381 -0.2377872081 3.195414687
| 42> H -2.7122610508 -0.4292339398 3.6348731454
| 43> H -2.1391077797 1.0729281538 2.8476550197
| 44> *
| 45>
| 46>                          ****END OF INPUT****

CARTESIAN COORDINATES (ANGSTROEM)
---------------------------------
  C      4.260683   -3.813438   -1.370871
  C      4.025270   -2.540786   -0.579409
  O      3.249235   -1.637483   -1.393083
  C      2.383472   -0.839916   -0.819349
  O      2.178284   -0.781166    0.378256
  C      1.658961    0.035377   -1.820165
  C      0.365884    0.536546   -1.193152
  H     -0.096102    1.315131   -1.806216
  C      0.605309    1.102968    0.192984
  O     -0.114490    0.829349    1.137850
  O      1.557598    1.992687    0.203271
  C      1.876711    2.653424    1.447545
  C      3.007358    1.928448    2.157929
  S     -0.833113   -0.835583   -1.025155
  P     -2.276508    0.062462    0.240420
  S     -2.603788    1.998060    0.079449
  O     -3.554896   -0.769925   -0.269137
  C     -4.099306   -0.568725   -1.575058
  O     -2.313148   -0.629386    1.668643
  C     -2.010608   -0.008311    2.917622
  H      4.876497   -4.489521   -0.787095
  H      3.314810   -4.297478   -1.596496
  H      4.766747   -3.580316   -2.302584
  H      4.968354   -2.040016   -0.343969
  H      3.479359   -2.730226    0.349492
  H      1.462622   -0.528782   -2.730477
  H      2.301321    0.885855   -2.058333
  H      2.167627    3.662024    1.152377
  H      0.975396    2.683863    2.065382
  H      3.911166    1.960105    1.556468
  H      3.194316    2.403458    3.115091
  H      2.733615    0.887982    2.320541
  H     -5.057437   -1.082027   -1.573665
  H     -3.436931   -0.994263   -2.329535
  H     -4.239898    0.498225   -1.761194
  H     -0.983320   -0.237787    3.195415
  H     -2.712261   -0.429234    3.634873
  H     -2.139108    1.072928    2.847655

 Total Charge           Charge          ....    0
 Multiplicity           Mult            ....    1
 Number of Electrons    NEL             ....  174
 Basis Dimension        Dim             ....  316

ORBITAL ENERGIES
----------------

  NO   OCC          E(Eh)            E(eV)
   0   2.0000     -88.028719     -2395.3832
   1   2.0000     -87.961488     -2393.5538
   2   2.0000     -76.411595     -2079.2652
   3   2.0000     -18.820624      -512.1352
   4   2.0000     -18.813624      -511.9447
   5   2.0000     -18.770043      -510.7588
   6   2.0000     -18.762511      -510.5539
   7   2.0000     -18.756105      -510.3796
   8   2.0000     -18.747112      -510.1348
   9   2.0000     -10.027403      -272.8595
  10   2.0000     -10.022899      -272.7369
  11   2.0000      -9.960649      -271.0431
  12   2.0000      -9.951854      -270.8037
  13   2.0000      -9.947176      -270.6764
  14   2.0000      -9.925762      -270.0937
  15   2.0000      -9.924619      -270.0626
  16   2.0000      -9.922731      -270.0112
  17   2.0000      -9.898897      -269.3627
  18   2.0000      -9.887385      -269.0494
  19   2.0000      -7.673708      -208.8122
  20   2.0000      -7.606739      -206.9899
  21   2.0000      -6.406626      -174.3332
  22   2.0000      -5.701692      -155.1509
  23   2.0000      -5.698293      -155.0584
  24   2.0000      -5.690520      -154.8469
  25   2.0000      -5.635895      -153.3605
  26   2.0000      -5.627684      -153.1371
  27   2.0000      -5.626321      -153.1000
  28   2.0000      -4.629108      -125.9644
  29   2.0000      -4.628761      -125.9550
  30   2.0000      -4.627297      -125.9152
  31   2.0000      -1.029700       -28.0196
  32   2.0000      -1.022248       -27.8168
  33   2.0000      -0.962638       -26.1947
  34   2.0000      -0.933926       -25.4134
  35   2.0000      -0.927160       -25.2293
  36   2.0000      -0.915625       -24.9154
  37   2.0000      -0.767465       -20.8838
  38   2.0000      -0.724704       -19.7202
  39   2.0000      -0.707757       -19.2591
  40   2.0000      -0.686661       -18.6850
  41   2.0000      -0.654852       -17.8194
  42   2.0000      -0.623982       -16.9794
  43   2.0000      -0.610585       -16.6149
  44   2.0000      -0.601833       -16.3767
  45   2.0000      -0.598930       -16.2977
  46   2.0000      -0.564415       -15.3585
  47   2.0000      -0.522569       -14.2198
  48   2.0000      -0.504728       -13.7343
  49   2.0000      -0.496511       -13.5107
  50   2.0000      -0.490020       -13.3341
  51   2.0000      -0.468407       -12.7460
  52   2.0000      -0.458078       -12.4649
  53   2.0000      -0.452880       -12.3235
  54   2.0000      -0.437185       -11.8964
  55   2.0000      -0.434021       -11.8103
  56   2.0000      -0.425449       -11.5770
  57   2.0000      -0.424164       -11.5421
  58   2.0000      -0.404986       -11.0202
  59   2.0000      -0.403324       -10.9750
  60   2.0000      -0.395675       -10.7669
  61   2.0000      -0.391330       -10.6486
  62   2.0000      -0.387681       -10.5493
  63   2.0000      -0.378313       -10.2944
  64   2.0000      -0.372317       -10.1313
  65   2.0000      -0.371981       -10.1221
  66   2.0000      -0.366977        -9.9859
  67   2.0000      -0.360783        -9.8174
  68   2.0000      -0.351855        -9.5745
  69   2.0000      -0.341768        -9.3000
  70   2.0000      -0.337224        -9.1763
  71   2.0000      -0.334898        -9.1130
  72   2.0000      -0.328944        -8.9510
  73   2.0000      -0.311323        -8.4715
  74   2.0000      -0.302532        -8.2323
  75   2.0000      -0.297701        -8.1009
  76   2.0000      -0.284664        -7.7461
  77   2.0000      -0.279913        -7.6168
  78   2.0000      -0.272293        -7.4095
  79   2.0000      -0.265521        -7.2252
  80   2.0000      -0.252570        -6.8728
  81   2.0000      -0.241958        -6.5840
  82   2.0000      -0.237984        -6.4759
  83   2.0000      -0.232093        -6.3156
  84   2.0000      -0.211807        -5.7636
  85   2.0000      -0.184312        -5.0154
  86   2.0000      -0.174320        -4.7435
  87   0.0000      -0.042163        -1.1473
  88   0.0000      -0.030318        -0.8250
  89   0.0000      -0.024991        -0.6800
  90   0.0000       0.012682         0.3451
  91   0.0000       0.030232         0.8226

MULLIKEN ATOMIC CHARGES
-----------------------
   0 C :   -0.284548
   1 C :   -0.032443
   2 O :   -0.221623
   3 C :    0.121157
   4 O :   -0.192387
   5 C :   -0.102666
   6 C :   -0.277682
   7 H :    0.147345
   8 C :    0.243050
   9 O :   -0.205689
  10 O :   -0.230126
  11 C :   -0.017833
  12 C :   -0.304611
  13 S :   -0.103162
  14 P :    0.632725
  15 S :   -0.366550
  16 O :   -0.379697
  17 C :   -0.097213
  18 O :   -0.367836
  19 C :   -0.081729
  20 H :    0.116734
  21 H :    0.121876
  22 H :    0.117727
  23 H :    0.109037
  24 H :    0.124465
  25 H :    0.130168
  26 H :    0.140925
  27 H :    0.106331
  28 H :    0.119976
  29 H :    0.106452
  30 H :    0.112302
  31 H :    0.141940
  32 H :    0.117256
  33 H :    0.103348
  34 H :    0.108404
  35 H :    0.116632
  36 H :    0.115158
  37 H :    0.112789
Sum of atomic charges:    0.0000000

LOEWDIN ATOMIC CHARGES
----------------------
   0 C :   -0.350337
   1 C :   -0.107507
   2 O :   -0.050148
   3 C :    0.038344
   4 O :   -0.145185
   5 C :   -0.250835
   6 C :   -0.260197
   7 H :    0.146157
   8 C :    0.026125
   9 O :   -0.157654
  10 O :   -0.042548
  11 C :   -0.104396
  12 C :   -0.356823
  13 S :    0.093406
  14 P :    0.590458
  15 S :   -0.360806
  16 O :   -0.263379
  17 C :   -0.223472
  18 O :   -0.237721
  19 C :   -0.207602
  20 H :    0.132970
  21 H :    0.129940
  22 H :    0.127644
  23 H :    0.118920
  24 H :    0.124037
  25 H :    0.143540
  26 H :    0.155325
  27 H :    0.119240
  28 H :    0.124453
  29 H :    0.121938
  30 H :    0.130102
  31 H :    0.135540
  32 H :    0.118205
  33 H :    0.100395
  34 H :    0.104912
  35 H :    0.113024
  36 H :    0.115322
  37 H :    0.108612

  Mayer bond orders larger than 0.100000
B(  0-C ,  1-C ) :   1.1636 B(  0-C , 20-H ) :   0.9433 B(  0-C , 21-H ) :   0.9515
B(  0-C , 22-H ) :   0.9484 B(  1-C ,  2-O ) :   0.8958 B(  1-C , 23-H ) :   0.9352
B(  1-C , 24-H ) :   0.9157 B(  2-O ,  3-C ) :   1.2610 B(  3-C ,  4-O ) :   1.9779
B(  3-C ,  5-C ) :   0.9901 B(  4-O ,  8-C ) :   0.1101 B(  5-C ,  6-C ) :   1.0586
B(  5-C , 25-H ) :   0.9016 B(  5-C , 26-H ) :   0.8769 B(  6-C ,  7-H ) :   0.8595
B(  6-C ,  8-C ) :   0.8886 B(  6-C , 13-S ) :   1.0361 B(  8-C ,  9-O ) :   1.8987
B(  8-C , 10-O ) :   1.2622 B(  9-O , 14-P ) :   0.1408 B( 10-O , 11-C ) :   0.9047
B( 11-C , 12-C ) :   1.1753 B( 11-C , 27-H ) :   0.9373 B( 11-C , 28-H ) :   0.9131
B( 12-C , 29-H ) :   0.9500 B( 12-C , 30-H ) :   0.9429 B( 12-C , 31-H ) :   0.9379
B( 13-S , 14-P ) :   0.9267 B( 13-S , 15-S ) :   0.1120 B( 14-P , 15-S ) :   1.5606
B( 14-P , 16-O ) :   1.0701 B( 14-P , 18-O ) :   1.1343 B( 16-O , 17-C ) :   0.9509
B( 17-C , 32-H ) :   0.9597 B( 17-C , 33-H ) :   0.9435 B( 17-C , 34-H ) :   0.9316
B( 18-O , 19-C ) :   0.9311 B( 19-C , 35-H ) :   0.9534 B( 19-C , 36-H ) :   0.9537
B( 19-C , 37-H ) :   0.9377

Dispersion correction           -0.051579026
FINAL SINGLE POINT ENERGY     -1979.011012519101

DIPOLE MOMENT
-------------

Method             : SCF
Type of density    : Electron Density
Multiplicity       :   1
Irrep              :   0
Energy             : -1979.1429830631573168 Eh
Relativity type    :
Basis              : AO
                                X                 Y                 Z
Electronic contribution:    -18.100439565       4.403637975      -2.999956231
Nuclear contribution   :     20.430348880      -4.832666685       2.603594570
                        -----------------------------------------
Total Dipole Moment    :      2.329909315      -0.429028710      -0.396361660
                        -----------------------------------------
Magnitude (a.u.)       :      2.402008663
Magnitude (Debye)      :      6.105420816

Rotational constants in cm-1:             0.013830             0.006601             0.005420
Rotational constants in MHz :           414.608668           197.895446           162.488278

                             ****ORCA TERMINATED NORMALLY****
TOTAL RUN TIME: 0 days 0 hours 0 minutes 34 seconds 659 msec
