                         Program Version 6.0.0  -   RELEASE  -
|  1> ! pbe def2-sv(p) def2/J RI DEFGRID1 loosescf d4 GCP(DFT/SV(P)) printgap
|  2> %output
|  3>     printlevel normal
|  4> end
|  5> * xyz 0 1
|  6> C 2.3344843312 1.5173186993 -2.4635530455
|  7> C 2.4744657016 0.2613035655 -1.6315765647
|  8> O 2.3087131067 0.641040335 -0.2402840272
|  9> P 2.1406675757 -0.3937502027 0.9329276009
| 10> S 2.2788933041 0.4514994964 2.6894883911
| 11> O 3.2513316405 -1.4754267624 0.5877513268
| 12> C 3.5100277162 -2.583990879 1.476848888
| 13> C 4.8375294619 -3.1965150754 1.0804814071
| 14> S 0.3342914376 -1.4711268445 0.6020931682
| 15> C -0.7429764557 -0.3513573994 1.533382355
| 16> S -0.9139772287 1.2851393653 0.7760839837
| 17> P -1.9519480266 0.7348750149 -0.9999651836
| 18> S -1.0257473003 -0.1310869826 -2.4852826104
| 19> O -2.5056883469 2.1303571064 -1.4990218136
| 20> C -3.038654507 3.2047261029 -0.690858424
| 21> C -4.2594959431 2.7874596298 0.100829284
| 22> O -3.1913153349 -0.092624587 -0.4253127886
| 23> C -3.6365038594 -1.3569701398 -0.9545490542
| 24> C -3.1878460543 -2.5112953863 -0.0807801024
| 25> H 1.3314821998 1.9248056602 -2.3589930055
| 26> H 3.0544015525 2.2635253756 -2.1400475865
| 27> H 2.5043778686 1.2703527141 -3.5063897709
| 28> H 3.4615464309 -0.1901678277 -1.7405268705
| 29> H 1.7060806309 -0.4724500771 -1.8934939166
| 30> H 3.5305109092 -2.206351086 2.5043227058
| 31> H 2.6911079082 -3.3008238178 1.3733467424
| 32> H 5.0484347902 -4.0381641562 1.7318477925
| 33> H 4.7961995783 -3.5393902295 0.0506904452
| 34> H 5.6314835743 -2.461102259 1.1760687203
| 35> H -0.3049720413 -0.1741076567 2.5167253926
| 36> H -1.7166461015 -0.8274042562 1.6097948505
| 37> H -2.2460046354 3.5638581567 -0.0296083875
| 38> H -3.2793660358 3.9735125274 -1.4271930084
| 39> H -3.9913279564 2.0343562654 0.8383602543
| 40> H -4.6630104979 3.6560626667 0.6120757707
| 41> H -5.0164094204 2.3786253499 -0.5634878331
| 42> H -4.7246149772 -1.2787196761 -0.9793756881
| 43> H -3.2514212209 -1.4717653425 -1.9725396812
| 44> H -3.5391398952 -2.3768579054 0.9388930007
| 45> H -3.6032539232 -3.4319711153 -0.4777446196
| 46> H -2.1012661511 -2.5902245614 -0.0831732598
| 47> *
| 48>
| 49>                          ****END OF INPUT****

CARTESIAN COORDINATES (ANGSTROEM)
---------------------------------
  C      2.334484    1.517319   -2.463553
  C      2.474466    0.261304   -1.631577
  O      2.308713    0.641040   -0.240284
  P      2.140668   -0.393750    0.932928
  S      2.278893    0.451499    2.689488
  O      3.251332   -1.475427    0.587751
  C      3.510028   -2.583991    1.476849
  C      4.837529   -3.196515    1.080481
  S      0.334291   -1.471127    0.602093
  C     -0.742976   -0.351357    1.533382
  S     -0.913977    1.285139    0.776084
  P     -1.951948    0.734875   -0.999965
  S     -1.025747   -0.131087   -2.485283
  O     -2.505688    2.130357   -1.499022
  C     -3.038655    3.204726   -0.690858
  C     -4.259496    2.787460    0.100829
  O     -3.191315   -0.092625   -0.425313
  C     -3.636504   -1.356970   -0.954549
  C     -3.187846   -2.511295   -0.080780
  H      1.331482    1.924806   -2.358993
  H      3.054402    2.263525   -2.140048
  H      2.504378    1.270353   -3.506390
  H      3.461546   -0.190168   -1.740527
  H      1.706081   -0.472450   -1.893494
  H      3.530511   -2.206351    2.504323
  H      2.691108   -3.300824    1.373347
  H      5.048435   -4.038164    1.731848
  H      4.796200   -3.539390    0.050690
  H      5.631484   -2.461102    1.176069
  H     -0.304972   -0.174108    2.516725
  H     -1.716646   -0.827404    1.609795
  H     -2.246005    3.563858   -0.029608
  H     -3.279366    3.973513   -1.427193
  H     -3.991328    2.034356    0.838360
  H     -4.663010    3.656063    0.612076
  H     -5.016409    2.378625   -0.563488
  H     -4.724615   -1.278720   -0.979376
  H     -3.251421   -1.471765   -1.972540
  H     -3.539140   -2.376858    0.938893
  H     -3.603254   -3.431971   -0.477745
  H     -2.101266   -2.590225   -0.083173

 Total Charge           Charge          ....    0
 Multiplicity           Mult            ....    1
 Number of Electrons    NEL             ....  202
 Basis Dimension        Dim             ....  334

ORBITAL ENERGIES
----------------

  NO   OCC          E(Eh)            E(eV)
   0   2.0000     -88.044412     -2395.8103
   1   2.0000     -88.040825     -2395.7126
   2   2.0000     -87.983756     -2394.1597
   3   2.0000     -87.982259     -2394.1190
   4   2.0000     -76.428456     -2079.7240
   5   2.0000     -76.422410     -2079.5595
   6   2.0000     -18.797332      -511.5014
   7   2.0000     -18.793496      -511.3970
   8   2.0000     -18.792734      -511.3763
   9   2.0000     -18.784529      -511.1530
  10   2.0000      -9.959190      -271.0033
  11   2.0000      -9.957989      -270.9707
  12   2.0000      -9.955540      -270.9040
  13   2.0000      -9.953709      -270.8542
  14   2.0000      -9.941385      -270.5188
  15   2.0000      -9.892035      -269.1760
  16   2.0000      -9.889045      -269.0946
  17   2.0000      -9.889021      -269.0940
  18   2.0000      -9.872416      -268.6421
  19   2.0000      -7.689252      -209.2352
  20   2.0000      -7.685610      -209.1361
  21   2.0000      -7.629025      -207.5963
  22   2.0000      -7.627603      -207.5576
  23   2.0000      -6.425731      -174.8530
  24   2.0000      -6.420091      -174.6996
  25   2.0000      -5.717172      -155.5722
  26   2.0000      -5.713758      -155.4793
  27   2.0000      -5.713340      -155.4679
  28   2.0000      -5.710167      -155.3815
  29   2.0000      -5.706219      -155.2741
  30   2.0000      -5.702732      -155.1792
  31   2.0000      -5.658015      -153.9624
  32   2.0000      -5.656567      -153.9230
  33   2.0000      -5.649496      -153.7306
  34   2.0000      -5.649143      -153.7210
  35   2.0000      -5.648146      -153.6939
  36   2.0000      -5.647749      -153.6831
  37   2.0000      -4.648721      -126.4981
  38   2.0000      -4.647457      -126.4637
  39   2.0000      -4.645922      -126.4220
  40   2.0000      -4.642951      -126.3411
  41   2.0000      -4.641843      -126.3110
  42   2.0000      -4.640286      -126.2686
  43   2.0000      -0.986056       -26.8319
  44   2.0000      -0.985263       -26.8104
  45   2.0000      -0.948571       -25.8119
  46   2.0000      -0.940385       -25.5892
  47   2.0000      -0.764582       -20.8053
  48   2.0000      -0.723033       -19.6747
  49   2.0000      -0.711519       -19.3614
  50   2.0000      -0.696448       -18.9513
  51   2.0000      -0.686859       -18.6904
  52   2.0000      -0.672087       -18.2884
  53   2.0000      -0.649716       -17.6797
  54   2.0000      -0.636014       -17.3068
  55   2.0000      -0.596453       -16.2303
  56   2.0000      -0.583371       -15.8743
  57   2.0000      -0.579818       -15.7776
  58   2.0000      -0.568529       -15.4704
  59   2.0000      -0.559682       -15.2297
  60   2.0000      -0.509889       -13.8748
  61   2.0000      -0.499367       -13.5885
  62   2.0000      -0.481611       -13.1053
  63   2.0000      -0.477060       -12.9815
  64   2.0000      -0.460892       -12.5415
  65   2.0000      -0.448190       -12.1959
  66   2.0000      -0.440773       -11.9940
  67   2.0000      -0.436973       -11.8906
  68   2.0000      -0.429482       -11.6868
  69   2.0000      -0.412467       -11.2238
  70   2.0000      -0.403853       -10.9894
  71   2.0000      -0.399864       -10.8809
  72   2.0000      -0.392152       -10.6710
  73   2.0000      -0.387732       -10.5507
  74   2.0000      -0.378968       -10.3122
  75   2.0000      -0.371967       -10.1217
  76   2.0000      -0.366435        -9.9712
  77   2.0000      -0.361338        -9.8325
  78   2.0000      -0.354586        -9.6488
  79   2.0000      -0.352478        -9.5914
  80   2.0000      -0.346552        -9.4301
  81   2.0000      -0.345334        -9.3970
  82   2.0000      -0.340623        -9.2688
  83   2.0000      -0.335661        -9.1338
  84   2.0000      -0.330653        -8.9975
  85   2.0000      -0.319780        -8.7017
  86   2.0000      -0.309375        -8.4185
  87   2.0000      -0.304789        -8.2937
  88   2.0000      -0.301251        -8.1975
  89   2.0000      -0.292751        -7.9662
  90   2.0000      -0.288247        -7.8436
  91   2.0000      -0.275545        -7.4980
  92   2.0000      -0.267432        -7.2772
  93   2.0000      -0.265604        -7.2274
  94   2.0000      -0.256869        -6.9898
  95   2.0000      -0.242089        -6.5876
  96   2.0000      -0.217733        -5.9248
  97   2.0000      -0.204723        -5.5708
  98   2.0000      -0.203611        -5.5405
  99   2.0000      -0.199644        -5.4326
 100   2.0000      -0.190462        -5.1827
 101   0.0000      -0.047599        -1.2952
 102   0.0000      -0.025919        -0.7053
 103   0.0000      -0.008930        -0.2430
 104   0.0000       0.003067         0.0835
 105   0.0000       0.014178         0.3858

MULLIKEN ATOMIC CHARGES
-----------------------
   0 C :   -0.272923
   1 C :   -0.023675
   2 O :   -0.353404
   3 P :    0.627317
   4 S :   -0.321936
   5 O :   -0.388490
   6 C :   -0.011660
   7 C :   -0.280635
   8 S :   -0.110089
   9 C :   -0.375223
  10 S :   -0.085986
  11 P :    0.618284
  12 S :   -0.306601
  13 O :   -0.365456
  14 C :   -0.019194
  15 C :   -0.304398
  16 O :   -0.389285
  17 C :   -0.009579
  18 C :   -0.321451
  19 H :    0.120628
  20 H :    0.112144
  21 H :    0.105068
  22 H :    0.101276
  23 H :    0.121980
  24 H :    0.106331
  25 H :    0.103035
  26 H :    0.112590
  27 H :    0.116162
  28 H :    0.122234
  29 H :    0.197113
  30 H :    0.189641
  31 H :    0.123439
  32 H :    0.113086
  33 H :    0.123901
  34 H :    0.113989
  35 H :    0.116301
  36 H :    0.103808
  37 H :    0.117748
  38 H :    0.122293
  39 H :    0.116423
  40 H :    0.135191
Sum of atomic charges:    0.0000000

LOEWDIN ATOMIC CHARGES
----------------------
   0 C :   -0.351639
   1 C :   -0.117106
   2 O :   -0.230651
   3 P :    0.569498
   4 S :   -0.315896
   5 O :   -0.249739
   6 C :   -0.119812
   7 C :   -0.350400
   8 S :    0.068609
   9 C :   -0.482099
  10 S :    0.090386
  11 P :    0.566070
  12 S :   -0.296236
  13 O :   -0.241681
  14 C :   -0.115085
  15 C :   -0.366097
  16 O :   -0.253496
  17 C :   -0.120687
  18 C :   -0.363813
  19 H :    0.124330
  20 H :    0.124879
  21 H :    0.129301
  22 H :    0.110167
  23 H :    0.105378
  24 H :    0.110118
  25 H :    0.108328
  26 H :    0.131287
  27 H :    0.126602
  28 H :    0.129800
  29 H :    0.130799
  30 H :    0.129636
  31 H :    0.111321
  32 H :    0.123578
  33 H :    0.121627
  34 H :    0.131542
  35 H :    0.126729
  36 H :    0.117418
  37 H :    0.109758
  38 H :    0.123576
  39 H :    0.134492
  40 H :    0.119210

  Mayer bond orders larger than 0.100000
B(  0-C ,  1-C ) :   1.1706 B(  0-C , 19-H ) :   0.9400 B(  0-C , 20-H ) :   0.9490
B(  0-C , 21-H ) :   0.9406 B(  1-C ,  2-O ) :   0.8800 B(  1-C , 22-H ) :   0.9295
B(  1-C , 23-H ) :   0.9054 B(  2-O ,  3-P ) :   1.1591 B(  3-P ,  4-S ) :   1.6418
B(  3-P ,  5-O ) :   1.0841 B(  3-P ,  8-S ) :   0.9409 B(  4-S ,  8-S ) :   0.1067
B(  5-O ,  6-C ) :   0.9042 B(  6-C ,  7-C ) :   1.1601 B(  6-C , 24-H ) :   0.9113
B(  6-C , 25-H ) :   0.9277 B(  7-C , 26-H ) :   0.9418 B(  7-C , 27-H ) :   0.9509
B(  7-C , 28-H ) :   0.9507 B(  8-S ,  9-C ) :   1.0166 B(  9-C , 10-S ) :   1.0021
B(  9-C , 29-H ) :   0.8719 B(  9-C , 30-H ) :   0.8888 B( 10-S , 11-P ) :   0.9591
B( 10-S , 12-S ) :   0.1031 B( 11-P , 12-S ) :   1.6356 B( 11-P , 13-O ) :   1.1387
B( 11-P , 16-O ) :   1.0618 B( 13-O , 14-C ) :   0.9043 B( 14-C , 15-C ) :   1.1666
B( 14-C , 31-H ) :   0.9224 B( 14-C , 32-H ) :   0.9338 B( 15-C , 33-H ) :   0.9352
B( 15-C , 34-H ) :   0.9368 B( 15-C , 35-H ) :   0.9458 B( 16-O , 17-C ) :   0.9068
B( 17-C , 18-C ) :   1.1711 B( 17-C , 36-H ) :   0.9313 B( 17-C , 37-H ) :   0.9006
B( 18-C , 38-H ) :   0.9377 B( 18-C , 39-H ) :   0.9357 B( 18-C , 40-H ) :   0.9303

Dispersion correction           -0.064841045
FINAL SINGLE POINT ENERGY     -2929.519640734808

DIPOLE MOMENT
-------------

Method             : SCF
Type of density    : Electron Density
Multiplicity       :   1
Irrep              :   0
Energy             : -2929.6393966733539855 Eh
Relativity type    :
Basis              : AO
                                X                 Y                 Z
Electronic contribution:      3.579030310       6.354890492       3.574381797
Nuclear contribution   :     -4.582484766      -7.134267818      -3.593497455
                        -----------------------------------------
Total Dipole Moment    :     -1.003454456      -0.779377327      -0.019115658
                        -----------------------------------------
Magnitude (a.u.)       :      1.270714473
Magnitude (Debye)      :      3.229899505

Rotational constants in cm-1:             0.012395             0.004796             0.004672
Rotational constants in MHz :           371.596336           143.785813           140.054164

                             ****ORCA TERMINATED NORMALLY****
TOTAL RUN TIME: 0 days 0 hours 0 minutes 20 seconds 770 msec
