                         Program Version 6.0.1  -  RELEASE   -
|  1> ! r2scan-3c def2/J RI DEFGRID2 scfconv6 printgap
|  2> %output
|  3>     printlevel normal
|  4> end
|  5> * xyz 0 1
|  6> C 5.7271458407 -2.8652932278 -1.0821925982
|  7> C 4.7999306037 -1.6944039883 -1.3441045279
|  8> O 3.4697236075 -2.0759880472 -0.9439591965
|  9> C 2.4600947532 -1.3540085002 -1.3770297058
| 10> O 2.5619275493 -0.4089922308 -2.130767296
| 11> C 1.1342658429 -1.8769973007 -0.8514285842
| 12> C 0.2980973922 -0.6898896245 -0.3967577099
| 13> H 0.1407528793 0.0012837708 -1.2381168161
| 14> C 1.0225509621 0.1086314335 0.6698802124
| 15> O 2.2257505236 0.0970932016 0.7961453001
| 16> O 0.1889808461 0.8093238546 1.4087612285
| 17> C 0.7305944146 1.7132369112 2.3940906586
| 18> C 1.0393668923 3.0631646361 1.7707076497
| 19> S -1.3429598617 -1.2148818884 0.1871799359
| 20> P -2.3146469278 0.6832464548 0.1381484033
| 21> S -1.54886876 2.0374774997 -1.0507030591
| 22> O -3.8155041871 0.2610629269 -0.2317739094
| 23> C -4.150988582 -0.2301537732 -1.5334506835
| 24> O -2.5304802038 1.1866695579 1.6182882868
| 25> C -3.1775474316 0.3693192912 2.6145488898
| 26> H 6.7395738933 -2.5879740361 -1.3558665672
| 27> H 5.6987188457 -3.1299050377 -0.0296730358
| 28> H 5.4191676111 -3.7251386864 -1.6695742777
| 29> H 4.7766977085 -1.4142622302 -2.4020354835
| 30> H 5.0813216812 -0.8136903107 -0.758392014
| 31> H 1.3236522676 -2.5677463961 -0.0309774452
| 32> H 0.618136895 -2.3999588332 -1.6574943532
| 33> H -0.0530663503 1.7937445038 3.1472321963
| 34> H 1.6315126148 1.2580865191 2.8144457101
| 35> H 1.3692095578 3.75030865 2.5424626153
| 36> H 1.8234748475 2.9623205756 1.0229246181
| 37> H 0.1499670385 3.4621284088 1.2879374772
| 38> H -5.2371500398 -0.230693287 -1.575612755
| 39> H -3.760552725 -1.2397433236 -1.6602736901
| 40> H -3.7410884032 0.4279685242 -2.3013093322
| 41> H -2.6496401035 -0.5787126489 2.7179208032
| 42> H -4.2130319322 0.1903571933 2.3325379867
| 43> H -3.1230266306 0.9452443953 3.5346750868
| 44> *
| 45>
| 46>                          ****END OF INPUT****

CARTESIAN COORDINATES (ANGSTROEM)
---------------------------------
  C      5.727146   -2.865293   -1.082193
  C      4.799931   -1.694404   -1.344105
  O      3.469724   -2.075988   -0.943959
  C      2.460095   -1.354009   -1.377030
  O      2.561928   -0.408992   -2.130767
  C      1.134266   -1.876997   -0.851429
  C      0.298097   -0.689890   -0.396758
  H      0.140753    0.001284   -1.238117
  C      1.022551    0.108631    0.669880
  O      2.225751    0.097093    0.796145
  O      0.188981    0.809324    1.408761
  C      0.730594    1.713237    2.394091
  C      1.039367    3.063165    1.770708
  S     -1.342960   -1.214882    0.187180
  P     -2.314647    0.683246    0.138148
  S     -1.548869    2.037477   -1.050703
  O     -3.815504    0.261063   -0.231774
  C     -4.150989   -0.230154   -1.533451
  O     -2.530480    1.186670    1.618288
  C     -3.177547    0.369319    2.614549
  H      6.739574   -2.587974   -1.355867
  H      5.698719   -3.129905   -0.029673
  H      5.419168   -3.725139   -1.669574
  H      4.776698   -1.414262   -2.402035
  H      5.081322   -0.813690   -0.758392
  H      1.323652   -2.567746   -0.030977
  H      0.618137   -2.399959   -1.657494
  H     -0.053066    1.793745    3.147232
  H      1.631513    1.258087    2.814446
  H      1.369210    3.750309    2.542463
  H      1.823475    2.962321    1.022925
  H      0.149967    3.462128    1.287937
  H     -5.237150   -0.230693   -1.575613
  H     -3.760553   -1.239743   -1.660274
  H     -3.741088    0.427969   -2.301309
  H     -2.649640   -0.578713    2.717921
  H     -4.213032    0.190357    2.332538
  H     -3.123027    0.945244    3.534675

 Total Charge           Charge          ....    0
 Multiplicity           Mult            ....    1
 Number of Electrons    NEL             ....  174
 Basis Dimension        Dim             ....  510

ORBITAL ENERGIES
----------------

  NO   OCC          E(Eh)            E(eV)
   0   2.0000     -88.578918     -2410.3549
   1   2.0000     -88.519980     -2408.7511
   2   2.0000     -76.916544     -2093.0056
   3   2.0000     -19.004855      -517.1484
   4   2.0000     -18.998050      -516.9632
   5   2.0000     -18.993840      -516.8487
   6   2.0000     -18.993794      -516.8474
   7   2.0000     -18.941468      -515.4236
   8   2.0000     -18.922329      -514.9027
   9   2.0000     -10.164476      -276.5895
  10   2.0000     -10.153285      -276.2849
  11   2.0000     -10.102162      -274.8938
  12   2.0000     -10.094290      -274.6796
  13   2.0000     -10.093256      -274.6515
  14   2.0000     -10.093218      -274.6504
  15   2.0000     -10.086702      -274.4731
  16   2.0000     -10.058512      -273.7060
  17   2.0000     -10.028449      -272.8880
  18   2.0000     -10.022594      -272.7286
  19   2.0000      -7.873102      -214.2380
  20   2.0000      -7.814601      -212.6461
  21   2.0000      -6.594769      -179.4528
  22   2.0000      -5.819880      -158.3670
  23   2.0000      -5.817030      -158.2894
  24   2.0000      -5.810280      -158.1058
  25   2.0000      -5.762539      -156.8067
  26   2.0000      -5.754862      -156.5977
  27   2.0000      -5.754362      -156.5842
  28   2.0000      -4.740529      -128.9964
  29   2.0000      -4.739814      -128.9769
  30   2.0000      -4.738204      -128.9331
  31   2.0000      -1.084693       -29.5160
  32   2.0000      -1.070280       -29.1238
  33   2.0000      -1.054520       -28.6949
  34   2.0000      -1.011975       -27.5373
  35   2.0000      -0.991142       -26.9704
  36   2.0000      -0.972138       -26.4532
  37   2.0000      -0.810922       -22.0663
  38   2.0000      -0.753725       -20.5099
  39   2.0000      -0.741370       -20.1737
  40   2.0000      -0.734004       -19.9733
  41   2.0000      -0.698902       -19.0181
  42   2.0000      -0.679493       -18.4900
  43   2.0000      -0.659915       -17.9572
  44   2.0000      -0.650170       -17.6920
  45   2.0000      -0.622204       -16.9310
  46   2.0000      -0.591149       -16.0860
  47   2.0000      -0.544525       -14.8173
  48   2.0000      -0.533251       -14.5105
  49   2.0000      -0.525373       -14.2961
  50   2.0000      -0.499058       -13.5801
  51   2.0000      -0.493123       -13.4185
  52   2.0000      -0.486542       -13.2395
  53   2.0000      -0.462905       -12.5963
  54   2.0000      -0.458090       -12.4653
  55   2.0000      -0.453313       -12.3353
  56   2.0000      -0.449838       -12.2407
  57   2.0000      -0.442005       -12.0276
  58   2.0000      -0.435519       -11.8511
  59   2.0000      -0.428492       -11.6599
  60   2.0000      -0.423925       -11.5356
  61   2.0000      -0.421730       -11.4759
  62   2.0000      -0.412929       -11.2364
  63   2.0000      -0.400273       -10.8920
  64   2.0000      -0.383307       -10.4303
  65   2.0000      -0.374988       -10.2039
  66   2.0000      -0.369919       -10.0660
  67   2.0000      -0.366681        -9.9779
  68   2.0000      -0.360871        -9.8198
  69   2.0000      -0.353815        -9.6278
  70   2.0000      -0.351517        -9.5653
  71   2.0000      -0.342947        -9.3321
  72   2.0000      -0.336524        -9.1573
  73   2.0000      -0.325306        -8.8520
  74   2.0000      -0.324070        -8.8184
  75   2.0000      -0.316614        -8.6155
  76   2.0000      -0.310788        -8.4570
  77   2.0000      -0.308659        -8.3990
  78   2.0000      -0.290302        -7.8995
  79   2.0000      -0.283253        -7.7077
  80   2.0000      -0.278422        -7.5763
  81   2.0000      -0.266530        -7.2526
  82   2.0000      -0.264698        -7.2028
  83   2.0000      -0.233770        -6.3612
  84   2.0000      -0.229100        -6.2341
  85   2.0000      -0.219459        -5.9718
  86   2.0000      -0.214448        -5.8354
  87   0.0000      -0.047579        -1.2947
  88   0.0000      -0.027529        -0.7491
  89   0.0000      -0.008089        -0.2201
  90   0.0000       0.005359         0.1458
  91   0.0000       0.017719         0.4821

MULLIKEN ATOMIC CHARGES
-----------------------
   0 C :   -0.445892
   1 C :   -0.158213
   2 O :   -0.132940
   3 C :    0.330598
   4 O :   -0.399228
   5 C :   -0.427448
   6 C :    0.044654
   7 H :    0.265845
   8 C :    0.239864
   9 O :   -0.389388
  10 O :   -0.118489
  11 C :   -0.141958
  12 C :   -0.471158
  13 S :   -0.221083
  14 P :    0.775255
  15 S :   -0.443115
  16 O :   -0.349893
  17 C :   -0.295141
  18 O :   -0.313258
  19 C :   -0.290817
  20 H :    0.146752
  21 H :    0.153919
  22 H :    0.151431
  23 H :    0.167596
  24 H :    0.161396
  25 H :    0.189010
  26 H :    0.184356
  27 H :    0.148880
  28 H :    0.166415
  29 H :    0.145610
  30 H :    0.170186
  31 H :    0.175776
  32 H :    0.151829
  33 H :    0.158029
  34 H :    0.176231
  35 H :    0.168237
  36 H :    0.170488
  37 H :    0.155661
Sum of atomic charges:   -0.0000000

LOEWDIN ATOMIC CHARGES
----------------------
   0 C :   -0.386746
   1 C :    0.036783
   2 O :   -0.580908
   3 C :    0.356310
   4 O :   -0.425342
   5 C :   -0.204973
   6 C :   -0.203283
   7 H :    0.224442
   8 C :    0.367234
   9 O :   -0.408104
  10 O :   -0.619788
  11 C :    0.036030
  12 C :   -0.388057
  13 S :    0.191829
  14 P :    0.399410
  15 S :   -0.084337
  16 O :   -0.687192
  17 C :   -0.059369
  18 O :   -0.648779
  19 C :   -0.051226
  20 H :    0.159375
  21 H :    0.159825
  22 H :    0.158156
  23 H :    0.185161
  24 H :    0.181614
  25 H :    0.190253
  26 H :    0.188423
  27 H :    0.180329
  28 H :    0.189434
  29 H :    0.157434
  30 H :    0.166664
  31 H :    0.167977
  32 H :    0.177108
  33 H :    0.168928
  34 H :    0.177435
  35 H :    0.173098
  36 H :    0.175520
  37 H :    0.179330

  Mayer bond orders larger than 0.100000
B(  0-C ,  1-C ) :   0.9428 B(  0-C , 20-H ) :   0.9677 B(  0-C , 21-H ) :   0.9703
B(  0-C , 22-H ) :   0.9756 B(  1-C ,  2-O ) :   0.7847 B(  1-C , 23-H ) :   0.9601
B(  1-C , 24-H ) :   0.9481 B(  2-O ,  3-C ) :   1.1247 B(  3-C ,  4-O ) :   1.8537
B(  3-C ,  5-C ) :   0.8721 B(  5-C ,  6-C ) :   0.8968 B(  5-C , 25-H ) :   1.0119
B(  5-C , 26-H ) :   0.9402 B(  6-C ,  7-H ) :   0.8738 B(  6-C ,  8-C ) :   0.9525
B(  6-C , 13-S ) :   0.8131 B(  8-C ,  9-O ) :   1.8146 B(  8-C , 10-O ) :   1.1768
B( 10-O , 11-C ) :   0.7706 B( 11-C , 12-C ) :   0.9305 B( 11-C , 27-H ) :   0.9628
B( 11-C , 28-H ) :   0.9598 B( 12-C , 29-H ) :   0.9675 B( 12-C , 30-H ) :   0.9691
B( 12-C , 31-H ) :   0.9669 B( 13-S , 14-P ) :   0.9832 B( 14-P , 15-S ) :   1.8123
B( 14-P , 16-O ) :   1.0336 B( 14-P , 18-O ) :   1.1412 B( 16-O , 17-C ) :   0.8310
B( 17-C , 32-H ) :   0.9673 B( 17-C , 33-H ) :   0.9564 B( 17-C , 34-H ) :   0.9588
B( 18-O , 19-C ) :   0.7952 B( 19-C , 35-H ) :   0.9560 B( 19-C , 36-H ) :   0.9603
B( 19-C , 37-H ) :   0.9656

Dispersion correction           -0.017121412
FINAL SINGLE POINT ENERGY     -1981.454329203096

DIPOLE MOMENT
-------------

Method             : SCF
Type of density    : Electron Density
Multiplicity       :   1
Irrep              :   0
Energy             : -1981.4745722364882567 Eh
Relativity type    :
Basis              : AO
                                X                 Y                 Z
Electronic contribution:    -14.037802726       3.159543895      -3.162457034
Nuclear contribution   :     13.435991275      -4.291709977       4.338143113
                        -----------------------------------------
Total Dipole Moment    :     -0.601811451      -1.132166082       1.175686079
                        -----------------------------------------
Magnitude (a.u.)       :      1.739601913
Magnitude (Debye)      :      4.421716664

Rotational constants in cm-1:             0.016674             0.005568             0.004975
Rotational constants in MHz :           499.888770           166.917464           149.160840

                             ****ORCA TERMINATED NORMALLY****
TOTAL RUN TIME: 0 days 0 hours 1 minutes 32 seconds 49 msec
