                         Program Version 6.0.1  -  RELEASE   -
|  1> ! r2scan-3c def2/J RI DEFGRID2 scfconv6 printgap
|  2> %output
|  3>     printlevel normal
|  4> end
|  5> %cpcm
|  6>     smd true
|  7>     smdsolvent "water"
|  8> end
|  9> * xyz 0 1
| 10> C 5.7271458407 -2.8652932278 -1.0821925982
| 11> C 4.7999306037 -1.6944039883 -1.3441045279
| 12> O 3.4697236075 -2.0759880472 -0.9439591965
| 13> C 2.4600947532 -1.3540085002 -1.3770297058
| 14> O 2.5619275493 -0.4089922308 -2.130767296
| 15> C 1.1342658429 -1.8769973007 -0.8514285842
| 16> C 0.2980973922 -0.6898896245 -0.3967577099
| 17> H 0.1407528793 0.0012837708 -1.2381168161
| 18> C 1.0225509621 0.1086314335 0.6698802124
| 19> O 2.2257505236 0.0970932016 0.7961453001
| 20> O 0.1889808461 0.8093238546 1.4087612285
| 21> C 0.7305944146 1.7132369112 2.3940906586
| 22> C 1.0393668923 3.0631646361 1.7707076497
| 23> S -1.3429598617 -1.2148818884 0.1871799359
| 24> P -2.3146469278 0.6832464548 0.1381484033
| 25> S -1.54886876 2.0374774997 -1.0507030591
| 26> O -3.8155041871 0.2610629269 -0.2317739094
| 27> C -4.150988582 -0.2301537732 -1.5334506835
| 28> O -2.5304802038 1.1866695579 1.6182882868
| 29> C -3.1775474316 0.3693192912 2.6145488898
| 30> H 6.7395738933 -2.5879740361 -1.3558665672
| 31> H 5.6987188457 -3.1299050377 -0.0296730358
| 32> H 5.4191676111 -3.7251386864 -1.6695742777
| 33> H 4.7766977085 -1.4142622302 -2.4020354835
| 34> H 5.0813216812 -0.8136903107 -0.758392014
| 35> H 1.3236522676 -2.5677463961 -0.0309774452
| 36> H 0.618136895 -2.3999588332 -1.6574943532
| 37> H -0.0530663503 1.7937445038 3.1472321963
| 38> H 1.6315126148 1.2580865191 2.8144457101
| 39> H 1.3692095578 3.75030865 2.5424626153
| 40> H 1.8234748475 2.9623205756 1.0229246181
| 41> H 0.1499670385 3.4621284088 1.2879374772
| 42> H -5.2371500398 -0.230693287 -1.575612755
| 43> H -3.760552725 -1.2397433236 -1.6602736901
| 44> H -3.7410884032 0.4279685242 -2.3013093322
| 45> H -2.6496401035 -0.5787126489 2.7179208032
| 46> H -4.2130319322 0.1903571933 2.3325379867
| 47> H -3.1230266306 0.9452443953 3.5346750868
| 48> *
| 49>
| 50>                          ****END OF INPUT****

CARTESIAN COORDINATES (ANGSTROEM)
---------------------------------
  C      5.727146   -2.865293   -1.082193
  C      4.799931   -1.694404   -1.344105
  O      3.469724   -2.075988   -0.943959
  C      2.460095   -1.354009   -1.377030
  O      2.561928   -0.408992   -2.130767
  C      1.134266   -1.876997   -0.851429
  C      0.298097   -0.689890   -0.396758
  H      0.140753    0.001284   -1.238117
  C      1.022551    0.108631    0.669880
  O      2.225751    0.097093    0.796145
  O      0.188981    0.809324    1.408761
  C      0.730594    1.713237    2.394091
  C      1.039367    3.063165    1.770708
  S     -1.342960   -1.214882    0.187180
  P     -2.314647    0.683246    0.138148
  S     -1.548869    2.037477   -1.050703
  O     -3.815504    0.261063   -0.231774
  C     -4.150989   -0.230154   -1.533451
  O     -2.530480    1.186670    1.618288
  C     -3.177547    0.369319    2.614549
  H      6.739574   -2.587974   -1.355867
  H      5.698719   -3.129905   -0.029673
  H      5.419168   -3.725139   -1.669574
  H      4.776698   -1.414262   -2.402035
  H      5.081322   -0.813690   -0.758392
  H      1.323652   -2.567746   -0.030977
  H      0.618137   -2.399959   -1.657494
  H     -0.053066    1.793745    3.147232
  H      1.631513    1.258087    2.814446
  H      1.369210    3.750309    2.542463
  H      1.823475    2.962321    1.022925
  H      0.149967    3.462128    1.287937
  H     -5.237150   -0.230693   -1.575613
  H     -3.760553   -1.239743   -1.660274
  H     -3.741088    0.427969   -2.301309
  H     -2.649640   -0.578713    2.717921
  H     -4.213032    0.190357    2.332538
  H     -3.123027    0.945244    3.534675

 Total Charge           Charge          ....    0
 Multiplicity           Mult            ....    1
 Number of Electrons    NEL             ....  174
 Basis Dimension        Dim             ....  510

ORBITAL ENERGIES
----------------

  NO   OCC          E(Eh)            E(eV)
   0   2.0000     -88.581916     -2410.4365
   1   2.0000     -88.529917     -2409.0215
   2   2.0000     -76.921696     -2093.1458
   3   2.0000     -19.011010      -517.3159
   4   2.0000     -19.006851      -517.2027
   5   2.0000     -18.998520      -516.9760
   6   2.0000     -18.994792      -516.8746
   7   2.0000     -18.956003      -515.8191
   8   2.0000     -18.945327      -515.5285
   9   2.0000     -10.175977      -276.9024
  10   2.0000     -10.171023      -276.7676
  11   2.0000     -10.097746      -274.7736
  12   2.0000     -10.088071      -274.5104
  13   2.0000     -10.085687      -274.4455
  14   2.0000     -10.085444      -274.4389
  15   2.0000     -10.081659      -274.3359
  16   2.0000     -10.057437      -273.6768
  17   2.0000     -10.019458      -272.6433
  18   2.0000     -10.018955      -272.6296
  19   2.0000      -7.876006      -214.3170
  20   2.0000      -7.824917      -212.9268
  21   2.0000      -6.599967      -179.5942
  22   2.0000      -5.822857      -158.4480
  23   2.0000      -5.820010      -158.3705
  24   2.0000      -5.813043      -158.1809
  25   2.0000      -5.772713      -157.0835
  26   2.0000      -5.765250      -156.8804
  27   2.0000      -5.764676      -156.8648
  28   2.0000      -4.745661      -129.1360
  29   2.0000      -4.744972      -129.1173
  30   2.0000      -4.743554      -129.0787
  31   2.0000      -1.092735       -29.7348
  32   2.0000      -1.084862       -29.5206
  33   2.0000      -1.054937       -28.7063
  34   2.0000      -1.011754       -27.5312
  35   2.0000      -1.003762       -27.3138
  36   2.0000      -0.993123       -27.0243
  37   2.0000      -0.814555       -22.1652
  38   2.0000      -0.754729       -20.5372
  39   2.0000      -0.740009       -20.1367
  40   2.0000      -0.732587       -19.9347
  41   2.0000      -0.697309       -18.9747
  42   2.0000      -0.671072       -18.2608
  43   2.0000      -0.660667       -17.9777
  44   2.0000      -0.652643       -17.7593
  45   2.0000      -0.622196       -16.9308
  46   2.0000      -0.590625       -16.0717
  47   2.0000      -0.542605       -14.7650
  48   2.0000      -0.536490       -14.5986
  49   2.0000      -0.526411       -14.3244
  50   2.0000      -0.498001       -13.5513
  51   2.0000      -0.495055       -13.4711
  52   2.0000      -0.489357       -13.3161
  53   2.0000      -0.468892       -12.7592
  54   2.0000      -0.465327       -12.6622
  55   2.0000      -0.459726       -12.5098
  56   2.0000      -0.450262       -12.2523
  57   2.0000      -0.447296       -12.1715
  58   2.0000      -0.436667       -11.8823
  59   2.0000      -0.428156       -11.6507
  60   2.0000      -0.427657       -11.6371
  61   2.0000      -0.411040       -11.1850
  62   2.0000      -0.410293       -11.1646
  63   2.0000      -0.403264       -10.9734
  64   2.0000      -0.386291       -10.5115
  65   2.0000      -0.375884       -10.2283
  66   2.0000      -0.370443       -10.0803
  67   2.0000      -0.364678        -9.9234
  68   2.0000      -0.361304        -9.8316
  69   2.0000      -0.355256        -9.6670
  70   2.0000      -0.351089        -9.5536
  71   2.0000      -0.343285        -9.3412
  72   2.0000      -0.335437        -9.1277
  73   2.0000      -0.327812        -8.9202
  74   2.0000      -0.321823        -8.7572
  75   2.0000      -0.316497        -8.6123
  76   2.0000      -0.316258        -8.6058
  77   2.0000      -0.308357        -8.3908
  78   2.0000      -0.289760        -7.8848
  79   2.0000      -0.288063        -7.8386
  80   2.0000      -0.280814        -7.6413
  81   2.0000      -0.279191        -7.5972
  82   2.0000      -0.275477        -7.4961
  83   2.0000      -0.256591        -6.9822
  84   2.0000      -0.237629        -6.4662
  85   2.0000      -0.230501        -6.2722
  86   2.0000      -0.224049        -6.0967
  87   0.0000      -0.053668        -1.4604
  88   0.0000      -0.036129        -0.9831
  89   0.0000      -0.022007        -0.5988
  90   0.0000       0.002782         0.0757
  91   0.0000       0.013857         0.3771

MULLIKEN ATOMIC CHARGES
-----------------------
   0 C :   -0.490083
   1 C :   -0.153438
   2 O :   -0.159048
   3 C :    0.358654
   4 O :   -0.480712
   5 C :   -0.436046
   6 C :    0.039977
   7 H :    0.268243
   8 C :    0.264464
   9 O :   -0.450185
  10 O :   -0.122609
  11 C :   -0.150366
  12 C :   -0.503144
  13 S :   -0.204492
  14 P :    0.798173
  15 S :   -0.503769
  16 O :   -0.374805
  17 C :   -0.306880
  18 O :   -0.349522
  19 C :   -0.295843
  20 H :    0.169816
  21 H :    0.165188
  22 H :    0.167108
  23 H :    0.175599
  24 H :    0.177204
  25 H :    0.215997
  26 H :    0.223456
  27 H :    0.182407
  28 H :    0.178065
  29 H :    0.173762
  30 H :    0.171535
  31 H :    0.170296
  32 H :    0.179773
  33 H :    0.175376
  34 H :    0.177200
  35 H :    0.179514
  36 H :    0.184932
  37 H :    0.184199
Sum of atomic charges:   -0.0000000

LOEWDIN ATOMIC CHARGES
----------------------
   0 C :   -0.388281
   1 C :    0.039535
   2 O :   -0.585828
   3 C :    0.363535
   4 O :   -0.484716
   5 C :   -0.197725
   6 C :   -0.202522
   7 H :    0.223240
   8 C :    0.372731
   9 O :   -0.451055
  10 O :   -0.617684
  11 C :    0.042214
  12 C :   -0.392332
  13 S :    0.211433
  14 P :    0.402276
  15 S :   -0.130340
  16 O :   -0.695637
  17 C :   -0.054950
  18 O :   -0.666720
  19 C :   -0.041788
  20 H :    0.168785
  21 H :    0.163114
  22 H :    0.162859
  23 H :    0.188710
  24 H :    0.186331
  25 H :    0.201359
  26 H :    0.204280
  27 H :    0.193012
  28 H :    0.194204
  29 H :    0.168110
  30 H :    0.163807
  31 H :    0.163949
  32 H :    0.188892
  33 H :    0.176225
  34 H :    0.177609
  35 H :    0.179314
  36 H :    0.182251
  37 H :    0.191802

  Mayer bond orders larger than 0.100000
B(  0-C ,  1-C ) :   0.9459 B(  0-C , 20-H ) :   0.9608 B(  0-C , 21-H ) :   0.9668
B(  0-C , 22-H ) :   0.9733 B(  1-C ,  2-O ) :   0.7724 B(  1-C , 23-H ) :   0.9535
B(  1-C , 24-H ) :   0.9370 B(  2-O ,  3-C ) :   1.1377 B(  3-C ,  4-O ) :   1.7888
B(  3-C ,  5-C ) :   0.8851 B(  5-C ,  6-C ) :   0.8703 B(  5-C , 25-H ) :   1.0014
B(  5-C , 26-H ) :   0.9277 B(  6-C ,  7-H ) :   0.8816 B(  6-C ,  8-C ) :   0.9465
B(  6-C , 13-S ) :   0.8115 B(  8-C ,  9-O ) :   1.7664 B(  8-C , 10-O ) :   1.1994
B( 10-O , 11-C ) :   0.7568 B( 11-C , 12-C ) :   0.9119 B( 11-C , 27-H ) :   0.9543
B( 11-C , 28-H ) :   0.9545 B( 12-C , 29-H ) :   0.9609 B( 12-C , 30-H ) :   0.9710
B( 12-C , 31-H ) :   0.9696 B( 13-S , 14-P ) :   0.9974 B( 14-P , 15-S ) :   1.7791
B( 14-P , 16-O ) :   1.0432 B( 14-P , 18-O ) :   1.1483 B( 16-O , 17-C ) :   0.8228
B( 17-C , 32-H ) :   0.9572 B( 17-C , 33-H ) :   0.9499 B( 17-C , 34-H ) :   0.9556
B( 18-O , 19-C ) :   0.7868 B( 19-C , 35-H ) :   0.9478 B( 19-C , 36-H ) :   0.9519
B( 19-C , 37-H ) :   0.9544

Dispersion correction           -0.017121412
FINAL SINGLE POINT ENERGY     -1981.468845904426

DIPOLE MOMENT
-------------

Method             : SCF
Type of density    : Electron Density
Multiplicity       :   1
Irrep              :   0
Energy             : -1981.4890889378182237 Eh
Relativity type    :
Basis              : AO
                                X                 Y                 Z
Electronic contribution:    -14.389045040       2.408192979      -2.665210465
Nuclear contribution   :     13.435991275      -4.291709977       4.338143113
                        -----------------------------------------
Total Dipole Moment    :     -0.953053765      -1.883516999       1.672932649
                        -----------------------------------------
Magnitude (a.u.)       :      2.693446010
Magnitude (Debye)      :      6.846195682

Rotational constants in cm-1:             0.016674             0.005568             0.004975
Rotational constants in MHz :           499.888770           166.917464           149.160840

                             ****ORCA TERMINATED NORMALLY****
TOTAL RUN TIME: 0 days 0 hours 1 minutes 59 seconds 26 msec
