                         Program Version 6.0.1  -  RELEASE   -
|  1> ! pbe def2-sv(p) def2/J RI DEFGRID1 loosescf d4 GCP(DFT/SV(P)) printgap
|  2> %output
|  3>     printlevel normal
|  4> end
|  5> * xyz 0 1
|  6> C 4.0169731197 -3.0490710493 -2.5328136649
|  7> C 3.0099153416 -3.163556074 -1.4054376281
|  8> O 2.7022670034 -1.8334615585 -0.9442192814
|  9> C 2.0559436564 -1.7074943075 0.1952847538
| 10> O 1.7194991538 -2.6347026611 0.8975637525
| 11> C 1.7695360935 -0.2515972365 0.5178441678
| 12> C 0.9737395111 0.3836536772 -0.6232052848
| 13> H 1.5972567629 0.4553975093 -1.5181075691
| 14> C 0.4554313343 1.7570665678 -0.2459941953
| 15> O -0.7295361208 2.0303967354 -0.2537855227
| 16> O 1.4086414012 2.5767975632 0.0840665763
| 17> C 1.033266868 3.9037460481 0.5209999566
| 18> C 2.3023279051 4.6542054147 0.8686972468
| 19> S -0.4524627444 -0.6300790526 -1.1301187427
| 20> P -1.8537036724 -0.1978374559 0.4263888184
| 21> S -1.3292485216 0.4790931157 2.1890346818
| 22> O -3.1350591709 0.4571722782 -0.2669237347
| 23> C -3.484015034 1.8393361966 -0.3393007481
| 24> O -2.4326776014 -1.6628938983 0.6697031253
| 25> C -3.0055324059 -2.4736769949 -0.3679754296
| 26> H 4.9223943332 -2.5660157101 -2.1779419219
| 27> H 4.2605940096 -4.0416891522 -2.8963033105
| 28> H 3.5995383047 -2.4625849525 -3.3452690748
| 29> H 3.3999618941 -3.7411048197 -0.5616290201
| 30> H 2.0773560956 -3.6274543242 -1.7406401192
| 31> H 2.7100458926 0.2880105446 0.6357274513
| 32> H 1.2089168268 -0.2152175906 1.4544573116
| 33> H 0.4811998174 4.3869104729 -0.2901671135
| 34> H 0.3671432573 3.7990608515 1.3828292288
| 35> H 2.0452373609 5.6588929034 1.1867818523
| 36> H 2.8266150679 4.1491471651 1.6739990579
| 37> H 2.9537612352 4.707893641 0.0018902028
| 38> H -3.0106260208 2.2933236389 -1.2074370568
| 39> H -3.1649333252 2.3576433372 0.564514915
| 40> H -4.567900398 1.858607241 -0.4306034063
| 41> H -3.9270463822 -2.0189828048 -0.7270542217
| 42> H -3.2031205372 -3.4352900848 0.0989151539
| 43> H -2.2974370019 -2.5854723466 -1.1899192185
| 44> *
| 45>
| 46>                          ****END OF INPUT****

CARTESIAN COORDINATES (ANGSTROEM)
---------------------------------
  C      4.016973   -3.049071   -2.532814
  C      3.009915   -3.163556   -1.405438
  O      2.702267   -1.833462   -0.944219
  C      2.055944   -1.707494    0.195285
  O      1.719499   -2.634703    0.897564
  C      1.769536   -0.251597    0.517844
  C      0.973740    0.383654   -0.623205
  H      1.597257    0.455398   -1.518108
  C      0.455431    1.757067   -0.245994
  O     -0.729536    2.030397   -0.253786
  O      1.408641    2.576798    0.084067
  C      1.033267    3.903746    0.521000
  C      2.302328    4.654205    0.868697
  S     -0.452463   -0.630079   -1.130119
  P     -1.853704   -0.197837    0.426389
  S     -1.329249    0.479093    2.189035
  O     -3.135059    0.457172   -0.266924
  C     -3.484015    1.839336   -0.339301
  O     -2.432678   -1.662894    0.669703
  C     -3.005532   -2.473677   -0.367975
  H      4.922394   -2.566016   -2.177942
  H      4.260594   -4.041689   -2.896303
  H      3.599538   -2.462585   -3.345269
  H      3.399962   -3.741105   -0.561629
  H      2.077356   -3.627454   -1.740640
  H      2.710046    0.288011    0.635727
  H      1.208917   -0.215218    1.454457
  H      0.481200    4.386910   -0.290167
  H      0.367143    3.799061    1.382829
  H      2.045237    5.658893    1.186782
  H      2.826615    4.149147    1.673999
  H      2.953761    4.707894    0.001890
  H     -3.010626    2.293324   -1.207437
  H     -3.164933    2.357643    0.564515
  H     -4.567900    1.858607   -0.430603
  H     -3.927046   -2.018983   -0.727054
  H     -3.203121   -3.435290    0.098915
  H     -2.297437   -2.585472   -1.189919

 Total Charge           Charge          ....    0
 Multiplicity           Mult            ....    1
 Number of Electrons    NEL             ....  174
 Basis Dimension        Dim             ....  316

ORBITAL ENERGIES
----------------

  NO   OCC          E(Eh)            E(eV)
   0   2.0000     -88.033543     -2395.5145
   1   2.0000     -87.969169     -2393.7628
   2   2.0000     -76.417829     -2079.4348
   3   2.0000     -18.826538      -512.2961
   4   2.0000     -18.801526      -511.6155
   5   2.0000     -18.781347      -511.0664
   6   2.0000     -18.771199      -510.7903
   7   2.0000     -18.757331      -510.4129
   8   2.0000     -18.730624      -509.6862
   9   2.0000     -10.029556      -272.9181
  10   2.0000     -10.004372      -272.2328
  11   2.0000      -9.961686      -271.0713
  12   2.0000      -9.953657      -270.8528
  13   2.0000      -9.948010      -270.6991
  14   2.0000      -9.936439      -270.3842
  15   2.0000      -9.933538      -270.3053
  16   2.0000      -9.903682      -269.4929
  17   2.0000      -9.899019      -269.3660
  18   2.0000      -9.890982      -269.1473
  19   2.0000      -7.678298      -208.9371
  20   2.0000      -7.614530      -207.2019
  21   2.0000      -6.413632      -174.5238
  22   2.0000      -5.706359      -155.2779
  23   2.0000      -5.702977      -155.1859
  24   2.0000      -5.694917      -154.9666
  25   2.0000      -5.643953      -153.5798
  26   2.0000      -5.635287      -153.3440
  27   2.0000      -5.633965      -153.3080
  28   2.0000      -4.636471      -126.1648
  29   2.0000      -4.635551      -126.1398
  30   2.0000      -4.634137      -126.1013
  31   2.0000      -1.035771       -28.1848
  32   2.0000      -1.008503       -27.4428
  33   2.0000      -0.970550       -26.4100
  34   2.0000      -0.938104       -25.5271
  35   2.0000      -0.924936       -25.1688
  36   2.0000      -0.908231       -24.7142
  37   2.0000      -0.767672       -20.8894
  38   2.0000      -0.721766       -19.6403
  39   2.0000      -0.710259       -19.3271
  40   2.0000      -0.687812       -18.7163
  41   2.0000      -0.653273       -17.7765
  42   2.0000      -0.627898       -17.0860
  43   2.0000      -0.626261       -17.0414
  44   2.0000      -0.606282       -16.4978
  45   2.0000      -0.586784       -15.9672
  46   2.0000      -0.564515       -15.3612
  47   2.0000      -0.524647       -14.2764
  48   2.0000      -0.511477       -13.9180
  49   2.0000      -0.503054       -13.6888
  50   2.0000      -0.484228       -13.1765
  51   2.0000      -0.466616       -12.6973
  52   2.0000      -0.463260       -12.6059
  53   2.0000      -0.449206       -12.2235
  54   2.0000      -0.444885       -12.1059
  55   2.0000      -0.433286       -11.7903
  56   2.0000      -0.424611       -11.5543
  57   2.0000      -0.414772       -11.2865
  58   2.0000      -0.412788       -11.2325
  59   2.0000      -0.404396       -11.0042
  60   2.0000      -0.402260       -10.9460
  61   2.0000      -0.391497       -10.6532
  62   2.0000      -0.385904       -10.5010
  63   2.0000      -0.380522       -10.3545
  64   2.0000      -0.374547       -10.1919
  65   2.0000      -0.369959       -10.0671
  66   2.0000      -0.363270        -9.8851
  67   2.0000      -0.357730        -9.7343
  68   2.0000      -0.351902        -9.5757
  69   2.0000      -0.338624        -9.2144
  70   2.0000      -0.336315        -9.1516
  71   2.0000      -0.329745        -8.9728
  72   2.0000      -0.322140        -8.7659
  73   2.0000      -0.314930        -8.5697
  74   2.0000      -0.307357        -8.3636
  75   2.0000      -0.298283        -8.1167
  76   2.0000      -0.290227        -7.8975
  77   2.0000      -0.286913        -7.8073
  78   2.0000      -0.282625        -7.6906
  79   2.0000      -0.260362        -7.0848
  80   2.0000      -0.257186        -6.9984
  81   2.0000      -0.250495        -6.8163
  82   2.0000      -0.245224        -6.6729
  83   2.0000      -0.212946        -5.7946
  84   2.0000      -0.210829        -5.7369
  85   2.0000      -0.190041        -5.1713
  86   2.0000      -0.181576        -4.9409
  87   0.0000      -0.046458        -1.2642
  88   0.0000      -0.037235        -1.0132
  89   0.0000      -0.011521        -0.3135
  90   0.0000      -0.001438        -0.0391
  91   0.0000       0.031636         0.8609

MULLIKEN ATOMIC CHARGES
-----------------------
   0 C :   -0.275313
   1 C :   -0.025057
   2 O :   -0.244656
   3 C :    0.116690
   4 O :   -0.182311
   5 C :   -0.066168
   6 C :   -0.309883
   7 H :    0.150835
   8 C :    0.217814
   9 O :   -0.194552
  10 O :   -0.218947
  11 C :   -0.032636
  12 C :   -0.274262
  13 S :   -0.116383
  14 P :    0.641781
  15 S :   -0.326760
  16 O :   -0.398583
  17 C :   -0.077972
  18 O :   -0.365356
  19 C :   -0.109858
  20 H :    0.114353
  21 H :    0.112590
  22 H :    0.112850
  23 H :    0.111374
  24 H :    0.105851
  25 H :    0.113980
  26 H :    0.122852
  27 H :    0.108841
  28 H :    0.124314
  29 H :    0.116939
  30 H :    0.123105
  31 H :    0.116990
  32 H :    0.113095
  33 H :    0.114743
  34 H :    0.115180
  35 H :    0.116621
  36 H :    0.130057
  37 H :    0.117843
Sum of atomic charges:    0.0000000

LOEWDIN ATOMIC CHARGES
----------------------
   0 C :   -0.351150
   1 C :   -0.106599
   2 O :   -0.070052
   3 C :    0.017815
   4 O :   -0.150680
   5 C :   -0.255424
   6 C :   -0.260650
   7 H :    0.149551
   8 C :    0.021329
   9 O :   -0.155653
  10 O :   -0.037943
  11 C :   -0.102664
  12 C :   -0.350170
  13 S :    0.093635
  14 P :    0.589163
  15 S :   -0.319764
  16 O :   -0.254188
  17 C :   -0.205957
  18 O :   -0.250754
  19 C :   -0.213396
  20 H :    0.126226
  21 H :    0.131120
  22 H :    0.125417
  23 H :    0.119007
  24 H :    0.117561
  25 H :    0.141460
  26 H :    0.136049
  27 H :    0.118667
  28 H :    0.126173
  29 H :    0.134242
  30 H :    0.130538
  31 H :    0.127744
  32 H :    0.111724
  33 H :    0.111573
  34 H :    0.115439
  35 H :    0.112000
  36 H :    0.125338
  37 H :    0.103270

  Mayer bond orders larger than 0.100000
B(  0-C ,  1-C ) :   1.1521 B(  0-C , 20-H ) :   0.9513 B(  0-C , 21-H ) :   0.9443
B(  0-C , 22-H ) :   0.9489 B(  1-C ,  2-O ) :   0.9069 B(  1-C , 23-H ) :   0.9259
B(  1-C , 24-H ) :   0.9336 B(  2-O ,  3-C ) :   1.1957 B(  3-C ,  4-O ) :   2.0920
B(  3-C ,  5-C ) :   1.0275 B(  5-C ,  6-C ) :   1.0460 B(  5-C , 25-H ) :   0.8717
B(  5-C , 26-H ) :   0.8758 B(  6-C ,  7-H ) :   0.8566 B(  6-C ,  8-C ) :   0.9263
B(  6-C , 13-S ) :   1.0467 B(  8-C ,  9-O ) :   1.9438 B(  8-C , 10-O ) :   1.2817
B( 10-O , 11-C ) :   0.8868 B( 11-C , 12-C ) :   1.1549 B( 11-C , 27-H ) :   0.9316
B( 11-C , 28-H ) :   0.9281 B( 12-C , 29-H ) :   0.9421 B( 12-C , 30-H ) :   0.9491
B( 12-C , 31-H ) :   0.9496 B( 13-S , 14-P ) :   0.9112 B( 13-S , 15-S ) :   0.1110
B( 14-P , 15-S ) :   1.5862 B( 14-P , 16-O ) :   1.0882 B( 14-P , 18-O ) :   1.1088
B( 16-O , 17-C ) :   0.9291 B( 17-C , 32-H ) :   0.9528 B( 17-C , 33-H ) :   0.9420
B( 17-C , 34-H ) :   0.9541 B( 18-O , 19-C ) :   0.9349 B( 19-C , 35-H ) :   0.9465
B( 19-C , 36-H ) :   0.9604 B( 19-C , 37-H ) :   0.9362

Dispersion correction           -0.050841713
FINAL SINGLE POINT ENERGY     -1979.008237863394

DIPOLE MOMENT
-------------

Method             : SCF
Type of density    : Electron Density
Multiplicity       :   1
Irrep              :   0
Energy             : -1979.1388976198786622 Eh
Relativity type    :
Basis              : AO
                                X                 Y                 Z
Electronic contribution:    -12.391525282      -4.000100006       7.213581848
Nuclear contribution   :     13.220725724       5.101132356      -8.933059046
                        -----------------------------------------
Total Dipole Moment    :      0.829200442       1.101032350      -1.719477198
                        -----------------------------------------
Magnitude (a.u.)       :      2.203734885
Magnitude (Debye)      :      5.601448922

Rotational constants in cm-1:             0.010485             0.008006             0.005418
Rotational constants in MHz :           314.343038           240.009054           162.421795

                             ****ORCA TERMINATED NORMALLY****
TOTAL RUN TIME: 0 days 0 hours 0 minutes 32 seconds 354 msec
