                         Program Version 6.0.0  -   RELEASE  -
|  1> ! r2scan-3c def2/J RI DEFGRID2 scfconv6 printgap
|  2> %output
|  3>     printlevel normal
|  4> end
|  5> * xyz 0 1
|  6> C 6.0294232501 -1.1996885735 0.2563800257
|  7> C 4.5889059961 -1.4240662403 -0.1557210587
|  8> O 3.8818025143 -0.1763224325 0.0094361383
|  9> P 2.4659905549 0.0568663668 -0.669610319
| 10> S 2.3721757822 -0.2618228125 -2.5961825762
| 11> O 2.129592939 1.546914668 -0.2985289402
| 12> C 2.1606322432 2.0696920736 1.0535829632
| 13> C 3.4801271999 2.7589798225 1.3308279234
| 14> S 1.1834980525 -1.1793777386 0.5059199224
| 15> C -0.212396614 -1.1380914955 -0.6374064677
| 16> S -1.0125472381 0.4994724347 -0.6971733761
| 17> P -2.7982705911 -0.0141607725 0.3555417771
| 18> S -3.9683615455 1.507985986 0.7314709152
| 19> O -2.3605672725 -0.8921528426 1.5961228451
| 20> C -2.2370446788 -0.3209406905 2.9117118549
| 21> C -0.971448389 0.5015105653 3.045414005
| 22> O -3.3803126081 -1.223075361 -0.4977979577
| 23> C -3.9311782258 -1.0079745779 -1.8112978883
| 24> C -5.4311470215 -0.79717305 -1.7416159737
| 25> H 6.0751518748 -0.8785805272 1.2929030286
| 26> H 6.5797354362 -2.1279837735 0.1439249161
| 27> H 6.4828100785 -0.4371096676 -0.3707188622
| 28> H 4.1043386954 -2.175232691 0.4735568692
| 29> H 4.5134155627 -1.730353637 -1.2041428414
| 30> H 1.325422264 2.771778282 1.091154303
| 31> H 1.9880219716 1.2495935229 1.7558950091
| 32> H 4.2965604748 2.0439819001 1.2760086924
| 33> H 3.6513793945 3.5434977625 0.5989042389
| 34> H 3.4493736843 3.1956170741 2.3241438395
| 35> H -0.9311177526 -1.8818704462 -0.30150632
| 36> H 0.1565447754 -1.353847145 -1.6408747601
| 37> H -3.1206899654 0.2945568811 3.1096026726
| 38> H -2.2285636202 -1.186118803 3.5755915545
| 39> H -0.1020377626 -0.109630253 2.8154001793
| 40> H -1.0091820029 1.3463177905 2.3575872948
| 41> H -0.8912374065 0.8768108502 4.0603335919
| 42> H -3.4362394484 -0.1488372991 -2.277944125
| 43> H -3.6852192359 -1.9143199012 -2.3686304728
| 44> H -5.9019133193 -1.6416037318 -1.2463679237
| 45> H -5.6591667095 0.1078143785 -1.1826691223
| 46> H -5.8268601843 -0.7017979144 -2.747652157
| 47> *
| 48>
| 49>                          ****END OF INPUT****

CARTESIAN COORDINATES (ANGSTROEM)
---------------------------------
  C      6.029423   -1.199689    0.256380
  C      4.588906   -1.424066   -0.155721
  O      3.881803   -0.176322    0.009436
  P      2.465991    0.056866   -0.669610
  S      2.372176   -0.261823   -2.596183
  O      2.129593    1.546915   -0.298529
  C      2.160632    2.069692    1.053583
  C      3.480127    2.758980    1.330828
  S      1.183498   -1.179378    0.505920
  C     -0.212397   -1.138091   -0.637406
  S     -1.012547    0.499472   -0.697173
  P     -2.798271   -0.014161    0.355542
  S     -3.968362    1.507986    0.731471
  O     -2.360567   -0.892153    1.596123
  C     -2.237045   -0.320941    2.911712
  C     -0.971448    0.501511    3.045414
  O     -3.380313   -1.223075   -0.497798
  C     -3.931178   -1.007975   -1.811298
  C     -5.431147   -0.797173   -1.741616
  H      6.075152   -0.878581    1.292903
  H      6.579735   -2.127984    0.143925
  H      6.482810   -0.437110   -0.370719
  H      4.104339   -2.175233    0.473557
  H      4.513416   -1.730354   -1.204143
  H      1.325422    2.771778    1.091154
  H      1.988022    1.249594    1.755895
  H      4.296560    2.043982    1.276009
  H      3.651379    3.543498    0.598904
  H      3.449374    3.195617    2.324144
  H     -0.931118   -1.881870   -0.301506
  H      0.156545   -1.353847   -1.640875
  H     -3.120690    0.294557    3.109603
  H     -2.228564   -1.186119    3.575592
  H     -0.102038   -0.109630    2.815400
  H     -1.009182    1.346318    2.357587
  H     -0.891237    0.876811    4.060334
  H     -3.436239   -0.148837   -2.277944
  H     -3.685219   -1.914320   -2.368630
  H     -5.901913   -1.641604   -1.246368
  H     -5.659167    0.107814   -1.182669
  H     -5.826860   -0.701798   -2.747652

 Total Charge           Charge          ....    0
 Multiplicity           Mult            ....    1
 Number of Electrons    NEL             ....  202
 Basis Dimension        Dim             ....  539

ORBITAL ENERGIES
----------------

  NO   OCC          E(Eh)            E(eV)
   0   2.0000     -88.579847     -2410.3802
   1   2.0000     -88.574653     -2410.2389
   2   2.0000     -88.523080     -2408.8355
   3   2.0000     -88.522976     -2408.8326
   4   2.0000     -76.918327     -2093.0541
   5   2.0000     -76.915253     -2092.9704
   6   2.0000     -19.001418      -517.0549
   7   2.0000     -18.997460      -516.9472
   8   2.0000     -18.995581      -516.8960
   9   2.0000     -18.991487      -516.7846
  10   2.0000     -10.106965      -275.0245
  11   2.0000     -10.106211      -275.0040
  12   2.0000     -10.105958      -274.9971
  13   2.0000     -10.100509      -274.8488
  14   2.0000     -10.099541      -274.8225
  15   2.0000     -10.039840      -273.1979
  16   2.0000     -10.034529      -273.0534
  17   2.0000     -10.029590      -272.9190
  18   2.0000     -10.024064      -272.7686
  19   2.0000      -7.874279      -214.2700
  20   2.0000      -7.868265      -214.1064
  21   2.0000      -7.817742      -212.7316
  22   2.0000      -7.817688      -212.7301
  23   2.0000      -6.596977      -179.5129
  24   2.0000      -6.593676      -179.4231
  25   2.0000      -5.820924      -158.3954
  26   2.0000      -5.818123      -158.3192
  27   2.0000      -5.815468      -158.2469
  28   2.0000      -5.811872      -158.1491
  29   2.0000      -5.811627      -158.1424
  30   2.0000      -5.805438      -157.9740
  31   2.0000      -5.765410      -156.8848
  32   2.0000      -5.765379      -156.8839
  33   2.0000      -5.758085      -156.6855
  34   2.0000      -5.757909      -156.6807
  35   2.0000      -5.757716      -156.6754
  36   2.0000      -5.757679      -156.6744
  37   2.0000      -4.742794      -129.0580
  38   2.0000      -4.742009      -129.0366
  39   2.0000      -4.740293      -128.9899
  40   2.0000      -4.739070      -128.9567
  41   2.0000      -4.738953      -128.9535
  42   2.0000      -4.737172      -128.9050
  43   2.0000      -1.058444       -28.8017
  44   2.0000      -1.055253       -28.7149
  45   2.0000      -1.018025       -27.7019
  46   2.0000      -1.013092       -27.5676
  47   2.0000      -0.802050       -21.8249
  48   2.0000      -0.763251       -20.7691
  49   2.0000      -0.754149       -20.5214
  50   2.0000      -0.742417       -20.2022
  51   2.0000      -0.728274       -19.8173
  52   2.0000      -0.713264       -19.4089
  53   2.0000      -0.690127       -18.7793
  54   2.0000      -0.671398       -18.2697
  55   2.0000      -0.629757       -17.1366
  56   2.0000      -0.625807       -17.0291
  57   2.0000      -0.608996       -16.5716
  58   2.0000      -0.602295       -16.3893
  59   2.0000      -0.596297       -16.2261
  60   2.0000      -0.538470       -14.6525
  61   2.0000      -0.527705       -14.3596
  62   2.0000      -0.507067       -13.7980
  63   2.0000      -0.494108       -13.4453
  64   2.0000      -0.476078       -12.9547
  65   2.0000      -0.469622       -12.7791
  66   2.0000      -0.465967       -12.6796
  67   2.0000      -0.459029       -12.4908
  68   2.0000      -0.443485       -12.0678
  69   2.0000      -0.440649       -11.9907
  70   2.0000      -0.425880       -11.5888
  71   2.0000      -0.416354       -11.3296
  72   2.0000      -0.414100       -11.2682
  73   2.0000      -0.410270       -11.1640
  74   2.0000      -0.401155       -10.9160
  75   2.0000      -0.388008       -10.5582
  76   2.0000      -0.383747       -10.4423
  77   2.0000      -0.378510       -10.2998
  78   2.0000      -0.373365       -10.1598
  79   2.0000      -0.371746       -10.1157
  80   2.0000      -0.366723        -9.9790
  81   2.0000      -0.364335        -9.9141
  82   2.0000      -0.360301        -9.8043
  83   2.0000      -0.351511        -9.5651
  84   2.0000      -0.344861        -9.3841
  85   2.0000      -0.340030        -9.2527
  86   2.0000      -0.333510        -9.0753
  87   2.0000      -0.322904        -8.7867
  88   2.0000      -0.314430        -8.5561
  89   2.0000      -0.312675        -8.5083
  90   2.0000      -0.306224        -8.3328
  91   2.0000      -0.295332        -8.0364
  92   2.0000      -0.289027        -7.8648
  93   2.0000      -0.281560        -7.6616
  94   2.0000      -0.272735        -7.4215
  95   2.0000      -0.250522        -6.8170
  96   2.0000      -0.237085        -6.4514
  97   2.0000      -0.223932        -6.0935
  98   2.0000      -0.221422        -6.0252
  99   2.0000      -0.217946        -5.9306
 100   2.0000      -0.213698        -5.8150
 101   0.0000      -0.044622        -1.2142
 102   0.0000      -0.031210        -0.8493
 103   0.0000      -0.013729        -0.3736
 104   0.0000       0.005752         0.1565
 105   0.0000       0.011382         0.3097

MULLIKEN ATOMIC CHARGES
-----------------------
   0 C :   -0.441388
   1 C :   -0.150479
   2 O :   -0.287222
   3 P :    0.661383
   4 S :   -0.437804
   5 O :   -0.265246
   6 C :   -0.105165
   7 C :   -0.462098
   8 S :   -0.187356
   9 C :   -0.206470
  10 S :   -0.148707
  11 P :    0.687434
  12 S :   -0.450647
  13 O :   -0.300170
  14 C :   -0.150827
  15 C :   -0.449972
  16 O :   -0.318006
  17 C :   -0.127602
  18 C :   -0.445691
  19 H :    0.150929
  20 H :    0.148839
  21 H :    0.160952
  22 H :    0.151593
  23 H :    0.171686
  24 H :    0.165036
  25 H :    0.155287
  26 H :    0.164501
  27 H :    0.159798
  28 H :    0.147198
  29 H :    0.200037
  30 H :    0.220713
  31 H :    0.173621
  32 H :    0.150169
  33 H :    0.163642
  34 H :    0.173235
  35 H :    0.146373
  36 H :    0.158804
  37 H :    0.148923
  38 H :    0.151517
  39 H :    0.178237
  40 H :    0.144944
Sum of atomic charges:   -0.0000000

LOEWDIN ATOMIC CHARGES
----------------------
   0 C :   -0.385630
   1 C :    0.020662
   2 O :   -0.673749
   3 P :    0.371389
   4 S :   -0.100245
   5 O :   -0.647537
   6 C :    0.022316
   7 C :   -0.391788
   8 S :    0.120144
   9 C :   -0.414876
  10 S :    0.155486
  11 P :    0.366592
  12 S :   -0.108403
  13 O :   -0.661257
  14 C :    0.023173
  15 C :   -0.412060
  16 O :   -0.669924
  17 C :    0.022029
  18 C :   -0.399267
  19 H :    0.158486
  20 H :    0.161396
  21 H :    0.162681
  22 H :    0.172314
  23 H :    0.182066
  24 H :    0.184497
  25 H :    0.175313
  26 H :    0.165846
  27 H :    0.162850
  28 H :    0.159352
  29 H :    0.196020
  30 H :    0.192462
  31 H :    0.181828
  32 H :    0.180022
  33 H :    0.162085
  34 H :    0.166042
  35 H :    0.158416
  36 H :    0.177610
  37 H :    0.177954
  38 H :    0.158829
  39 H :    0.168742
  40 H :    0.158134

  Mayer bond orders larger than 0.100000
B(  0-C ,  1-C ) :   0.9566 B(  0-C , 19-H ) :   0.9717 B(  0-C , 20-H ) :   0.9629
B(  0-C , 21-H ) :   0.9708 B(  1-C ,  2-O ) :   0.7856 B(  1-C , 22-H ) :   0.9416
B(  1-C , 23-H ) :   0.9499 B(  2-O ,  3-P ) :   1.0537 B(  3-P ,  4-S ) :   1.8508
B(  3-P ,  5-O ) :   1.1597 B(  3-P ,  8-S ) :   0.9783 B(  5-O ,  6-C ) :   0.7401
B(  6-C ,  7-C ) :   0.9439 B(  6-C , 24-H ) :   0.9579 B(  6-C , 25-H ) :   0.9654
B(  7-C , 26-H ) :   0.9668 B(  7-C , 27-H ) :   0.9710 B(  7-C , 28-H ) :   0.9651
B(  8-S ,  9-C ) :   0.9275 B(  9-C , 10-S ) :   0.8899 B(  9-C , 29-H ) :   0.9141
B(  9-C , 30-H ) :   0.9084 B( 10-S , 11-P ) :   1.0496 B( 11-P , 12-S ) :   1.8151
B( 11-P , 13-O ) :   1.1048 B( 11-P , 16-O ) :   1.0815 B( 13-O , 14-C ) :   0.8060
B( 14-C , 15-C ) :   0.9328 B( 14-C , 31-H ) :   0.9644 B( 14-C , 32-H ) :   0.9607
B( 15-C , 33-H ) :   0.9583 B( 15-C , 34-H ) :   0.9611 B( 15-C , 35-H ) :   0.9599
B( 16-O , 17-C ) :   0.7806 B( 17-C , 18-C ) :   0.9560 B( 17-C , 36-H ) :   0.9610
B( 17-C , 37-H ) :   0.9617 B( 18-C , 38-H ) :   0.9745 B( 18-C , 39-H ) :   0.9561
B( 18-C , 40-H ) :   0.9652

Dispersion correction           -0.020677480
FINAL SINGLE POINT ENERGY     -2932.463631225751

DIPOLE MOMENT
-------------

Method             : SCF
Type of density    : Electron Density
Multiplicity       :   1
Irrep              :   0
Energy             : -2932.4894253259208199 Eh
Relativity type    :
Basis              : AO
                                X                 Y                 Z
Electronic contribution:     -8.547315062       0.028763368      -9.917043285
Nuclear contribution   :      9.564879945      -0.869888367      11.173463586
                        -----------------------------------------
Total Dipole Moment    :      1.017564883      -0.841124999       1.256420302
                        -----------------------------------------
Magnitude (a.u.)       :      1.822504192
Magnitude (Debye)      :      4.632437509

Rotational constants in cm-1:             0.013713             0.004153             0.003779
Rotational constants in MHz :           411.118899           124.517585           113.283663

                             ****ORCA TERMINATED NORMALLY****
TOTAL RUN TIME: 0 days 0 hours 1 minutes 15 seconds 927 msec
