                         Program Version 6.0.0  -   RELEASE  -
|  1> ! r2scan-3c def2/J RI DEFGRID2 scfconv6 printgap
|  2> %output
|  3>     printlevel normal
|  4> end
|  5> %cpcm
|  6>     smd true
|  7>     smdsolvent "water"
|  8> end
|  9> * xyz 0 1
| 10> C 6.0294232501 -1.1996885735 0.2563800257
| 11> C 4.5889059961 -1.4240662403 -0.1557210587
| 12> O 3.8818025143 -0.1763224325 0.0094361383
| 13> P 2.4659905549 0.0568663668 -0.669610319
| 14> S 2.3721757822 -0.2618228125 -2.5961825762
| 15> O 2.129592939 1.546914668 -0.2985289402
| 16> C 2.1606322432 2.0696920736 1.0535829632
| 17> C 3.4801271999 2.7589798225 1.3308279234
| 18> S 1.1834980525 -1.1793777386 0.5059199224
| 19> C -0.212396614 -1.1380914955 -0.6374064677
| 20> S -1.0125472381 0.4994724347 -0.6971733761
| 21> P -2.7982705911 -0.0141607725 0.3555417771
| 22> S -3.9683615455 1.507985986 0.7314709152
| 23> O -2.3605672725 -0.8921528426 1.5961228451
| 24> C -2.2370446788 -0.3209406905 2.9117118549
| 25> C -0.971448389 0.5015105653 3.045414005
| 26> O -3.3803126081 -1.223075361 -0.4977979577
| 27> C -3.9311782258 -1.0079745779 -1.8112978883
| 28> C -5.4311470215 -0.79717305 -1.7416159737
| 29> H 6.0751518748 -0.8785805272 1.2929030286
| 30> H 6.5797354362 -2.1279837735 0.1439249161
| 31> H 6.4828100785 -0.4371096676 -0.3707188622
| 32> H 4.1043386954 -2.175232691 0.4735568692
| 33> H 4.5134155627 -1.730353637 -1.2041428414
| 34> H 1.325422264 2.771778282 1.091154303
| 35> H 1.9880219716 1.2495935229 1.7558950091
| 36> H 4.2965604748 2.0439819001 1.2760086924
| 37> H 3.6513793945 3.5434977625 0.5989042389
| 38> H 3.4493736843 3.1956170741 2.3241438395
| 39> H -0.9311177526 -1.8818704462 -0.30150632
| 40> H 0.1565447754 -1.353847145 -1.6408747601
| 41> H -3.1206899654 0.2945568811 3.1096026726
| 42> H -2.2285636202 -1.186118803 3.5755915545
| 43> H -0.1020377626 -0.109630253 2.8154001793
| 44> H -1.0091820029 1.3463177905 2.3575872948
| 45> H -0.8912374065 0.8768108502 4.0603335919
| 46> H -3.4362394484 -0.1488372991 -2.277944125
| 47> H -3.6852192359 -1.9143199012 -2.3686304728
| 48> H -5.9019133193 -1.6416037318 -1.2463679237
| 49> H -5.6591667095 0.1078143785 -1.1826691223
| 50> H -5.8268601843 -0.7017979144 -2.747652157
| 51> *
| 52>
| 53>                          ****END OF INPUT****

CARTESIAN COORDINATES (ANGSTROEM)
---------------------------------
  C      6.029423   -1.199689    0.256380
  C      4.588906   -1.424066   -0.155721
  O      3.881803   -0.176322    0.009436
  P      2.465991    0.056866   -0.669610
  S      2.372176   -0.261823   -2.596183
  O      2.129593    1.546915   -0.298529
  C      2.160632    2.069692    1.053583
  C      3.480127    2.758980    1.330828
  S      1.183498   -1.179378    0.505920
  C     -0.212397   -1.138091   -0.637406
  S     -1.012547    0.499472   -0.697173
  P     -2.798271   -0.014161    0.355542
  S     -3.968362    1.507986    0.731471
  O     -2.360567   -0.892153    1.596123
  C     -2.237045   -0.320941    2.911712
  C     -0.971448    0.501511    3.045414
  O     -3.380313   -1.223075   -0.497798
  C     -3.931178   -1.007975   -1.811298
  C     -5.431147   -0.797173   -1.741616
  H      6.075152   -0.878581    1.292903
  H      6.579735   -2.127984    0.143925
  H      6.482810   -0.437110   -0.370719
  H      4.104339   -2.175233    0.473557
  H      4.513416   -1.730354   -1.204143
  H      1.325422    2.771778    1.091154
  H      1.988022    1.249594    1.755895
  H      4.296560    2.043982    1.276009
  H      3.651379    3.543498    0.598904
  H      3.449374    3.195617    2.324144
  H     -0.931118   -1.881870   -0.301506
  H      0.156545   -1.353847   -1.640875
  H     -3.120690    0.294557    3.109603
  H     -2.228564   -1.186119    3.575592
  H     -0.102038   -0.109630    2.815400
  H     -1.009182    1.346318    2.357587
  H     -0.891237    0.876811    4.060334
  H     -3.436239   -0.148837   -2.277944
  H     -3.685219   -1.914320   -2.368630
  H     -5.901913   -1.641604   -1.246368
  H     -5.659167    0.107814   -1.182669
  H     -5.826860   -0.701798   -2.747652

 Total Charge           Charge          ....    0
 Multiplicity           Mult            ....    1
 Number of Electrons    NEL             ....  202
 Basis Dimension        Dim             ....  539

ORBITAL ENERGIES
----------------

  NO   OCC          E(Eh)            E(eV)
   0   2.0000     -88.580031     -2410.3852
   1   2.0000     -88.578600     -2410.3463
   2   2.0000     -88.532038     -2409.0792
   3   2.0000     -88.531590     -2409.0671
   4   2.0000     -76.921814     -2093.1490
   5   2.0000     -76.920950     -2093.1255
   6   2.0000     -18.999027      -516.9898
   7   2.0000     -18.998709      -516.9812
   8   2.0000     -18.997644      -516.9522
   9   2.0000     -18.994567      -516.8684
  10   2.0000     -10.105113      -274.9741
  11   2.0000     -10.093602      -274.6609
  12   2.0000     -10.092272      -274.6247
  13   2.0000     -10.091095      -274.5927
  14   2.0000     -10.090381      -274.5732
  15   2.0000     -10.020458      -272.6705
  16   2.0000     -10.019089      -272.6333
  17   2.0000     -10.017505      -272.5902
  18   2.0000     -10.016644      -272.5667
  19   2.0000      -7.874357      -214.2722
  20   2.0000      -7.872369      -214.2180
  21   2.0000      -7.827035      -212.9845
  22   2.0000      -7.826690      -212.9751
  23   2.0000      -6.600515      -179.6091
  24   2.0000      -6.599429      -179.5796
  25   2.0000      -5.821035      -158.3984
  26   2.0000      -5.819537      -158.3576
  27   2.0000      -5.818236      -158.3223
  28   2.0000      -5.815965      -158.2605
  29   2.0000      -5.811651      -158.1431
  30   2.0000      -5.809578      -158.0867
  31   2.0000      -5.774583      -157.1344
  32   2.0000      -5.774272      -157.1259
  33   2.0000      -5.767329      -156.9370
  34   2.0000      -5.767084      -156.9303
  35   2.0000      -5.766891      -156.9251
  36   2.0000      -5.766767      -156.9217
  37   2.0000      -4.746277      -129.1528
  38   2.0000      -4.745485      -129.1312
  39   2.0000      -4.744774      -129.1119
  40   2.0000      -4.744685      -129.1094
  41   2.0000      -4.743989      -129.0905
  42   2.0000      -4.743027      -129.0643
  43   2.0000      -1.057595       -28.7786
  44   2.0000      -1.057410       -28.7736
  45   2.0000      -1.016562       -27.6621
  46   2.0000      -1.014435       -27.6042
  47   2.0000      -0.802219       -21.8295
  48   2.0000      -0.757680       -20.6175
  49   2.0000      -0.747492       -20.3403
  50   2.0000      -0.728740       -19.8300
  51   2.0000      -0.719821       -19.5873
  52   2.0000      -0.712611       -19.3911
  53   2.0000      -0.693191       -18.8627
  54   2.0000      -0.676238       -18.4014
  55   2.0000      -0.626436       -17.0462
  56   2.0000      -0.618768       -16.8375
  57   2.0000      -0.600828       -16.3494
  58   2.0000      -0.595223       -16.1968
  59   2.0000      -0.591534       -16.0965
  60   2.0000      -0.532230       -14.4827
  61   2.0000      -0.523606       -14.2480
  62   2.0000      -0.500350       -13.6152
  63   2.0000      -0.491191       -13.3660
  64   2.0000      -0.474637       -12.9155
  65   2.0000      -0.463122       -12.6022
  66   2.0000      -0.461326       -12.5533
  67   2.0000      -0.450873       -12.2689
  68   2.0000      -0.438242       -11.9252
  69   2.0000      -0.434612       -11.8264
  70   2.0000      -0.422277       -11.4907
  71   2.0000      -0.412658       -11.2290
  72   2.0000      -0.408816       -11.1245
  73   2.0000      -0.404150       -10.9975
  74   2.0000      -0.392132       -10.6705
  75   2.0000      -0.384706       -10.4684
  76   2.0000      -0.380143       -10.3442
  77   2.0000      -0.370541       -10.0829
  78   2.0000      -0.366732        -9.9793
  79   2.0000      -0.361525        -9.8376
  80   2.0000      -0.356452        -9.6996
  81   2.0000      -0.351185        -9.5562
  82   2.0000      -0.350652        -9.5417
  83   2.0000      -0.344983        -9.3875
  84   2.0000      -0.342054        -9.3078
  85   2.0000      -0.337908        -9.1950
  86   2.0000      -0.326614        -8.8876
  87   2.0000      -0.316118        -8.6020
  88   2.0000      -0.308110        -8.3841
  89   2.0000      -0.304989        -8.2992
  90   2.0000      -0.303150        -8.2491
  91   2.0000      -0.291476        -7.9315
  92   2.0000      -0.286653        -7.8002
  93   2.0000      -0.279411        -7.6031
  94   2.0000      -0.274577        -7.4716
  95   2.0000      -0.252822        -6.8796
  96   2.0000      -0.243166        -6.6169
  97   2.0000      -0.233896        -6.3646
  98   2.0000      -0.231417        -6.2972
  99   2.0000      -0.226539        -6.1644
 100   2.0000      -0.219900        -5.9838
 101   0.0000      -0.047347        -1.2884
 102   0.0000      -0.036531        -0.9941
 103   0.0000      -0.016969        -0.4617
 104   0.0000       0.000515         0.0140
 105   0.0000       0.011124         0.3027

MULLIKEN ATOMIC CHARGES
-----------------------
   0 C :   -0.482145
   1 C :   -0.137109
   2 O :   -0.302764
   3 P :    0.671073
   4 S :   -0.500040
   5 O :   -0.296692
   6 C :   -0.095805
   7 C :   -0.503622
   8 S :   -0.173100
   9 C :   -0.210541
  10 S :   -0.180457
  11 P :    0.711920
  12 S :   -0.502569
  13 O :   -0.320270
  14 C :   -0.144033
  15 C :   -0.478821
  16 O :   -0.338405
  17 C :   -0.118355
  18 C :   -0.489455
  19 H :    0.166635
  20 H :    0.170187
  21 H :    0.167351
  22 H :    0.170555
  23 H :    0.172859
  24 H :    0.182642
  25 H :    0.173553
  26 H :    0.169498
  27 H :    0.168193
  28 H :    0.171921
  29 H :    0.229753
  30 H :    0.232628
  31 H :    0.175106
  32 H :    0.176739
  33 H :    0.172337
  34 H :    0.170707
  35 H :    0.171634
  36 H :    0.165978
  37 H :    0.177267
  38 H :    0.166364
  39 H :    0.169582
  40 H :    0.169705
Sum of atomic charges:   -0.0000000

LOEWDIN ATOMIC CHARGES
----------------------
   0 C :   -0.388670
   1 C :    0.026254
   2 O :   -0.677849
   3 P :    0.373352
   4 S :   -0.148704
   5 O :   -0.669432
   6 C :    0.028790
   7 C :   -0.394193
   8 S :    0.134926
   9 C :   -0.407594
  10 S :    0.137878
  11 P :    0.372078
  12 S :   -0.145505
  13 O :   -0.669171
  14 C :    0.027782
  15 C :   -0.410920
  16 O :   -0.680218
  17 C :    0.027347
  18 C :   -0.404484
  19 H :    0.163502
  20 H :    0.169610
  21 H :    0.163632
  22 H :    0.180355
  23 H :    0.182279
  24 H :    0.191536
  25 H :    0.183256
  26 H :    0.165940
  27 H :    0.164043
  28 H :    0.169456
  29 H :    0.206723
  30 H :    0.196026
  31 H :    0.182408
  32 H :    0.191325
  33 H :    0.164479
  34 H :    0.162859
  35 H :    0.168064
  36 H :    0.180643
  37 H :    0.189840
  38 H :    0.162324
  39 H :    0.162566
  40 H :    0.167469

  Mayer bond orders larger than 0.100000
B(  0-C ,  1-C ) :   0.9555 B(  0-C , 19-H ) :   0.9680 B(  0-C , 20-H ) :   0.9575
B(  0-C , 21-H ) :   0.9690 B(  1-C ,  2-O ) :   0.7762 B(  1-C , 22-H ) :   0.9321
B(  1-C , 23-H ) :   0.9473 B(  2-O ,  3-P ) :   1.0665 B(  3-P ,  4-S ) :   1.8184
B(  3-P ,  5-O ) :   1.1650 B(  3-P ,  8-S ) :   0.9986 B(  5-O ,  6-C ) :   0.7299
B(  6-C ,  7-C ) :   0.9358 B(  6-C , 24-H ) :   0.9489 B(  6-C , 25-H ) :   0.9553
B(  7-C , 26-H ) :   0.9662 B(  7-C , 27-H ) :   0.9700 B(  7-C , 28-H ) :   0.9585
B(  8-S ,  9-C ) :   0.9233 B(  9-C , 10-S ) :   0.8836 B(  9-C , 29-H ) :   0.9054
B(  9-C , 30-H ) :   0.9046 B( 10-S , 11-P ) :   1.0554 B( 11-P , 12-S ) :   1.7835
B( 11-P , 13-O ) :   1.1161 B( 11-P , 16-O ) :   1.0891 B( 13-O , 14-C ) :   0.7929
B( 14-C , 15-C ) :   0.9226 B( 14-C , 31-H ) :   0.9606 B( 14-C , 32-H ) :   0.9493
B( 15-C , 33-H ) :   0.9579 B( 15-C , 34-H ) :   0.9619 B( 15-C , 35-H ) :   0.9551
B( 16-O , 17-C ) :   0.7692 B( 17-C , 18-C ) :   0.9416 B( 17-C , 36-H ) :   0.9556
B( 17-C , 37-H ) :   0.9524 B( 18-C , 38-H ) :   0.9728 B( 18-C , 39-H ) :   0.9610
B( 18-C , 40-H ) :   0.9598

Dispersion correction           -0.020677480
FINAL SINGLE POINT ENERGY     -2932.474049218481

DIPOLE MOMENT
-------------

Method             : SCF
Type of density    : Electron Density
Multiplicity       :   1
Irrep              :   0
Energy             : -2932.4998433186501643 Eh
Relativity type    :
Basis              : AO
                                X                 Y                 Z
Electronic contribution:     -8.284345613      -0.471711027      -9.307247906
Nuclear contribution   :      9.564879945      -0.869888367      11.173463586
                        -----------------------------------------
Total Dipole Moment    :      1.280534332      -1.341599394       1.866215681
                        -----------------------------------------
Magnitude (a.u.)       :      2.631048855
Magnitude (Debye)      :      6.687594716

Rotational constants in cm-1:             0.013713             0.004153             0.003779
Rotational constants in MHz :           411.118899           124.517585           113.283663

                             ****ORCA TERMINATED NORMALLY****
TOTAL RUN TIME: 0 days 0 hours 1 minutes 46 seconds 293 msec
