                         Program Version 6.0.0  -   RELEASE  -
|  1> ! pbe def2-sv(p) def2/J RI DEFGRID1 loosescf d4 GCP(DFT/SV(P)) printgap
|  2> %output
|  3>     printlevel normal
|  4> end
|  5> * xyz 0 1
|  6> C 3.9065795448 -1.2119493168 -2.7541970816
|  7> C 4.2608226189 -1.5496464458 -1.3203698287
|  8> O 3.0950655708 -1.6457526558 -0.4834199402
|  9> P 2.2001342845 -0.3822840784 -0.1143649826
| 10> S 3.2209706642 1.2585800428 0.2386499687
| 11> O 1.354153764 -0.9586747607 1.0933136938
| 12> C 1.7862582051 -0.8634733201 2.4683349884
| 13> C 0.5598787881 -0.7240499302 3.3469285672
| 14> S 0.7184944026 -0.3165876333 -1.6074809742
| 15> C 0.1593033804 1.37895904 -1.2850389593
| 16> S -0.4953974054 1.6095705962 0.3858622548
| 17> P -2.2029948546 0.3806094649 0.1827765624
| 18> S -3.0469853405 0.2934486018 -1.5890805701
| 19> O -3.1186875826 0.8458648441 1.3976846534
| 20> C -3.5242460937 2.196924032 1.6845762113
| 21> C -4.1351289788 2.9008327298 0.4906263169
| 22> O -1.7162956796 -1.0152281549 0.7469434306
| 23> C -2.2517052785 -2.2908760705 0.3369310388
| 24> C -1.2000126727 -3.0926246576 -0.4048592246
| 25> H 4.799960956 -1.2677347021 -3.3678471846
| 26> H 3.1622244149 -1.9073958805 -3.1339367664
| 27> H 3.5027716493 -0.2018233163 -2.8100340452
| 28> H 4.92543119 -0.7888321794 -0.8986152101
| 29> H 4.723143422 -2.5342681067 -1.2394921932
| 30> H 2.3451274817 -1.7728888273 2.701314955
| 31> H 2.448725533 0.0035287575 2.5689936309
| 32> H 0.0235455826 0.1891613769 3.1002177114
| 33> H -0.1063109452 -1.5681167041 3.1929938986
| 34> H 0.8683145561 -0.6892134658 4.3867445819
| 35> H -0.620107612 1.5863199275 -2.0181331018
| 36> H 0.9969550636 2.0684382705 -1.3825598484
| 37> H -4.2493877309 2.0796168925 2.4919909041
| 38> H -2.6498097051 2.743553356 2.0489197331
| 39> H -4.9550775439 2.3146838918 0.0823201003
| 40> H -4.5066633194 3.8729869315 0.7983811346
| 41> H -3.3875753853 3.0381093173 -0.2893809979
| 42> H -2.5525485903 -2.786901894 1.2616567581
| 43> H -3.1312226334 -2.1269249611 -0.2933927343
| 44> H -0.2757340208 -3.1144175362 0.1672940497
| 45> H -1.5605143616 -4.1061460438 -0.5482592872
| 46> H -0.9978335987 -2.6451426638 -1.3753184792
| 47> *
| 48>
| 49>                          ****END OF INPUT****

CARTESIAN COORDINATES (ANGSTROEM)
---------------------------------
  C      3.906580   -1.211949   -2.754197
  C      4.260823   -1.549646   -1.320370
  O      3.095066   -1.645753   -0.483420
  P      2.200134   -0.382284   -0.114365
  S      3.220971    1.258580    0.238650
  O      1.354154   -0.958675    1.093314
  C      1.786258   -0.863473    2.468335
  C      0.559879   -0.724050    3.346929
  S      0.718494   -0.316588   -1.607481
  C      0.159303    1.378959   -1.285039
  S     -0.495397    1.609571    0.385862
  P     -2.202995    0.380609    0.182777
  S     -3.046985    0.293449   -1.589081
  O     -3.118688    0.845865    1.397685
  C     -3.524246    2.196924    1.684576
  C     -4.135129    2.900833    0.490626
  O     -1.716296   -1.015228    0.746943
  C     -2.251705   -2.290876    0.336931
  C     -1.200013   -3.092625   -0.404859
  H      4.799961   -1.267735   -3.367847
  H      3.162224   -1.907396   -3.133937
  H      3.502772   -0.201823   -2.810034
  H      4.925431   -0.788832   -0.898615
  H      4.723143   -2.534268   -1.239492
  H      2.345127   -1.772889    2.701315
  H      2.448726    0.003529    2.568994
  H      0.023546    0.189161    3.100218
  H     -0.106311   -1.568117    3.192994
  H      0.868315   -0.689213    4.386745
  H     -0.620108    1.586320   -2.018133
  H      0.996955    2.068438   -1.382560
  H     -4.249388    2.079617    2.491991
  H     -2.649810    2.743553    2.048920
  H     -4.955078    2.314684    0.082320
  H     -4.506663    3.872987    0.798381
  H     -3.387575    3.038109   -0.289381
  H     -2.552549   -2.786902    1.261657
  H     -3.131223   -2.126925   -0.293393
  H     -0.275734   -3.114418    0.167294
  H     -1.560514   -4.106146   -0.548259
  H     -0.997834   -2.645143   -1.375318

 Total Charge           Charge          ....    0
 Multiplicity           Mult            ....    1
 Number of Electrons    NEL             ....  202
 Basis Dimension        Dim             ....  334

ORBITAL ENERGIES
----------------

  NO   OCC          E(Eh)            E(eV)
   0   2.0000     -88.046161     -2395.8578
   1   2.0000     -88.045017     -2395.8267
   2   2.0000     -87.989580     -2394.3182
   3   2.0000     -87.986517     -2394.2348
   4   2.0000     -76.426735     -2079.6772
   5   2.0000     -76.426641     -2079.6746
   6   2.0000     -18.793889      -511.4077
   7   2.0000     -18.791376      -511.3393
   8   2.0000     -18.787395      -511.2310
   9   2.0000     -18.784157      -511.1429
  10   2.0000      -9.957359      -270.9535
  11   2.0000      -9.956935      -270.9420
  12   2.0000      -9.952620      -270.8246
  13   2.0000      -9.948246      -270.7055
  14   2.0000      -9.946294      -270.6524
  15   2.0000      -9.884574      -268.9729
  16   2.0000      -9.882619      -268.9197
  17   2.0000      -9.880182      -268.8534
  18   2.0000      -9.874194      -268.6905
  19   2.0000      -7.691035      -209.2837
  20   2.0000      -7.689967      -209.2546
  21   2.0000      -7.634516      -207.7457
  22   2.0000      -7.631495      -207.6635
  23   2.0000      -6.424343      -174.8153
  24   2.0000      -6.423794      -174.8003
  25   2.0000      -5.718829      -155.6172
  26   2.0000      -5.717885      -155.5916
  27   2.0000      -5.715531      -155.5275
  28   2.0000      -5.714535      -155.5004
  29   2.0000      -5.708091      -155.3251
  30   2.0000      -5.706769      -155.2891
  31   2.0000      -5.663299      -154.1062
  32   2.0000      -5.660336      -154.0256
  33   2.0000      -5.655157      -153.8846
  34   2.0000      -5.654821      -153.8755
  35   2.0000      -5.652312      -153.8072
  36   2.0000      -5.651552      -153.7866
  37   2.0000      -4.646739      -126.4442
  38   2.0000      -4.646222      -126.4301
  39   2.0000      -4.646064      -126.4258
  40   2.0000      -4.645750      -126.4173
  41   2.0000      -4.644979      -126.3963
  42   2.0000      -4.644264      -126.3769
  43   2.0000      -0.985749       -26.8236
  44   2.0000      -0.983136       -26.7525
  45   2.0000      -0.943926       -25.6855
  46   2.0000      -0.940670       -25.5969
  47   2.0000      -0.768319       -20.9070
  48   2.0000      -0.721856       -19.6427
  49   2.0000      -0.708501       -19.2793
  50   2.0000      -0.686127       -18.6705
  51   2.0000      -0.683259       -18.5924
  52   2.0000      -0.673636       -18.3306
  53   2.0000      -0.650556       -17.7025
  54   2.0000      -0.640673       -17.4336
  55   2.0000      -0.601282       -16.3617
  56   2.0000      -0.590722       -16.0744
  57   2.0000      -0.574864       -15.6428
  58   2.0000      -0.568223       -15.4621
  59   2.0000      -0.555977       -15.1289
  60   2.0000      -0.502177       -13.6649
  61   2.0000      -0.498284       -13.5590
  62   2.0000      -0.473223       -12.8770
  63   2.0000      -0.467598       -12.7240
  64   2.0000      -0.459538       -12.5047
  65   2.0000      -0.441391       -12.0109
  66   2.0000      -0.437164       -11.8958
  67   2.0000      -0.430746       -11.7212
  68   2.0000      -0.428567       -11.6619
  69   2.0000      -0.418502       -11.3880
  70   2.0000      -0.412533       -11.2256
  71   2.0000      -0.395883       -10.7725
  72   2.0000      -0.391558       -10.6548
  73   2.0000      -0.387747       -10.5511
  74   2.0000      -0.381031       -10.3684
  75   2.0000      -0.372090       -10.1251
  76   2.0000      -0.367714       -10.0060
  77   2.0000      -0.354303        -9.6411
  78   2.0000      -0.350650        -9.5417
  79   2.0000      -0.348212        -9.4753
  80   2.0000      -0.345510        -9.4018
  81   2.0000      -0.340972        -9.2783
  82   2.0000      -0.339057        -9.2262
  83   2.0000      -0.336423        -9.1545
  84   2.0000      -0.335390        -9.1264
  85   2.0000      -0.319067        -8.6822
  86   2.0000      -0.304839        -8.2951
  87   2.0000      -0.297635        -8.0990
  88   2.0000      -0.296478        -8.0676
  89   2.0000      -0.289228        -7.8703
  90   2.0000      -0.279629        -7.6091
  91   2.0000      -0.277334        -7.5466
  92   2.0000      -0.269615        -7.3366
  93   2.0000      -0.264931        -7.2091
  94   2.0000      -0.257445        -7.0054
  95   2.0000      -0.232586        -6.3290
  96   2.0000      -0.219685        -5.9779
  97   2.0000      -0.213669        -5.8142
  98   2.0000      -0.207638        -5.6501
  99   2.0000      -0.201649        -5.4871
 100   2.0000      -0.198742        -5.4081
 101   0.0000      -0.047844        -1.3019
 102   0.0000      -0.026113        -0.7106
 103   0.0000      -0.005055        -0.1376
 104   0.0000       0.000476         0.0129
 105   0.0000       0.004927         0.1341

MULLIKEN ATOMIC CHARGES
-----------------------
   0 C :   -0.315654
   1 C :   -0.003848
   2 O :   -0.376096
   3 P :    0.619055
   4 S :   -0.339373
   5 O :   -0.356696
   6 C :   -0.011107
   7 C :   -0.277814
   8 S :   -0.067679
   9 C :   -0.355859
  10 S :   -0.088867
  11 P :    0.617466
  12 S :   -0.336903
  13 O :   -0.373939
  14 C :   -0.008303
  15 C :   -0.310221
  16 O :   -0.356022
  17 C :   -0.003969
  18 C :   -0.296288
  19 H :    0.113641
  20 H :    0.118458
  21 H :    0.125445
  22 H :    0.111591
  23 H :    0.105235
  24 H :    0.100478
  25 H :    0.106629
  26 H :    0.119328
  27 H :    0.117615
  28 H :    0.104526
  29 H :    0.192298
  30 H :    0.190898
  31 H :    0.108531
  32 H :    0.111556
  33 H :    0.127085
  34 H :    0.110871
  35 H :    0.122906
  36 H :    0.100026
  37 H :    0.106889
  38 H :    0.119471
  39 H :    0.101867
  40 H :    0.126771
Sum of atomic charges:   -0.0000000

LOEWDIN ATOMIC CHARGES
----------------------
   0 C :   -0.369187
   1 C :   -0.119396
   2 O :   -0.247830
   3 P :    0.569844
   4 S :   -0.326911
   5 O :   -0.234872
   6 C :   -0.116131
   7 C :   -0.351480
   8 S :    0.113309
   9 C :   -0.479946
  10 S :    0.095340
  11 P :    0.571093
  12 S :   -0.322041
  13 O :   -0.248212
  14 C :   -0.114411
  15 C :   -0.369841
  16 O :   -0.233839
  17 C :   -0.113953
  18 C :   -0.362480
  19 H :    0.131291
  20 H :    0.124633
  21 H :    0.120577
  22 H :    0.110600
  23 H :    0.118731
  24 H :    0.112147
  25 H :    0.106705
  26 H :    0.121869
  27 H :    0.125643
  28 H :    0.126813
  29 H :    0.131042
  30 H :    0.131549
  31 H :    0.121116
  32 H :    0.108693
  33 H :    0.129588
  34 H :    0.129687
  35 H :    0.120004
  36 H :    0.114091
  37 H :    0.106753
  38 H :    0.123781
  39 H :    0.125298
  40 H :    0.120332

  Mayer bond orders larger than 0.100000
B(  0-C ,  1-C ) :   1.1643 B(  0-C , 19-H ) :   0.9380 B(  0-C , 20-H ) :   0.9449
B(  0-C , 21-H ) :   0.9356 B(  1-C ,  2-O ) :   0.9101 B(  1-C , 22-H ) :   0.9160
B(  1-C , 23-H ) :   0.9339 B(  2-O ,  3-P ) :   1.1096 B(  3-P ,  4-S ) :   1.5933
B(  3-P ,  5-O ) :   1.1263 B(  3-P ,  8-S ) :   0.9650 B(  4-S ,  8-S ) :   0.1077
B(  5-O ,  6-C ) :   0.8980 B(  6-C ,  7-C ) :   1.1657 B(  6-C , 24-H ) :   0.9335
B(  6-C , 25-H ) :   0.9058 B(  7-C , 26-H ) :   0.9463 B(  7-C , 27-H ) :   0.9483
B(  7-C , 28-H ) :   0.9400 B(  8-S ,  9-C ) :   1.0029 B(  9-C , 10-S ) :   1.0112
B(  9-C , 29-H ) :   0.8804 B(  9-C , 30-H ) :   0.8858 B( 10-S , 11-P ) :   0.9449
B( 10-S , 12-S ) :   0.1075 B( 11-P , 12-S ) :   1.5938 B( 11-P , 13-O ) :   1.1142
B( 11-P , 16-O ) :   1.1386 B( 13-O , 14-C ) :   0.9167 B( 14-C , 15-C ) :   1.1649
B( 14-C , 31-H ) :   0.9343 B( 14-C , 32-H ) :   0.9279 B( 15-C , 33-H ) :   0.9422
B( 15-C , 34-H ) :   0.9349 B( 15-C , 35-H ) :   0.9344 B( 16-O , 17-C ) :   0.8990
B( 17-C , 18-C ) :   1.1706 B( 17-C , 36-H ) :   0.9332 B( 17-C , 37-H ) :   0.9062
B( 18-C , 38-H ) :   0.9439 B( 18-C , 39-H ) :   0.9387 B( 18-C , 40-H ) :   0.9399

Dispersion correction           -0.067537185
FINAL SINGLE POINT ENERGY     -2929.524583138167

DIPOLE MOMENT
-------------

Method             : SCF
Type of density    : Electron Density
Multiplicity       :   1
Irrep              :   0
Energy             : -2929.6418328480840501 Eh
Relativity type    :
Basis              : AO
                                X                 Y                 Z
Electronic contribution:      1.252757955       6.807411131      -4.531740973
Nuclear contribution   :     -1.137254565      -7.264623575       5.161396325
                        -----------------------------------------
Total Dipole Moment    :      0.115503390      -0.457212445       0.629655352
                        -----------------------------------------
Magnitude (a.u.)       :      0.786670271
Magnitude (Debye)      :      1.999556920

Rotational constants in cm-1:             0.012603             0.005261             0.005123
Rotational constants in MHz :           377.820933           157.733179           153.596731

                             ****ORCA TERMINATED NORMALLY****
TOTAL RUN TIME: 0 days 0 hours 0 minutes 21 seconds 775 msec
