                         Program Version 6.0.1  -  RELEASE   -
|  1> ! pbe def2-sv(p) def2/J RI DEFGRID1 loosescf d4 GCP(DFT/SV(P)) printgap
|  2> %output
|  3>     printlevel normal
|  4> end
|  5> * xyz 0 1
|  6> C 3.3874547155 -3.0807332254 0.5834394259
|  7> C 2.9469187095 -1.6813827543 0.9804538763
|  8> O 2.7278919193 -0.8599328013 -0.1839913406
|  9> C 1.5827549745 -0.9464913541 -0.8176200585
| 10> O 0.6549864973 -1.6620442013 -0.4825247991
| 11> C 1.5183280069 -0.027301422 -2.017662256
| 12> C 0.3050577601 0.8999690558 -1.9007501327
| 13> H 0.2133781864 1.4990734331 -2.8110793756
| 14> C 0.4059225874 1.835981689 -0.7081662578
| 15> O -0.5149608751 2.0085821096 0.0654097787
| 16> O 1.5761821135 2.409438126 -0.6367104758
| 17> C 1.867962106 3.2610555064 0.4932216176
| 18> C 2.4901394523 2.4466878925 1.6151946281
| 19> S -1.2762332961 -0.000560891 -1.7886170301
| 20> P -1.5200099143 -0.3685712998 0.286124599
| 21> S -0.3974697734 -0.204493518 1.8880925703
| 22> O -2.8808634438 0.5033219689 0.3806183386
| 23> C -3.5155273282 0.7429274736 1.635821294
| 24> O -2.0567816039 -1.8795276579 0.3254292891
| 25> C -2.8979156442 -2.4329549994 -0.6949557089
| 26> H 4.2700603295 -3.0305090577 -0.048299306
| 27> H 3.6173694296 -3.647889997 1.479153539
| 28> H 2.5890551572 -3.5854476695 0.0439954566
| 29> H 3.7265590769 -1.158972341 1.534322536
| 30> H 2.0250961413 -1.7089487701 1.5690016768
| 31> H 1.4009036264 -0.6395904353 -2.9127393915
| 32> H 2.4335659528 0.5606164799 -2.0742380594
| 33> H 2.5654146925 4.0005487727 0.0998346659
| 34> H 0.9418940486 3.7384589209 0.8230416125
| 35> H 2.7550379028 3.1068247303 2.4340345908
| 36> H 1.7823883203 1.7027058027 1.9797294033
| 37> H 3.3812720577 1.9381141063 1.2580305396
| 38> H -3.7759820129 -0.1997291873 2.1210160873
| 39> H -4.408165843 1.3184499374 1.4045923995
| 40> H -2.8490777085 1.311846149 2.2858019599
| 41> H -3.417717484 -3.2646145116 -0.2249505236
| 42> H -2.2784358413 -2.7848610335 -1.51903524
| 43> H -3.6087637455 -1.6873732194 -1.0548011948
| 44> *
| 45>
| 46>                          ****END OF INPUT****

CARTESIAN COORDINATES (ANGSTROEM)
---------------------------------
  C      3.387455   -3.080733    0.583439
  C      2.946919   -1.681383    0.980454
  O      2.727892   -0.859933   -0.183991
  C      1.582755   -0.946491   -0.817620
  O      0.654986   -1.662044   -0.482525
  C      1.518328   -0.027301   -2.017662
  C      0.305058    0.899969   -1.900750
  H      0.213378    1.499073   -2.811079
  C      0.405923    1.835982   -0.708166
  O     -0.514961    2.008582    0.065410
  O      1.576182    2.409438   -0.636710
  C      1.867962    3.261056    0.493222
  C      2.490139    2.446688    1.615195
  S     -1.276233   -0.000561   -1.788617
  P     -1.520010   -0.368571    0.286125
  S     -0.397470   -0.204494    1.888093
  O     -2.880863    0.503322    0.380618
  C     -3.515527    0.742927    1.635821
  O     -2.056782   -1.879528    0.325429
  C     -2.897916   -2.432955   -0.694956
  H      4.270060   -3.030509   -0.048299
  H      3.617369   -3.647890    1.479154
  H      2.589055   -3.585448    0.043995
  H      3.726559   -1.158972    1.534323
  H      2.025096   -1.708949    1.569002
  H      1.400904   -0.639590   -2.912739
  H      2.433566    0.560616   -2.074238
  H      2.565415    4.000549    0.099835
  H      0.941894    3.738459    0.823042
  H      2.755038    3.106825    2.434035
  H      1.782388    1.702706    1.979729
  H      3.381272    1.938114    1.258031
  H     -3.775982   -0.199729    2.121016
  H     -4.408166    1.318450    1.404592
  H     -2.849078    1.311846    2.285802
  H     -3.417717   -3.264615   -0.224951
  H     -2.278436   -2.784861   -1.519035
  H     -3.608764   -1.687373   -1.054801

 Total Charge           Charge          ....    0
 Multiplicity           Mult            ....    1
 Number of Electrons    NEL             ....  174
 Basis Dimension        Dim             ....  316

ORBITAL ENERGIES
----------------

  NO   OCC          E(Eh)            E(eV)
   0   2.0000     -88.027958     -2395.3625
   1   2.0000     -87.962619     -2393.5846
   2   2.0000     -76.410791     -2079.2433
   3   2.0000     -18.815903      -512.0068
   4   2.0000     -18.806112      -511.7403
   5   2.0000     -18.765822      -510.6440
   6   2.0000     -18.761972      -510.5392
   7   2.0000     -18.751048      -510.2420
   8   2.0000     -18.738580      -509.9027
   9   2.0000     -10.021490      -272.6986
  10   2.0000     -10.012197      -272.4457
  11   2.0000      -9.955152      -270.8935
  12   2.0000      -9.952984      -270.8345
  13   2.0000      -9.941301      -270.5165
  14   2.0000      -9.931894      -270.2606
  15   2.0000      -9.922806      -270.0133
  16   2.0000      -9.914557      -269.7888
  17   2.0000      -9.883428      -268.9418
  18   2.0000      -9.883014      -268.9305
  19   2.0000      -7.673167      -208.7975
  20   2.0000      -7.607772      -207.0180
  21   2.0000      -6.406001      -174.3161
  22   2.0000      -5.701582      -155.1479
  23   2.0000      -5.698162      -155.0549
  24   2.0000      -5.688986      -154.8052
  25   2.0000      -5.637398      -153.4014
  26   2.0000      -5.628470      -153.1585
  27   2.0000      -5.626998      -153.1184
  28   2.0000      -4.628969      -125.9606
  29   2.0000      -4.627986      -125.9339
  30   2.0000      -4.626481      -125.8930
  31   2.0000      -1.025643       -27.9092
  32   2.0000      -1.012536       -27.5525
  33   2.0000      -0.957304       -26.0496
  34   2.0000      -0.930171       -25.3113
  35   2.0000      -0.917402       -24.9638
  36   2.0000      -0.913620       -24.8609
  37   2.0000      -0.765718       -20.8363
  38   2.0000      -0.709180       -19.2978
  39   2.0000      -0.706923       -19.2363
  40   2.0000      -0.681424       -18.5425
  41   2.0000      -0.652168       -17.7464
  42   2.0000      -0.626035       -17.0353
  43   2.0000      -0.612559       -16.6686
  44   2.0000      -0.599913       -16.3245
  45   2.0000      -0.594382       -16.1740
  46   2.0000      -0.566917       -15.4266
  47   2.0000      -0.508484       -13.8365
  48   2.0000      -0.499137       -13.5822
  49   2.0000      -0.494773       -13.4635
  50   2.0000      -0.481598       -13.1050
  51   2.0000      -0.457923       -12.4607
  52   2.0000      -0.452753       -12.3200
  53   2.0000      -0.450525       -12.2594
  54   2.0000      -0.436934       -11.8896
  55   2.0000      -0.426734       -11.6120
  56   2.0000      -0.414987       -11.2924
  57   2.0000      -0.412597       -11.2273
  58   2.0000      -0.410939       -11.1822
  59   2.0000      -0.399926       -10.8825
  60   2.0000      -0.393132       -10.6977
  61   2.0000      -0.388635       -10.5753
  62   2.0000      -0.384771       -10.4702
  63   2.0000      -0.382737       -10.4148
  64   2.0000      -0.377715       -10.2781
  65   2.0000      -0.364867        -9.9285
  66   2.0000      -0.355861        -9.6835
  67   2.0000      -0.354996        -9.6599
  68   2.0000      -0.346976        -9.4417
  69   2.0000      -0.338626        -9.2145
  70   2.0000      -0.333163        -9.0658
  71   2.0000      -0.325281        -8.8513
  72   2.0000      -0.319094        -8.6830
  73   2.0000      -0.303271        -8.2524
  74   2.0000      -0.301156        -8.1949
  75   2.0000      -0.295762        -8.0481
  76   2.0000      -0.291602        -7.9349
  77   2.0000      -0.272453        -7.4138
  78   2.0000      -0.265073        -7.2130
  79   2.0000      -0.260147        -7.0789
  80   2.0000      -0.251130        -6.8336
  81   2.0000      -0.246108        -6.6969
  82   2.0000      -0.234333        -6.3765
  83   2.0000      -0.226663        -6.1678
  84   2.0000      -0.193165        -5.2563
  85   2.0000      -0.181479        -4.9383
  86   2.0000      -0.170128        -4.6294
  87   0.0000      -0.046041        -1.2528
  88   0.0000      -0.041970        -1.1421
  89   0.0000      -0.029380        -0.7995
  90   0.0000       0.003562         0.0969
  91   0.0000       0.037732         1.0267

MULLIKEN ATOMIC CHARGES
-----------------------
   0 C :   -0.306148
   1 C :   -0.030829
   2 O :   -0.219836
   3 C :    0.098524
   4 O :   -0.201269
   5 C :   -0.017158
   6 C :   -0.321471
   7 H :    0.154974
   8 C :    0.203445
   9 O :   -0.170084
  10 O :   -0.224675
  11 C :   -0.010269
  12 C :   -0.324031
  13 S :   -0.070437
  14 P :    0.628344
  15 S :   -0.334498
  16 O :   -0.388965
  17 C :   -0.096029
  18 O :   -0.373239
  19 C :   -0.115967
  20 H :    0.108008
  21 H :    0.114486
  22 H :    0.129032
  23 H :    0.099485
  24 H :    0.138306
  25 H :    0.121433
  26 H :    0.114391
  27 H :    0.104026
  28 H :    0.116598
  29 H :    0.110239
  30 H :    0.151158
  31 H :    0.114205
  32 H :    0.104627
  33 H :    0.112690
  34 H :    0.120158
  35 H :    0.124166
  36 H :    0.123224
  37 H :    0.113382
Sum of atomic charges:   -0.0000000

LOEWDIN ATOMIC CHARGES
----------------------
   0 C :   -0.356537
   1 C :   -0.115319
   2 O :   -0.043859
   3 C :    0.026456
   4 O :   -0.170558
   5 C :   -0.250295
   6 C :   -0.260274
   7 H :    0.153038
   8 C :    0.009363
   9 O :   -0.145176
  10 O :   -0.042337
  11 C :   -0.104647
  12 C :   -0.362499
  13 S :    0.123751
  14 P :    0.604915
  15 S :   -0.305384
  16 O :   -0.271572
  17 C :   -0.216880
  18 O :   -0.254901
  19 C :   -0.221563
  20 H :    0.121597
  21 H :    0.131979
  22 H :    0.131001
  23 H :    0.116058
  24 H :    0.123174
  25 H :    0.145725
  26 H :    0.138081
  27 H :    0.118289
  28 H :    0.123947
  29 H :    0.130279
  30 H :    0.129086
  31 H :    0.123417
  32 H :    0.105750
  33 H :    0.115480
  34 H :    0.111201
  35 H :    0.121357
  36 H :    0.112664
  37 H :    0.105193

  Mayer bond orders larger than 0.100000
B(  0-C ,  1-C ) :   1.1692 B(  0-C , 20-H ) :   0.9480 B(  0-C , 21-H ) :   0.9445
B(  0-C , 22-H ) :   0.9453 B(  1-C ,  2-O ) :   0.9031 B(  1-C , 23-H ) :   0.9367
B(  1-C , 24-H ) :   0.9020 B(  2-O ,  3-C ) :   1.2594 B(  3-C ,  4-O ) :   1.9479
B(  3-C ,  5-C ) :   1.0027 B(  5-C ,  6-C ) :   1.0144 B(  5-C , 25-H ) :   0.8878
B(  5-C , 26-H ) :   0.8842 B(  6-C ,  7-H ) :   0.8722 B(  6-C ,  8-C ) :   0.8888
B(  6-C , 13-S ) :   1.0674 B(  8-C ,  9-O ) :   2.0011 B(  8-C , 10-O ) :   1.2612
B( 10-O , 11-C ) :   0.8963 B( 11-C , 12-C ) :   1.1799 B( 11-C , 27-H ) :   0.9368
B( 11-C , 28-H ) :   0.9119 B( 12-C , 29-H ) :   0.9398 B( 12-C , 30-H ) :   0.9245
B( 12-C , 31-H ) :   0.9452 B( 13-S , 14-P ) :   0.9178 B( 13-S , 15-S ) :   0.1131
B( 14-P , 15-S ) :   1.5222 B( 14-P , 16-O ) :   1.0506 B( 14-P , 18-O ) :   1.0840
B( 16-O , 17-C ) :   0.9442 B( 17-C , 32-H ) :   0.9482 B( 17-C , 33-H ) :   0.9569
B( 17-C , 34-H ) :   0.9422 B( 18-O , 19-C ) :   0.9404 B( 19-C , 35-H ) :   0.9578
B( 19-C , 36-H ) :   0.9464 B( 19-C , 37-H ) :   0.9391

Dispersion correction           -0.056328856
FINAL SINGLE POINT ENERGY     -1978.992084947112

DIPOLE MOMENT
-------------

Method             : SCF
Type of density    : Electron Density
Multiplicity       :   1
Irrep              :   0
Energy             : -1979.1199703315437546 Eh
Relativity type    :
Basis              : AO
                                X                 Y                 Z
Electronic contribution:    -11.166760959       2.400902828      -6.423662721
Nuclear contribution   :     12.060521261      -2.031835368       5.726076660
                        -----------------------------------------
Total Dipole Moment    :      0.893760302       0.369067460      -0.697586060
                        -----------------------------------------
Magnitude (a.u.)       :      1.192327379
Magnitude (Debye)      :      3.030655347

Rotational constants in cm-1:             0.012430             0.009235             0.007607
Rotational constants in MHz :           372.639315           276.865824           228.061146

                             ****ORCA TERMINATED NORMALLY****
TOTAL RUN TIME: 0 days 0 hours 0 minutes 39 seconds 30 msec
