                         Program Version 6.0.0  -   RELEASE  -
|  1> ! pbe def2-sv(p) def2/J RI DEFGRID1 loosescf d4 GCP(DFT/SV(P)) printgap
|  2> %output
|  3>     printlevel normal
|  4> end
|  5> * xyz 0 1
|  6> C 3.66045167 1.9983502646 1.3671498954
|  7> C 2.6224235051 1.7036478985 0.3051241693
|  8> O 1.6476729753 0.7442478904 0.7915928638
|  9> P 1.7321927083 -0.8026004131 0.5249035273
| 10> S 0.2471882042 -1.7833063535 1.3371697737
| 11> O 3.1744543393 -1.1832228307 1.0658035392
| 12> C 3.6369621242 -2.5503809486 1.0564346431
| 13> C 4.8707430012 -2.6285026262 1.9321221817
| 14> S 1.9594406247 -1.0755723021 -1.5729304647
| 15> C 0.2357625072 -0.8210043766 -2.0429600792
| 16> S -0.2952281528 0.9142560854 -1.8447495904
| 17> P -1.8805189685 0.6994161302 -0.4757156504
| 18> S -2.8097448209 -1.0308689604 -0.4988385124
| 19> O -2.7636471404 1.9753069642 -0.8280793966
| 20> C -3.572667113 2.047691841 -2.0188950165
| 21> C -5.0044204879 1.6428571826 -1.7257465732
| 22> O -1.2324508798 1.1685747322 0.8874297135
| 23> C -1.8302190765 0.8777965676 2.1659622781
| 24> C -3.1591480461 1.5800888948 2.3382836654
| 25> H 4.3373098792 2.7617234337 0.9963181995
| 26> H 3.1778490241 2.3553368983 2.2728016934
| 27> H 4.2244682711 1.0995713875 1.6011458055
| 28> H 3.0843541457 1.3095095403 -0.6045344361
| 29> H 2.0296315573 2.5878796536 0.0622657706
| 30> H 2.8331982515 -3.191167755 1.4333112716
| 31> H 3.8600971233 -2.8269343246 0.0226613069
| 32> H 4.6277626113 -2.3282553345 2.947521857
| 33> H 5.2363393176 -3.6499671011 1.9391289352
| 34> H 5.6447574518 -1.9728282023 1.5441974633
| 35> H -0.4167591556 -1.4590167814 -1.439508027
| 36> H 0.1681492695 -1.0757732147 -3.0973617118
| 37> H -3.5095939743 3.0916939543 -2.3310571633
| 38> H -3.1362527996 1.4088709147 -2.7921530534
| 39> H -5.5999901609 1.7601256965 -2.6252046876
| 40> H -5.0430698277 0.6028627464 -1.4087164952
| 41> H -5.4159666015 2.2671075216 -0.9375762104
| 42> H -1.9438123556 -0.2079116433 2.2566843669
| 43> H -1.0838082822 1.2228576162 2.8831224098
| 44> H -3.8800285369 1.1801508267 1.6259271399
| 45> H -3.5261077608 1.4107754487 3.3457620394
| 46> H -3.0448084308 2.6468267292 2.1641157619
| 47> *
| 48>
| 49>                          ****END OF INPUT****

CARTESIAN COORDINATES (ANGSTROEM)
---------------------------------
  C      3.660452    1.998350    1.367150
  C      2.622424    1.703648    0.305124
  O      1.647673    0.744248    0.791593
  P      1.732193   -0.802600    0.524904
  S      0.247188   -1.783306    1.337170
  O      3.174454   -1.183223    1.065804
  C      3.636962   -2.550381    1.056435
  C      4.870743   -2.628503    1.932122
  S      1.959441   -1.075572   -1.572930
  C      0.235763   -0.821004   -2.042960
  S     -0.295228    0.914256   -1.844750
  P     -1.880519    0.699416   -0.475716
  S     -2.809745   -1.030869   -0.498839
  O     -2.763647    1.975307   -0.828079
  C     -3.572667    2.047692   -2.018895
  C     -5.004420    1.642857   -1.725747
  O     -1.232451    1.168575    0.887430
  C     -1.830219    0.877797    2.165962
  C     -3.159148    1.580089    2.338284
  H      4.337310    2.761723    0.996318
  H      3.177849    2.355337    2.272802
  H      4.224468    1.099571    1.601146
  H      3.084354    1.309510   -0.604534
  H      2.029632    2.587880    0.062266
  H      2.833198   -3.191168    1.433311
  H      3.860097   -2.826934    0.022661
  H      4.627763   -2.328255    2.947522
  H      5.236339   -3.649967    1.939129
  H      5.644757   -1.972828    1.544197
  H     -0.416759   -1.459017   -1.439508
  H      0.168149   -1.075773   -3.097362
  H     -3.509594    3.091694   -2.331057
  H     -3.136253    1.408871   -2.792153
  H     -5.599990    1.760126   -2.625205
  H     -5.043070    0.602863   -1.408716
  H     -5.415967    2.267108   -0.937576
  H     -1.943812   -0.207912    2.256684
  H     -1.083808    1.222858    2.883122
  H     -3.880029    1.180151    1.625927
  H     -3.526108    1.410775    3.345762
  H     -3.044808    2.646827    2.164116

 Total Charge           Charge          ....    0
 Multiplicity           Mult            ....    1
 Number of Electrons    NEL             ....  202
 Basis Dimension        Dim             ....  334

ORBITAL ENERGIES
----------------

  NO   OCC          E(Eh)            E(eV)
   0   2.0000     -88.042672     -2395.7629
   1   2.0000     -88.040291     -2395.6981
   2   2.0000     -87.980590     -2394.0736
   3   2.0000     -87.979302     -2394.0385
   4   2.0000     -76.423243     -2079.5822
   5   2.0000     -76.420342     -2079.5032
   6   2.0000     -18.796280      -511.4728
   7   2.0000     -18.790367      -511.3119
   8   2.0000     -18.787818      -511.2425
   9   2.0000     -18.779170      -511.0072
  10   2.0000      -9.955429      -270.9010
  11   2.0000      -9.953458      -270.8474
  12   2.0000      -9.952552      -270.8227
  13   2.0000      -9.950447      -270.7654
  14   2.0000      -9.938041      -270.4279
  15   2.0000      -9.891203      -269.1533
  16   2.0000      -9.885368      -268.9945
  17   2.0000      -9.878018      -268.7945
  18   2.0000      -9.874891      -268.7094
  19   2.0000      -7.687950      -209.1998
  20   2.0000      -7.685494      -209.1329
  21   2.0000      -7.625533      -207.5013
  22   2.0000      -7.624325      -207.4684
  23   2.0000      -6.420947      -174.7229
  24   2.0000      -6.417868      -174.6391
  25   2.0000      -5.715688      -155.5318
  26   2.0000      -5.713308      -155.4670
  27   2.0000      -5.712285      -155.4392
  28   2.0000      -5.709953      -155.3757
  29   2.0000      -5.705222      -155.2470
  30   2.0000      -5.702521      -155.1735
  31   2.0000      -5.654368      -153.8632
  32   2.0000      -5.653334      -153.8350
  33   2.0000      -5.646316      -153.6441
  34   2.0000      -5.645612      -153.6249
  35   2.0000      -5.644799      -153.6028
  36   2.0000      -5.644499      -153.5946
  37   2.0000      -4.643810      -126.3645
  38   2.0000      -4.642836      -126.3380
  39   2.0000      -4.640958      -126.2869
  40   2.0000      -4.640186      -126.2659
  41   2.0000      -4.639540      -126.2483
  42   2.0000      -4.638667      -126.2246
  43   2.0000      -0.989119       -26.9153
  44   2.0000      -0.979990       -26.6669
  45   2.0000      -0.946199       -25.7474
  46   2.0000      -0.937112       -25.5001
  47   2.0000      -0.761047       -20.7091
  48   2.0000      -0.720019       -19.5927
  49   2.0000      -0.707002       -19.2385
  50   2.0000      -0.693075       -18.8595
  51   2.0000      -0.680353       -18.5133
  52   2.0000      -0.671072       -18.2608
  53   2.0000      -0.646930       -17.6039
  54   2.0000      -0.631620       -17.1873
  55   2.0000      -0.593186       -16.1414
  56   2.0000      -0.587114       -15.9762
  57   2.0000      -0.570929       -15.5358
  58   2.0000      -0.566380       -15.4120
  59   2.0000      -0.559109       -15.2141
  60   2.0000      -0.509139       -13.8544
  61   2.0000      -0.493763       -13.4360
  62   2.0000      -0.481090       -13.0911
  63   2.0000      -0.465838       -12.6761
  64   2.0000      -0.448068       -12.1926
  65   2.0000      -0.445283       -12.1168
  66   2.0000      -0.435504       -11.8507
  67   2.0000      -0.433463       -11.7951
  68   2.0000      -0.431872       -11.7518
  69   2.0000      -0.412510       -11.2250
  70   2.0000      -0.404162       -10.9978
  71   2.0000      -0.394940       -10.7469
  72   2.0000      -0.389167       -10.5898
  73   2.0000      -0.382724       -10.4144
  74   2.0000      -0.380863       -10.3638
  75   2.0000      -0.368242       -10.0204
  76   2.0000      -0.364460        -9.9175
  77   2.0000      -0.357659        -9.7324
  78   2.0000      -0.352995        -9.6055
  79   2.0000      -0.350617        -9.5408
  80   2.0000      -0.344851        -9.3839
  81   2.0000      -0.341815        -9.3013
  82   2.0000      -0.338799        -9.2192
  83   2.0000      -0.332973        -9.0606
  84   2.0000      -0.328356        -8.9350
  85   2.0000      -0.317395        -8.6368
  86   2.0000      -0.309483        -8.4215
  87   2.0000      -0.301416        -8.2019
  88   2.0000      -0.292966        -7.9720
  89   2.0000      -0.290791        -7.9128
  90   2.0000      -0.277526        -7.5519
  91   2.0000      -0.272159        -7.4058
  92   2.0000      -0.263877        -7.1804
  93   2.0000      -0.260500        -7.0886
  94   2.0000      -0.256954        -6.9921
  95   2.0000      -0.236830        -6.4445
  96   2.0000      -0.221344        -6.0231
  97   2.0000      -0.211848        -5.7647
  98   2.0000      -0.201527        -5.4838
  99   2.0000      -0.191195        -5.2027
 100   2.0000      -0.183088        -4.9821
 101   0.0000      -0.037429        -1.0185
 102   0.0000      -0.027972        -0.7612
 103   0.0000      -0.006035        -0.1642
 104   0.0000       0.016560         0.4506
 105   0.0000       0.023006         0.6260

MULLIKEN ATOMIC CHARGES
-----------------------
   0 C :   -0.290367
   1 C :   -0.009416
   2 O :   -0.340093
   3 P :    0.592661
   4 S :   -0.299254
   5 O :   -0.383389
   6 C :   -0.014116
   7 C :   -0.282805
   8 S :   -0.111772
   9 C :   -0.357705
  10 S :   -0.099670
  11 P :    0.607805
  12 S :   -0.317934
  13 O :   -0.375077
  14 C :   -0.006338
  15 C :   -0.292706
  16 O :   -0.351552
  17 C :   -0.002463
  18 C :   -0.305554
  19 H :    0.108768
  20 H :    0.117796
  21 H :    0.121589
  22 H :    0.099835
  23 H :    0.110893
  24 H :    0.108627
  25 H :    0.105697
  26 H :    0.122909
  27 H :    0.114263
  28 H :    0.116253
  29 H :    0.212243
  30 H :    0.182012
  31 H :    0.104488
  32 H :    0.096993
  33 H :    0.105932
  34 H :    0.128549
  35 H :    0.113611
  36 H :    0.124444
  37 H :    0.100901
  38 H :    0.123589
  39 H :    0.108771
  40 H :    0.111584
Sum of atomic charges:    0.0000000

LOEWDIN ATOMIC CHARGES
----------------------
   0 C :   -0.360174
   1 C :   -0.116164
   2 O :   -0.223711
   3 P :    0.560423
   4 S :   -0.291693
   5 O :   -0.250358
   6 C :   -0.120323
   7 C :   -0.350475
   8 S :    0.062140
   9 C :   -0.479171
  10 S :    0.075757
  11 P :    0.568856
  12 S :   -0.309975
  13 O :   -0.247459
  14 C :   -0.117217
  15 C :   -0.363788
  16 O :   -0.228937
  17 C :   -0.117951
  18 C :   -0.366872
  19 H :    0.129184
  20 H :    0.127710
  21 H :    0.124952
  22 H :    0.102337
  23 H :    0.120232
  24 H :    0.111375
  25 H :    0.108974
  26 H :    0.129851
  27 H :    0.132066
  28 H :    0.125636
  29 H :    0.126791
  30 H :    0.136911
  31 H :    0.117337
  32 H :    0.105217
  33 H :    0.127891
  34 H :    0.124304
  35 H :    0.124665
  36 H :    0.109641
  37 H :    0.118017
  38 H :    0.121298
  39 H :    0.129035
  40 H :    0.123666

  Mayer bond orders larger than 0.100000
B(  0-C ,  1-C ) :   1.1634 B(  0-C , 19-H ) :   0.9400 B(  0-C , 20-H ) :   0.9474
B(  0-C , 21-H ) :   0.9409 B(  1-C ,  2-O ) :   0.8884 B(  1-C , 22-H ) :   0.9106
B(  1-C , 23-H ) :   0.9327 B(  2-O ,  3-P ) :   1.1538 B(  3-P ,  4-S ) :   1.6619
B(  3-P ,  5-O ) :   1.0762 B(  3-P ,  8-S ) :   0.9454 B(  4-S ,  8-S ) :   0.1055
B(  5-O ,  6-C ) :   0.9038 B(  6-C ,  7-C ) :   1.1595 B(  6-C , 24-H ) :   0.9103
B(  6-C , 25-H ) :   0.9281 B(  7-C , 26-H ) :   0.9509 B(  7-C , 27-H ) :   0.9417
B(  7-C , 28-H ) :   0.9507 B(  8-S ,  9-C ) :   1.0027 B(  9-C , 10-S ) :   0.9928
B(  9-C , 29-H ) :   0.8456 B(  9-C , 30-H ) :   0.9119 B( 10-S , 11-P ) :   0.9608
B( 10-S , 12-S ) :   0.1180 B( 11-P , 12-S ) :   1.6009 B( 11-P , 13-O ) :   1.0953
B( 11-P , 16-O ) :   1.1545 B( 13-O , 14-C ) :   0.9079 B( 14-C , 15-C ) :   1.1677
B( 14-C , 31-H ) :   0.9362 B( 14-C , 32-H ) :   0.9129 B( 15-C , 33-H ) :   0.9399
B( 15-C , 34-H ) :   0.9306 B( 15-C , 35-H ) :   0.9458 B( 16-O , 17-C ) :   0.9004
B( 17-C , 18-C ) :   1.1583 B( 17-C , 36-H ) :   0.9122 B( 17-C , 37-H ) :   0.9359
B( 18-C , 38-H ) :   0.9342 B( 18-C , 39-H ) :   0.9386 B( 18-C , 40-H ) :   0.9447

Dispersion correction           -0.066386815
FINAL SINGLE POINT ENERGY     -2929.521700445802

DIPOLE MOMENT
-------------

Method             : SCF
Type of density    : Electron Density
Multiplicity       :   1
Irrep              :   0
Energy             : -2929.6404794995642078 Eh
Relativity type    :
Basis              : AO
                                X                 Y                 Z
Electronic contribution:     -1.594424211      -7.814445022      -9.554840683
Nuclear contribution   :      2.632267768       8.655778066       9.308399888
                        -----------------------------------------
Total Dipole Moment    :      1.037843557       0.841333044      -0.246440795
                        -----------------------------------------
Magnitude (a.u.)       :      1.358563066
Magnitude (Debye)      :      3.453192885

Rotational constants in cm-1:             0.013935             0.004829             0.004733
Rotational constants in MHz :           417.758796           144.775882           141.906734

                             ****ORCA TERMINATED NORMALLY****
TOTAL RUN TIME: 0 days 0 hours 0 minutes 21 seconds 476 msec
