                         Program Version 6.0.0  -   RELEASE  -
|  1> ! pbe def2-sv(p) def2/J RI DEFGRID1 loosescf d4 GCP(DFT/SV(P)) printgap
|  2> %output
|  3>     printlevel normal
|  4> end
|  5> * xyz 0 1
|  6> C 4.4833094583 -1.5356235792 -1.3363574154
|  7> C 4.6492484244 -0.1343094839 -0.7850298603
|  8> O 3.6201359009 0.2025541247 0.1605007296
|  9> P 2.0902461514 0.3620681882 -0.2592322978
| 10> S 1.8568982888 1.2257819567 -2.0083270151
| 11> O 1.5385560643 1.1240720204 1.0178574602
| 12> C 1.867166281 2.5213249849 1.2105781046
| 13> C 0.961878028 3.0817164943 2.2869034648
| 14> S 1.2486334766 -1.5455884742 0.0311416324
| 15> C 0.1386466061 -1.6283686251 -1.4189993609
| 16> S -1.5666859953 -2.0600238219 -0.9924177102
| 17> P -2.0232345268 -0.419015255 0.244917759
| 18> S -1.3796327061 1.3570692465 -0.303093708
| 19> O -1.4957731394 -0.9919595665 1.6218227404
| 20> C -1.1844327617 -0.1765687323 2.7690952466
| 21> C -2.390074092 0.5923974827 3.2660106802
| 22> O -3.596618818 -0.5115006108 0.4423823275
| 23> C -4.5308765425 0.1457576564 -0.4302398644
| 24> C -4.5462205138 -0.4667651225 -1.81597893
| 25> H 5.3459264207 -1.7859229683 -1.945367074
| 26> H 4.3907561325 -2.253365649 -0.5252209257
| 27> H 3.5881935224 -1.5844685505 -1.955327954
| 28> H 4.6253716835 0.6015752086 -1.5951494214
| 29> H 5.5725612898 -0.0307575397 -0.2136105552
| 30> H 2.9206450391 2.5828547496 1.4949886832
| 31> H 1.7183708186 3.0427567379 0.2584669383
| 32> H 1.0952387939 2.53151909 3.2139895478
| 33> H 1.2111251777 4.1255777723 2.4473639433
| 34> H -0.0757220803 3.0094998399 1.9703221667
| 35> H 0.4844796562 -2.4257166354 -2.0719004261
| 36> H 0.1675796997 -0.6618099835 -1.9303118744
| 37> H -0.8297401864 -0.8988442429 3.5059226198
| 38> H -0.3702799658 0.5008336184 2.4958102909
| 39> H -3.2122675584 -0.0892506275 3.4681372326
| 40> H -2.1289685529 1.1267295641 4.1741695595
| 41> H -2.7075141609 1.3109153909 2.510484618
| 42> H -5.4900374705 0.0246007083 0.0748957472
| 43> H -4.2676722715 1.2073340253 -0.4824797641
| 44> H -5.3520928748 -0.0268064504 -2.3947147534
| 45> H -3.6013773033 -0.2703627136 -2.3213514254
| 46> H -4.6902975092 -1.5423028365 -1.7517162828
| 47> *
| 48>
| 49>                          ****END OF INPUT****

CARTESIAN COORDINATES (ANGSTROEM)
---------------------------------
  C      4.483309   -1.535624   -1.336357
  C      4.649248   -0.134309   -0.785030
  O      3.620136    0.202554    0.160501
  P      2.090246    0.362068   -0.259232
  S      1.856898    1.225782   -2.008327
  O      1.538556    1.124072    1.017857
  C      1.867166    2.521325    1.210578
  C      0.961878    3.081716    2.286903
  S      1.248633   -1.545588    0.031142
  C      0.138647   -1.628369   -1.418999
  S     -1.566686   -2.060024   -0.992418
  P     -2.023235   -0.419015    0.244918
  S     -1.379633    1.357069   -0.303094
  O     -1.495773   -0.991960    1.621823
  C     -1.184433   -0.176569    2.769095
  C     -2.390074    0.592397    3.266011
  O     -3.596619   -0.511501    0.442382
  C     -4.530877    0.145758   -0.430240
  C     -4.546221   -0.466765   -1.815979
  H      5.345926   -1.785923   -1.945367
  H      4.390756   -2.253366   -0.525221
  H      3.588194   -1.584469   -1.955328
  H      4.625372    0.601575   -1.595149
  H      5.572561   -0.030758   -0.213611
  H      2.920645    2.582855    1.494989
  H      1.718371    3.042757    0.258467
  H      1.095239    2.531519    3.213990
  H      1.211125    4.125578    2.447364
  H     -0.075722    3.009500    1.970322
  H      0.484480   -2.425717   -2.071900
  H      0.167580   -0.661810   -1.930312
  H     -0.829740   -0.898844    3.505923
  H     -0.370280    0.500834    2.495810
  H     -3.212268   -0.089251    3.468137
  H     -2.128969    1.126730    4.174170
  H     -2.707514    1.310915    2.510485
  H     -5.490037    0.024601    0.074896
  H     -4.267672    1.207334   -0.482480
  H     -5.352093   -0.026806   -2.394715
  H     -3.601377   -0.270363   -2.321351
  H     -4.690298   -1.542303   -1.751716

 Total Charge           Charge          ....    0
 Multiplicity           Mult            ....    1
 Number of Electrons    NEL             ....  202
 Basis Dimension        Dim             ....  334

ORBITAL ENERGIES
----------------

  NO   OCC          E(Eh)            E(eV)
   0   2.0000     -88.042965     -2395.7709
   1   2.0000     -88.041527     -2395.7318
   2   2.0000     -87.984628     -2394.1834
   3   2.0000     -87.983680     -2394.1576
   4   2.0000     -76.423725     -2079.5953
   5   2.0000     -76.422997     -2079.5755
   6   2.0000     -18.791426      -511.3407
   7   2.0000     -18.788425      -511.2590
   8   2.0000     -18.786738      -511.2131
   9   2.0000     -18.783560      -511.1266
  10   2.0000      -9.954175      -270.8669
  11   2.0000      -9.950810      -270.7753
  12   2.0000      -9.949161      -270.7304
  13   2.0000      -9.947720      -270.6912
  14   2.0000      -9.945136      -270.6209
  15   2.0000      -9.883440      -268.9421
  16   2.0000      -9.882601      -268.9192
  17   2.0000      -9.882501      -268.9165
  18   2.0000      -9.880104      -268.8513
  19   2.0000      -7.687872      -209.1976
  20   2.0000      -7.687111      -209.1769
  21   2.0000      -7.629593      -207.6118
  22   2.0000      -7.628300      -207.5766
  23   2.0000      -6.421032      -174.7252
  24   2.0000      -6.420705      -174.7163
  25   2.0000      -5.715770      -155.5340
  26   2.0000      -5.715082      -155.5153
  27   2.0000      -5.712480      -155.4445
  28   2.0000      -5.711568      -155.4197
  29   2.0000      -5.704699      -155.2327
  30   2.0000      -5.703947      -155.2123
  31   2.0000      -5.658397      -153.9728
  32   2.0000      -5.657102      -153.9376
  33   2.0000      -5.650446      -153.7564
  34   2.0000      -5.649616      -153.7339
  35   2.0000      -5.649023      -153.7177
  36   2.0000      -5.648508      -153.7037
  37   2.0000      -4.643406      -126.3535
  38   2.0000      -4.643072      -126.3444
  39   2.0000      -4.642828      -126.3378
  40   2.0000      -4.642295      -126.3233
  41   2.0000      -4.641694      -126.3069
  42   2.0000      -4.641466      -126.3007
  43   2.0000      -0.983668       -26.7670
  44   2.0000      -0.983155       -26.7530
  45   2.0000      -0.941830       -25.6285
  46   2.0000      -0.939656       -25.5693
  47   2.0000      -0.761822       -20.7302
  48   2.0000      -0.719597       -19.5812
  49   2.0000      -0.705856       -19.2073
  50   2.0000      -0.684915       -18.6375
  51   2.0000      -0.684367       -18.6226
  52   2.0000      -0.673602       -18.3296
  53   2.0000      -0.650566       -17.7028
  54   2.0000      -0.633255       -17.2317
  55   2.0000      -0.601283       -16.3617
  56   2.0000      -0.590374       -16.0649
  57   2.0000      -0.570264       -15.5177
  58   2.0000      -0.569307       -15.4916
  59   2.0000      -0.555584       -15.1182
  60   2.0000      -0.502407       -13.6712
  61   2.0000      -0.487968       -13.2783
  62   2.0000      -0.469019       -12.7626
  63   2.0000      -0.467960       -12.7338
  64   2.0000      -0.445147       -12.1131
  65   2.0000      -0.443710       -12.0740
  66   2.0000      -0.437999       -11.9185
  67   2.0000      -0.436616       -11.8809
  68   2.0000      -0.425618       -11.5817
  69   2.0000      -0.421525       -11.4703
  70   2.0000      -0.409207       -11.1351
  71   2.0000      -0.394566       -10.7367
  72   2.0000      -0.390340       -10.6217
  73   2.0000      -0.387804       -10.5527
  74   2.0000      -0.379861       -10.3365
  75   2.0000      -0.374479       -10.1901
  76   2.0000      -0.367529       -10.0010
  77   2.0000      -0.352855        -9.6017
  78   2.0000      -0.352013        -9.5788
  79   2.0000      -0.349446        -9.5089
  80   2.0000      -0.345488        -9.4012
  81   2.0000      -0.340175        -9.2566
  82   2.0000      -0.338432        -9.2092
  83   2.0000      -0.333534        -9.0759
  84   2.0000      -0.332082        -9.0364
  85   2.0000      -0.313253        -8.5241
  86   2.0000      -0.310572        -8.4511
  87   2.0000      -0.294537        -8.0148
  88   2.0000      -0.293235        -7.9793
  89   2.0000      -0.288569        -7.8524
  90   2.0000      -0.278818        -7.5870
  91   2.0000      -0.270634        -7.3643
  92   2.0000      -0.269096        -7.3225
  93   2.0000      -0.261948        -7.1280
  94   2.0000      -0.260654        -7.0928
  95   2.0000      -0.231037        -6.2868
  96   2.0000      -0.220729        -6.0063
  97   2.0000      -0.214014        -5.8236
  98   2.0000      -0.203195        -5.5292
  99   2.0000      -0.195897        -5.3306
 100   2.0000      -0.187913        -5.1134
 101   0.0000      -0.040537        -1.1031
 102   0.0000      -0.033400        -0.9089
 103   0.0000      -0.008988        -0.2446
 104   0.0000       0.014722         0.4006
 105   0.0000       0.020410         0.5554

MULLIKEN ATOMIC CHARGES
-----------------------
   0 C :   -0.311334
   1 C :   -0.000668
   2 O :   -0.382099
   3 P :    0.620535
   4 S :   -0.317532
   5 O :   -0.360641
   6 C :   -0.009218
   7 C :   -0.296280
   8 S :   -0.081471
   9 C :   -0.360211
  10 S :   -0.082447
  11 P :    0.603796
  12 S :   -0.318495
  13 O :   -0.360614
  14 C :   -0.027641
  15 C :   -0.314408
  16 O :   -0.371044
  17 C :   -0.002800
  18 C :   -0.318430
  19 H :    0.111581
  20 H :    0.118469
  21 H :    0.117726
  22 H :    0.109111
  23 H :    0.102285
  24 H :    0.100665
  25 H :    0.108262
  26 H :    0.114959
  27 H :    0.112013
  28 H :    0.136783
  29 H :    0.181414
  30 H :    0.208961
  31 H :    0.102248
  32 H :    0.143220
  33 H :    0.115915
  34 H :    0.108994
  35 H :    0.122934
  36 H :    0.104599
  37 H :    0.109368
  38 H :    0.113362
  39 H :    0.129808
  40 H :    0.118328
Sum of atomic charges:    0.0000000

LOEWDIN ATOMIC CHARGES
----------------------
   0 C :   -0.369006
   1 C :   -0.120418
   2 O :   -0.250720
   3 P :    0.572962
   4 S :   -0.305534
   5 O :   -0.240141
   6 C :   -0.116540
   7 C :   -0.356136
   8 S :    0.094113
   9 C :   -0.478879
  10 S :    0.092446
  11 P :    0.566053
  12 S :   -0.309682
  13 O :   -0.237333
  14 C :   -0.117810
  15 C :   -0.367899
  16 O :   -0.243635
  17 C :   -0.119777
  18 C :   -0.369883
  19 H :    0.129922
  20 H :    0.124298
  21 H :    0.118354
  22 H :    0.109166
  23 H :    0.117270
  24 H :    0.110367
  25 H :    0.110938
  26 H :    0.122962
  27 H :    0.130730
  28 H :    0.127660
  29 H :    0.135280
  30 H :    0.125112
  31 H :    0.119410
  32 H :    0.116079
  33 H :    0.125686
  34 H :    0.128548
  35 H :    0.119896
  36 H :    0.118445
  37 H :    0.109732
  38 H :    0.131246
  39 H :    0.122452
  40 H :    0.124266

  Mayer bond orders larger than 0.100000
B(  0-C ,  1-C ) :   1.1653 B(  0-C , 19-H ) :   0.9381 B(  0-C , 20-H ) :   0.9438
B(  0-C , 21-H ) :   0.9372 B(  1-C ,  2-O ) :   0.9160 B(  1-C , 22-H ) :   0.9144
B(  1-C , 23-H ) :   0.9338 B(  2-O ,  3-P ) :   1.0893 B(  3-P ,  4-S ) :   1.6015
B(  3-P ,  5-O ) :   1.1219 B(  3-P ,  8-S ) :   0.9742 B(  4-S ,  8-S ) :   0.1212
B(  5-O ,  6-C ) :   0.9056 B(  6-C ,  7-C ) :   1.1667 B(  6-C , 24-H ) :   0.9298
B(  6-C , 25-H ) :   0.9123 B(  7-C , 26-H ) :   0.9433 B(  7-C , 27-H ) :   0.9393
B(  7-C , 28-H ) :   0.9371 B(  8-S ,  9-C ) :   0.9936 B(  9-C , 10-S ) :   1.0047
B(  9-C , 29-H ) :   0.9111 B(  9-C , 30-H ) :   0.8498 B( 10-S , 11-P ) :   0.9553
B( 10-S , 12-S ) :   0.1093 B( 11-P , 12-S ) :   1.6093 B( 11-P , 13-O ) :   1.1347
B( 11-P , 16-O ) :   1.1042 B( 13-O , 14-C ) :   0.8981 B( 14-C , 15-C ) :   1.1631
B( 14-C , 31-H ) :   0.9341 B( 14-C , 32-H ) :   0.9047 B( 15-C , 33-H ) :   0.9443
B( 15-C , 34-H ) :   0.9387 B( 15-C , 35-H ) :   0.9320 B( 16-O , 17-C ) :   0.9091
B( 17-C , 18-C ) :   1.1667 B( 17-C , 36-H ) :   0.9337 B( 17-C , 37-H ) :   0.9142
B( 18-C , 38-H ) :   0.9380 B( 18-C , 39-H ) :   0.9354 B( 18-C , 40-H ) :   0.9445

Dispersion correction           -0.068000426
FINAL SINGLE POINT ENERGY     -2929.522379606368

DIPOLE MOMENT
-------------

Method             : SCF
Type of density    : Electron Density
Multiplicity       :   1
Irrep              :   0
Energy             : -2929.6399669899083165 Eh
Relativity type    :
Basis              : AO
                                X                 Y                 Z
Electronic contribution:      1.700384468      -8.113385137      -7.405481679
Nuclear contribution   :     -1.569944915       8.047253068       8.061898494
                        -----------------------------------------
Total Dipole Moment    :      0.130439554      -0.066132069       0.656416816
                        -----------------------------------------
Magnitude (a.u.)       :      0.672510939
Magnitude (Debye)      :      1.709386961

Rotational constants in cm-1:             0.012062             0.005689             0.004928
Rotational constants in MHz :           361.599803           170.560584           147.729375

                             ****ORCA TERMINATED NORMALLY****
TOTAL RUN TIME: 0 days 0 hours 0 minutes 22 seconds 21 msec
