                         Program Version 6.0.0  -   RELEASE  -
|  1> ! pbe def2-sv(p) def2/J RI DEFGRID1 loosescf d4 GCP(DFT/SV(P)) printgap
|  2> %output
|  3>     printlevel normal
|  4> end
|  5> * xyz 0 1
|  6> C 5.393836224 -1.9824836167 -1.4259072447
|  7> C 4.3281820481 -0.9062128863 -1.4763110795
|  8> O 3.2933558076 -1.2629286087 -0.5379339195
|  9> P 2.2760636424 -0.1891521736 0.0344760684
| 10> S 3.0813388752 1.4785028541 0.6870954665
| 11> O 1.466017139 -1.0409727486 1.0915860132
| 12> C 1.7907253403 -1.0214512326 2.4997185452
| 13> C 3.0984496076 -1.7324292601 2.7725501251
| 14> S 0.8515997744 0.017391243 -1.5190662751
| 15> C 0.0506925731 1.4955091215 -0.8350571336
| 16> S -0.9648615833 1.1319851892 0.6118181876
| 17> P -2.5795178761 0.2257537646 -0.4577643346
| 18> S -2.9532670031 0.985922717 -2.2211627098
| 19> O -3.7987796002 0.2622990014 0.5596048863
| 20> C -4.7079153403 1.3742287556 0.6360293295
| 21> C -4.044458659 2.6262747773 1.1724309714
| 22> O -2.2547844692 -1.3110736187 -0.5716430895
| 23> C -1.6756061228 -2.1882204102 0.4241445928
| 24> C -2.328341448 -2.0619044402 1.7833532548
| 25> H 5.8355527511 -2.0277082049 -0.4345403046
| 26> H 4.955130813 -2.9477597438 -1.6609656641
| 27> H 6.166666778 -1.7518928455 -2.151732751
| 28> H 3.8775996162 -0.8356359278 -2.4700181152
| 29> H 4.7320430593 0.0728179622 -1.1964727463
| 30> H 1.8356845472 0.0209175846 2.8299738388
| 31> H 0.9452880479 -1.5236335463 2.9710602289
| 32> H 3.2708772582 -1.7741654465 3.8433653844
| 33> H 3.0699885108 -2.7407410872 2.3683639203
| 34> H 3.9168643888 -1.1878786783 2.3029674337
| 35> H -0.5799113078 1.9041918332 -1.6257588343
| 36> H 0.8151950291 2.2072860277 -0.5224354839
| 37> H -5.1178544916 1.5548482079 -0.362581526
| 38> H -5.4954532907 1.0192519298 1.3021946997
| 39> H -3.5367307126 2.4156697962 2.1101797908
| 40> H -3.3162586544 2.999925844 0.4542993881
| 41> H -4.7990038065 3.3892906506 1.3344373548
| 42> H -1.8257494866 -3.1801524549 -0.0054081105
| 43> H -0.6049225809 -1.9743744322 0.4800818525
| 44> H -2.1446373511 -1.0733784871 2.2006950137
| 45> H -3.4012717807 -2.2145544295 1.7011606186
| 46> H -1.9090908389 -2.8124329468 2.4468246544
| 47> *
| 48>
| 49>                          ****END OF INPUT****

CARTESIAN COORDINATES (ANGSTROEM)
---------------------------------
  C      5.393836   -1.982484   -1.425907
  C      4.328182   -0.906213   -1.476311
  O      3.293356   -1.262929   -0.537934
  P      2.276064   -0.189152    0.034476
  S      3.081339    1.478503    0.687095
  O      1.466017   -1.040973    1.091586
  C      1.790725   -1.021451    2.499719
  C      3.098450   -1.732429    2.772550
  S      0.851600    0.017391   -1.519066
  C      0.050693    1.495509   -0.835057
  S     -0.964862    1.131985    0.611818
  P     -2.579518    0.225754   -0.457764
  S     -2.953267    0.985923   -2.221163
  O     -3.798780    0.262299    0.559605
  C     -4.707915    1.374229    0.636029
  C     -4.044459    2.626275    1.172431
  O     -2.254784   -1.311074   -0.571643
  C     -1.675606   -2.188220    0.424145
  C     -2.328341   -2.061904    1.783353
  H      5.835553   -2.027708   -0.434540
  H      4.955131   -2.947760   -1.660966
  H      6.166667   -1.751893   -2.151733
  H      3.877600   -0.835636   -2.470018
  H      4.732043    0.072818   -1.196473
  H      1.835685    0.020918    2.829974
  H      0.945288   -1.523634    2.971060
  H      3.270877   -1.774165    3.843365
  H      3.069989   -2.740741    2.368364
  H      3.916864   -1.187879    2.302967
  H     -0.579911    1.904192   -1.625759
  H      0.815195    2.207286   -0.522435
  H     -5.117854    1.554848   -0.362582
  H     -5.495453    1.019252    1.302195
  H     -3.536731    2.415670    2.110180
  H     -3.316259    2.999926    0.454299
  H     -4.799004    3.389291    1.334437
  H     -1.825749   -3.180152   -0.005408
  H     -0.604923   -1.974374    0.480082
  H     -2.144637   -1.073378    2.200695
  H     -3.401272   -2.214554    1.701161
  H     -1.909091   -2.812433    2.446825

 Total Charge           Charge          ....    0
 Multiplicity           Mult            ....    1
 Number of Electrons    NEL             ....  202
 Basis Dimension        Dim             ....  334

ORBITAL ENERGIES
----------------

  NO   OCC          E(Eh)            E(eV)
   0   2.0000     -88.042789     -2395.7661
   1   2.0000     -88.041917     -2395.7424
   2   2.0000     -87.993813     -2394.4334
   3   2.0000     -87.982114     -2394.1150
   4   2.0000     -76.430867     -2079.7896
   5   2.0000     -76.425317     -2079.6386
   6   2.0000     -18.799513      -511.5607
   7   2.0000     -18.799113      -511.5499
   8   2.0000     -18.793634      -511.4008
   9   2.0000     -18.787256      -511.2272
  10   2.0000      -9.958248      -270.9777
  11   2.0000      -9.957717      -270.9633
  12   2.0000      -9.952367      -270.8177
  13   2.0000      -9.950801      -270.7750
  14   2.0000      -9.949651      -270.7438
  15   2.0000      -9.892498      -269.1885
  16   2.0000      -9.889786      -269.1148
  17   2.0000      -9.887033      -269.0399
  18   2.0000      -9.883255      -268.9370
  19   2.0000      -7.687968      -209.2002
  20   2.0000      -7.686571      -209.1622
  21   2.0000      -7.638702      -207.8596
  22   2.0000      -7.627455      -207.5536
  23   2.0000      -6.428750      -174.9352
  24   2.0000      -6.422536      -174.7661
  25   2.0000      -5.715736      -155.5331
  26   2.0000      -5.714274      -155.4933
  27   2.0000      -5.712631      -155.4486
  28   2.0000      -5.711206      -155.4098
  29   2.0000      -5.704904      -155.2383
  30   2.0000      -5.703659      -155.2045
  31   2.0000      -5.667428      -154.2186
  32   2.0000      -5.659365      -153.9992
  33   2.0000      -5.659033      -153.9901
  34   2.0000      -5.656379      -153.9179
  35   2.0000      -5.648027      -153.6906
  36   2.0000      -5.647590      -153.6787
  37   2.0000      -4.651182      -126.5651
  38   2.0000      -4.650523      -126.5472
  39   2.0000      -4.649229      -126.5120
  40   2.0000      -4.645326      -126.4057
  41   2.0000      -4.644327      -126.3786
  42   2.0000      -4.642832      -126.3379
  43   2.0000      -0.994515       -27.0621
  44   2.0000      -0.985011       -26.8035
  45   2.0000      -0.953746       -25.9528
  46   2.0000      -0.943219       -25.6663
  47   2.0000      -0.764686       -20.8082
  48   2.0000      -0.724523       -19.7153
  49   2.0000      -0.711236       -19.3537
  50   2.0000      -0.694412       -18.8959
  51   2.0000      -0.689472       -18.7615
  52   2.0000      -0.677385       -18.4326
  53   2.0000      -0.652097       -17.7445
  54   2.0000      -0.637733       -17.3536
  55   2.0000      -0.604621       -16.4526
  56   2.0000      -0.596402       -16.2289
  57   2.0000      -0.575574       -15.6622
  58   2.0000      -0.571064       -15.5395
  59   2.0000      -0.561520       -15.2797
  60   2.0000      -0.509299       -13.8587
  61   2.0000      -0.490949       -13.3594
  62   2.0000      -0.484022       -13.1709
  63   2.0000      -0.469114       -12.7652
  64   2.0000      -0.461737       -12.5645
  65   2.0000      -0.446778       -12.1574
  66   2.0000      -0.442211       -12.0332
  67   2.0000      -0.440915       -11.9979
  68   2.0000      -0.431659       -11.7460
  69   2.0000      -0.420232       -11.4351
  70   2.0000      -0.410222       -11.1627
  71   2.0000      -0.400228       -10.8908
  72   2.0000      -0.396527       -10.7900
  73   2.0000      -0.385620       -10.4933
  74   2.0000      -0.380184       -10.3453
  75   2.0000      -0.375672       -10.2226
  76   2.0000      -0.368944       -10.0395
  77   2.0000      -0.363112        -9.8808
  78   2.0000      -0.361831        -9.8459
  79   2.0000      -0.353467        -9.6183
  80   2.0000      -0.352075        -9.5805
  81   2.0000      -0.349526        -9.5111
  82   2.0000      -0.345198        -9.3933
  83   2.0000      -0.341956        -9.3051
  84   2.0000      -0.335020        -9.1164
  85   2.0000      -0.323033        -8.7902
  86   2.0000      -0.312054        -8.4914
  87   2.0000      -0.305130        -8.3030
  88   2.0000      -0.292599        -7.9620
  89   2.0000      -0.291642        -7.9360
  90   2.0000      -0.290623        -7.9082
  91   2.0000      -0.281552        -7.6614
  92   2.0000      -0.269827        -7.3424
  93   2.0000      -0.264007        -7.1840
  94   2.0000      -0.260238        -7.0814
  95   2.0000      -0.236763        -6.4426
  96   2.0000      -0.219222        -5.9653
  97   2.0000      -0.215426        -5.8620
  98   2.0000      -0.206241        -5.6121
  99   2.0000      -0.201607        -5.4860
 100   2.0000      -0.198720        -5.4074
 101   0.0000      -0.044860        -1.2207
 102   0.0000      -0.024981        -0.6798
 103   0.0000      -0.003372        -0.0917
 104   0.0000       0.001281         0.0349
 105   0.0000       0.014619         0.3978

MULLIKEN ATOMIC CHARGES
-----------------------
   0 C :   -0.282549
   1 C :   -0.013905
   2 O :   -0.375357
   3 P :    0.614792
   4 S :   -0.334665
   5 O :   -0.357663
   6 C :   -0.005483
   7 C :   -0.306540
   8 S :   -0.069559
   9 C :   -0.375572
  10 S :   -0.101408
  11 P :    0.605673
  12 S :   -0.319335
  13 O :   -0.376197
  14 C :   -0.002059
  15 C :   -0.314535
  16 O :   -0.355446
  17 C :   -0.023230
  18 C :   -0.317512
  19 H :    0.119246
  20 H :    0.118830
  21 H :    0.114748
  22 H :    0.107673
  23 H :    0.108818
  24 H :    0.115935
  25 H :    0.104886
  26 H :    0.114479
  27 H :    0.116969
  28 H :    0.124276
  29 H :    0.195806
  30 H :    0.194450
  31 H :    0.114581
  32 H :    0.104170
  33 H :    0.114830
  34 H :    0.127857
  35 H :    0.113319
  36 H :    0.106063
  37 H :    0.140466
  38 H :    0.118797
  39 H :    0.122841
  40 H :    0.111512
Sum of atomic charges:   -0.0000000

LOEWDIN ATOMIC CHARGES
----------------------
   0 C :   -0.350211
   1 C :   -0.119270
   2 O :   -0.245742
   3 P :    0.571706
   4 S :   -0.320151
   5 O :   -0.232863
   6 C :   -0.116624
   7 C :   -0.364157
   8 S :    0.088994
   9 C :   -0.490030
  10 S :    0.074553
  11 P :    0.575270
  12 S :   -0.313799
  13 O :   -0.242583
  14 C :   -0.117397
  15 C :   -0.370204
  16 O :   -0.232599
  17 C :   -0.118132
  18 C :   -0.368100
  19 H :    0.127775
  20 H :    0.128008
  21 H :    0.132287
  22 H :    0.112984
  23 H :    0.109443
  24 H :    0.112383
  25 H :    0.116921
  26 H :    0.131692
  27 H :    0.126629
  28 H :    0.122814
  29 H :    0.128275
  30 H :    0.128224
  31 H :    0.113152
  32 H :    0.118263
  33 H :    0.122708
  34 H :    0.121655
  35 H :    0.131212
  36 H :    0.121723
  37 H :    0.112399
  38 H :    0.115964
  39 H :    0.128006
  40 H :    0.128821

  Mayer bond orders larger than 0.100000
B(  0-C ,  1-C ) :   1.1614 B(  0-C , 19-H ) :   0.9514 B(  0-C , 20-H ) :   0.9503
B(  0-C , 21-H ) :   0.9414 B(  1-C ,  2-O ) :   0.9002 B(  1-C , 22-H ) :   0.9297
B(  1-C , 23-H ) :   0.9099 B(  2-O ,  3-P ) :   1.1151 B(  3-P ,  4-S ) :   1.5979
B(  3-P ,  5-O ) :   1.1157 B(  3-P ,  8-S ) :   0.9717 B(  4-S ,  8-S ) :   0.1095
B(  5-O ,  6-C ) :   0.8950 B(  6-C ,  7-C ) :   1.1648 B(  6-C , 24-H ) :   0.9153
B(  6-C , 25-H ) :   0.9318 B(  7-C , 26-H ) :   0.9388 B(  7-C , 27-H ) :   0.9461
B(  7-C , 28-H ) :   0.9348 B(  8-S ,  9-C ) :   1.0015 B(  9-C , 10-S ) :   1.0084
B(  9-C , 29-H ) :   0.8650 B(  9-C , 30-H ) :   0.8705 B( 10-S , 11-P ) :   0.9321
B( 10-S , 12-S ) :   0.1079 B( 11-P , 12-S ) :   1.6201 B( 11-P , 13-O ) :   1.0925
B( 11-P , 16-O ) :   1.1574 B( 13-O , 14-C ) :   0.9061 B( 14-C , 15-C ) :   1.1653
B( 14-C , 31-H ) :   0.9161 B( 14-C , 32-H ) :   0.9340 B( 15-C , 33-H ) :   0.9449
B( 15-C , 34-H ) :   0.9349 B( 15-C , 35-H ) :   0.9374 B( 16-O , 17-C ) :   0.8925
B( 17-C , 18-C ) :   1.1726 B( 17-C , 36-H ) :   0.9330 B( 17-C , 37-H ) :   0.9012
B( 18-C , 38-H ) :   0.9372 B( 18-C , 39-H ) :   0.9414 B( 18-C , 40-H ) :   0.9345

Dispersion correction           -0.065084061
FINAL SINGLE POINT ENERGY     -2929.523828406385

DIPOLE MOMENT
-------------

Method             : SCF
Type of density    : Electron Density
Multiplicity       :   1
Irrep              :   0
Energy             : -2929.6444043147025695 Eh
Relativity type    :
Basis              : AO
                                X                 Y                 Z
Electronic contribution:     -6.069531481       9.080608894     -14.140753605
Nuclear contribution   :      6.527917440     -10.000345791      15.388553194
                        -----------------------------------------
Total Dipole Moment    :      0.458385959      -0.919736897       1.247799588
                        -----------------------------------------
Magnitude (a.u.)       :      1.616489239
Magnitude (Debye)      :      4.108789115

Rotational constants in cm-1:             0.013772             0.004509             0.004283
Rotational constants in MHz :           412.878968           135.168905           128.387830

                             ****ORCA TERMINATED NORMALLY****
TOTAL RUN TIME: 0 days 0 hours 0 minutes 21 seconds 341 msec
