                         Program Version 6.0.0  -   RELEASE  -
|  1> ! r2scan-3c def2/J RI DEFGRID2 scfconv6 printgap
|  2> %output
|  3>     printlevel normal
|  4> end
|  5> %cpcm
|  6>     smd true
|  7>     smdsolvent "water"
|  8> end
|  9> * xyz 0 1
| 10> C -0.4674658371 -0.7269697794 -3.7323e-06
| 11> C -0.3958568927 0.7683113921 1.08096e-05
| 12> C 0.8633251309 -0.0413477939 -1.09795e-05
| 13> H -0.7868756785 -1.223370304 -0.9032537791
| 14> H -0.7867026595 -1.2235520318 0.9032722814
| 15> H -0.666183539 1.2931362629 -0.9032702389
| 16> H -0.6661927651 1.2930662441 0.9033243201
| 17> H 1.45291669 -0.0696262731 -0.9032922808
| 18> H 1.4530093394 -0.069580242 0.9032661968
| 19> *
| 20>
| 21>                          ****END OF INPUT****

CARTESIAN COORDINATES (ANGSTROEM)
---------------------------------
  C     -0.467466   -0.726970   -0.000004
  C     -0.395857    0.768311    0.000011
  C      0.863325   -0.041348   -0.000011
  H     -0.786876   -1.223370   -0.903254
  H     -0.786703   -1.223552    0.903272
  H     -0.666184    1.293136   -0.903270
  H     -0.666193    1.293066    0.903324
  H      1.452917   -0.069626   -0.903292
  H      1.453009   -0.069580    0.903266

 Total Charge           Charge          ....    0
 Multiplicity           Mult            ....    1
 Number of Electrons    NEL             ....   24
 Basis Dimension        Dim             ....   87

ORBITAL ENERGIES
----------------

  NO   OCC          E(Eh)            E(eV)
   0   2.0000     -10.024964      -272.7931
   1   2.0000     -10.024705      -272.7861
   2   2.0000     -10.024684      -272.7855
   3   2.0000      -0.817231       -22.2380
   4   2.0000      -0.560533       -15.2529
   5   2.0000      -0.560522       -15.2526
   6   2.0000      -0.456325       -12.4172
   7   2.0000      -0.433344       -11.7919
   8   2.0000      -0.322722        -8.7817
   9   2.0000      -0.322698        -8.7811
  10   2.0000      -0.265830        -7.2336
  11   2.0000      -0.265802        -7.2328
  12   0.0000       0.117092         3.1862
  13   0.0000       0.121067         3.2944
  14   0.0000       0.121103         3.2954
  15   0.0000       0.126830         3.4512
  16   0.0000       0.128179         3.4879

MULLIKEN ATOMIC CHARGES
-----------------------
   0 C :   -0.351027
   1 C :   -0.350747
   2 C :   -0.350686
   3 H :    0.175416
   4 H :    0.175413
   5 H :    0.175372
   6 H :    0.175368
   7 H :    0.175445
   8 H :    0.175447
Sum of atomic charges:   -0.0000000

LOEWDIN ATOMIC CHARGES
----------------------
   0 C :   -0.326589
   1 C :   -0.326530
   2 C :   -0.326510
   3 H :    0.163259
   4 H :    0.163267
   5 H :    0.163264
   6 H :    0.163262
   7 H :    0.163284
   8 H :    0.163294

  Mayer bond orders larger than 0.100000
B(  0-C ,  1-C ) :   0.9380 B(  0-C ,  2-C ) :   0.9379 B(  0-C ,  3-H ) :   0.9535
B(  0-C ,  4-H ) :   0.9535 B(  1-C ,  2-C ) :   0.9377 B(  1-C ,  5-H ) :   0.9535
B(  1-C ,  6-H ) :   0.9535 B(  2-C ,  7-H ) :   0.9535 B(  2-C ,  8-H ) :   0.9535

Dispersion correction           -0.001276328
FINAL SINGLE POINT ENERGY      -117.851282632388

DIPOLE MOMENT
-------------

Method             : SCF
Type of density    : Electron Density
Multiplicity       :   1
Irrep              :   0
Energy             :  -117.8530728884085903 Eh
Relativity type    :
Basis              : AO
                                X                 Y                 Z
Electronic contribution:      0.000463285       0.000267933      -0.000057787
Nuclear contribution   :     -0.000026843       0.000069102       0.000043624
                        -----------------------------------------
Total Dipole Moment    :      0.000436442       0.000337035      -0.000014163
                        -----------------------------------------
Magnitude (a.u.)       :      0.000551611
Magnitude (Debye)      :      0.001402084

Rotational constants in cm-1:             0.679981             0.679954             0.424472
Rotational constants in MHz :         20385.316797         20384.502584         12725.350997

                             ****ORCA TERMINATED NORMALLY****
TOTAL RUN TIME: 0 days 0 hours 0 minutes 9 seconds 916 msec
