                         Program Version 6.0.0  -   RELEASE  -
|  1> ! pbe def2-sv(p) def2/J RI DEFGRID1 loosescf d4 GCP(DFT/SV(P)) printgap
|  2> %output
|  3>     printlevel normal
|  4> end
|  5> * xyz 0 1
|  6> C 2.3796202509 -0.1912939857 -3.0694692251
|  7> C 3.2254902212 0.4370128974 -1.9804106829
|  8> O 2.4134480475 0.9048762204 -0.8763516509
|  9> P 2.0134565546 0.0277913307 0.3805964959
| 10> S 1.118203367 1.1315636548 1.7240656612
| 11> O 3.3825083187 -0.6447339484 0.8821151469
| 12> C 4.3735717667 0.1259102004 1.5936845638
| 13> C 4.2866950352 -0.1481680689 3.0822382911
| 14> S 1.0965879304 -1.7635393104 -0.2393138801
| 15> C -0.180571949 -1.9020216499 1.0528928395
| 16> S -1.8695090424 -1.8964201105 0.3924556434
| 17> P -2.0872429884 0.1110440704 -0.2049255653
| 18> S -0.7768855403 0.9652429001 -1.3993544262
| 19> O -2.2759306615 0.7713387976 1.2217175235
| 20> C -2.2216083098 2.1931530554 1.4437829541
| 21> C -3.3866497699 2.9130267901 0.7992208963
| 22> O -3.564800171 0.1218026291 -0.7880914385
| 23> C -3.8474206329 -0.1057140335 -2.1797682872
| 24> C -3.5173570409 -1.5223411063 -2.602972747
| 25> H 1.546778416 0.4647455715 -3.3120013629
| 26> H 2.9921168947 -0.339522841 -3.9530683849
| 27> H 1.9813968257 -1.1502869921 -2.7459523303
| 28> H 3.7157244935 1.3446658161 -2.3371153819
| 29> H 3.9701255044 -0.2676719416 -1.6002838101
| 30> H 5.3326971745 -0.199860359 1.1862238955
| 31> H 4.227344776 1.1903106501 1.3817518596
| 32> H 3.3312577386 0.1975265551 3.4710626041
| 33> H 4.3774928455 -1.2145898148 3.2674925717
| 34> H 5.0881143828 0.377672396 3.5911453878
| 35> H -0.0590206013 -1.0774335723 1.7598722578
| 36> H -0.0611731855 -2.8663005877 1.5393047664
| 37> H -2.232365775 2.2849581085 2.5308017077
| 38> H -1.2667385017 2.5691636903 1.061692888
| 39> H -3.3088048549 2.8491869322 -0.2853623368
| 40> H -4.3241782252 2.4615982712 1.1130060231
| 41> H -3.368356376 3.9575927356 1.0940210415
| 42> H -4.9138441493 0.1056344444 -2.2675160162
| 43> H -3.2724374627 0.614788193 -2.7705624489
| 44> H -3.8499607918 -1.6799382289 -3.6238909272
| 45> H -2.4407540708 -1.6825470867 -2.5528841062
| 46> H -4.0071901486 -2.2367304468 -1.9461310366
| 47> *
| 48>
| 49>                          ****END OF INPUT****

CARTESIAN COORDINATES (ANGSTROEM)
---------------------------------
  C      2.379620   -0.191294   -3.069469
  C      3.225490    0.437013   -1.980411
  O      2.413448    0.904876   -0.876352
  P      2.013457    0.027791    0.380596
  S      1.118203    1.131564    1.724066
  O      3.382508   -0.644734    0.882115
  C      4.373572    0.125910    1.593685
  C      4.286695   -0.148168    3.082238
  S      1.096588   -1.763539   -0.239314
  C     -0.180572   -1.902022    1.052893
  S     -1.869509   -1.896420    0.392456
  P     -2.087243    0.111044   -0.204926
  S     -0.776886    0.965243   -1.399354
  O     -2.275931    0.771339    1.221718
  C     -2.221608    2.193153    1.443783
  C     -3.386650    2.913027    0.799221
  O     -3.564800    0.121803   -0.788091
  C     -3.847421   -0.105714   -2.179768
  C     -3.517357   -1.522341   -2.602973
  H      1.546778    0.464746   -3.312001
  H      2.992117   -0.339523   -3.953068
  H      1.981397   -1.150287   -2.745952
  H      3.715724    1.344666   -2.337115
  H      3.970126   -0.267672   -1.600284
  H      5.332697   -0.199860    1.186224
  H      4.227345    1.190311    1.381752
  H      3.331258    0.197527    3.471063
  H      4.377493   -1.214590    3.267493
  H      5.088114    0.377672    3.591145
  H     -0.059021   -1.077434    1.759872
  H     -0.061173   -2.866301    1.539305
  H     -2.232366    2.284958    2.530802
  H     -1.266739    2.569164    1.061693
  H     -3.308805    2.849187   -0.285362
  H     -4.324178    2.461598    1.113006
  H     -3.368356    3.957593    1.094021
  H     -4.913844    0.105634   -2.267516
  H     -3.272437    0.614788   -2.770562
  H     -3.849961   -1.679938   -3.623891
  H     -2.440754   -1.682547   -2.552884
  H     -4.007190   -2.236730   -1.946131

 Total Charge           Charge          ....    0
 Multiplicity           Mult            ....    1
 Number of Electrons    NEL             ....  202
 Basis Dimension        Dim             ....  334

ORBITAL ENERGIES
----------------

  NO   OCC          E(Eh)            E(eV)
   0   2.0000     -88.038689     -2395.6545
   1   2.0000     -88.038375     -2395.6460
   2   2.0000     -87.982982     -2394.1386
   3   2.0000     -87.979861     -2394.0537
   4   2.0000     -76.422480     -2079.5614
   5   2.0000     -76.419453     -2079.4790
   6   2.0000     -18.790780      -511.3231
   7   2.0000     -18.786456      -511.2055
   8   2.0000     -18.783127      -511.1149
   9   2.0000     -18.780143      -511.0337
  10   2.0000      -9.956271      -270.9239
  11   2.0000      -9.954051      -270.8635
  12   2.0000      -9.950174      -270.7580
  13   2.0000      -9.948365      -270.7088
  14   2.0000      -9.938572      -270.4423
  15   2.0000      -9.882512      -268.9168
  16   2.0000      -9.880948      -268.8743
  17   2.0000      -9.878362      -268.8039
  18   2.0000      -9.875372      -268.7225
  19   2.0000      -7.684097      -209.0949
  20   2.0000      -7.683955      -209.0910
  21   2.0000      -7.628069      -207.5703
  22   2.0000      -7.624332      -207.4686
  23   2.0000      -6.420269      -174.7044
  24   2.0000      -6.416981      -174.6149
  25   2.0000      -5.712061      -155.4331
  26   2.0000      -5.711789      -155.4257
  27   2.0000      -5.708864      -155.3461
  28   2.0000      -5.708501      -155.3362
  29   2.0000      -5.700836      -155.1276
  30   2.0000      -5.700611      -155.1215
  31   2.0000      -5.657053      -153.9362
  32   2.0000      -5.653120      -153.8292
  33   2.0000      -5.649026      -153.7178
  34   2.0000      -5.647700      -153.6817
  35   2.0000      -5.645020      -153.6088
  36   2.0000      -5.644630      -153.5982
  37   2.0000      -4.643258      -126.3495
  38   2.0000      -4.641642      -126.3055
  39   2.0000      -4.640759      -126.2815
  40   2.0000      -4.639474      -126.2465
  41   2.0000      -4.638754      -126.2269
  42   2.0000      -4.637516      -126.1932
  43   2.0000      -0.981192       -26.6996
  44   2.0000      -0.979483       -26.6531
  45   2.0000      -0.938472       -25.5371
  46   2.0000      -0.937624       -25.5141
  47   2.0000      -0.759826       -20.6759
  48   2.0000      -0.718375       -19.5480
  49   2.0000      -0.704093       -19.1594
  50   2.0000      -0.688516       -18.7355
  51   2.0000      -0.681376       -18.5412
  52   2.0000      -0.668863       -18.2007
  53   2.0000      -0.649289       -17.6680
  54   2.0000      -0.632603       -17.2140
  55   2.0000      -0.596598       -16.2343
  56   2.0000      -0.582785       -15.8584
  57   2.0000      -0.574617       -15.6361
  58   2.0000      -0.566261       -15.4088
  59   2.0000      -0.554947       -15.1009
  60   2.0000      -0.505261       -13.7489
  61   2.0000      -0.485734       -13.2175
  62   2.0000      -0.471133       -12.8202
  63   2.0000      -0.465898       -12.6777
  64   2.0000      -0.450393       -12.2558
  65   2.0000      -0.444429       -12.0935
  66   2.0000      -0.437077       -11.8935
  67   2.0000      -0.432123       -11.7587
  68   2.0000      -0.424938       -11.5631
  69   2.0000      -0.415860       -11.3161
  70   2.0000      -0.407629       -11.0921
  71   2.0000      -0.387138       -10.5346
  72   2.0000      -0.384950       -10.4750
  73   2.0000      -0.382596       -10.4110
  74   2.0000      -0.375654       -10.2221
  75   2.0000      -0.371092       -10.0979
  76   2.0000      -0.367413        -9.9978
  77   2.0000      -0.353879        -9.6296
  78   2.0000      -0.350343        -9.5333
  79   2.0000      -0.347619        -9.4592
  80   2.0000      -0.343592        -9.3496
  81   2.0000      -0.342293        -9.3143
  82   2.0000      -0.336656        -9.1609
  83   2.0000      -0.333433        -9.0732
  84   2.0000      -0.330991        -9.0067
  85   2.0000      -0.310403        -8.4465
  86   2.0000      -0.305531        -8.3139
  87   2.0000      -0.302311        -8.2263
  88   2.0000      -0.290351        -7.9008
  89   2.0000      -0.278427        -7.5764
  90   2.0000      -0.274944        -7.4816
  91   2.0000      -0.270221        -7.3531
  92   2.0000      -0.266119        -7.2415
  93   2.0000      -0.264950        -7.2097
  94   2.0000      -0.256642        -6.9836
  95   2.0000      -0.235227        -6.4009
  96   2.0000      -0.218280        -5.9397
  97   2.0000      -0.207562        -5.6481
  98   2.0000      -0.200737        -5.4623
  99   2.0000      -0.190025        -5.1708
 100   2.0000      -0.182399        -4.9633
 101   0.0000      -0.039301        -1.0694
 102   0.0000      -0.030921        -0.8414
 103   0.0000      -0.008331        -0.2267
 104   0.0000       0.005404         0.1470
 105   0.0000       0.022800         0.6204

MULLIKEN ATOMIC CHARGES
-----------------------
   0 C :   -0.305014
   1 C :   -0.028597
   2 O :   -0.359845
   3 P :    0.630657
   4 S :   -0.308741
   5 O :   -0.387356
   6 C :   -0.015405
   7 C :   -0.282217
   8 S :   -0.090886
   9 C :   -0.344584
  10 S :   -0.088574
  11 P :    0.617788
  12 S :   -0.325909
  13 O :   -0.365075
  14 C :   -0.011154
  15 C :   -0.301621
  16 O :   -0.373567
  17 C :   -0.002481
  18 C :   -0.320266
  19 H :    0.137969
  20 H :    0.108006
  21 H :    0.132055
  22 H :    0.110134
  23 H :    0.104329
  24 H :    0.100420
  25 H :    0.104662
  26 H :    0.123708
  27 H :    0.111096
  28 H :    0.105021
  29 H :    0.196732
  30 H :    0.183458
  31 H :    0.101564
  32 H :    0.128417
  33 H :    0.119315
  34 H :    0.113674
  35 H :    0.109058
  36 H :    0.103956
  37 H :    0.108780
  38 H :    0.112011
  39 H :    0.129100
  40 H :    0.119378
Sum of atomic charges:   -0.0000000

LOEWDIN ATOMIC CHARGES
----------------------
   0 C :   -0.364296
   1 C :   -0.115033
   2 O :   -0.234963
   3 P :    0.574908
   4 S :   -0.291243
   5 O :   -0.264161
   6 C :   -0.119919
   7 C :   -0.360574
   8 S :    0.087751
   9 C :   -0.477837
  10 S :    0.090429
  11 P :    0.568478
  12 S :   -0.313505
  13 O :   -0.237340
  14 C :   -0.121068
  15 C :   -0.364908
  16 O :   -0.243941
  17 C :   -0.120689
  18 C :   -0.371633
  19 H :    0.131614
  20 H :    0.128875
  21 H :    0.119339
  22 H :    0.121617
  23 H :    0.108432
  24 H :    0.113957
  25 H :    0.108799
  26 H :    0.124193
  27 H :    0.124974
  28 H :    0.127330
  29 H :    0.124597
  30 H :    0.138491
  31 H :    0.118025
  32 H :    0.110296
  33 H :    0.121439
  34 H :    0.124756
  35 H :    0.129052
  36 H :    0.118095
  37 H :    0.109001
  38 H :    0.130636
  39 H :    0.122053
  40 H :    0.123975

  Mayer bond orders larger than 0.100000
B(  0-C ,  1-C ) :   1.1718 B(  0-C , 19-H ) :   0.9391 B(  0-C , 20-H ) :   0.9372
B(  0-C , 21-H ) :   0.9351 B(  1-C ,  2-O ) :   0.9079 B(  1-C , 22-H ) :   0.9343
B(  1-C , 23-H ) :   0.9186 B(  2-O ,  3-P ) :   1.1202 B(  3-P ,  4-S ) :   1.6015
B(  3-P ,  5-O ) :   1.0707 B(  3-P ,  8-S ) :   0.9624 B(  4-S ,  8-S ) :   0.1110
B(  4-S , 29-H ) :   0.1085 B(  5-O ,  6-C ) :   0.9010 B(  6-C ,  7-C ) :   1.1724
B(  6-C , 24-H ) :   0.9332 B(  6-C , 25-H ) :   0.9129 B(  7-C , 26-H ) :   0.9352
B(  7-C , 27-H ) :   0.9476 B(  7-C , 28-H ) :   0.9407 B(  8-S ,  9-C ) :   1.0001
B(  9-C , 10-S ) :   0.9973 B(  9-C , 29-H ) :   0.8514 B(  9-C , 30-H ) :   0.9117
B( 10-S , 11-P ) :   0.9643 B( 10-S , 12-S ) :   0.1191 B( 11-P , 12-S ) :   1.6038
B( 11-P , 13-O ) :   1.1348 B( 11-P , 16-O ) :   1.0978 B( 13-O , 14-C ) :   0.9014
B( 14-C , 15-C ) :   1.1614 B( 14-C , 31-H ) :   0.9365 B( 14-C , 32-H ) :   0.9086
B( 15-C , 33-H ) :   0.9384 B( 15-C , 34-H ) :   0.9452 B( 15-C , 35-H ) :   0.9394
B( 16-O , 17-C ) :   0.9090 B( 17-C , 18-C ) :   1.1665 B( 17-C , 36-H ) :   0.9333
B( 17-C , 37-H ) :   0.9134 B( 18-C , 38-H ) :   0.9377 B( 18-C , 39-H ) :   0.9334
B( 18-C , 40-H ) :   0.9435

Dispersion correction           -0.067568858
FINAL SINGLE POINT ENERGY     -2929.514228290465

DIPOLE MOMENT
-------------

Method             : SCF
Type of density    : Electron Density
Multiplicity       :   1
Irrep              :   0
Energy             : -2929.6313984026178332 Eh
Relativity type    :
Basis              : AO
                                X                 Y                 Z
Electronic contribution:     -2.787188678      -5.505295636       4.778028045
Nuclear contribution   :      3.322168275       5.288636822      -5.228908331
                        -----------------------------------------
Total Dipole Moment    :      0.534979597      -0.216658814      -0.450880286
                        -----------------------------------------
Magnitude (a.u.)       :      0.732418762
Magnitude (Debye)      :      1.861660545

Rotational constants in cm-1:             0.012187             0.005430             0.004967
Rotational constants in MHz :           365.349441           162.773850           148.920569

                             ****ORCA TERMINATED NORMALLY****
TOTAL RUN TIME: 0 days 0 hours 0 minutes 20 seconds 992 msec
