                         Program Version 6.0.0  -   RELEASE  -
|  1> ! pbe def2-sv(p) def2/J RI DEFGRID1 loosescf d4 GCP(DFT/SV(P)) printgap
|  2> %output
|  3>     printlevel normal
|  4> end
|  5> * xyz 0 1
|  6> C 4.0601726981 -1.5101234544 -2.5420252047
|  7> C 4.4783639939 -1.6119839486 -1.0893634375
|  8> O 3.347197414 -1.6254881155 -0.2018580409
|  9> P 2.4045257101 -0.3611849857 0.0006300882
| 10> S 3.348602894 1.362373567 0.0564953755
| 11> O 1.6182925414 -0.7624861014 1.3128578264
| 12> C 2.0793150271 -0.439219278 2.6458030088
| 13> C 0.8916071665 0.0146106901 3.4701800104
| 14> S 0.8641547333 -0.5772349694 -1.4223134085
| 15> C 0.1836147899 1.092052087 -1.2086936284
| 16> S -0.7685927341 1.284372806 0.3108398973
| 17> P -2.6520661824 0.5488917051 -0.3922380945
| 18> S -2.8567653754 0.5147308987 -2.3394539355
| 19> O -3.7190837482 1.4698752994 0.3000625174
| 20> C -3.6360813649 2.035897551 1.6326092739
| 21> C -3.3927310215 0.991591109 2.6996272964
| 22> O -2.9224354588 -0.8542241945 0.3106793703
| 23> C -2.3554558057 -2.0963350028 -0.140124404
| 24> C -1.3338181992 -2.5999072083 0.8610639643
| 25> H 4.9333399355 -1.6199928432 -3.1771373664
| 26> H 3.3373473306 -2.285602576 -2.7831641894
| 27> H 3.6066968323 -0.5378930709 -2.7323638027
| 28> H 5.1227266644 -0.7706432366 -0.8146630802
| 29> H 4.987052784 -2.5539577757 -0.8805588254
| 30> H 2.5331891387 -1.3439645177 3.0549298254
| 31> H 2.8364324485 0.3488784507 2.5757248632
| 32> H 0.4551465732 0.909097353 3.032348538
| 33> H 0.1390945758 -0.7679845811 3.501661951
| 34> H 1.2237527336 0.2342992644 4.4795009236
| 35> H -0.466145894 1.2776840196 -2.0656095777
| 36> H 1.0045448778 1.8080572248 -1.1634710724
| 37> H -2.8413811211 2.7861547243 1.6317381568
| 38> H -4.6050434852 2.5221886273 1.7543023019
| 39> H -2.4116917163 0.5407229045 2.5639055632
| 40> H -3.430737051 1.4660836935 3.6752651438
| 41> H -4.1501829592 0.2142739646 2.6452352131
| 42> H -3.1987329708 -2.7856610113 -0.2207140002
| 43> H -1.9128967369 -1.9580188088 -1.1325308513
| 44> H -1.7962806547 -2.7096393581 1.8379477255
| 45> H -0.958714408 -3.5630610573 0.5304365707
| 46> H -0.4982790991 -1.9088263763 0.9406027158
| 47> *
| 48>
| 49>                          ****END OF INPUT****

CARTESIAN COORDINATES (ANGSTROEM)
---------------------------------
  C      4.060173   -1.510123   -2.542025
  C      4.478364   -1.611984   -1.089363
  O      3.347197   -1.625488   -0.201858
  P      2.404526   -0.361185    0.000630
  S      3.348603    1.362374    0.056495
  O      1.618293   -0.762486    1.312858
  C      2.079315   -0.439219    2.645803
  C      0.891607    0.014611    3.470180
  S      0.864155   -0.577235   -1.422313
  C      0.183615    1.092052   -1.208694
  S     -0.768593    1.284373    0.310840
  P     -2.652066    0.548892   -0.392238
  S     -2.856765    0.514731   -2.339454
  O     -3.719084    1.469875    0.300063
  C     -3.636081    2.035898    1.632609
  C     -3.392731    0.991591    2.699627
  O     -2.922435   -0.854224    0.310679
  C     -2.355456   -2.096335   -0.140124
  C     -1.333818   -2.599907    0.861064
  H      4.933340   -1.619993   -3.177137
  H      3.337347   -2.285603   -2.783164
  H      3.606697   -0.537893   -2.732364
  H      5.122727   -0.770643   -0.814663
  H      4.987053   -2.553958   -0.880559
  H      2.533189   -1.343965    3.054930
  H      2.836432    0.348878    2.575725
  H      0.455147    0.909097    3.032349
  H      0.139095   -0.767985    3.501662
  H      1.223753    0.234299    4.479501
  H     -0.466146    1.277684   -2.065610
  H      1.004545    1.808057   -1.163471
  H     -2.841381    2.786155    1.631738
  H     -4.605043    2.522189    1.754302
  H     -2.411692    0.540723    2.563906
  H     -3.430737    1.466084    3.675265
  H     -4.150183    0.214274    2.645235
  H     -3.198733   -2.785661   -0.220714
  H     -1.912897   -1.958019   -1.132531
  H     -1.796281   -2.709639    1.837948
  H     -0.958714   -3.563061    0.530437
  H     -0.498279   -1.908826    0.940603

 Total Charge           Charge          ....    0
 Multiplicity           Mult            ....    1
 Number of Electrons    NEL             ....  202
 Basis Dimension        Dim             ....  334

ORBITAL ENERGIES
----------------

  NO   OCC          E(Eh)            E(eV)
   0   2.0000     -88.048189     -2395.9130
   1   2.0000     -88.044178     -2395.8039
   2   2.0000     -87.994323     -2394.4473
   3   2.0000     -87.984618     -2394.1832
   4   2.0000     -76.431709     -2079.8125
   5   2.0000     -76.426865     -2079.6807
   6   2.0000     -18.797883      -511.5164
   7   2.0000     -18.795971      -511.4644
   8   2.0000     -18.794916      -511.4357
   9   2.0000     -18.787959      -511.2464
  10   2.0000      -9.961923      -271.0777
  11   2.0000      -9.956372      -270.9266
  12   2.0000      -9.956277      -270.9241
  13   2.0000      -9.953393      -270.8456
  14   2.0000      -9.947147      -270.6756
  15   2.0000      -9.892936      -269.2005
  16   2.0000      -9.889426      -269.1050
  17   2.0000      -9.887239      -269.0455
  18   2.0000      -9.877140      -268.7706
  19   2.0000      -7.693179      -209.3420
  20   2.0000      -7.688872      -209.2248
  21   2.0000      -7.639186      -207.8728
  22   2.0000      -7.629862      -207.6191
  23   2.0000      -6.429484      -174.9552
  24   2.0000      -6.424308      -174.8143
  25   2.0000      -5.720944      -155.6748
  26   2.0000      -5.717835      -155.5902
  27   2.0000      -5.716691      -155.5591
  28   2.0000      -5.713316      -155.4672
  29   2.0000      -5.710104      -155.3798
  30   2.0000      -5.706035      -155.2691
  31   2.0000      -5.667912      -154.2317
  32   2.0000      -5.659916      -154.0141
  33   2.0000      -5.659460      -154.0017
  34   2.0000      -5.658865      -153.9856
  35   2.0000      -5.650499      -153.7579
  36   2.0000      -5.649863      -153.7406
  37   2.0000      -4.651971      -126.5866
  38   2.0000      -4.651206      -126.5658
  39   2.0000      -4.649994      -126.5328
  40   2.0000      -4.646990      -126.4510
  41   2.0000      -4.646063      -126.4258
  42   2.0000      -4.644684      -126.3883
  43   2.0000      -0.991972       -26.9929
  44   2.0000      -0.987275       -26.8651
  45   2.0000      -0.950814       -25.8730
  46   2.0000      -0.944428       -25.6992
  47   2.0000      -0.767058       -20.8727
  48   2.0000      -0.725741       -19.7484
  49   2.0000      -0.714836       -19.4517
  50   2.0000      -0.691534       -18.8176
  51   2.0000      -0.689991       -18.7756
  52   2.0000      -0.678286       -18.4571
  53   2.0000      -0.651888       -17.7388
  54   2.0000      -0.639660       -17.4060
  55   2.0000      -0.604764       -16.4565
  56   2.0000      -0.596892       -16.2423
  57   2.0000      -0.577217       -15.7069
  58   2.0000      -0.570990       -15.5374
  59   2.0000      -0.559637       -15.2285
  60   2.0000      -0.507876       -13.8200
  61   2.0000      -0.497972       -13.5505
  62   2.0000      -0.478128       -13.0105
  63   2.0000      -0.477521       -12.9940
  64   2.0000      -0.463338       -12.6081
  65   2.0000      -0.447722       -12.1831
  66   2.0000      -0.445270       -12.1164
  67   2.0000      -0.437513       -11.9053
  68   2.0000      -0.432171       -11.7600
  69   2.0000      -0.422445       -11.4953
  70   2.0000      -0.407271       -11.0824
  71   2.0000      -0.402599       -10.9553
  72   2.0000      -0.395235       -10.7549
  73   2.0000      -0.389605       -10.6017
  74   2.0000      -0.384587       -10.4651
  75   2.0000      -0.378459       -10.2984
  76   2.0000      -0.364139        -9.9087
  77   2.0000      -0.361159        -9.8276
  78   2.0000      -0.357872        -9.7382
  79   2.0000      -0.356849        -9.7104
  80   2.0000      -0.352617        -9.5952
  81   2.0000      -0.345754        -9.4084
  82   2.0000      -0.345406        -9.3990
  83   2.0000      -0.341034        -9.2800
  84   2.0000      -0.333147        -9.0654
  85   2.0000      -0.324374        -8.8267
  86   2.0000      -0.313190        -8.5223
  87   2.0000      -0.300884        -8.1875
  88   2.0000      -0.294255        -8.0071
  89   2.0000      -0.292081        -7.9479
  90   2.0000      -0.288096        -7.8395
  91   2.0000      -0.281957        -7.6724
  92   2.0000      -0.276724        -7.5300
  93   2.0000      -0.268819        -7.3149
  94   2.0000      -0.256963        -6.9923
  95   2.0000      -0.237257        -6.4561
  96   2.0000      -0.221481        -6.0268
  97   2.0000      -0.215580        -5.8662
  98   2.0000      -0.208603        -5.6764
  99   2.0000      -0.204579        -5.5669
 100   2.0000      -0.199253        -5.4220
 101   0.0000      -0.047911        -1.3037
 102   0.0000      -0.030736        -0.8364
 103   0.0000      -0.011631        -0.3165
 104   0.0000      -0.000985        -0.0268
 105   0.0000       0.010260         0.2792

MULLIKEN ATOMIC CHARGES
-----------------------
   0 C :   -0.319926
   1 C :   -0.003539
   2 O :   -0.372812
   3 P :    0.612602
   4 S :   -0.334152
   5 O :   -0.358395
   6 C :   -0.006740
   7 C :   -0.301192
   8 S :   -0.072048
   9 C :   -0.360326
  10 S :   -0.120504
  11 P :    0.599949
  12 S :   -0.308523
  13 O :   -0.359124
  14 C :   -0.007717
  15 C :   -0.326447
  16 O :   -0.372921
  17 C :   -0.003887
  18 C :   -0.326540
  19 H :    0.115702
  20 H :    0.119570
  21 H :    0.129246
  22 H :    0.112785
  23 H :    0.106603
  24 H :    0.105990
  25 H :    0.108005
  26 H :    0.131678
  27 H :    0.124678
  28 H :    0.110141
  29 H :    0.198334
  30 H :    0.193758
  31 H :    0.116936
  32 H :    0.115823
  33 H :    0.136511
  34 H :    0.115844
  35 H :    0.127329
  36 H :    0.104448
  37 H :    0.103102
  38 H :    0.106098
  39 H :    0.104736
  40 H :    0.154926
Sum of atomic charges:    0.0000000

LOEWDIN ATOMIC CHARGES
----------------------
   0 C :   -0.369574
   1 C :   -0.118817
   2 O :   -0.245412
   3 P :    0.572057
   4 S :   -0.321404
   5 O :   -0.236176
   6 C :   -0.114677
   7 C :   -0.355824
   8 S :    0.104967
   9 C :   -0.489155
  10 S :    0.073125
  11 P :    0.570353
  12 S :   -0.304445
  13 O :   -0.233420
  14 C :   -0.111701
  15 C :   -0.368594
  16 O :   -0.245438
  17 C :   -0.117720
  18 C :   -0.369846
  19 H :    0.132457
  20 H :    0.125161
  21 H :    0.122137
  22 H :    0.111373
  23 H :    0.119445
  24 H :    0.115770
  25 H :    0.107876
  26 H :    0.123589
  27 H :    0.126732
  28 H :    0.129724
  29 H :    0.128899
  30 H :    0.129116
  31 H :    0.111512
  32 H :    0.125291
  33 H :    0.120217
  34 H :    0.132530
  35 H :    0.131565
  36 H :    0.117293
  37 H :    0.101736
  38 H :    0.120416
  39 H :    0.128478
  40 H :    0.120384

  Mayer bond orders larger than 0.100000
B(  0-C ,  1-C ) :   1.1643 B(  0-C , 19-H ) :   0.9378 B(  0-C , 20-H ) :   0.9449
B(  0-C , 21-H ) :   0.9352 B(  1-C ,  2-O ) :   0.9071 B(  1-C , 22-H ) :   0.9164
B(  1-C , 23-H ) :   0.9336 B(  2-O ,  3-P ) :   1.1179 B(  3-P ,  4-S ) :   1.5946
B(  3-P ,  5-O ) :   1.1245 B(  3-P ,  8-S ) :   0.9675 B(  4-S ,  8-S ) :   0.1072
B(  5-O ,  6-C ) :   0.8921 B(  6-C ,  7-C ) :   1.1660 B(  6-C , 24-H ) :   0.9333
B(  6-C , 25-H ) :   0.9038 B(  7-C , 26-H ) :   0.9415 B(  7-C , 27-H ) :   0.9473
B(  7-C , 28-H ) :   0.9391 B(  8-S ,  9-C ) :   1.0003 B(  9-C , 10-S ) :   1.0199
B(  9-C , 29-H ) :   0.8564 B(  9-C , 30-H ) :   0.8683 B( 10-S , 11-P ) :   0.9281
B( 10-S , 12-S ) :   0.1109 B( 11-P , 12-S ) :   1.6398 B( 11-P , 13-O ) :   1.1553
B( 11-P , 16-O ) :   1.0916 B( 12-S , 29-H ) :   0.1052 B( 13-O , 14-C ) :   0.9004
B( 14-C , 15-C ) :   1.1682 B( 14-C , 31-H ) :   0.9221 B( 14-C , 32-H ) :   0.9339
B( 15-C , 33-H ) :   0.9329 B( 15-C , 34-H ) :   0.9343 B( 15-C , 35-H ) :   0.9412
B( 16-O , 17-C ) :   0.9034 B( 17-C , 18-C ) :   1.1642 B( 17-C , 36-H ) :   0.9351
B( 17-C , 37-H ) :   0.9024 B( 18-C , 38-H ) :   0.9451 B( 18-C , 39-H ) :   0.9396
B( 18-C , 40-H ) :   0.9181

Dispersion correction           -0.065560807
FINAL SINGLE POINT ENERGY     -2929.521520100230

DIPOLE MOMENT
-------------

Method             : SCF
Type of density    : Electron Density
Multiplicity       :   1
Irrep              :   0
Energy             : -2929.6416719901490069 Eh
Relativity type    :
Basis              : AO
                                X                 Y                 Z
Electronic contribution:     -3.288312659       9.502965277     -15.162983171
Nuclear contribution   :      3.846889536     -10.305151032      16.660303450
                        -----------------------------------------
Total Dipole Moment    :      0.558576877      -0.802185756       1.497320280
                        -----------------------------------------
Magnitude (a.u.)       :      1.788149360
Magnitude (Debye)      :      4.545114467

Rotational constants in cm-1:             0.012250             0.005082             0.004566
Rotational constants in MHz :           367.258349           152.365275           136.894145

                             ****ORCA TERMINATED NORMALLY****
TOTAL RUN TIME: 0 days 0 hours 0 minutes 21 seconds 621 msec
