                         Program Version 6.0.1  -  RELEASE   -
|  1> ! pbe def2-sv(p) def2/J RI DEFGRID1 loosescf d4 GCP(DFT/SV(P)) printgap
|  2> %output
|  3>     printlevel normal
|  4> end
|  5> * xyz 0 1
|  6> C 5.4181071956 -1.2333752099 -0.5485066634
|  7> C 4.697349138 -1.93436539 -1.6887211291
|  8> O 3.3552953659 -2.2740395888 -1.290843705
|  9> C 2.374541678 -1.4532328853 -1.6040347313
| 10> O 2.4908908587 -0.4556932191 -2.2826839118
| 11> C 1.0473464765 -1.946884396 -1.0531850882
| 12> C 0.2833256062 -0.7560274994 -0.4927948232
| 13> H 0.1530249316 0.0035221276 -1.2781471157
| 14> C 1.0648326709 -0.0797664549 0.6178810479
| 15> O 2.2722492586 -0.1132358915 0.6827945402
| 16> O 0.2744658927 0.5406788967 1.4669149139
| 17> C 0.8584696504 1.3155939051 2.5349366178
| 18> C 0.8366134392 2.7930379228 2.1854154389
| 19> S -1.3758827425 -1.2382971786 0.0757001296
| 20> P -2.2397856656 0.7081160858 0.1850081434
| 21> S -1.4021923544 2.1028171405 -0.9047804637
| 22> O -3.7652420307 0.4024465612 -0.1991545918
| 23> C -4.13544657 0.0274859449 -1.5297252257
| 24> O -2.4156078549 1.1125597811 1.6999862318
| 25> C -3.0897348089 0.2591299159 2.6462637409
| 26> H 5.4726731855 -1.8868786078 0.3173184035
| 27> H 6.4204843025 -0.9632654593 -0.8633907424
| 28> H 4.8735644922 -0.3337679646 -0.268910245
| 29> H 5.168226604 -2.8866949501 -1.9351610328
| 30> H 4.6460220864 -1.2921116469 -2.5725915453
| 31> H 1.2349395505 -2.6970352142 -0.2862534328
| 32> H 0.4764777066 -2.3949837903 -1.8676783029
| 33> H 0.2366908375 1.1063720762 3.4061521066
| 34> H 1.8796382166 0.9589680035 2.6944007597
| 35> H 1.4513269042 2.9834204264 1.3080786081
| 36> H -0.1811308558 3.108367537 1.9670944984
| 37> H 1.2208622561 3.3667739619 3.0219421856
| 38> H -3.6821240212 0.7077629436 -2.2525804441
| 39> H -5.2190665697 0.1045339035 -1.5657360902
| 40> H -3.8155811318 -0.9952033778 -1.728517648
| 41> H -2.6108397083 -0.7197239659 2.6710510235
| 42> H -4.1371978334 0.1543985431 2.3712034358
| 43> H -2.9912933715 0.763230277 3.6041159124
| 44> *
| 45>
| 46>                          ****END OF INPUT****

CARTESIAN COORDINATES (ANGSTROEM)
---------------------------------
  C      5.418107   -1.233375   -0.548507
  C      4.697349   -1.934365   -1.688721
  O      3.355295   -2.274040   -1.290844
  C      2.374542   -1.453233   -1.604035
  O      2.490891   -0.455693   -2.282684
  C      1.047346   -1.946884   -1.053185
  C      0.283326   -0.756027   -0.492795
  H      0.153025    0.003522   -1.278147
  C      1.064833   -0.079766    0.617881
  O      2.272249   -0.113236    0.682795
  O      0.274466    0.540679    1.466915
  C      0.858470    1.315594    2.534937
  C      0.836613    2.793038    2.185415
  S     -1.375883   -1.238297    0.075700
  P     -2.239786    0.708116    0.185008
  S     -1.402192    2.102817   -0.904780
  O     -3.765242    0.402447   -0.199155
  C     -4.135447    0.027486   -1.529725
  O     -2.415608    1.112560    1.699986
  C     -3.089735    0.259130    2.646264
  H      5.472673   -1.886879    0.317318
  H      6.420484   -0.963265   -0.863391
  H      4.873564   -0.333768   -0.268910
  H      5.168227   -2.886695   -1.935161
  H      4.646022   -1.292112   -2.572592
  H      1.234940   -2.697035   -0.286253
  H      0.476478   -2.394984   -1.867678
  H      0.236691    1.106372    3.406152
  H      1.879638    0.958968    2.694401
  H      1.451327    2.983420    1.308079
  H     -0.181131    3.108368    1.967094
  H      1.220862    3.366774    3.021942
  H     -3.682124    0.707763   -2.252580
  H     -5.219067    0.104534   -1.565736
  H     -3.815581   -0.995203   -1.728518
  H     -2.610840   -0.719724    2.671051
  H     -4.137198    0.154399    2.371203
  H     -2.991293    0.763230    3.604116

 Total Charge           Charge          ....    0
 Multiplicity           Mult            ....    1
 Number of Electrons    NEL             ....  174
 Basis Dimension        Dim             ....  316

ORBITAL ENERGIES
----------------

  NO   OCC          E(Eh)            E(eV)
   0   2.0000     -88.043957     -2395.7979
   1   2.0000     -87.986423     -2394.2323
   2   2.0000     -76.428833     -2079.7343
   3   2.0000     -18.812787      -511.9220
   4   2.0000     -18.799157      -511.5511
   5   2.0000     -18.795116      -511.4411
   6   2.0000     -18.792915      -511.3812
   7   2.0000     -18.745604      -510.0938
   8   2.0000     -18.728215      -509.6206
   9   2.0000     -10.019299      -272.6390
  10   2.0000     -10.004384      -272.2331
  11   2.0000      -9.955565      -270.9047
  12   2.0000      -9.949697      -270.7450
  13   2.0000      -9.946831      -270.6670
  14   2.0000      -9.944382      -270.6004
  15   2.0000      -9.938588      -270.4427
  16   2.0000      -9.910315      -269.6734
  17   2.0000      -9.880535      -268.8630
  18   2.0000      -9.875724      -268.7321
  19   2.0000      -7.688600      -209.2175
  20   2.0000      -7.631465      -207.6627
  21   2.0000      -6.425875      -174.8569
  22   2.0000      -5.716306      -155.5486
  23   2.0000      -5.713250      -155.4654
  24   2.0000      -5.705707      -155.2602
  25   2.0000      -5.660610      -154.0330
  26   2.0000      -5.651949      -153.7974
  27   2.0000      -5.651512      -153.7854
  28   2.0000      -4.648636      -126.4958
  29   2.0000      -4.647736      -126.4713
  30   2.0000      -4.646162      -126.4285
  31   2.0000      -1.020217       -27.7615
  32   2.0000      -1.000845       -27.2344
  33   2.0000      -0.991723       -26.9862
  34   2.0000      -0.946864       -25.7655
  35   2.0000      -0.926666       -25.2159
  36   2.0000      -0.905957       -24.6523
  37   2.0000      -0.766507       -20.8577
  38   2.0000      -0.710215       -19.3259
  39   2.0000      -0.704250       -19.1636
  40   2.0000      -0.691720       -18.8227
  41   2.0000      -0.659137       -17.9360
  42   2.0000      -0.640835       -17.4380
  43   2.0000      -0.624525       -16.9942
  44   2.0000      -0.615901       -16.7595
  45   2.0000      -0.590657       -16.0726
  46   2.0000      -0.559138       -15.2149
  47   2.0000      -0.519509       -14.1365
  48   2.0000      -0.504214       -13.7204
  49   2.0000      -0.493533       -13.4297
  50   2.0000      -0.480375       -13.0717
  51   2.0000      -0.473225       -12.8771
  52   2.0000      -0.468044       -12.7361
  53   2.0000      -0.440456       -11.9854
  54   2.0000      -0.438359       -11.9283
  55   2.0000      -0.431834       -11.7508
  56   2.0000      -0.425611       -11.5815
  57   2.0000      -0.421330       -11.4650
  58   2.0000      -0.417814       -11.3693
  59   2.0000      -0.411633       -11.2011
  60   2.0000      -0.405751       -11.0410
  61   2.0000      -0.396617       -10.7925
  62   2.0000      -0.393867       -10.7177
  63   2.0000      -0.378787       -10.3073
  64   2.0000      -0.370782       -10.0895
  65   2.0000      -0.361310        -9.8317
  66   2.0000      -0.354246        -9.6395
  67   2.0000      -0.350121        -9.5273
  68   2.0000      -0.346290        -9.4230
  69   2.0000      -0.338412        -9.2087
  70   2.0000      -0.329065        -8.9543
  71   2.0000      -0.325491        -8.8571
  72   2.0000      -0.319375        -8.6906
  73   2.0000      -0.315166        -8.5761
  74   2.0000      -0.312276        -8.4974
  75   2.0000      -0.301269        -8.1979
  76   2.0000      -0.293568        -7.9884
  77   2.0000      -0.284347        -7.7375
  78   2.0000      -0.274190        -7.4611
  79   2.0000      -0.269061        -7.3215
  80   2.0000      -0.262760        -7.1501
  81   2.0000      -0.250521        -6.8170
  82   2.0000      -0.247573        -6.7368
  83   2.0000      -0.217384        -5.9153
  84   2.0000      -0.215652        -5.8682
  85   2.0000      -0.205290        -5.5862
  86   2.0000      -0.201469        -5.4822
  87   0.0000      -0.045374        -1.2347
  88   0.0000      -0.029345        -0.7985
  89   0.0000      -0.010968        -0.2985
  90   0.0000       0.008919         0.2427
  91   0.0000       0.014876         0.4048

MULLIKEN ATOMIC CHARGES
-----------------------
   0 C :   -0.297009
   1 C :   -0.021510
   2 O :   -0.229574
   3 C :    0.117065
   4 O :   -0.206291
   5 C :   -0.052287
   6 C :   -0.359475
   7 H :    0.181496
   8 C :    0.239178
   9 O :   -0.187568
  10 O :   -0.227717
  11 C :   -0.018290
  12 C :   -0.295473
  13 S :   -0.104160
  14 P :    0.625392
  15 S :   -0.305389
  16 O :   -0.391600
  17 C :   -0.100916
  18 O :   -0.362889
  19 C :   -0.109760
  20 H :    0.109309
  21 H :    0.106367
  22 H :    0.137903
  23 H :    0.099300
  24 H :    0.109766
  25 H :    0.104378
  26 H :    0.121085
  27 H :    0.099845
  28 H :    0.113533
  29 H :    0.124161
  30 H :    0.131212
  31 H :    0.107509
  32 H :    0.120808
  33 H :    0.125831
  34 H :    0.115194
  35 H :    0.120979
  36 H :    0.128716
  37 H :    0.130882
Sum of atomic charges:    0.0000000

LOEWDIN ATOMIC CHARGES
----------------------
   0 C :   -0.354542
   1 C :   -0.111176
   2 O :   -0.056337
   3 C :    0.032702
   4 O :   -0.171551
   5 C :   -0.244324
   6 C :   -0.280529
   7 H :    0.148777
   8 C :    0.032679
   9 O :   -0.147117
  10 O :   -0.052101
  11 C :   -0.107740
  12 C :   -0.354571
  13 S :    0.086992
  14 P :    0.578353
  15 S :   -0.298730
  16 O :   -0.261559
  17 C :   -0.216607
  18 O :   -0.236852
  19 C :   -0.211001
  20 H :    0.123491
  21 H :    0.126816
  22 H :    0.135627
  23 H :    0.115103
  24 H :    0.119802
  25 H :    0.134245
  26 H :    0.147102
  27 H :    0.115792
  28 H :    0.120586
  29 H :    0.131569
  30 H :    0.129009
  31 H :    0.127839
  32 H :    0.113136
  33 H :    0.122774
  34 H :    0.108671
  35 H :    0.110607
  36 H :    0.118069
  37 H :    0.125000

  Mayer bond orders larger than 0.100000
B(  0-C ,  1-C ) :   1.1774 B(  0-C , 20-H ) :   0.9502 B(  0-C , 21-H ) :   0.9440
B(  0-C , 22-H ) :   0.9405 B(  1-C ,  2-O ) :   0.9144 B(  1-C , 23-H ) :   0.9377
B(  1-C , 24-H ) :   0.9087 B(  2-O ,  3-C ) :   1.2417 B(  3-C ,  4-O ) :   2.0385
B(  3-C ,  5-C ) :   1.0032 B(  5-C ,  6-C ) :   1.0617 B(  5-C , 25-H ) :   0.9059
B(  5-C , 26-H ) :   0.8824 B(  6-C ,  7-H ) :   0.8148 B(  6-C ,  8-C ) :   0.8878
B(  6-C , 13-S ) :   1.0240 B(  8-C ,  9-O ) :   2.0232 B(  8-C , 10-O ) :   1.2538
B( 10-O , 11-C ) :   0.8954 B( 11-C , 12-C ) :   1.1819 B( 11-C , 27-H ) :   0.9337
B( 11-C , 28-H ) :   0.9100 B( 12-C , 29-H ) :   0.9458 B( 12-C , 30-H ) :   0.9412
B( 12-C , 31-H ) :   0.9421 B( 13-S , 14-P ) :   0.9442 B( 13-S , 15-S ) :   0.1151
B( 14-P , 15-S ) :   1.6445 B( 14-P , 16-O ) :   1.0662 B( 14-P , 18-O ) :   1.1172
B( 16-O , 17-C ) :   0.9313 B( 17-C , 32-H ) :   0.9354 B( 17-C , 33-H ) :   0.9585
B( 17-C , 34-H ) :   0.9467 B( 18-O , 19-C ) :   0.9174 B( 19-C , 35-H ) :   0.9384
B( 19-C , 36-H ) :   0.9473 B( 19-C , 37-H ) :   0.9583

Dispersion correction           -0.051915579
FINAL SINGLE POINT ENERGY     -1979.023615378351

DIPOLE MOMENT
-------------

Method             : SCF
Type of density    : Electron Density
Multiplicity       :   1
Irrep              :   0
Energy             : -1979.1550304128309108 Eh
Relativity type    :
Basis              : AO
                                X                 Y                 Z
Electronic contribution:    -12.772542777       0.499742148      -5.054463361
Nuclear contribution   :     12.055963036      -1.525300754       6.185352884
                        -----------------------------------------
Total Dipole Moment    :     -0.716579741      -1.025558606       1.130889523
                        -----------------------------------------
Magnitude (a.u.)       :      1.686466155
Magnitude (Debye)      :      4.286656300

Rotational constants in cm-1:             0.016529             0.005943             0.005217
Rotational constants in MHz :           495.526000           178.171633           156.400216

                             ****ORCA TERMINATED NORMALLY****
TOTAL RUN TIME: 0 days 0 hours 0 minutes 28 seconds 771 msec
