                         Program Version 6.0.1  -  RELEASE   -
|  1> ! pbe def2-sv(p) def2/J RI DEFGRID1 loosescf d4 GCP(DFT/SV(P)) printgap
|  2> %output
|  3>     printlevel normal
|  4> end
|  5> * xyz 0 1
|  6> C 5.4536066132 -1.8158061044 -0.8893639587
|  7> C 4.2208331757 -2.6981389145 -1.0042329144
|  8> O 3.1889373585 -2.0393220911 -1.7656692197
|  9> C 2.3642349485 -1.2313937175 -1.1366321436
| 10> O 2.3756084796 -1.0243584707 0.0594103383
| 11> C 1.3869106636 -0.5724239955 -2.08778163
| 12> C 0.3195342341 0.1625032411 -1.2888798941
| 13> H -0.2863388574 0.7991580866 -1.9414646024
| 14> C 0.9866784403 1.0571291784 -0.2547069698
| 15> O 1.9377088427 1.7536069471 -0.5302165731
| 16> O 0.3634881817 1.0416192822 0.9024220158
| 17> C 0.9136711265 1.7808576972 2.009883296
| 18> C 1.4669118934 0.8047523225 3.0331483761
| 19> S -0.8052330063 -1.0534740647 -0.5049772924
| 20> P -2.2003308501 0.2739076787 0.3176592315
| 21> S -2.3137594994 2.0945021431 -0.4278272826
| 22> O -3.5887645024 -0.5178289097 0.1726828484
| 23> C -4.2882351609 -0.5812355791 -1.0743642492
| 24> O -1.9935095043 0.1341277173 1.8854085868
| 25> C -2.8773241934 0.8192007818 2.789040001
| 26> H 6.2296888795 -2.3494606509 -0.3508652386
| 27> H 5.8185139143 -1.551406339 -1.877886829
| 28> H 5.2109354534 -0.9034963158 -0.3482106566
| 29> H 3.8227408396 -2.9410305105 -0.0150398703
| 30> H 4.4327253076 -3.6084738414 -1.564701887
| 31> H 0.9478047268 -1.3226318051 -2.7438281407
| 32> H 1.9458207611 0.1448188522 -2.6928939267
| 33> H 1.6904641957 2.4453516763 1.6216022745
| 34> H 0.0860079405 2.3676226972 2.4137462309
| 35> H 1.8828391536 1.3550994577 3.8702052292
| 36> H 0.6756804681 0.1472321639 3.3832900182
| 37> H 2.2438915431 0.1971324761 2.574407312
| 38> H -3.794490962 -1.2882509813 -1.7401342853
| 39> H -4.3191797606 0.4077466772 -1.5356768501
| 40> H -5.292623767 -0.91915871 -0.8323877331
| 41> H -3.8427001762 0.315425495 2.8143071142
| 42> H -3.0106011904 1.856028317 2.4741216272
| 43> H -2.3943366556 0.7749401423 3.7620364507
| 44> *
| 45>
| 46>                          ****END OF INPUT****

CARTESIAN COORDINATES (ANGSTROEM)
---------------------------------
  C      5.453607   -1.815806   -0.889364
  C      4.220833   -2.698139   -1.004233
  O      3.188937   -2.039322   -1.765669
  C      2.364235   -1.231394   -1.136632
  O      2.375608   -1.024358    0.059410
  C      1.386911   -0.572424   -2.087782
  C      0.319534    0.162503   -1.288880
  H     -0.286339    0.799158   -1.941465
  C      0.986678    1.057129   -0.254707
  O      1.937709    1.753607   -0.530217
  O      0.363488    1.041619    0.902422
  C      0.913671    1.780858    2.009883
  C      1.466912    0.804752    3.033148
  S     -0.805233   -1.053474   -0.504977
  P     -2.200331    0.273908    0.317659
  S     -2.313759    2.094502   -0.427827
  O     -3.588765   -0.517829    0.172683
  C     -4.288235   -0.581236   -1.074364
  O     -1.993510    0.134128    1.885409
  C     -2.877324    0.819201    2.789040
  H      6.229689   -2.349461   -0.350865
  H      5.818514   -1.551406   -1.877887
  H      5.210935   -0.903496   -0.348211
  H      3.822741   -2.941031   -0.015040
  H      4.432725   -3.608474   -1.564702
  H      0.947805   -1.322632   -2.743828
  H      1.945821    0.144819   -2.692894
  H      1.690464    2.445352    1.621602
  H      0.086008    2.367623    2.413746
  H      1.882839    1.355099    3.870205
  H      0.675680    0.147232    3.383290
  H      2.243892    0.197132    2.574407
  H     -3.794491   -1.288251   -1.740134
  H     -4.319180    0.407747   -1.535677
  H     -5.292624   -0.919159   -0.832388
  H     -3.842700    0.315425    2.814307
  H     -3.010601    1.856028    2.474122
  H     -2.394337    0.774940    3.762036

 Total Charge           Charge          ....    0
 Multiplicity           Mult            ....    1
 Number of Electrons    NEL             ....  174
 Basis Dimension        Dim             ....  316

ORBITAL ENERGIES
----------------

  NO   OCC          E(Eh)            E(eV)
   0   2.0000     -88.038611     -2395.6524
   1   2.0000     -87.979585     -2394.0462
   2   2.0000     -76.423054     -2079.5770
   3   2.0000     -18.810222      -511.8522
   4   2.0000     -18.796103      -511.4680
   5   2.0000     -18.789201      -511.2801
   6   2.0000     -18.786503      -511.2067
   7   2.0000     -18.750751      -510.2339
   8   2.0000     -18.725433      -509.5449
   9   2.0000     -10.019286      -272.6386
  10   2.0000     -10.007694      -272.3232
  11   2.0000      -9.953931      -270.8602
  12   2.0000      -9.945399      -270.6281
  13   2.0000      -9.943679      -270.5813
  14   2.0000      -9.940285      -270.4889
  15   2.0000      -9.937254      -270.4064
  16   2.0000      -9.918402      -269.8934
  17   2.0000      -9.890856      -269.1439
  18   2.0000      -9.875034      -268.7133
  19   2.0000      -7.683648      -209.0827
  20   2.0000      -7.624614      -207.4763
  21   2.0000      -6.420074      -174.6991
  22   2.0000      -5.711539      -155.4189
  23   2.0000      -5.708346      -155.3320
  24   2.0000      -5.700418      -155.1163
  25   2.0000      -5.653542      -153.8407
  26   2.0000      -5.645481      -153.6214
  27   2.0000      -5.644525      -153.5953
  28   2.0000      -4.642646      -126.3328
  29   2.0000      -4.641869      -126.3117
  30   2.0000      -4.640597      -126.2771
  31   2.0000      -1.020026       -27.7563
  32   2.0000      -1.003803       -27.3149
  33   2.0000      -0.981897       -26.7188
  34   2.0000      -0.937919       -25.5221
  35   2.0000      -0.927188       -25.2301
  36   2.0000      -0.907602       -24.6971
  37   2.0000      -0.764605       -20.8059
  38   2.0000      -0.718335       -19.5469
  39   2.0000      -0.696366       -18.9491
  40   2.0000      -0.692319       -18.8389
  41   2.0000      -0.654419       -17.8077
  42   2.0000      -0.630719       -17.1627
  43   2.0000      -0.625003       -17.0072
  44   2.0000      -0.612913       -16.6782
  45   2.0000      -0.596120       -16.2212
  46   2.0000      -0.559462       -15.2237
  47   2.0000      -0.511044       -13.9062
  48   2.0000      -0.505068       -13.7436
  49   2.0000      -0.493553       -13.4303
  50   2.0000      -0.481619       -13.1055
  51   2.0000      -0.469571       -12.7777
  52   2.0000      -0.464855       -12.6494
  53   2.0000      -0.444904       -12.1065
  54   2.0000      -0.434302       -11.8180
  55   2.0000      -0.428612       -11.6631
  56   2.0000      -0.424440       -11.5496
  57   2.0000      -0.423684       -11.5290
  58   2.0000      -0.410965       -11.1829
  59   2.0000      -0.405762       -11.0413
  60   2.0000      -0.399453       -10.8697
  61   2.0000      -0.393939       -10.7196
  62   2.0000      -0.390216       -10.6183
  63   2.0000      -0.384022       -10.4498
  64   2.0000      -0.373321       -10.1586
  65   2.0000      -0.369409       -10.0521
  66   2.0000      -0.358662        -9.7597
  67   2.0000      -0.350941        -9.5496
  68   2.0000      -0.347402        -9.4533
  69   2.0000      -0.335933        -9.1412
  70   2.0000      -0.333293        -9.0694
  71   2.0000      -0.327240        -8.9046
  72   2.0000      -0.318307        -8.6616
  73   2.0000      -0.309878        -8.4322
  74   2.0000      -0.302032        -8.2187
  75   2.0000      -0.301304        -8.1989
  76   2.0000      -0.294941        -8.0257
  77   2.0000      -0.282486        -7.6868
  78   2.0000      -0.269904        -7.3445
  79   2.0000      -0.266738        -7.2583
  80   2.0000      -0.258133        -7.0242
  81   2.0000      -0.248680        -6.7669
  82   2.0000      -0.239372        -6.5136
  83   2.0000      -0.231730        -6.3057
  84   2.0000      -0.206082        -5.6078
  85   2.0000      -0.201060        -5.4711
  86   2.0000      -0.193607        -5.2683
  87   0.0000      -0.040204        -1.0940
  88   0.0000      -0.027370        -0.7448
  89   0.0000      -0.012049        -0.3279
  90   0.0000       0.010007         0.2723
  91   0.0000       0.022217         0.6045

MULLIKEN ATOMIC CHARGES
-----------------------
   0 C :   -0.306107
   1 C :   -0.015288
   2 O :   -0.225298
   3 C :    0.121705
   4 O :   -0.193546
   5 C :   -0.103951
   6 C :   -0.311536
   7 H :    0.152382
   8 C :    0.238549
   9 O :   -0.206532
  10 O :   -0.229796
  11 C :   -0.014766
  12 C :   -0.295415
  13 S :   -0.072041
  14 P :    0.639080
  15 S :   -0.349832
  16 O :   -0.390648
  17 C :   -0.099092
  18 O :   -0.370523
  19 C :   -0.101940
  20 H :    0.115288
  21 H :    0.116870
  22 H :    0.133330
  23 H :    0.113078
  24 H :    0.106130
  25 H :    0.130210
  26 H :    0.145556
  27 H :    0.113483
  28 H :    0.099594
  29 H :    0.103660
  30 H :    0.115678
  31 H :    0.127918
  32 H :    0.109820
  33 H :    0.116553
  34 H :    0.121898
  35 H :    0.121332
  36 H :    0.118719
  37 H :    0.125476
Sum of atomic charges:   -0.0000000

LOEWDIN ATOMIC CHARGES
----------------------
   0 C :   -0.355488
   1 C :   -0.109242
   2 O :   -0.054035
   3 C :    0.041062
   4 O :   -0.150185
   5 C :   -0.249697
   6 C :   -0.264673
   7 H :    0.143674
   8 C :    0.019271
   9 O :   -0.171025
  10 O :   -0.049919
  11 C :   -0.106500
  12 C :   -0.354015
  13 S :    0.113357
  14 P :    0.581732
  15 S :   -0.336490
  16 O :   -0.264896
  17 C :   -0.218195
  18 O :   -0.245473
  19 C :   -0.210889
  20 H :    0.131840
  21 H :    0.126336
  22 H :    0.133512
  23 H :    0.121588
  24 H :    0.119409
  25 H :    0.143667
  26 H :    0.160659
  27 H :    0.121389
  28 H :    0.114189
  29 H :    0.125053
  30 H :    0.124935
  31 H :    0.132530
  32 H :    0.108840
  33 H :    0.108572
  34 H :    0.120675
  35 H :    0.115567
  36 H :    0.111928
  37 H :    0.120937

  Mayer bond orders larger than 0.100000
B(  0-C ,  1-C ) :   1.1747 B(  0-C , 20-H ) :   0.9438 B(  0-C , 21-H ) :   0.9486
B(  0-C , 22-H ) :   0.9451 B(  1-C ,  2-O ) :   0.9089 B(  1-C , 23-H ) :   0.9145
B(  1-C , 24-H ) :   0.9369 B(  2-O ,  3-C ) :   1.2520 B(  3-C ,  4-O ) :   1.9837
B(  3-C ,  5-C ) :   0.9964 B(  5-C ,  6-C ) :   1.0663 B(  5-C , 25-H ) :   0.9000
B(  5-C , 26-H ) :   0.8733 B(  6-C ,  7-H ) :   0.8521 B(  6-C ,  8-C ) :   0.8603
B(  6-C , 13-S ) :   1.0175 B(  8-C ,  9-O ) :   2.0606 B(  8-C , 10-O ) :   1.2366
B( 10-O , 11-C ) :   0.8997 B( 11-C , 12-C ) :   1.1769 B( 11-C , 27-H ) :   0.9079
B( 11-C , 28-H ) :   0.9313 B( 12-C , 29-H ) :   0.9444 B( 12-C , 30-H ) :   0.9478
B( 12-C , 31-H ) :   0.9405 B( 13-S , 14-P ) :   0.9887 B( 13-S , 15-S ) :   0.1189
B( 14-P , 15-S ) :   1.6025 B( 14-P , 16-O ) :   1.0696 B( 14-P , 18-O ) :   1.1121
B( 16-O , 17-C ) :   0.9361 B( 17-C , 32-H ) :   0.9492 B( 17-C , 33-H ) :   0.9303
B( 17-C , 34-H ) :   0.9592 B( 18-O , 19-C ) :   0.9265 B( 19-C , 35-H ) :   0.9511
B( 19-C , 36-H ) :   0.9329 B( 19-C , 37-H ) :   0.9573

Dispersion correction           -0.052603992
FINAL SINGLE POINT ENERGY     -1979.021640605841

DIPOLE MOMENT
-------------

Method             : SCF
Type of density    : Electron Density
Multiplicity       :   1
Irrep              :   0
Energy             : -1979.1517048994242032 Eh
Relativity type    :
Basis              : AO
                                X                 Y                 Z
Electronic contribution:    -13.278645123       2.978840734      -6.409567811
Nuclear contribution   :     13.392120575      -4.106036427       6.574989139
                        -----------------------------------------
Total Dipole Moment    :      0.113475452      -1.127195693       0.165421327
                        -----------------------------------------
Magnitude (a.u.)       :      1.144906557
Magnitude (Debye)      :      2.910121197

Rotational constants in cm-1:             0.016864             0.006122             0.005431
Rotational constants in MHz :           505.577061           183.547149           162.827559

                             ****ORCA TERMINATED NORMALLY****
TOTAL RUN TIME: 0 days 0 hours 0 minutes 33 seconds 655 msec
