                         Program Version 6.0.0  -   RELEASE  -
|  1> ! pbe def2-sv(p) def2/J RI DEFGRID1 loosescf d4 GCP(DFT/SV(P)) printgap
|  2> %output
|  3>     printlevel normal
|  4> end
|  5> * xyz 0 1
|  6> C 1.7568910034 -1.7589148793 -2.8801356595
|  7> C 2.2487379099 -0.353238223 -2.591629939
|  8> O 3.0294193295 -0.3017560934 -1.3837991439
|  9> P 2.4063882756 0.0304889184 0.0327785935
| 10> S 1.1683775365 1.5636541095 0.0675394591
| 11> O 3.7948268575 0.245288635 0.7591431887
| 12> C 3.9116954022 0.951216803 2.0062982156
| 13> C 3.1880144393 0.2528590672 3.1408075802
| 14> S 1.6916428551 -1.8223496446 0.7916518728
| 15> C -0.0567358544 -1.4484549239 1.0772514106
| 16> S -0.996080476 -1.1802056557 -0.460161863
| 17> P -2.1209500866 0.5551780478 0.0613178742
| 18> S -1.8886179859 1.2127143058 1.8918223173
| 19> O -3.6259708135 0.1644860853 -0.2984115171
| 20> C -4.5126105499 -0.4694834352 0.6379261856
| 21> C -4.0406266339 -1.8508089587 1.0440888559
| 22> O -1.8213906517 1.6405889947 -1.0429163242
| 23> C -2.3906683087 1.6602369814 -2.3750943768
| 24> C -2.0271533344 0.4330856431 -3.1839476194
| 25> H 1.3082326215 -1.7824089405 -3.8681527402
| 26> H 2.5922035071 -2.4526470574 -2.8482476699
| 27> H 1.0130910423 -2.0687449378 -2.1488981728
| 28> H 1.4169901991 0.3555117398 -2.5025908683
| 29> H 2.9329079987 -0.0074832861 -3.3690278079
| 30> H 4.9878304731 0.9907714798 2.180994188
| 31> H 3.5212457745 1.9649259012 1.8694576186
| 32> H 2.1102808392 0.3055397071 2.9852699506
| 33> H 3.4882196262 -0.7905116017 3.1968507267
| 34> H 3.4261838953 0.7484208366 4.0767247997
| 35> H -0.1647297232 -0.5530738551 1.6954368455
| 36> H -0.452356878 -2.3260079901 1.5824947764
| 37> H -4.6037177395 0.1764025883 1.51671078
| 38> H -5.4638742535 -0.5090339694 0.1051075215
| 39> H -3.8318605404 -2.4564602157 0.1659103148
| 40> H -3.1362578967 -1.7679019845 1.6453919931
| 41> H -4.8120295242 -2.3299795026 1.638304633
| 42> H -3.4739161136 1.7596684364 -2.2804846998
| 43> H -1.9689660386 2.5690032757 -2.8079310594
| 44> H -2.4506303678 -0.4596223997 -2.7265738888
| 45> H -2.4253878054 0.5410598478 -4.1879623848
| 46> H -0.9473079987 0.3189955078 -3.2380383229
| 47> *
| 48>
| 49>                          ****END OF INPUT****

CARTESIAN COORDINATES (ANGSTROEM)
---------------------------------
  C      1.756891   -1.758915   -2.880136
  C      2.248738   -0.353238   -2.591630
  O      3.029419   -0.301756   -1.383799
  P      2.406388    0.030489    0.032779
  S      1.168378    1.563654    0.067539
  O      3.794827    0.245289    0.759143
  C      3.911695    0.951217    2.006298
  C      3.188014    0.252859    3.140808
  S      1.691643   -1.822350    0.791652
  C     -0.056736   -1.448455    1.077251
  S     -0.996080   -1.180206   -0.460162
  P     -2.120950    0.555178    0.061318
  S     -1.888618    1.212714    1.891822
  O     -3.625971    0.164486   -0.298412
  C     -4.512611   -0.469483    0.637926
  C     -4.040627   -1.850809    1.044089
  O     -1.821391    1.640589   -1.042916
  C     -2.390668    1.660237   -2.375094
  C     -2.027153    0.433086   -3.183948
  H      1.308233   -1.782409   -3.868153
  H      2.592204   -2.452647   -2.848248
  H      1.013091   -2.068745   -2.148898
  H      1.416990    0.355512   -2.502591
  H      2.932908   -0.007483   -3.369028
  H      4.987830    0.990771    2.180994
  H      3.521246    1.964926    1.869458
  H      2.110281    0.305540    2.985270
  H      3.488220   -0.790512    3.196851
  H      3.426184    0.748421    4.076725
  H     -0.164730   -0.553074    1.695437
  H     -0.452357   -2.326008    1.582495
  H     -4.603718    0.176403    1.516711
  H     -5.463874   -0.509034    0.105108
  H     -3.831861   -2.456460    0.165910
  H     -3.136258   -1.767902    1.645392
  H     -4.812030   -2.329980    1.638305
  H     -3.473916    1.759668   -2.280485
  H     -1.968966    2.569003   -2.807931
  H     -2.450630   -0.459622   -2.726574
  H     -2.425388    0.541060   -4.187962
  H     -0.947308    0.318996   -3.238038

 Total Charge           Charge          ....    0
 Multiplicity           Mult            ....    1
 Number of Electrons    NEL             ....  202
 Basis Dimension        Dim             ....  334

ORBITAL ENERGIES
----------------

  NO   OCC          E(Eh)            E(eV)
   0   2.0000     -88.043321     -2395.7806
   1   2.0000     -88.040938     -2395.7157
   2   2.0000     -87.984053     -2394.1678
   3   2.0000     -87.982494     -2394.1254
   4   2.0000     -76.426452     -2079.6695
   5   2.0000     -76.421521     -2079.5353
   6   2.0000     -18.791212      -511.3349
   7   2.0000     -18.789529      -511.2891
   8   2.0000     -18.783911      -511.1362
   9   2.0000     -18.782537      -511.0988
  10   2.0000      -9.957368      -270.9537
  11   2.0000      -9.953849      -270.8580
  12   2.0000      -9.953598      -270.8512
  13   2.0000      -9.948940      -270.7244
  14   2.0000      -9.948738      -270.7189
  15   2.0000      -9.892835      -269.1977
  16   2.0000      -9.886037      -269.0127
  17   2.0000      -9.880477      -268.8615
  18   2.0000      -9.879876      -268.8451
  19   2.0000      -7.688236      -209.2075
  20   2.0000      -7.685112      -209.1225
  21   2.0000      -7.629138      -207.5994
  22   2.0000      -7.626874      -207.5378
  23   2.0000      -6.423331      -174.7877
  24   2.0000      -6.418884      -174.6667
  25   2.0000      -5.716191      -155.5455
  26   2.0000      -5.713048      -155.4599
  27   2.0000      -5.712545      -155.4463
  28   2.0000      -5.709790      -155.3713
  29   2.0000      -5.705331      -155.2500
  30   2.0000      -5.702008      -155.1595
  31   2.0000      -5.658178      -153.9669
  32   2.0000      -5.655797      -153.9021
  33   2.0000      -5.649604      -153.7335
  34   2.0000      -5.649292      -153.7251
  35   2.0000      -5.647483      -153.6758
  36   2.0000      -5.647165      -153.6672
  37   2.0000      -4.646330      -126.4331
  38   2.0000      -4.644770      -126.3906
  39   2.0000      -4.643816      -126.3647
  40   2.0000      -4.641040      -126.2891
  41   2.0000      -4.640947      -126.2866
  42   2.0000      -4.639362      -126.2435
  43   2.0000      -0.986983       -26.8572
  44   2.0000      -0.983304       -26.7571
  45   2.0000      -0.941874       -25.6297
  46   2.0000      -0.939052       -25.5529
  47   2.0000      -0.759387       -20.6640
  48   2.0000      -0.718630       -19.5549
  49   2.0000      -0.709668       -19.3111
  50   2.0000      -0.692199       -18.8357
  51   2.0000      -0.679841       -18.4994
  52   2.0000      -0.677750       -18.4425
  53   2.0000      -0.649853       -17.6834
  54   2.0000      -0.632247       -17.2043
  55   2.0000      -0.601598       -16.3703
  56   2.0000      -0.593460       -16.1489
  57   2.0000      -0.581335       -15.8189
  58   2.0000      -0.563980       -15.3467
  59   2.0000      -0.558944       -15.2096
  60   2.0000      -0.496155       -13.5011
  61   2.0000      -0.491989       -13.3877
  62   2.0000      -0.469469       -12.7749
  63   2.0000      -0.463856       -12.6222
  64   2.0000      -0.452600       -12.3159
  65   2.0000      -0.448434       -12.2025
  66   2.0000      -0.446084       -12.1386
  67   2.0000      -0.434058       -11.8113
  68   2.0000      -0.426423       -11.6036
  69   2.0000      -0.418410       -11.3855
  70   2.0000      -0.411481       -11.1970
  71   2.0000      -0.402183       -10.9440
  72   2.0000      -0.391332       -10.6487
  73   2.0000      -0.389487       -10.5985
  74   2.0000      -0.381968       -10.3939
  75   2.0000      -0.369827       -10.0635
  76   2.0000      -0.367209        -9.9923
  77   2.0000      -0.359725        -9.7886
  78   2.0000      -0.354112        -9.6359
  79   2.0000      -0.349281        -9.5044
  80   2.0000      -0.347916        -9.4673
  81   2.0000      -0.345595        -9.4041
  82   2.0000      -0.340513        -9.2658
  83   2.0000      -0.334511        -9.1025
  84   2.0000      -0.334012        -9.0889
  85   2.0000      -0.314272        -8.5518
  86   2.0000      -0.308961        -8.4073
  87   2.0000      -0.297263        -8.0890
  88   2.0000      -0.295308        -8.0357
  89   2.0000      -0.293636        -7.9902
  90   2.0000      -0.284232        -7.7343
  91   2.0000      -0.273314        -7.4373
  92   2.0000      -0.264855        -7.2071
  93   2.0000      -0.259484        -7.0609
  94   2.0000      -0.255946        -6.9646
  95   2.0000      -0.231858        -6.3092
  96   2.0000      -0.219525        -5.9736
  97   2.0000      -0.213535        -5.8106
  98   2.0000      -0.199589        -5.4311
  99   2.0000      -0.194147        -5.2830
 100   2.0000      -0.184842        -5.0298
 101   0.0000      -0.043756        -1.1907
 102   0.0000      -0.037751        -1.0273
 103   0.0000      -0.013685        -0.3724
 104   0.0000       0.005952         0.1620
 105   0.0000       0.007879         0.2144

MULLIKEN ATOMIC CHARGES
-----------------------
   0 C :   -0.303612
   1 C :   -0.024833
   2 O :   -0.355595
   3 P :    0.592771
   4 S :   -0.306396
   5 O :   -0.358614
   6 C :    0.004561
   7 C :   -0.329594
   8 S :   -0.114133
   9 C :   -0.344019
  10 S :   -0.131595
  11 P :    0.632144
  12 S :   -0.299247
  13 O :   -0.389057
  14 C :    0.005671
  15 C :   -0.319109
  16 O :   -0.359237
  17 C :    0.014268
  18 C :   -0.354879
  19 H :    0.105559
  20 H :    0.114142
  21 H :    0.131749
  22 H :    0.120270
  23 H :    0.105474
  24 H :    0.105998
  25 H :    0.113151
  26 H :    0.136053
  27 H :    0.119507
  28 H :    0.112963
  29 H :    0.216618
  30 H :    0.180540
  31 H :    0.111889
  32 H :    0.102111
  33 H :    0.118937
  34 H :    0.120361
  35 H :    0.112829
  36 H :    0.109709
  37 H :    0.112745
  38 H :    0.128876
  39 H :    0.116350
  40 H :    0.144674
Sum of atomic charges:   -0.0000000

LOEWDIN ATOMIC CHARGES
----------------------
   0 C :   -0.367012
   1 C :   -0.118002
   2 O :   -0.237224
   3 P :    0.562964
   4 S :   -0.297489
   5 O :   -0.237227
   6 C :   -0.115036
   7 C :   -0.371517
   8 S :    0.079818
   9 C :   -0.480706
  10 S :    0.071934
  11 P :    0.580131
  12 S :   -0.293077
  13 O :   -0.253040
  14 C :   -0.116576
  15 C :   -0.371380
  16 O :   -0.232456
  17 C :   -0.106180
  18 C :   -0.372103
  19 H :    0.126875
  20 H :    0.126589
  21 H :    0.110748
  22 H :    0.104543
  23 H :    0.119087
  24 H :    0.119482
  25 H :    0.112913
  26 H :    0.123176
  27 H :    0.123649
  28 H :    0.131017
  29 H :    0.122270
  30 H :    0.133314
  31 H :    0.111993
  32 H :    0.117327
  33 H :    0.123323
  34 H :    0.118899
  35 H :    0.130674
  36 H :    0.114851
  37 H :    0.124450
  38 H :    0.117985
  39 H :    0.133606
  40 H :    0.127413

  Mayer bond orders larger than 0.100000
B(  0-C ,  1-C ) :   1.1686 B(  0-C , 19-H ) :   0.9386 B(  0-C , 20-H ) :   0.9447
B(  0-C , 21-H ) :   0.9290 B(  1-C ,  2-O ) :   0.9170 B(  1-C , 22-H ) :   0.8982
B(  1-C , 23-H ) :   0.9337 B(  2-O ,  3-P ) :   1.1256 B(  3-P ,  4-S ) :   1.6263
B(  3-P ,  5-O ) :   1.1268 B(  3-P ,  8-S ) :   0.9304 B(  4-S ,  8-S ) :   0.1205
B(  5-O ,  6-C ) :   0.9142 B(  6-C ,  7-C ) :   1.1633 B(  6-C , 24-H ) :   0.9348
B(  6-C , 25-H ) :   0.9196 B(  7-C , 26-H ) :   0.9333 B(  7-C , 27-H ) :   0.9421
B(  7-C , 28-H ) :   0.9366 B(  8-S ,  9-C ) :   1.0117 B(  9-C , 10-S ) :   0.9945
B(  9-C , 29-H ) :   0.8441 B(  9-C , 30-H ) :   0.9023 B( 10-S , 11-P ) :   0.9350
B( 10-S , 12-S ) :   0.1168 B( 11-P , 12-S ) :   1.6218 B( 11-P , 13-O ) :   1.0587
B( 11-P , 16-O ) :   1.1327 B( 12-S , 29-H ) :   0.1041 B( 13-O , 14-C ) :   0.9143
B( 14-C , 15-C ) :   1.1653 B( 14-C , 31-H ) :   0.9174 B( 14-C , 32-H ) :   0.9344
B( 15-C , 33-H ) :   0.9418 B( 15-C , 34-H ) :   0.9352 B( 15-C , 35-H ) :   0.9365
B( 16-O , 17-C ) :   0.9041 B( 17-C , 18-C ) :   1.1701 B( 17-C , 36-H ) :   0.9267
B( 17-C , 37-H ) :   0.9321 B( 18-C , 38-H ) :   0.9313 B( 18-C , 39-H ) :   0.9338
B( 18-C , 40-H ) :   0.9332

Dispersion correction           -0.068112675
FINAL SINGLE POINT ENERGY     -2929.514025298432

DIPOLE MOMENT
-------------

Method             : SCF
Type of density    : Electron Density
Multiplicity       :   1
Irrep              :   0
Energy             : -2929.6309770798034151 Eh
Relativity type    :
Basis              : AO
                                X                 Y                 Z
Electronic contribution:      6.065256285       6.951131246       6.291988767
Nuclear contribution   :     -6.739075736      -7.783801953      -7.046223364
                        -----------------------------------------
Total Dipole Moment    :     -0.673819451      -0.832670706      -0.754234597
                        -----------------------------------------
Magnitude (a.u.)       :      1.310054573
Magnitude (Debye)      :      3.329894094

Rotational constants in cm-1:             0.011693             0.005681             0.005038
Rotational constants in MHz :           350.546468           170.299210           151.036638

                             ****ORCA TERMINATED NORMALLY****
TOTAL RUN TIME: 0 days 0 hours 0 minutes 21 seconds 822 msec
