                         Program Version 6.0.1  -  RELEASE   -
|  1> ! r2scan-3c def2/J RI DEFGRID2 scfconv6 printgap
|  2> %output
|  3>     printlevel normal
|  4> end
|  5> * xyz 0 1
|  6> C 3.9419537049 -3.5373664431 -0.4565144878
|  7> C 4.4261035616 -2.2476367634 -1.0998352888
|  8> O 3.3697230421 -1.6281678446 -1.8608428691
|  9> C 2.5213942127 -0.8451200814 -1.2326811183
| 10> O 2.5763089603 -0.5709988224 -0.0513629444
| 11> C 1.4638335106 -0.2930689889 -2.1661170415
| 12> C 0.3373343193 0.3157265906 -1.3424676041
| 13> H -0.3651848515 0.8582006901 -1.9829923702
| 14> C 0.9184573693 1.306832072 -0.3450166412
| 15> O 1.7491914172 2.1255419583 -0.6690784338
| 16> O 0.3548161789 1.2203767723 0.8394001114
| 17> C 0.8445289781 2.0435618398 1.915522706
| 18> C 1.5658779271 1.1664851728 2.9236139568
| 19> S -0.5934832673 -1.0219861453 -0.5045391194
| 20> P -2.1118495295 0.1274928474 0.3651374787
| 21> S -2.4850922614 1.9103361062 -0.3873060654
| 22> O -3.392805279 -0.8355867775 0.2829049216
| 23> C -4.1274008344 -1.0042302683 -0.9338367345
| 24> O -1.8257115246 0.0329381533 1.9236513138
| 25> C -2.7527743939 0.6076649911 2.8602588788
| 26> H 3.5616025436 -4.2141415164 -1.2163222941
| 27> H 4.7673421776 -4.0101447658 0.0653242338
| 28> H 3.1480682219 -3.3239718134 0.2559856935
| 29> H 5.2123782397 -2.435847726 -1.8306996148
| 30> H 4.7713564122 -1.5397590115 -0.3409895566
| 31> H 1.0991807044 -1.083573562 -2.8200528619
| 32> H 1.9289937011 0.4870458636 -2.7730977163
| 33> H 1.5078923887 2.8006779049 1.4884172445
| 34> H -0.0376484258 2.519780479 2.3485678583
| 35> H 2.3991785053 0.6633625503 2.4380296581
| 36> H 1.9365253478 1.7803929889 3.7374322505
| 37> H 0.8858757232 0.413314745 3.3125843366
| 38> H -5.0711565 -1.461386753 -0.6476620802
| 39> H -3.575410301 -1.6538009586 -1.6122593565
| 40> H -4.3004322314 -0.0338210159 -1.403076267
| 41> H -3.0284913961 1.616943099 2.5484972289
| 42> H -2.2298461169 0.6320008966 3.8130977047
| 43> H -3.644896757 -0.0137838093 2.9255255688
| 44> *
| 45>
| 46>                          ****END OF INPUT****

CARTESIAN COORDINATES (ANGSTROEM)
---------------------------------
  C      3.941954   -3.537366   -0.456514
  C      4.426104   -2.247637   -1.099835
  O      3.369723   -1.628168   -1.860843
  C      2.521394   -0.845120   -1.232681
  O      2.576309   -0.570999   -0.051363
  C      1.463834   -0.293069   -2.166117
  C      0.337334    0.315727   -1.342468
  H     -0.365185    0.858201   -1.982992
  C      0.918457    1.306832   -0.345017
  O      1.749191    2.125542   -0.669078
  O      0.354816    1.220377    0.839400
  C      0.844529    2.043562    1.915523
  C      1.565878    1.166485    2.923614
  S     -0.593483   -1.021986   -0.504539
  P     -2.111850    0.127493    0.365137
  S     -2.485092    1.910336   -0.387306
  O     -3.392805   -0.835587    0.282905
  C     -4.127401   -1.004230   -0.933837
  O     -1.825712    0.032938    1.923651
  C     -2.752774    0.607665    2.860259
  H      3.561603   -4.214142   -1.216322
  H      4.767342   -4.010145    0.065324
  H      3.148068   -3.323972    0.255986
  H      5.212378   -2.435848   -1.830700
  H      4.771356   -1.539759   -0.340990
  H      1.099181   -1.083574   -2.820053
  H      1.928994    0.487046   -2.773098
  H      1.507892    2.800678    1.488417
  H     -0.037648    2.519780    2.348568
  H      2.399179    0.663363    2.438030
  H      1.936525    1.780393    3.737432
  H      0.885876    0.413315    3.312584
  H     -5.071156   -1.461387   -0.647662
  H     -3.575410   -1.653801   -1.612259
  H     -4.300432   -0.033821   -1.403076
  H     -3.028491    1.616943    2.548497
  H     -2.229846    0.632001    3.813098
  H     -3.644897   -0.013784    2.925526

 Total Charge           Charge          ....    0
 Multiplicity           Mult            ....    1
 Number of Electrons    NEL             ....  174
 Basis Dimension        Dim             ....  510

ORBITAL ENERGIES
----------------

  NO   OCC          E(Eh)            E(eV)
   0   2.0000     -88.574752     -2410.2415
   1   2.0000     -88.514262     -2408.5955
   2   2.0000     -76.911958     -2092.8808
   3   2.0000     -19.010198      -517.2938
   4   2.0000     -18.990238      -516.7507
   5   2.0000     -18.988885      -516.7138
   6   2.0000     -18.986419      -516.6467
   7   2.0000     -18.943135      -515.4689
   8   2.0000     -18.923620      -514.9379
   9   2.0000     -10.167652      -276.6759
  10   2.0000     -10.155124      -276.3350
  11   2.0000     -10.100352      -274.8446
  12   2.0000     -10.093601      -274.6608
  13   2.0000     -10.092859      -274.6407
  14   2.0000     -10.087539      -274.4959
  15   2.0000     -10.082843      -274.3681
  16   2.0000     -10.066273      -273.9172
  17   2.0000     -10.035081      -273.0684
  18   2.0000     -10.018775      -272.6247
  19   2.0000      -7.869094      -214.1289
  20   2.0000      -7.808954      -212.4924
  21   2.0000      -6.590104      -179.3258
  22   2.0000      -5.816070      -158.2633
  23   2.0000      -5.813044      -158.1810
  24   2.0000      -5.806009      -157.9895
  25   2.0000      -5.756664      -156.6468
  26   2.0000      -5.749509      -156.4521
  27   2.0000      -5.748633      -156.4283
  28   2.0000      -4.735746      -128.8662
  29   2.0000      -4.735012      -128.8462
  30   2.0000      -4.733772      -128.8125
  31   2.0000      -1.087778       -29.5999
  32   2.0000      -1.070129       -29.1197
  33   2.0000      -1.045855       -28.4592
  34   2.0000      -1.004133       -27.3238
  35   2.0000      -0.992697       -27.0127
  36   2.0000      -0.974841       -26.5268
  37   2.0000      -0.810563       -22.0565
  38   2.0000      -0.759906       -20.6781
  39   2.0000      -0.734977       -19.9997
  40   2.0000      -0.733608       -19.9625
  41   2.0000      -0.692679       -18.8488
  42   2.0000      -0.670295       -18.2397
  43   2.0000      -0.660695       -17.9784
  44   2.0000      -0.648004       -17.6331
  45   2.0000      -0.630235       -17.1496
  46   2.0000      -0.593398       -16.1472
  47   2.0000      -0.536748       -14.6056
  48   2.0000      -0.534297       -14.5390
  49   2.0000      -0.520400       -14.1608
  50   2.0000      -0.502855       -13.6834
  51   2.0000      -0.489051       -13.3078
  52   2.0000      -0.485496       -13.2110
  53   2.0000      -0.464371       -12.6362
  54   2.0000      -0.458929       -12.4881
  55   2.0000      -0.448452       -12.2030
  56   2.0000      -0.446179       -12.1412
  57   2.0000      -0.443426       -12.0662
  58   2.0000      -0.430981       -11.7276
  59   2.0000      -0.427521       -11.6334
  60   2.0000      -0.420823       -11.4512
  61   2.0000      -0.416540       -11.3346
  62   2.0000      -0.408131       -11.1058
  63   2.0000      -0.397133       -10.8065
  64   2.0000      -0.387811       -10.5529
  65   2.0000      -0.387335       -10.5399
  66   2.0000      -0.380747       -10.3606
  67   2.0000      -0.364078        -9.9071
  68   2.0000      -0.363445        -9.8898
  69   2.0000      -0.353274        -9.6131
  70   2.0000      -0.344068        -9.3626
  71   2.0000      -0.341847        -9.3021
  72   2.0000      -0.334430        -9.1003
  73   2.0000      -0.325898        -8.8681
  74   2.0000      -0.319073        -8.6824
  75   2.0000      -0.317455        -8.6384
  76   2.0000      -0.311009        -8.4630
  77   2.0000      -0.299254        -8.1431
  78   2.0000      -0.286063        -7.7842
  79   2.0000      -0.283746        -7.7211
  80   2.0000      -0.275254        -7.4900
  81   2.0000      -0.264076        -7.1859
  82   2.0000      -0.254939        -6.9372
  83   2.0000      -0.249232        -6.7820
  84   2.0000      -0.222392        -6.0516
  85   2.0000      -0.215756        -5.8710
  86   2.0000      -0.208237        -5.6664
  87   0.0000      -0.043967        -1.1964
  88   0.0000      -0.023213        -0.6317
  89   0.0000      -0.008530        -0.2321
  90   0.0000       0.007462         0.2031
  91   0.0000       0.020299         0.5524

MULLIKEN ATOMIC CHARGES
-----------------------
   0 C :   -0.468333
   1 C :   -0.136257
   2 O :   -0.162119
   3 C :    0.388917
   4 O :   -0.388508
   5 C :   -0.452831
   6 C :    0.005783
   7 H :    0.243909
   8 C :    0.240119
   9 O :   -0.387920
  10 O :   -0.097745
  11 C :   -0.150237
  12 C :   -0.478760
  13 S :   -0.151684
  14 P :    0.804085
  15 S :   -0.493607
  16 O :   -0.353131
  17 C :   -0.298296
  18 O :   -0.341482
  19 C :   -0.300893
  20 H :    0.153609
  21 H :    0.149840
  22 H :    0.175421
  23 H :    0.151915
  24 H :    0.168625
  25 H :    0.190673
  26 H :    0.203410
  27 H :    0.185037
  28 H :    0.149938
  29 H :    0.174414
  30 H :    0.145087
  31 H :    0.156403
  32 H :    0.149637
  33 H :    0.155709
  34 H :    0.176605
  35 H :    0.176419
  36 H :    0.153662
  37 H :    0.162588
Sum of atomic charges:   -0.0000000

LOEWDIN ATOMIC CHARGES
----------------------
   0 C :   -0.387731
   1 C :    0.031939
   2 O :   -0.573211
   3 C :    0.367557
   4 O :   -0.429950
   5 C :   -0.206595
   6 C :   -0.190695
   7 H :    0.206804
   8 C :    0.354337
   9 O :   -0.424406
  10 O :   -0.624061
  11 C :    0.038041
  12 C :   -0.385579
  13 S :    0.249613
  14 P :    0.396557
  15 S :   -0.121799
  16 O :   -0.684347
  17 C :   -0.062377
  18 O :   -0.658265
  19 C :   -0.053203
  20 H :    0.158050
  21 H :    0.160612
  22 H :    0.166954
  23 H :    0.179840
  24 H :    0.188758
  25 H :    0.189426
  26 H :    0.206893
  27 H :    0.197374
  28 H :    0.179047
  29 H :    0.169989
  30 H :    0.155444
  31 H :    0.159650
  32 H :    0.175791
  33 H :    0.167510
  34 H :    0.176916
  35 H :    0.176797
  36 H :    0.176761
  37 H :    0.171561

  Mayer bond orders larger than 0.100000
B(  0-C ,  1-C ) :   0.9398 B(  0-C , 20-H ) :   0.9727 B(  0-C , 21-H ) :   0.9640
B(  0-C , 22-H ) :   0.9692 B(  1-C ,  2-O ) :   0.8043 B(  1-C , 23-H ) :   0.9612
B(  1-C , 24-H ) :   0.9675 B(  2-O ,  3-C ) :   1.1356 B(  3-C ,  4-O ) :   1.7828
B(  3-C ,  5-C ) :   0.9716 B(  4-O ,  8-C ) :   0.1327 B(  5-C ,  6-C ) :   0.9174
B(  5-C ,  9-O ) :   0.1184 B(  5-C , 25-H ) :   0.9745 B(  5-C , 26-H ) :   0.9128
B(  6-C ,  7-H ) :   0.9175 B(  6-C ,  8-C ) :   0.8180 B(  6-C , 13-S ) :   0.9127
B(  8-C ,  9-O ) :   1.8931 B(  8-C , 10-O ) :   1.1474 B( 10-O , 11-C ) :   0.7428
B( 11-C , 12-C ) :   0.9220 B( 11-C , 27-H ) :   0.9648 B( 11-C , 28-H ) :   0.9570
B( 12-C , 29-H ) :   0.9677 B( 12-C , 30-H ) :   0.9735 B( 12-C , 31-H ) :   0.9757
B( 13-S , 14-P ) :   1.0998 B( 14-P , 15-S ) :   1.7053 B( 14-P , 16-O ) :   1.0331
B( 14-P , 18-O ) :   1.1665 B( 16-O , 17-C ) :   0.8345 B( 17-C , 32-H ) :   0.9676
B( 17-C , 33-H ) :   0.9608 B( 17-C , 34-H ) :   0.9573 B( 18-O , 19-C ) :   0.8023
B( 19-C , 35-H ) :   0.9595 B( 19-C , 36-H ) :   0.9680 B( 19-C , 37-H ) :   0.9604

Dispersion correction           -0.017608033
FINAL SINGLE POINT ENERGY     -1981.452571531617

DIPOLE MOMENT
-------------

Method             : SCF
Type of density    : Electron Density
Multiplicity       :   1
Irrep              :   0
Energy             : -1981.4726385163685336 Eh
Relativity type    :
Basis              : AO
                                X                 Y                 Z
Electronic contribution:    -10.293274986       6.237470311      -7.242003021
Nuclear contribution   :     10.429020176      -7.638510594       7.499188565
                        -----------------------------------------
Total Dipole Moment    :      0.135745189      -1.401040283       0.257185544
                        -----------------------------------------
Magnitude (a.u.)       :      1.430903573
Magnitude (Debye)      :      3.637067841

Rotational constants in cm-1:             0.015133             0.006431             0.005783
Rotational constants in MHz :           453.670650           192.806898           173.363754

                             ****ORCA TERMINATED NORMALLY****
TOTAL RUN TIME: 0 days 0 hours 1 minutes 24 seconds 936 msec
