                         Program Version 6.0.1  -  RELEASE   -
|  1> ! r2scan-3c def2/J RI DEFGRID2 scfconv6 printgap
|  2> %output
|  3>     printlevel normal
|  4> end
|  5> %cpcm
|  6>     smd true
|  7>     smdsolvent "water"
|  8> end
|  9> * xyz 0 1
| 10> C 3.9419537049 -3.5373664431 -0.4565144878
| 11> C 4.4261035616 -2.2476367634 -1.0998352888
| 12> O 3.3697230421 -1.6281678446 -1.8608428691
| 13> C 2.5213942127 -0.8451200814 -1.2326811183
| 14> O 2.5763089603 -0.5709988224 -0.0513629444
| 15> C 1.4638335106 -0.2930689889 -2.1661170415
| 16> C 0.3373343193 0.3157265906 -1.3424676041
| 17> H -0.3651848515 0.8582006901 -1.9829923702
| 18> C 0.9184573693 1.306832072 -0.3450166412
| 19> O 1.7491914172 2.1255419583 -0.6690784338
| 20> O 0.3548161789 1.2203767723 0.8394001114
| 21> C 0.8445289781 2.0435618398 1.915522706
| 22> C 1.5658779271 1.1664851728 2.9236139568
| 23> S -0.5934832673 -1.0219861453 -0.5045391194
| 24> P -2.1118495295 0.1274928474 0.3651374787
| 25> S -2.4850922614 1.9103361062 -0.3873060654
| 26> O -3.392805279 -0.8355867775 0.2829049216
| 27> C -4.1274008344 -1.0042302683 -0.9338367345
| 28> O -1.8257115246 0.0329381533 1.9236513138
| 29> C -2.7527743939 0.6076649911 2.8602588788
| 30> H 3.5616025436 -4.2141415164 -1.2163222941
| 31> H 4.7673421776 -4.0101447658 0.0653242338
| 32> H 3.1480682219 -3.3239718134 0.2559856935
| 33> H 5.2123782397 -2.435847726 -1.8306996148
| 34> H 4.7713564122 -1.5397590115 -0.3409895566
| 35> H 1.0991807044 -1.083573562 -2.8200528619
| 36> H 1.9289937011 0.4870458636 -2.7730977163
| 37> H 1.5078923887 2.8006779049 1.4884172445
| 38> H -0.0376484258 2.519780479 2.3485678583
| 39> H 2.3991785053 0.6633625503 2.4380296581
| 40> H 1.9365253478 1.7803929889 3.7374322505
| 41> H 0.8858757232 0.413314745 3.3125843366
| 42> H -5.0711565 -1.461386753 -0.6476620802
| 43> H -3.575410301 -1.6538009586 -1.6122593565
| 44> H -4.3004322314 -0.0338210159 -1.403076267
| 45> H -3.0284913961 1.616943099 2.5484972289
| 46> H -2.2298461169 0.6320008966 3.8130977047
| 47> H -3.644896757 -0.0137838093 2.9255255688
| 48> *
| 49>
| 50>                          ****END OF INPUT****

CARTESIAN COORDINATES (ANGSTROEM)
---------------------------------
  C      3.941954   -3.537366   -0.456514
  C      4.426104   -2.247637   -1.099835
  O      3.369723   -1.628168   -1.860843
  C      2.521394   -0.845120   -1.232681
  O      2.576309   -0.570999   -0.051363
  C      1.463834   -0.293069   -2.166117
  C      0.337334    0.315727   -1.342468
  H     -0.365185    0.858201   -1.982992
  C      0.918457    1.306832   -0.345017
  O      1.749191    2.125542   -0.669078
  O      0.354816    1.220377    0.839400
  C      0.844529    2.043562    1.915523
  C      1.565878    1.166485    2.923614
  S     -0.593483   -1.021986   -0.504539
  P     -2.111850    0.127493    0.365137
  S     -2.485092    1.910336   -0.387306
  O     -3.392805   -0.835587    0.282905
  C     -4.127401   -1.004230   -0.933837
  O     -1.825712    0.032938    1.923651
  C     -2.752774    0.607665    2.860259
  H      3.561603   -4.214142   -1.216322
  H      4.767342   -4.010145    0.065324
  H      3.148068   -3.323972    0.255986
  H      5.212378   -2.435848   -1.830700
  H      4.771356   -1.539759   -0.340990
  H      1.099181   -1.083574   -2.820053
  H      1.928994    0.487046   -2.773098
  H      1.507892    2.800678    1.488417
  H     -0.037648    2.519780    2.348568
  H      2.399179    0.663363    2.438030
  H      1.936525    1.780393    3.737432
  H      0.885876    0.413315    3.312584
  H     -5.071156   -1.461387   -0.647662
  H     -3.575410   -1.653801   -1.612259
  H     -4.300432   -0.033821   -1.403076
  H     -3.028491    1.616943    2.548497
  H     -2.229846    0.632001    3.813098
  H     -3.644897   -0.013784    2.925526

 Total Charge           Charge          ....    0
 Multiplicity           Mult            ....    1
 Number of Electrons    NEL             ....  174
 Basis Dimension        Dim             ....  510

ORBITAL ENERGIES
----------------

  NO   OCC          E(Eh)            E(eV)
   0   2.0000     -88.582450     -2410.4510
   1   2.0000     -88.524982     -2408.8872
   2   2.0000     -76.919901     -2093.0969
   3   2.0000     -19.010301      -517.2966
   4   2.0000     -19.005576      -517.1680
   5   2.0000     -18.994104      -516.8559
   6   2.0000     -18.991577      -516.7871
   7   2.0000     -18.952776      -515.7312
   8   2.0000     -18.947126      -515.5775
   9   2.0000     -10.174454      -276.8610
  10   2.0000     -10.173450      -276.8336
  11   2.0000     -10.098188      -274.7857
  12   2.0000     -10.087042      -274.4824
  13   2.0000     -10.085675      -274.4452
  14   2.0000     -10.082643      -274.3627
  15   2.0000     -10.079577      -274.2792
  16   2.0000     -10.061321      -273.7825
  17   2.0000     -10.019738      -272.6509
  18   2.0000     -10.019076      -272.6329
  19   2.0000      -7.876796      -214.3385
  20   2.0000      -7.819975      -212.7923
  21   2.0000      -6.598146      -179.5447
  22   2.0000      -5.823782      -158.4732
  23   2.0000      -5.820731      -158.3901
  24   2.0000      -5.813723      -158.1995
  25   2.0000      -5.767610      -156.9446
  26   2.0000      -5.760486      -156.7508
  27   2.0000      -5.759718      -156.7299
  28   2.0000      -4.743737      -129.0837
  29   2.0000      -4.743043      -129.0648
  30   2.0000      -4.741899      -129.0336
  31   2.0000      -1.090950       -29.6863
  32   2.0000      -1.085878       -29.5482
  33   2.0000      -1.050786       -28.5933
  34   2.0000      -1.008340       -27.4383
  35   2.0000      -1.001334       -27.2477
  36   2.0000      -0.995704       -27.0945
  37   2.0000      -0.814745       -22.1703
  38   2.0000      -0.755058       -20.5462
  39   2.0000      -0.739208       -20.1149
  40   2.0000      -0.731443       -19.9036
  41   2.0000      -0.690806       -18.7978
  42   2.0000      -0.667259       -18.1570
  43   2.0000      -0.664152       -18.0725
  44   2.0000      -0.651125       -17.7180
  45   2.0000      -0.627873       -17.0853
  46   2.0000      -0.593700       -16.1554
  47   2.0000      -0.538178       -14.6446
  48   2.0000      -0.531036       -14.4502
  49   2.0000      -0.524136       -14.2625
  50   2.0000      -0.506938       -13.7945
  51   2.0000      -0.489751       -13.3268
  52   2.0000      -0.487604       -13.2684
  53   2.0000      -0.469531       -12.7766
  54   2.0000      -0.462718       -12.5912
  55   2.0000      -0.453614       -12.3435
  56   2.0000      -0.451848       -12.2954
  57   2.0000      -0.444731       -12.1017
  58   2.0000      -0.441781       -12.0215
  59   2.0000      -0.425139       -11.5686
  60   2.0000      -0.422781       -11.5044
  61   2.0000      -0.410865       -11.1802
  62   2.0000      -0.407154       -11.0792
  63   2.0000      -0.398950       -10.8560
  64   2.0000      -0.389442       -10.5973
  65   2.0000      -0.387844       -10.5538
  66   2.0000      -0.375454       -10.2166
  67   2.0000      -0.367850       -10.0097
  68   2.0000      -0.358401        -9.7526
  69   2.0000      -0.352975        -9.6049
  70   2.0000      -0.346674        -9.4335
  71   2.0000      -0.341037        -9.2801
  72   2.0000      -0.338743        -9.2177
  73   2.0000      -0.329142        -8.9564
  74   2.0000      -0.319797        -8.7021
  75   2.0000      -0.315799        -8.5933
  76   2.0000      -0.308205        -8.3867
  77   2.0000      -0.305736        -8.3195
  78   2.0000      -0.289319        -7.8728
  79   2.0000      -0.285860        -7.7787
  80   2.0000      -0.281603        -7.6628
  81   2.0000      -0.277475        -7.5505
  82   2.0000      -0.269255        -7.3268
  83   2.0000      -0.261461        -7.1147
  84   2.0000      -0.236429        -6.4336
  85   2.0000      -0.227210        -6.1827
  86   2.0000      -0.220355        -5.9962
  87   0.0000      -0.051648        -1.4054
  88   0.0000      -0.028365        -0.7719
  89   0.0000      -0.024573        -0.6687
  90   0.0000       0.002320         0.0631
  91   0.0000       0.012151         0.3306

MULLIKEN ATOMIC CHARGES
-----------------------
   0 C :   -0.497299
   1 C :   -0.137797
   2 O :   -0.171651
   3 C :    0.422968
   4 O :   -0.454515
   5 C :   -0.493299
   6 C :    0.023220
   7 H :    0.274293
   8 C :    0.226736
   9 O :   -0.455014
  10 O :   -0.116683
  11 C :   -0.136010
  12 C :   -0.516925
  13 S :   -0.160532
  14 P :    0.839079
  15 S :   -0.543823
  16 O :   -0.384535
  17 C :   -0.309740
  18 O :   -0.375235
  19 C :   -0.309649
  20 H :    0.167757
  21 H :    0.172699
  22 H :    0.170771
  23 H :    0.177578
  24 H :    0.174652
  25 H :    0.226586
  26 H :    0.237550
  27 H :    0.184642
  28 H :    0.178360
  29 H :    0.168909
  30 H :    0.173905
  31 H :    0.171513
  32 H :    0.177691
  33 H :    0.175150
  34 H :    0.176186
  35 H :    0.179482
  36 H :    0.182492
  37 H :    0.180491
Sum of atomic charges:    0.0000000

LOEWDIN ATOMIC CHARGES
----------------------
   0 C :   -0.390537
   1 C :    0.037448
   2 O :   -0.572384
   3 C :    0.374616
   4 O :   -0.475967
   5 C :   -0.197705
   6 C :   -0.185278
   7 H :    0.217143
   8 C :    0.354438
   9 O :   -0.476066
  10 O :   -0.632167
  11 C :    0.042132
  12 C :   -0.387198
  13 S :    0.249331
  14 P :    0.400139
  15 S :   -0.153306
  16 O :   -0.696192
  17 C :   -0.057336
  18 O :   -0.675373
  19 C :   -0.046616
  20 H :    0.162759
  21 H :    0.169007
  22 H :    0.163548
  23 H :    0.191009
  24 H :    0.190822
  25 H :    0.204809
  26 H :    0.217082
  27 H :    0.197577
  28 H :    0.190416
  29 H :    0.165004
  30 H :    0.167847
  31 H :    0.163121
  32 H :    0.187545
  33 H :    0.175528
  34 H :    0.177320
  35 H :    0.179312
  36 H :    0.189416
  37 H :    0.178757

  Mayer bond orders larger than 0.100000
B(  0-C ,  1-C ) :   0.9358 B(  0-C , 20-H ) :   0.9691 B(  0-C , 21-H ) :   0.9588
B(  0-C , 22-H ) :   0.9687 B(  1-C ,  2-O ) :   0.7871 B(  1-C , 23-H ) :   0.9515
B(  1-C , 24-H ) :   0.9628 B(  2-O ,  3-C ) :   1.1507 B(  3-C ,  4-O ) :   1.7300
B(  3-C ,  5-C ) :   0.9479 B(  4-O ,  8-C ) :   0.1325 B(  5-C ,  6-C ) :   0.8903
B(  5-C , 25-H ) :   0.9617 B(  5-C , 26-H ) :   0.9222 B(  6-C ,  7-H ) :   0.9038
B(  6-C ,  8-C ) :   0.8194 B(  6-C , 13-S ) :   0.9052 B(  8-C ,  9-O ) :   1.8328
B(  8-C , 10-O ) :   1.1586 B( 10-O , 11-C ) :   0.7325 B( 11-C , 12-C ) :   0.9079
B( 11-C , 27-H ) :   0.9559 B( 11-C , 28-H ) :   0.9473 B( 12-C , 29-H ) :   0.9701
B( 12-C , 30-H ) :   0.9645 B( 12-C , 31-H ) :   0.9738 B( 13-S , 14-P ) :   1.1118
B( 14-P , 15-S ) :   1.6618 B( 14-P , 16-O ) :   1.0420 B( 14-P , 18-O ) :   1.1690
B( 16-O , 17-C ) :   0.8263 B( 17-C , 32-H ) :   0.9577 B( 17-C , 33-H ) :   0.9531
B( 17-C , 34-H ) :   0.9548 B( 18-O , 19-C ) :   0.7930 B( 19-C , 35-H ) :   0.9537
B( 19-C , 36-H ) :   0.9572 B( 19-C , 37-H ) :   0.9526

Dispersion correction           -0.017608033
FINAL SINGLE POINT ENERGY     -1981.466685589174

DIPOLE MOMENT
-------------

Method             : SCF
Type of density    : Electron Density
Multiplicity       :   1
Irrep              :   0
Energy             : -1981.4867525739255143 Eh
Relativity type    :
Basis              : AO
                                X                 Y                 Z
Electronic contribution:    -10.479620142       5.799510773      -7.364326702
Nuclear contribution   :     10.429020176      -7.638510594       7.499188565
                        -----------------------------------------
Total Dipole Moment    :     -0.050599966      -1.838999822       0.134861862
                        -----------------------------------------
Magnitude (a.u.)       :      1.844632327
Magnitude (Debye)      :      4.688682761

Rotational constants in cm-1:             0.015133             0.006431             0.005783
Rotational constants in MHz :           453.670650           192.806898           173.363754

                             ****ORCA TERMINATED NORMALLY****
TOTAL RUN TIME: 0 days 0 hours 1 minutes 52 seconds 654 msec
