                         Program Version 6.0.0  -   RELEASE  -
|  1> ! pbe def2-sv(p) def2/J RI DEFGRID1 loosescf d4 GCP(DFT/SV(P)) printgap
|  2> %output
|  3>     printlevel normal
|  4> end
|  5> * xyz 0 1
|  6> C 4.0349707926 1.7740551313 -1.0040827692
|  7> C 4.1972720479 1.0942264059 0.3403904696
|  8> O 3.4067706748 -0.0975982418 0.4300169585
|  9> P 1.8103223 -0.0480487416 0.4617795138
| 10> S 1.1544156732 1.4020634879 1.6150796165
| 11> O 1.4539198259 -1.5231120667 0.9196739939
| 12> C 1.3563360888 -1.8724207032 2.3149416704
| 13> C 2.7143337125 -1.9243602582 2.9822417045
| 14> S 1.3353577618 -0.1829304829 -1.6072094891
| 15> C 0.2103742952 -1.6005050163 -1.7454376515
| 16> S -1.5034684256 -1.1845133581 -2.2097403388
| 17> P -2.1532079696 -0.121431714 -0.5134785495
| 18> S -4.062256521 0.3021626836 -0.472781123
| 19> O -1.1763126144 1.1299029392 -0.3690334104
| 20> C -1.4705730654 2.4089652031 -0.9501020357
| 21> C -1.3361387431 2.389842071 -2.4596844497
| 22> O -1.5977897322 -1.062938769 0.6463043609
| 23> C -2.297341522 -1.1777186381 1.9050399851
| 24> C -2.2369623273 0.102084871 2.7117996937
| 25> H 3.0009278462 2.0992428409 -1.12706331
| 26> H 4.6861371997 2.6406787493 -1.0551913913
| 27> H 4.2793618459 1.0867774188 -1.809592021
| 28> H 3.900543777 1.7693878081 1.1506449726
| 29> H 5.219921915 0.7502058167 0.4997151109
| 30> H 0.7108973469 -1.1419821383 2.8126018371
| 31> H 0.8743420789 -2.8516168728 2.3068769252
| 32> H 2.6016863319 -2.3136055048 3.9893894016
| 33> H 3.3861720328 -2.5655953165 2.4180057672
| 34> H 3.1422939942 -0.9249207607 3.034730999
| 35> H 0.2120967975 -2.158097957 -0.8150163754
| 36> H 0.5754278494 -2.20368219 -2.5731754048
| 37> H -2.4855975015 2.6946537689 -0.6553368232
| 38> H -0.7474862597 3.0798138098 -0.4819063538
| 39> H -0.351355129 2.0302523565 -2.7499848296
| 40> H -2.0926759697 1.734055026 -2.890740854
| 41> H -1.4803741376 3.3946017413 -2.8433592306
| 42> H -3.3373219641 -1.4465939171 1.6960398697
| 43> H -1.7943375501 -2.0035856945 2.4098843457
| 44> H -2.6600240046 -0.0710812336 3.6960463982
| 45> H -1.2108175603 0.4484996748 2.8145568903
| 46> H -2.8102584175 0.8816993823 2.2116630977
| 47> *
| 48>
| 49>                          ****END OF INPUT****

CARTESIAN COORDINATES (ANGSTROEM)
---------------------------------
  C      4.034971    1.774055   -1.004083
  C      4.197272    1.094226    0.340390
  O      3.406771   -0.097598    0.430017
  P      1.810322   -0.048049    0.461780
  S      1.154416    1.402063    1.615080
  O      1.453920   -1.523112    0.919674
  C      1.356336   -1.872421    2.314942
  C      2.714334   -1.924360    2.982242
  S      1.335358   -0.182930   -1.607209
  C      0.210374   -1.600505   -1.745438
  S     -1.503468   -1.184513   -2.209740
  P     -2.153208   -0.121432   -0.513479
  S     -4.062257    0.302163   -0.472781
  O     -1.176313    1.129903   -0.369033
  C     -1.470573    2.408965   -0.950102
  C     -1.336139    2.389842   -2.459684
  O     -1.597790   -1.062939    0.646304
  C     -2.297342   -1.177719    1.905040
  C     -2.236962    0.102085    2.711800
  H      3.000928    2.099243   -1.127063
  H      4.686137    2.640679   -1.055191
  H      4.279362    1.086777   -1.809592
  H      3.900544    1.769388    1.150645
  H      5.219922    0.750206    0.499715
  H      0.710897   -1.141982    2.812602
  H      0.874342   -2.851617    2.306877
  H      2.601686   -2.313606    3.989389
  H      3.386172   -2.565595    2.418006
  H      3.142294   -0.924921    3.034731
  H      0.212097   -2.158098   -0.815016
  H      0.575428   -2.203682   -2.573175
  H     -2.485598    2.694654   -0.655337
  H     -0.747486    3.079814   -0.481906
  H     -0.351355    2.030252   -2.749985
  H     -2.092676    1.734055   -2.890741
  H     -1.480374    3.394602   -2.843359
  H     -3.337322   -1.446594    1.696040
  H     -1.794338   -2.003586    2.409884
  H     -2.660024   -0.071081    3.696046
  H     -1.210818    0.448500    2.814557
  H     -2.810258    0.881699    2.211663

 Total Charge           Charge          ....    0
 Multiplicity           Mult            ....    1
 Number of Electrons    NEL             ....  202
 Basis Dimension        Dim             ....  334

ORBITAL ENERGIES
----------------

  NO   OCC          E(Eh)            E(eV)
   0   2.0000     -88.045535     -2395.8408
   1   2.0000     -88.040505     -2395.7039
   2   2.0000     -87.990877     -2394.3535
   3   2.0000     -87.986246     -2394.2275
   4   2.0000     -76.431032     -2079.7941
   5   2.0000     -76.422846     -2079.5714
   6   2.0000     -18.800812      -511.5961
   7   2.0000     -18.793086      -511.3859
   8   2.0000     -18.788782      -511.2688
   9   2.0000     -18.783235      -511.1178
  10   2.0000      -9.960528      -271.0397
  11   2.0000      -9.960165      -271.0299
  12   2.0000      -9.954022      -270.8627
  13   2.0000      -9.949956      -270.7521
  14   2.0000      -9.941210      -270.5141
  15   2.0000      -9.889829      -269.1159
  16   2.0000      -9.889584      -269.1093
  17   2.0000      -9.874216      -268.6911
  18   2.0000      -9.873609      -268.6746
  19   2.0000      -7.690505      -209.2693
  20   2.0000      -7.686117      -209.1499
  21   2.0000      -7.635552      -207.7739
  22   2.0000      -7.631405      -207.6611
  23   2.0000      -6.428734      -174.9347
  24   2.0000      -6.420636      -174.7144
  25   2.0000      -5.718934      -155.6201
  26   2.0000      -5.714858      -155.5092
  27   2.0000      -5.714321      -155.4946
  28   2.0000      -5.710310      -155.3854
  29   2.0000      -5.707035      -155.2963
  30   2.0000      -5.702991      -155.1863
  31   2.0000      -5.664415      -154.1366
  32   2.0000      -5.660330      -154.0254
  33   2.0000      -5.656592      -153.9237
  34   2.0000      -5.655369      -153.8904
  35   2.0000      -5.652061      -153.8004
  36   2.0000      -5.651507      -153.7853
  37   2.0000      -4.651381      -126.5705
  38   2.0000      -4.650532      -126.5474
  39   2.0000      -4.649068      -126.5076
  40   2.0000      -4.642957      -126.3413
  41   2.0000      -4.642518      -126.3293
  42   2.0000      -4.641206      -126.2936
  43   2.0000      -0.992599       -27.0100
  44   2.0000      -0.980569       -26.6826
  45   2.0000      -0.951621       -25.8949
  46   2.0000      -0.939474       -25.5644
  47   2.0000      -0.761999       -20.7351
  48   2.0000      -0.722505       -19.6604
  49   2.0000      -0.706096       -19.2138
  50   2.0000      -0.692377       -18.8405
  51   2.0000      -0.678385       -18.4598
  52   2.0000      -0.674792       -18.3620
  53   2.0000      -0.656891       -17.8749
  54   2.0000      -0.640381       -17.4256
  55   2.0000      -0.603503       -16.4222
  56   2.0000      -0.592792       -16.1307
  57   2.0000      -0.578684       -15.7468
  58   2.0000      -0.566279       -15.4092
  59   2.0000      -0.561699       -15.2846
  60   2.0000      -0.499674       -13.5968
  61   2.0000      -0.488281       -13.2868
  62   2.0000      -0.478834       -13.0297
  63   2.0000      -0.466760       -12.7012
  64   2.0000      -0.463260       -12.6059
  65   2.0000      -0.447718       -12.1830
  66   2.0000      -0.443094       -12.0572
  67   2.0000      -0.433917       -11.8075
  68   2.0000      -0.425298       -11.5730
  69   2.0000      -0.420229       -11.4350
  70   2.0000      -0.409132       -11.1331
  71   2.0000      -0.398434       -10.8419
  72   2.0000      -0.394027       -10.7220
  73   2.0000      -0.391961       -10.6658
  74   2.0000      -0.388330       -10.5670
  75   2.0000      -0.380470       -10.3531
  76   2.0000      -0.363574        -9.8934
  77   2.0000      -0.360459        -9.8086
  78   2.0000      -0.354923        -9.6579
  79   2.0000      -0.350441        -9.5360
  80   2.0000      -0.346857        -9.4384
  81   2.0000      -0.341181        -9.2840
  82   2.0000      -0.338368        -9.2075
  83   2.0000      -0.335888        -9.1400
  84   2.0000      -0.323424        -8.8008
  85   2.0000      -0.317101        -8.6288
  86   2.0000      -0.313656        -8.5350
  87   2.0000      -0.300486        -8.1766
  88   2.0000      -0.293645        -7.9905
  89   2.0000      -0.291224        -7.9246
  90   2.0000      -0.284659        -7.7460
  91   2.0000      -0.277595        -7.5537
  92   2.0000      -0.270326        -7.3559
  93   2.0000      -0.266662        -7.2562
  94   2.0000      -0.257358        -7.0031
  95   2.0000      -0.230353        -6.2682
  96   2.0000      -0.217098        -5.9075
  97   2.0000      -0.209290        -5.6951
  98   2.0000      -0.207389        -5.6433
  99   2.0000      -0.204523        -5.5653
 100   2.0000      -0.195761        -5.3269
 101   0.0000      -0.048240        -1.3127
 102   0.0000      -0.037782        -1.0281
 103   0.0000      -0.017792        -0.4841
 104   0.0000      -0.008156        -0.2219
 105   0.0000       0.021594         0.5876

MULLIKEN ATOMIC CHARGES
-----------------------
   0 C :   -0.323667
   1 C :   -0.006554
   2 O :   -0.371857
   3 P :    0.632738
   4 S :   -0.313777
   5 O :   -0.377351
   6 C :   -0.031892
   7 C :   -0.290422
   8 S :   -0.100758
   9 C :   -0.346153
  10 S :   -0.083335
  11 P :    0.622186
  12 S :   -0.320383
  13 O :   -0.356091
  14 C :   -0.001272
  15 C :   -0.318462
  16 O :   -0.392047
  17 C :   -0.005967
  18 C :   -0.329775
  19 H :    0.125283
  20 H :    0.117274
  21 H :    0.124206
  22 H :    0.109428
  23 H :    0.105730
  24 H :    0.124244
  25 H :    0.108770
  26 H :    0.112397
  27 H :    0.118163
  28 H :    0.123590
  29 H :    0.213571
  30 H :    0.185470
  31 H :    0.107037
  32 H :    0.103531
  33 H :    0.122700
  34 H :    0.119933
  35 H :    0.107717
  36 H :    0.114029
  37 H :    0.098329
  38 H :    0.105496
  39 H :    0.146578
  40 H :    0.121363
Sum of atomic charges:    0.0000000

LOEWDIN ATOMIC CHARGES
----------------------
   0 C :   -0.369430
   1 C :   -0.124685
   2 O :   -0.246853
   3 P :    0.580019
   4 S :   -0.292854
   5 O :   -0.235668
   6 C :   -0.118021
   7 C :   -0.361802
   8 S :    0.094512
   9 C :   -0.474884
  10 S :    0.084673
  11 P :    0.569585
  12 S :   -0.314774
  13 O :   -0.235068
  14 C :   -0.120835
  15 C :   -0.370510
  16 O :   -0.252867
  17 C :   -0.116043
  18 C :   -0.375518
  19 H :    0.117528
  20 H :    0.133079
  21 H :    0.126515
  22 H :    0.107048
  23 H :    0.119260
  24 H :    0.112733
  25 H :    0.117823
  26 H :    0.131056
  27 H :    0.127933
  28 H :    0.124879
  29 H :    0.138486
  30 H :    0.141469
  31 H :    0.107680
  32 H :    0.115575
  33 H :    0.118721
  34 H :    0.119044
  35 H :    0.128165
  36 H :    0.111420
  37 H :    0.112199
  38 H :    0.128051
  39 H :    0.119615
  40 H :    0.122742

  Mayer bond orders larger than 0.100000
B(  0-C ,  1-C ) :   1.1635 B(  0-C , 19-H ) :   0.9319 B(  0-C , 20-H ) :   0.9384
B(  0-C , 21-H ) :   0.9429 B(  1-C ,  2-O ) :   0.9189 B(  1-C , 22-H ) :   0.9110
B(  1-C , 23-H ) :   0.9316 B(  2-O ,  3-P ) :   1.0787 B(  3-P ,  4-S ) :   1.6097
B(  3-P ,  5-O ) :   1.1140 B(  3-P ,  8-S ) :   0.9522 B(  4-S ,  8-S ) :   0.1014
B(  5-O ,  6-C ) :   0.8984 B(  6-C ,  7-C ) :   1.1635 B(  6-C , 24-H ) :   0.9066
B(  6-C , 25-H ) :   0.9316 B(  7-C , 26-H ) :   0.9386 B(  7-C , 27-H ) :   0.9449
B(  7-C , 28-H ) :   0.9375 B(  8-S ,  9-C ) :   1.0071 B(  9-C , 10-S ) :   0.9826
B(  9-C , 29-H ) :   0.8759 B(  9-C , 30-H ) :   0.9108 B( 10-S , 11-P ) :   0.9788
B( 11-P , 12-S ) :   1.6320 B( 11-P , 13-O ) :   1.1047 B( 11-P , 16-O ) :   1.0846
B( 13-O , 14-C ) :   0.9087 B( 14-C , 15-C ) :   1.1636 B( 14-C , 31-H ) :   0.9176
B( 14-C , 32-H ) :   0.9256 B( 15-C , 33-H ) :   0.9395 B( 15-C , 34-H ) :   0.9379
B( 15-C , 35-H ) :   0.9393 B( 16-O , 17-C ) :   0.9008 B( 17-C , 18-C ) :   1.1663
B( 17-C , 36-H ) :   0.9178 B( 17-C , 37-H ) :   0.9289 B( 18-C , 38-H ) :   0.9361
B( 18-C , 39-H ) :   0.9230 B( 18-C , 40-H ) :   0.9302

Dispersion correction           -0.069614046
FINAL SINGLE POINT ENERGY     -2929.514208530190

DIPOLE MOMENT
-------------

Method             : SCF
Type of density    : Electron Density
Multiplicity       :   1
Irrep              :   0
Energy             : -2929.6336367024132414 Eh
Relativity type    :
Basis              : AO
                                X                 Y                 Z
Electronic contribution:    -11.599743335      -5.243022706     -10.955404512
Nuclear contribution   :     13.203800670       4.743020597      11.442165089
                        -----------------------------------------
Total Dipole Moment    :      1.604057335      -0.500002109       0.486760577
                        -----------------------------------------
Magnitude (a.u.)       :      1.749267818
Magnitude (Debye)      :      4.446285442

Rotational constants in cm-1:             0.011529             0.006287             0.005458
Rotational constants in MHz :           345.640113           188.486855           163.641515

                             ****ORCA TERMINATED NORMALLY****
TOTAL RUN TIME: 0 days 0 hours 0 minutes 22 seconds 495 msec
