                         Program Version 6.0.0  -   RELEASE  -
|  1> ! wb97x-v def2-tzvp def2/J RIJCOSX DEFGRID2 scfconv7 GCP(DFT/TZ) printgap
|  2> %output
|  3>     printlevel normal
|  4> end
|  5> * xyz 0 1
|  6> C 5.274691875416099 -2.466115028907241 -1.4770214522234155
|  7> C 4.41015076959871 -1.2382073260835105 -1.5896591117528627
|  8> O 3.5725888132692125 -1.1851262318977602 -0.3807893794258646
|  9> P 2.7039440377554755 0.1216427182252341 -0.023053982679439984
| 10> S 3.5902659154801997 1.851787357301175 -0.01563046636439655
| 11> O 2.1481599266384235 -0.24584696031528078 1.4305355932028778
| 12> C 1.4311988182623219 -1.5053634066621702 1.712265173194638
| 13> C 2.316647585705576 -2.423426328687882 2.5151209191365322
| 14> S 1.1226805773598147 -0.09135665807415577 -1.4334471673313283
| 15> C 0.29363294617294694 1.5340546728463662 -1.2585870865401585
| 16> S -0.6571307659258651 1.8079435915064794 0.28779113000735546
| 17> P -2.309170272379727 0.5192421916918867 -0.011536864418122017
| 18> S -2.932684128857548 0.3373236605480615 -1.8484984265104423
| 19> O -3.356721412596351 1.092449357159491 1.0667159679505183
| 20> C -4.194255072555337 2.2680453484581555 0.7762158932552073
| 21> C -5.639715312264744 1.8830623522434717 0.9561688442145229
| 22> O -1.8287109388700622 -0.8227093560831629 0.7255246818027424
| 23> C -2.700221828195116 -2.0126338808086275 0.7402210666156853
| 24> C -1.8713153253522485 -3.166008024902245 1.2419000157005784
| 25> H 5.896825370709476 -2.541982873262732 -2.373969445028697
| 26> H 5.93121535695302 -2.4035826384203594 -0.6046771552202951
| 27> H 4.664099670706402 -3.370387157777475 -1.4029815417323266
| 28> H 3.7498246709040575 -1.284564381870082 -2.461300243076259
| 29> H 5.007031283507657 -0.3220385692024719 -1.6342064538921928
| 30> H 0.545535135307826 -1.198630737426257 2.272404989442356
| 31> H 1.1127042120187298 -1.962050138192532 0.7709459679110374
| 32> H 2.635445991243677 -1.9441944810418246 3.4449163072249585
| 33> H 1.747706986669923 -3.323691005217283 2.7700356197020133
| 34> H 3.1996019002887004 -2.722612330752527 1.944042230953156
| 35> H -0.3785569581631285 1.6235031208373936 -2.1170098405524627
| 36> H 1.0424608561885136 2.33139400880823 -1.2945377594229925
| 37> H -3.8807736279509935 3.0386651170816954 1.4850570451149947
| 38> H -3.993805574531597 2.616045910229537 -0.2416477774697203
| 39> H -6.266193021719955 2.766767860440166 0.7993313522952982
| 40> H -5.932252403929563 1.1173088841407877 0.23210620066518647
| 41> H -5.821482832152231 1.5073314013089443 1.967068598492266
| 42> H -3.5480535327372538 -1.7976118972875939 1.39808582246668
| 43> H -3.063193369903617 -2.1880674160755444 -0.2772166744018805
| 44> H -1.0336606547135136 -3.366443169802649 0.5678955538037617
| 45> H -1.485721748721437 -2.968775844617135 2.246253194636996
| 46> H -2.502222208908702 -4.059255060312789 1.2838973391178659
| 47> *
| 48>
| 49>                          ****END OF INPUT****

CARTESIAN COORDINATES (ANGSTROEM)
---------------------------------
  C      5.274692   -2.466115   -1.477021
  C      4.410151   -1.238207   -1.589659
  O      3.572589   -1.185126   -0.380789
  P      2.703944    0.121643   -0.023054
  S      3.590266    1.851787   -0.015630
  O      2.148160   -0.245847    1.430536
  C      1.431199   -1.505363    1.712265
  C      2.316648   -2.423426    2.515121
  S      1.122681   -0.091357   -1.433447
  C      0.293633    1.534055   -1.258587
  S     -0.657131    1.807944    0.287791
  P     -2.309170    0.519242   -0.011537
  S     -2.932684    0.337324   -1.848498
  O     -3.356721    1.092449    1.066716
  C     -4.194255    2.268045    0.776216
  C     -5.639715    1.883062    0.956169
  O     -1.828711   -0.822709    0.725525
  C     -2.700222   -2.012634    0.740221
  C     -1.871315   -3.166008    1.241900
  H      5.896825   -2.541983   -2.373969
  H      5.931215   -2.403583   -0.604677
  H      4.664100   -3.370387   -1.402982
  H      3.749825   -1.284564   -2.461300
  H      5.007031   -0.322039   -1.634206
  H      0.545535   -1.198631    2.272405
  H      1.112704   -1.962050    0.770946
  H      2.635446   -1.944194    3.444916
  H      1.747707   -3.323691    2.770036
  H      3.199602   -2.722612    1.944042
  H     -0.378557    1.623503   -2.117010
  H      1.042461    2.331394   -1.294538
  H     -3.880774    3.038665    1.485057
  H     -3.993806    2.616046   -0.241648
  H     -6.266193    2.766768    0.799331
  H     -5.932252    1.117309    0.232106
  H     -5.821483    1.507331    1.967069
  H     -3.548054   -1.797612    1.398086
  H     -3.063193   -2.188067   -0.277217
  H     -1.033661   -3.366443    0.567896
  H     -1.485722   -2.968776    2.246253
  H     -2.502222   -4.059255    1.283897

 Total Charge           Charge          ....    0
 Multiplicity           Mult            ....    1
 Number of Electrons    NEL             ....  202
 Basis Dimension        Dim             ....  757

ORBITAL ENERGIES
----------------

  NO   OCC          E(Eh)            E(eV)
   0   2.0000     -94.144810     -2561.8105
   1   2.0000     -94.142162     -2561.7385
   2   2.0000     -94.086426     -2560.2218
   3   2.0000     -94.076693     -2559.9570
   4   2.0000     -82.122351     -2234.6628
   5   2.0000     -82.116504     -2234.5037
   6   2.0000     -21.714281      -590.8756
   7   2.0000     -21.713165      -590.8453
   8   2.0000     -21.712954      -590.8395
   9   2.0000     -21.705322      -590.6318
  10   2.0000     -12.122922      -329.8815
  11   2.0000     -12.120879      -329.8259
  12   2.0000     -12.119506      -329.7885
  13   2.0000     -12.118017      -329.7480
  14   2.0000     -12.112292      -329.5922
  15   2.0000     -12.057113      -328.0907
  16   2.0000     -12.052185      -327.9566
  17   2.0000     -12.051064      -327.9261
  18   2.0000     -12.045605      -327.7776
  19   2.0000      -9.656065      -262.7549
  20   2.0000      -9.653651      -262.6892
  21   2.0000      -9.599348      -261.2115
  22   2.0000      -9.589461      -260.9425
  23   2.0000      -8.235720      -224.1053
  24   2.0000      -8.229686      -223.9411
  25   2.0000      -7.633696      -207.7234
  26   2.0000      -7.632756      -207.6979
  27   2.0000      -7.631824      -207.6725
  28   2.0000      -7.631106      -207.6530
  29   2.0000      -7.629983      -207.6224
  30   2.0000      -7.628940      -207.5940
  31   2.0000      -7.576883      -206.1775
  32   2.0000      -7.575251      -206.1331
  33   2.0000      -7.575106      -206.1291
  34   2.0000      -7.567012      -205.9089
  35   2.0000      -7.565395      -205.8649
  36   2.0000      -7.565213      -205.8599
  37   2.0000      -6.399993      -174.1527
  38   2.0000      -6.399725      -174.1454
  39   2.0000      -6.399247      -174.1324
  40   2.0000      -6.394057      -173.9911
  41   2.0000      -6.393705      -173.9816
  42   2.0000      -6.393103      -173.9652
  43   2.0000      -1.724779       -46.9336
  44   2.0000      -1.720761       -46.8243
  45   2.0000      -1.700969       -46.2857
  46   2.0000      -1.695535       -46.1379
  47   2.0000      -1.330726       -36.2109
  48   2.0000      -1.316980       -35.8368
  49   2.0000      -1.305921       -35.5359
  50   2.0000      -1.294873       -35.2353
  51   2.0000      -1.291192       -35.1351
  52   2.0000      -1.252954       -34.0946
  53   2.0000      -1.228522       -33.4298
  54   2.0000      -1.207248       -32.8509
  55   2.0000      -1.172601       -31.9081
  56   2.0000      -1.164423       -31.6855
  57   2.0000      -1.155164       -31.4336
  58   2.0000      -1.149818       -31.2881
  59   2.0000      -1.119069       -30.4514
  60   2.0000      -1.084594       -29.5133
  61   2.0000      -1.075528       -29.2666
  62   2.0000      -1.059144       -28.8208
  63   2.0000      -1.049907       -28.5694
  64   2.0000      -0.995704       -27.0945
  65   2.0000      -0.991341       -26.9758
  66   2.0000      -0.988371       -26.8949
  67   2.0000      -0.985189       -26.8084
  68   2.0000      -0.980281       -26.6748
  69   2.0000      -0.970423       -26.4065
  70   2.0000      -0.963741       -26.2247
  71   2.0000      -0.958799       -26.0902
  72   2.0000      -0.920025       -25.0351
  73   2.0000      -0.892354       -24.2822
  74   2.0000      -0.882604       -24.0169
  75   2.0000      -0.879402       -23.9298
  76   2.0000      -0.877333       -23.8734
  77   2.0000      -0.873417       -23.7669
  78   2.0000      -0.866011       -23.5654
  79   2.0000      -0.853394       -23.2220
  80   2.0000      -0.846871       -23.0445
  81   2.0000      -0.843078       -22.9413
  82   2.0000      -0.839920       -22.8554
  83   2.0000      -0.832608       -22.6564
  84   2.0000      -0.832272       -22.6473
  85   2.0000      -0.826877       -22.5005
  86   2.0000      -0.825567       -22.4648
  87   2.0000      -0.825001       -22.4494
  88   2.0000      -0.820206       -22.3189
  89   2.0000      -0.794485       -21.6190
  90   2.0000      -0.792961       -21.5776
  91   2.0000      -0.791395       -21.5350
  92   2.0000      -0.787566       -21.4308
  93   2.0000      -0.775208       -21.0945
  94   2.0000      -0.751913       -20.4606
  95   2.0000      -0.689451       -18.7609
  96   2.0000      -0.675654       -18.3855
  97   2.0000      -0.649272       -17.6676
  98   2.0000      -0.643914       -17.5218
  99   2.0000      -0.640015       -17.4157
 100   2.0000      -0.631841       -17.1933
 101   0.0000      -0.317257        -8.6330
 102   0.0000      -0.312576        -8.5056
 103   0.0000      -0.270892        -7.3714
 104   0.0000      -0.242354        -6.5948
 105   0.0000      -0.233913        -6.3651

MULLIKEN ATOMIC CHARGES
-----------------------
   0 C :   -0.318301
   1 C :   -0.063243
   2 O :   -0.307191
   3 P :    0.607694
   4 S :   -0.406168
   5 O :   -0.281560
   6 C :   -0.030221
   7 C :   -0.324815
   8 S :   -0.145099
   9 C :   -0.196659
  10 S :   -0.101649
  11 P :    0.611677
  12 S :   -0.424887
  13 O :   -0.320415
  14 C :   -0.038585
  15 C :   -0.325550
  16 O :   -0.287319
  17 C :   -0.048587
  18 C :   -0.333252
  19 H :    0.116560
  20 H :    0.123533
  21 H :    0.115282
  22 H :    0.115666
  23 H :    0.128183
  24 H :    0.122986
  25 H :    0.100967
  26 H :    0.122686
  27 H :    0.108132
  28 H :    0.125967
  29 H :    0.176656
  30 H :    0.177096
  31 H :    0.118651
  32 H :    0.120821
  33 H :    0.115023
  34 H :    0.125584
  35 H :    0.116676
  36 H :    0.115997
  37 H :    0.125167
  38 H :    0.119966
  39 H :    0.116968
  40 H :    0.125564
Sum of atomic charges:    0.0000000

LOEWDIN ATOMIC CHARGES
----------------------
   0 C :   -0.304238
   1 C :   -0.318729
   2 O :    0.025610
   3 P :   -0.038948
   4 S :   -0.114460
   5 O :    0.040459
   6 C :   -0.319589
   7 C :   -0.306630
   8 S :    0.340125
   9 C :   -0.704271
  10 S :    0.365746
  11 P :   -0.037753
  12 S :   -0.123118
  13 O :    0.026585
  14 C :   -0.317944
  15 C :   -0.305621
  16 O :    0.025725
  17 C :   -0.311418
  18 C :   -0.304908
  19 H :    0.126724
  20 H :    0.123471
  21 H :    0.120853
  22 H :    0.118892
  23 H :    0.123584
  24 H :    0.126008
  25 H :    0.114781
  26 H :    0.123545
  27 H :    0.123272
  28 H :    0.121089
  29 H :    0.114252
  30 H :    0.115710
  31 H :    0.124614
  32 H :    0.121092
  33 H :    0.126141
  34 H :    0.123503
  35 H :    0.121144
  36 H :    0.122576
  37 H :    0.122116
  38 H :    0.121936
  39 H :    0.120671
  40 H :    0.127403

  Mayer bond orders larger than 0.100000
B(  0-C ,  1-C ) :   1.0070 B(  0-C , 19-H ) :   0.9687 B(  0-C , 20-H ) :   0.9753
B(  0-C , 21-H ) :   0.9752 B(  1-C ,  2-O ) :   0.8911 B(  1-C , 22-H ) :   0.9659
B(  1-C , 23-H ) :   0.9616 B(  2-O ,  3-P ) :   1.1580 B(  3-P ,  4-S ) :   1.8775
B(  3-P ,  5-O ) :   1.2413 B(  3-P ,  8-S ) :   1.0486 B(  5-O ,  6-C ) :   0.8586
B(  6-C ,  7-C ) :   0.9929 B(  6-C , 24-H ) :   0.9653 B(  6-C , 25-H ) :   0.9685
B(  7-C , 26-H ) :   0.9749 B(  7-C , 27-H ) :   0.9711 B(  7-C , 28-H ) :   0.9756
B(  8-S ,  9-C ) :   1.0137 B(  9-C , 10-S ) :   1.0212 B(  9-C , 29-H ) :   0.9323
B(  9-C , 30-H ) :   0.9305 B( 10-S , 11-P ) :   1.1054 B( 11-P , 12-S ) :   1.8017
B( 11-P , 13-O ) :   1.1811 B( 11-P , 16-O ) :   1.2132 B( 13-O , 14-C ) :   0.8637
B( 14-C , 15-C ) :   1.0116 B( 14-C , 31-H ) :   0.9661 B( 14-C , 32-H ) :   0.9593
B( 15-C , 33-H ) :   0.9702 B( 15-C , 34-H ) :   0.9719 B( 15-C , 35-H ) :   0.9744
B( 16-O , 17-C ) :   0.8993 B( 17-C , 18-C ) :   1.0092 B( 17-C , 36-H ) :   0.9680
B( 17-C , 37-H ) :   0.9590 B( 18-C , 38-H ) :   0.9760 B( 18-C , 39-H ) :   0.9747
B( 18-C , 40-H ) :   0.9673

FINAL SINGLE POINT ENERGY     -2932.536517757526

DIPOLE MOMENT
-------------

Method             : SCF
Type of density    : Electron Density
Multiplicity       :   1
Irrep              :   0
Energy             : -2932.5662565202260339 Eh
Relativity type    :
Basis              : AO
                                X                 Y                 Z
Electronic contribution:      3.966926856      19.437325332      -8.054916294
Nuclear contribution   :     -4.865207389     -20.882511365       8.382910419
                        -----------------------------------------
Total Dipole Moment    :     -0.898280533      -1.445186033       0.327994125
                        -----------------------------------------
Magnitude (a.u.)       :      1.732931254
Magnitude (Debye)      :      4.404761196

Rotational constants in cm-1:             0.012721             0.004285             0.003898
Rotational constants in MHz :           381.360221           128.473568           116.845819

                             ****ORCA TERMINATED NORMALLY****
TOTAL RUN TIME: 0 days 0 hours 13 minutes 55 seconds 308 msec
