                         Program Version 6.0.0  -   RELEASE  -
|  1> ! wb97x-v def2-tzvp def2/J RIJCOSX DEFGRID2 scfconv7 GCP(DFT/TZ) printgap
|  2> %output
|  3>     printlevel normal
|  4> end
|  5> %cpcm
|  6>     smd true
|  7>     smdsolvent "water"
|  8> end
|  9> * xyz 0 1
| 10> C 5.274691875416099 -2.466115028907241 -1.4770214522234155
| 11> C 4.41015076959871 -1.2382073260835105 -1.5896591117528627
| 12> O 3.5725888132692125 -1.1851262318977602 -0.3807893794258646
| 13> P 2.7039440377554755 0.1216427182252341 -0.023053982679439984
| 14> S 3.5902659154801997 1.851787357301175 -0.01563046636439655
| 15> O 2.1481599266384235 -0.24584696031528078 1.4305355932028778
| 16> C 1.4311988182623219 -1.5053634066621702 1.712265173194638
| 17> C 2.316647585705576 -2.423426328687882 2.5151209191365322
| 18> S 1.1226805773598147 -0.09135665807415577 -1.4334471673313283
| 19> C 0.29363294617294694 1.5340546728463662 -1.2585870865401585
| 20> S -0.6571307659258651 1.8079435915064794 0.28779113000735546
| 21> P -2.309170272379727 0.5192421916918867 -0.011536864418122017
| 22> S -2.932684128857548 0.3373236605480615 -1.8484984265104423
| 23> O -3.356721412596351 1.092449357159491 1.0667159679505183
| 24> C -4.194255072555337 2.2680453484581555 0.7762158932552073
| 25> C -5.639715312264744 1.8830623522434717 0.9561688442145229
| 26> O -1.8287109388700622 -0.8227093560831629 0.7255246818027424
| 27> C -2.700221828195116 -2.0126338808086275 0.7402210666156853
| 28> C -1.8713153253522485 -3.166008024902245 1.2419000157005784
| 29> H 5.896825370709476 -2.541982873262732 -2.373969445028697
| 30> H 5.93121535695302 -2.4035826384203594 -0.6046771552202951
| 31> H 4.664099670706402 -3.370387157777475 -1.4029815417323266
| 32> H 3.7498246709040575 -1.284564381870082 -2.461300243076259
| 33> H 5.007031283507657 -0.3220385692024719 -1.6342064538921928
| 34> H 0.545535135307826 -1.198630737426257 2.272404989442356
| 35> H 1.1127042120187298 -1.962050138192532 0.7709459679110374
| 36> H 2.635445991243677 -1.9441944810418246 3.4449163072249585
| 37> H 1.747706986669923 -3.323691005217283 2.7700356197020133
| 38> H 3.1996019002887004 -2.722612330752527 1.944042230953156
| 39> H -0.3785569581631285 1.6235031208373936 -2.1170098405524627
| 40> H 1.0424608561885136 2.33139400880823 -1.2945377594229925
| 41> H -3.8807736279509935 3.0386651170816954 1.4850570451149947
| 42> H -3.993805574531597 2.616045910229537 -0.2416477774697203
| 43> H -6.266193021719955 2.766767860440166 0.7993313522952982
| 44> H -5.932252403929563 1.1173088841407877 0.23210620066518647
| 45> H -5.821482832152231 1.5073314013089443 1.967068598492266
| 46> H -3.5480535327372538 -1.7976118972875939 1.39808582246668
| 47> H -3.063193369903617 -2.1880674160755444 -0.2772166744018805
| 48> H -1.0336606547135136 -3.366443169802649 0.5678955538037617
| 49> H -1.485721748721437 -2.968775844617135 2.246253194636996
| 50> H -2.502222208908702 -4.059255060312789 1.2838973391178659
| 51> *
| 52>
| 53>                          ****END OF INPUT****

CARTESIAN COORDINATES (ANGSTROEM)
---------------------------------
  C      5.274692   -2.466115   -1.477021
  C      4.410151   -1.238207   -1.589659
  O      3.572589   -1.185126   -0.380789
  P      2.703944    0.121643   -0.023054
  S      3.590266    1.851787   -0.015630
  O      2.148160   -0.245847    1.430536
  C      1.431199   -1.505363    1.712265
  C      2.316648   -2.423426    2.515121
  S      1.122681   -0.091357   -1.433447
  C      0.293633    1.534055   -1.258587
  S     -0.657131    1.807944    0.287791
  P     -2.309170    0.519242   -0.011537
  S     -2.932684    0.337324   -1.848498
  O     -3.356721    1.092449    1.066716
  C     -4.194255    2.268045    0.776216
  C     -5.639715    1.883062    0.956169
  O     -1.828711   -0.822709    0.725525
  C     -2.700222   -2.012634    0.740221
  C     -1.871315   -3.166008    1.241900
  H      5.896825   -2.541983   -2.373969
  H      5.931215   -2.403583   -0.604677
  H      4.664100   -3.370387   -1.402982
  H      3.749825   -1.284564   -2.461300
  H      5.007031   -0.322039   -1.634206
  H      0.545535   -1.198631    2.272405
  H      1.112704   -1.962050    0.770946
  H      2.635446   -1.944194    3.444916
  H      1.747707   -3.323691    2.770036
  H      3.199602   -2.722612    1.944042
  H     -0.378557    1.623503   -2.117010
  H      1.042461    2.331394   -1.294538
  H     -3.880774    3.038665    1.485057
  H     -3.993806    2.616046   -0.241648
  H     -6.266193    2.766768    0.799331
  H     -5.932252    1.117309    0.232106
  H     -5.821483    1.507331    1.967069
  H     -3.548054   -1.797612    1.398086
  H     -3.063193   -2.188067   -0.277217
  H     -1.033661   -3.366443    0.567896
  H     -1.485722   -2.968776    2.246253
  H     -2.502222   -4.059255    1.283897

 Total Charge           Charge          ....    0
 Multiplicity           Mult            ....    1
 Number of Electrons    NEL             ....  202
 Basis Dimension        Dim             ....  757

ORBITAL ENERGIES
----------------

  NO   OCC          E(Eh)            E(eV)
   0   2.0000     -94.149870     -2561.9482
   1   2.0000     -94.148659     -2561.9153
   2   2.0000     -94.092487     -2560.3867
   3   2.0000     -94.091645     -2560.3638
   4   2.0000     -82.126752     -2234.7825
   5   2.0000     -82.126489     -2234.7754
   6   2.0000     -21.715324      -590.9040
   7   2.0000     -21.713740      -590.8609
   8   2.0000     -21.713648      -590.8584
   9   2.0000     -21.712427      -590.8252
  10   2.0000     -12.124293      -329.9188
  11   2.0000     -12.107872      -329.4719
  12   2.0000     -12.106843      -329.4439
  13   2.0000     -12.106310      -329.4294
  14   2.0000     -12.106038      -329.4220
  15   2.0000     -12.035859      -327.5124
  16   2.0000     -12.035217      -327.4949
  17   2.0000     -12.034957      -327.4878
  18   2.0000     -12.034398      -327.4726
  19   2.0000      -9.661251      -262.8960
  20   2.0000      -9.660046      -262.8632
  21   2.0000      -9.605642      -261.3828
  22   2.0000      -9.604794      -261.3597
  23   2.0000      -8.239946      -224.2203
  24   2.0000      -8.239798      -224.2163
  25   2.0000      -7.638930      -207.8659
  26   2.0000      -7.638150      -207.8446
  27   2.0000      -7.637566      -207.8287
  28   2.0000      -7.637120      -207.8166
  29   2.0000      -7.636172      -207.7908
  30   2.0000      -7.635188      -207.7640
  31   2.0000      -7.583188      -206.3490
  32   2.0000      -7.582360      -206.3265
  33   2.0000      -7.581621      -206.3064
  34   2.0000      -7.581483      -206.3026
  35   2.0000      -7.580801      -206.2841
  36   2.0000      -7.580634      -206.2795
  37   2.0000      -6.404291      -174.2696
  38   2.0000      -6.404054      -174.2632
  39   2.0000      -6.403978      -174.2611
  40   2.0000      -6.403809      -174.2565
  41   2.0000      -6.403440      -174.2465
  42   2.0000      -6.403369      -174.2445
  43   2.0000      -1.725974       -46.9662
  44   2.0000      -1.724336       -46.9216
  45   2.0000      -1.701593       -46.3027
  46   2.0000      -1.700179       -46.2642
  47   2.0000      -1.332765       -36.2664
  48   2.0000      -1.312998       -35.7285
  49   2.0000      -1.301357       -35.4117
  50   2.0000      -1.284201       -34.9449
  51   2.0000      -1.281664       -34.8758
  52   2.0000      -1.253623       -34.1128
  53   2.0000      -1.231936       -33.5227
  54   2.0000      -1.214253       -33.0415
  55   2.0000      -1.167543       -31.7705
  56   2.0000      -1.164277       -31.6816
  57   2.0000      -1.146239       -31.1907
  58   2.0000      -1.143903       -31.1272
  59   2.0000      -1.119670       -30.4678
  60   2.0000      -1.079648       -29.3787
  61   2.0000      -1.072530       -29.1850
  62   2.0000      -1.054063       -28.6825
  63   2.0000      -1.051180       -28.6041
  64   2.0000      -0.992884       -27.0177
  65   2.0000      -0.992044       -26.9949
  66   2.0000      -0.991240       -26.9730
  67   2.0000      -0.983284       -26.7565
  68   2.0000      -0.974331       -26.5129
  69   2.0000      -0.970663       -26.4131
  70   2.0000      -0.962114       -26.1804
  71   2.0000      -0.958777       -26.0897
  72   2.0000      -0.922495       -25.1024
  73   2.0000      -0.891985       -24.2721
  74   2.0000      -0.875420       -23.8214
  75   2.0000      -0.869439       -23.6586
  76   2.0000      -0.866463       -23.5777
  77   2.0000      -0.865078       -23.5400
  78   2.0000      -0.862482       -23.4693
  79   2.0000      -0.842520       -22.9261
  80   2.0000      -0.838311       -22.8116
  81   2.0000      -0.836367       -22.7587
  82   2.0000      -0.833335       -22.6762
  83   2.0000      -0.829165       -22.5627
  84   2.0000      -0.827886       -22.5279
  85   2.0000      -0.811463       -22.0810
  86   2.0000      -0.811126       -22.0719
  87   2.0000      -0.810168       -22.0458
  88   2.0000      -0.809786       -22.0354
  89   2.0000      -0.786243       -21.3948
  90   2.0000      -0.778832       -21.1931
  91   2.0000      -0.778126       -21.1739
  92   2.0000      -0.775923       -21.1139
  93   2.0000      -0.775304       -21.0971
  94   2.0000      -0.758411       -20.6374
  95   2.0000      -0.695570       -18.9274
  96   2.0000      -0.682172       -18.5629
  97   2.0000      -0.656977       -17.8773
  98   2.0000      -0.655837       -17.8462
  99   2.0000      -0.650919       -17.7124
 100   2.0000      -0.648015       -17.6334
 101   0.0000      -0.323467        -8.8020
 102   0.0000      -0.318567        -8.6687
 103   0.0000      -0.274905        -7.4805
 104   0.0000      -0.246721        -6.7136
 105   0.0000      -0.237603        -6.4655

MULLIKEN ATOMIC CHARGES
-----------------------
   0 C :   -0.366301
   1 C :   -0.051827
   2 O :   -0.321886
   3 P :    0.622889
   4 S :   -0.460485
   5 O :   -0.330232
   6 C :   -0.026887
   7 C :   -0.379068
   8 S :   -0.148846
   9 C :   -0.199438
  10 S :   -0.129715
  11 P :    0.645733
  12 S :   -0.469355
  13 O :   -0.345831
  14 C :   -0.036926
  15 C :   -0.365189
  16 O :   -0.317690
  17 C :   -0.050766
  18 C :   -0.370964
  19 H :    0.139664
  20 H :    0.133542
  21 H :    0.134103
  22 H :    0.136647
  23 H :    0.131191
  24 H :    0.138243
  25 H :    0.129560
  26 H :    0.133272
  27 H :    0.140990
  28 H :    0.133844
  29 H :    0.199934
  30 H :    0.196627
  31 H :    0.143169
  32 H :    0.127726
  33 H :    0.138932
  34 H :    0.127848
  35 H :    0.133270
  36 H :    0.140289
  37 H :    0.128662
  38 H :    0.133433
  39 H :    0.134889
  40 H :    0.146949
Sum of atomic charges:    0.0000000

LOEWDIN ATOMIC CHARGES
----------------------
   0 C :   -0.305335
   1 C :   -0.313206
   2 O :    0.021274
   3 P :   -0.037166
   4 S :   -0.155181
   5 O :    0.018270
   6 C :   -0.315419
   7 C :   -0.307749
   8 S :    0.342839
   9 C :   -0.698609
  10 S :    0.351292
  11 P :   -0.031785
  12 S :   -0.149450
  13 O :    0.017375
  14 C :   -0.312775
  15 C :   -0.307920
  16 O :    0.013856
  17 C :   -0.306359
  18 C :   -0.304993
  19 H :    0.133809
  20 H :    0.124914
  21 H :    0.125007
  22 H :    0.125558
  23 H :    0.124756
  24 H :    0.130086
  25 H :    0.121660
  26 H :    0.125030
  27 H :    0.133428
  28 H :    0.121516
  29 H :    0.121231
  30 H :    0.121107
  31 H :    0.132387
  32 H :    0.123104
  33 H :    0.132983
  34 H :    0.122740
  35 H :    0.124737
  36 H :    0.129760
  37 H :    0.123282
  38 H :    0.124995
  39 H :    0.125232
  40 H :    0.133717

  Mayer bond orders larger than 0.100000
B(  0-C ,  1-C ) :   1.0145 B(  0-C , 19-H ) :   0.9641 B(  0-C , 20-H ) :   0.9723
B(  0-C , 21-H ) :   0.9719 B(  1-C ,  2-O ) :   0.8644 B(  1-C , 22-H ) :   0.9608
B(  1-C , 23-H ) :   0.9593 B(  2-O ,  3-P ) :   1.1780 B(  3-P ,  4-S ) :   1.8440
B(  3-P ,  5-O ) :   1.2391 B(  3-P ,  8-S ) :   1.0640 B(  5-O ,  6-C ) :   0.8177
B(  6-C ,  7-C ) :   0.9987 B(  6-C , 24-H ) :   0.9584 B(  6-C , 25-H ) :   0.9647
B(  7-C , 26-H ) :   0.9719 B(  7-C , 27-H ) :   0.9669 B(  7-C , 28-H ) :   0.9742
B(  8-S ,  9-C ) :   1.0018 B(  9-C , 10-S ) :   1.0071 B(  9-C , 29-H ) :   0.9281
B(  9-C , 30-H ) :   0.9274 B( 10-S , 11-P ) :   1.1022 B( 11-P , 12-S ) :   1.7689
B( 11-P , 13-O ) :   1.1913 B( 11-P , 16-O ) :   1.2242 B( 13-O , 14-C ) :   0.8361
B( 14-C , 15-C ) :   1.0134 B( 14-C , 31-H ) :   0.9608 B( 14-C , 32-H ) :   0.9587
B( 15-C , 33-H ) :   0.9665 B( 15-C , 34-H ) :   0.9699 B( 15-C , 35-H ) :   0.9714
B( 16-O , 17-C ) :   0.8705 B( 17-C , 18-C ) :   1.0126 B( 17-C , 36-H ) :   0.9643
B( 17-C , 37-H ) :   0.9598 B( 18-C , 38-H ) :   0.9718 B( 18-C , 39-H ) :   0.9714
B( 18-C , 40-H ) :   0.9623

FINAL SINGLE POINT ENERGY     -2932.550010828293

DIPOLE MOMENT
-------------

Method             : SCF
Type of density    : Electron Density
Multiplicity       :   1
Irrep              :   0
Energy             : -2932.5797495909932877 Eh
Relativity type    :
Basis              : AO
                                X                 Y                 Z
Electronic contribution:      3.627992942      18.968453084      -8.163923967
Nuclear contribution   :     -4.865207389     -20.882511365       8.382910419
                        -----------------------------------------
Total Dipole Moment    :     -1.237214446      -1.914058281       0.218986452
                        -----------------------------------------
Magnitude (a.u.)       :      2.289601222
Magnitude (Debye)      :      5.819703807

Rotational constants in cm-1:             0.012721             0.004285             0.003898
Rotational constants in MHz :           381.360221           128.473568           116.845819

                             ****ORCA TERMINATED NORMALLY****
TOTAL RUN TIME: 0 days 0 hours 14 minutes 52 seconds 777 msec
