                         Program Version 6.0.0  -   RELEASE  -
|  1> ! r2scan-3c def2/J RI DEFGRID2 scfconv6 printgap
|  2> %output
|  3>     printlevel normal
|  4> end
|  5> * xyz 0 1
|  6> C -2.4398519108 -0.0006406811 0.0062172673
|  7> C -0.9413619153 -0.0033466662 -0.0085109193
|  8> C -0.2291494274 -1.196057835 -0.0049209886
|  9> C 1.1549287519 -1.1949721893 0.0015130551
| 10> C 1.8490594538 0.002669356 0.0047084854
| 11> C 1.1497788731 1.1980480182 0.0015722872
| 12> C -0.23347246 1.1931763724 -0.0049569841
| 13> H -2.8331131764 -0.9425845893 -0.3670699458
| 14> H -2.7995715 0.1387753874 1.0255890863
| 15> H -2.829476395 0.8131314295 -0.6008041761
| 16> H -0.7638223243 -2.1352452957 -0.0087966655
| 17> H 1.6930591467 -2.1315941333 0.0025055349
| 18> H 2.9288745549 0.0049835652 0.0074507154
| 19> H 1.6844138898 2.1366706811 0.002146481
| 20> H -0.7735413751 2.1292521977 -0.0088547052
| 21> *
| 22>
| 23>                          ****END OF INPUT****

CARTESIAN COORDINATES (ANGSTROEM)
---------------------------------
  C     -2.439852   -0.000641    0.006217
  C     -0.941362   -0.003347   -0.008511
  C     -0.229149   -1.196058   -0.004921
  C      1.154929   -1.194972    0.001513
  C      1.849059    0.002669    0.004708
  C      1.149779    1.198048    0.001572
  C     -0.233472    1.193176   -0.004957
  H     -2.833113   -0.942585   -0.367070
  H     -2.799571    0.138775    1.025589
  H     -2.829476    0.813131   -0.600804
  H     -0.763822   -2.135245   -0.008797
  H      1.693059   -2.131594    0.002506
  H      2.928875    0.004984    0.007451
  H      1.684414    2.136671    0.002146
  H     -0.773541    2.129252   -0.008855

 Total Charge           Charge          ....    0
 Multiplicity           Mult            ....    1
 Number of Electrons    NEL             ....   50
 Basis Dimension        Dim             ....  173

ORBITAL ENERGIES
----------------

  NO   OCC          E(Eh)            E(eV)
   0   2.0000     -10.041498      -273.2430
   1   2.0000     -10.031923      -272.9825
   2   2.0000     -10.031746      -272.9777
   3   2.0000     -10.029519      -272.9171
   4   2.0000     -10.029040      -272.9040
   5   2.0000     -10.028998      -272.9029
   6   2.0000     -10.027110      -272.8515
   7   2.0000      -0.826213       -22.4824
   8   2.0000      -0.741106       -20.1665
   9   2.0000      -0.713090       -19.4042
  10   2.0000      -0.653390       -17.7797
  11   2.0000      -0.573413       -15.6034
  12   2.0000      -0.551775       -15.0146
  13   2.0000      -0.480472       -13.0743
  14   2.0000      -0.429555       -11.6888
  15   2.0000      -0.420895       -11.4531
  16   2.0000      -0.393388       -10.7046
  17   2.0000      -0.387319       -10.5395
  18   2.0000      -0.375773       -10.2253
  19   2.0000      -0.354552        -9.6478
  20   2.0000      -0.331404        -9.0180
  21   2.0000      -0.308447        -8.3933
  22   2.0000      -0.305553        -8.3145
  23   2.0000      -0.234591        -6.3836
  24   2.0000      -0.224243        -6.1020
  25   0.0000      -0.029791        -0.8107
  26   0.0000      -0.025626        -0.6973
  27   0.0000       0.080394         2.1876
  28   0.0000       0.112248         3.0544
  29   0.0000       0.117292         3.1917

MULLIKEN ATOMIC CHARGES
-----------------------
   0 C :   -0.517052
   1 C :    0.196886
   2 C :   -0.214081
   3 C :   -0.151256
   4 C :   -0.154760
   5 C :   -0.152000
   6 C :   -0.206011
   7 H :    0.150083
   8 H :    0.167902
   9 H :    0.151944
  10 H :    0.146039
  11 H :    0.145023
  12 H :    0.146112
  13 H :    0.145001
  14 H :    0.146170
Sum of atomic charges:   -0.0000000

LOEWDIN ATOMIC CHARGES
----------------------
   0 C :   -0.390422
   1 C :   -0.098673
   2 C :   -0.167733
   3 C :   -0.161733
   4 C :   -0.175766
   5 C :   -0.161464
   6 C :   -0.166121
   7 H :    0.159851
   8 H :    0.166233
   9 H :    0.161789
  10 H :    0.167327
  11 H :    0.166367
  12 H :    0.166171
  13 H :    0.166334
  14 H :    0.167840

  Mayer bond orders larger than 0.100000
B(  0-C ,  1-C ) :   0.7962 B(  0-C ,  7-H ) :   0.9928 B(  0-C ,  8-H ) :   0.9678
B(  0-C ,  9-H ) :   0.9874 B(  1-C ,  2-C ) :   1.4157 B(  1-C ,  6-C ) :   1.4025
B(  2-C ,  3-C ) :   1.4522 B(  2-C , 10-H ) :   0.9432 B(  3-C ,  4-C ) :   1.4338
B(  3-C , 11-H ) :   0.9480 B(  4-C ,  5-C ) :   1.4268 B(  4-C , 12-H ) :   0.9482
B(  5-C ,  6-C ) :   1.4559 B(  5-C , 13-H ) :   0.9487 B(  6-C , 14-H ) :   0.9467

Dispersion correction           -0.004441762
FINAL SINGLE POINT ENERGY      -271.480819107228

DIPOLE MOMENT
-------------

Method             : SCF
Type of density    : Electron Density
Multiplicity       :   1
Irrep              :   0
Energy             :  -271.4805269923811011 Eh
Relativity type    :
Basis              : AO
                                X                 Y                 Z
Electronic contribution:      3.297837617      -0.003544633      -0.030627158
Nuclear contribution   :     -3.464840574       0.012561431       0.048941058
                        -----------------------------------------
Total Dipole Moment    :     -0.167002957       0.009016798       0.018313901
                        -----------------------------------------
Magnitude (a.u.)       :      0.168245919
Magnitude (Debye)      :      0.427647140

Rotational constants in cm-1:             0.186965             0.085310             0.059223
Rotational constants in MHz :          5605.072248          2557.519521          1775.471510

                             ****ORCA TERMINATED NORMALLY****
TOTAL RUN TIME: 0 days 0 hours 0 minutes 32 seconds 397 msec
