                         Program Version 6.0.0  -   RELEASE  -
|  1> ! r2scan-3c def2/J RI DEFGRID2 scfconv6 printgap
|  2> %output
|  3>     printlevel normal
|  4> end
|  5> %cpcm
|  6>     smd true
|  7>     smdsolvent "water"
|  8> end
|  9> * xyz 0 1
| 10> C -2.4398519108 -0.0006406811 0.0062172673
| 11> C -0.9413619153 -0.0033466662 -0.0085109193
| 12> C -0.2291494274 -1.196057835 -0.0049209886
| 13> C 1.1549287519 -1.1949721893 0.0015130551
| 14> C 1.8490594538 0.002669356 0.0047084854
| 15> C 1.1497788731 1.1980480182 0.0015722872
| 16> C -0.23347246 1.1931763724 -0.0049569841
| 17> H -2.8331131764 -0.9425845893 -0.3670699458
| 18> H -2.7995715 0.1387753874 1.0255890863
| 19> H -2.829476395 0.8131314295 -0.6008041761
| 20> H -0.7638223243 -2.1352452957 -0.0087966655
| 21> H 1.6930591467 -2.1315941333 0.0025055349
| 22> H 2.9288745549 0.0049835652 0.0074507154
| 23> H 1.6844138898 2.1366706811 0.002146481
| 24> H -0.7735413751 2.1292521977 -0.0088547052
| 25> *
| 26>
| 27>                          ****END OF INPUT****

CARTESIAN COORDINATES (ANGSTROEM)
---------------------------------
  C     -2.439852   -0.000641    0.006217
  C     -0.941362   -0.003347   -0.008511
  C     -0.229149   -1.196058   -0.004921
  C      1.154929   -1.194972    0.001513
  C      1.849059    0.002669    0.004708
  C      1.149779    1.198048    0.001572
  C     -0.233472    1.193176   -0.004957
  H     -2.833113   -0.942585   -0.367070
  H     -2.799571    0.138775    1.025589
  H     -2.829476    0.813131   -0.600804
  H     -0.763822   -2.135245   -0.008797
  H      1.693059   -2.131594    0.002506
  H      2.928875    0.004984    0.007451
  H      1.684414    2.136671    0.002146
  H     -0.773541    2.129252   -0.008855

 Total Charge           Charge          ....    0
 Multiplicity           Mult            ....    1
 Number of Electrons    NEL             ....   50
 Basis Dimension        Dim             ....  173

ORBITAL ENERGIES
----------------

  NO   OCC          E(Eh)            E(eV)
   0   2.0000     -10.041791      -273.2510
   1   2.0000     -10.030759      -272.9508
   2   2.0000     -10.030612      -272.9468
   3   2.0000     -10.028091      -272.8782
   4   2.0000     -10.027632      -272.8657
   5   2.0000     -10.027620      -272.8654
   6   2.0000     -10.017781      -272.5977
   7   2.0000      -0.826950       -22.5024
   8   2.0000      -0.738692       -20.1008
   9   2.0000      -0.712783       -19.3958
  10   2.0000      -0.648759       -17.6536
  11   2.0000      -0.571334       -15.5468
  12   2.0000      -0.549221       -14.9451
  13   2.0000      -0.476985       -12.9794
  14   2.0000      -0.427058       -11.6208
  15   2.0000      -0.415863       -11.3162
  16   2.0000      -0.387670       -10.5490
  17   2.0000      -0.384028       -10.4499
  18   2.0000      -0.372005       -10.1228
  19   2.0000      -0.346253        -9.4220
  20   2.0000      -0.332986        -9.0610
  21   2.0000      -0.304702        -8.2914
  22   2.0000      -0.301554        -8.2057
  23   2.0000      -0.237900        -6.4736
  24   2.0000      -0.226281        -6.1574
  25   0.0000      -0.031850        -0.8667
  26   0.0000      -0.027384        -0.7452
  27   0.0000       0.089898         2.4463
  28   0.0000       0.117449         3.1960
  29   0.0000       0.120770         3.2863

MULLIKEN ATOMIC CHARGES
-----------------------
   0 C :   -0.535480
   1 C :    0.160376
   2 C :   -0.238228
   3 C :   -0.188772
   4 C :   -0.188673
   5 C :   -0.191767
   6 C :   -0.227601
   7 H :    0.168980
   8 H :    0.182995
   9 H :    0.169471
  10 H :    0.178387
  11 H :    0.177042
  12 H :    0.178251
  13 H :    0.177032
  14 H :    0.177985
Sum of atomic charges:   -0.0000000

LOEWDIN ATOMIC CHARGES
----------------------
   0 C :   -0.395119
   1 C :   -0.105819
   2 C :   -0.178159
   3 C :   -0.174287
   4 C :   -0.189805
   5 C :   -0.173947
   6 C :   -0.175762
   7 H :    0.165969
   8 H :    0.172367
   9 H :    0.167942
  10 H :    0.178402
  11 H :    0.176682
  12 H :    0.176067
  13 H :    0.176684
  14 H :    0.178785

  Mayer bond orders larger than 0.100000
B(  0-C ,  1-C ) :   0.8105 B(  0-C ,  7-H ) :   0.9867 B(  0-C ,  8-H ) :   0.9610
B(  0-C ,  9-H ) :   0.9804 B(  1-C ,  2-C ) :   1.3838 B(  1-C ,  6-C ) :   1.3703
B(  2-C ,  3-C ) :   1.4136 B(  2-C , 10-H ) :   0.9520 B(  3-C ,  4-C ) :   1.3923
B(  3-C , 11-H ) :   0.9572 B(  4-C ,  5-C ) :   1.3856 B(  4-C , 12-H ) :   0.9551
B(  5-C ,  6-C ) :   1.4186 B(  5-C , 13-H ) :   0.9580 B(  6-C , 14-H ) :   0.9545

Dispersion correction           -0.004441762
FINAL SINGLE POINT ENERGY      -271.482443561435

DIPOLE MOMENT
-------------

Method             : SCF
Type of density    : Electron Density
Multiplicity       :   1
Irrep              :   0
Energy             :  -271.4821514465882046 Eh
Relativity type    :
Basis              : AO
                                X                 Y                 Z
Electronic contribution:      3.211858063       0.000924657      -0.023555807
Nuclear contribution   :     -3.464840574       0.012561431       0.048941058
                        -----------------------------------------
Total Dipole Moment    :     -0.252982511       0.013486088       0.025385251
                        -----------------------------------------
Magnitude (a.u.)       :      0.254610362
Magnitude (Debye)      :      0.647168109

Rotational constants in cm-1:             0.186965             0.085310             0.059223
Rotational constants in MHz :          5605.072248          2557.519521          1775.471510

                             ****ORCA TERMINATED NORMALLY****
TOTAL RUN TIME: 0 days 0 hours 0 minutes 36 seconds 487 msec
