                         Program Version 6.0.0  -   RELEASE  -
|  1> ! r2scan-3c def2/J RI DEFGRID2 scfconv6 printgap
|  2> %output
|  3>     printlevel normal
|  4> end
|  5> * xyz 0 1
|  6> C 3.6390477233 1.555734147 -1.6945807001
|  7> C 2.2614923231 1.7356918984 -1.0936786533
|  8> O 1.639584818 0.4729054631 -0.7876814818
|  9> P 2.1919671844 -0.5120556438 0.3191521595
| 10> S 3.0369923022 0.3199770124 1.8834408594
| 11> O 3.1300420911 -1.4723959148 -0.5274340917
| 12> C 4.0921768041 -2.3486922979 0.08693627
| 13> C 3.4296757029 -3.4731795334 0.8563562297
| 14> S 0.450763635 -1.6524794089 0.6676334607
| 15> C -0.2325170759 -0.5871590728 1.9637125861
| 16> S -0.7342340612 1.0580101486 1.3734822486
| 17> P -2.0279446955 0.4952866038 -0.2195444212
| 18> S -1.3019865854 0.2226938189 -2.0238060142
| 19> O -3.1303891965 1.6390937421 -0.1571115225
| 20> C -3.0087550024 2.8898326946 -0.858886038
| 21> C -4.404900735 3.4142860835 -1.1306121784
| 22> O -2.763099573 -0.7290141849 0.4532690187
| 23> C -3.4153192144 -1.7467442203 -0.338052663
| 24> C -4.6648961874 -1.2123529369 -1.004056181
| 25> H 3.5866882787 0.8956919448 -2.5567133414
| 26> H 4.027410655 2.522388577 -1.999505577
| 27> H 4.31067861 1.1200873879 -0.9552963971
| 28> H 1.5676722691 2.1990216858 -1.7974938051
| 29> H 2.3089763822 2.3272799656 -0.1731921385
| 30> H 4.6775518989 -2.7239295078 -0.753474195
| 31> H 4.7279044144 -1.7523710155 0.7494258348
| 32> H 4.1878607422 -4.172073449 1.1947501091
| 33> H 2.9050181988 -3.0731276899 1.7231109253
| 34> H 2.7142019843 -3.9927797731 0.2237534063
| 35> H 0.5282897875 -0.4045322326 2.7238178227
| 36> H -1.0938901207 -1.1030283609 2.378780814
| 37> H -2.4402915025 3.5776017636 -0.226934607
| 38> H -2.4577936387 2.7167513072 -1.7902521297
| 39> H -4.3327004643 4.3800520303 -1.6198125291
| 40> H -4.9460350661 2.7263650919 -1.7741012125
| 41> H -4.946549005 3.5228820037 -0.1956124143
| 42> H -2.7036521723 -2.1162001303 -1.0832490799
| 43> H -3.6400093579 -2.5338914612 0.3825104541
| 44> H -5.3257737711 -0.7707117944 -0.2630914863
| 45> H -4.3933525631 -0.4507359149 -1.7340094365
| 46> H -5.1776805868 -2.0225549067 -1.5127360364
| 47> *
| 48>
| 49>                          ****END OF INPUT****

CARTESIAN COORDINATES (ANGSTROEM)
---------------------------------
  C      3.639048    1.555734   -1.694581
  C      2.261492    1.735692   -1.093679
  O      1.639585    0.472905   -0.787681
  P      2.191967   -0.512056    0.319152
  S      3.036992    0.319977    1.883441
  O      3.130042   -1.472396   -0.527434
  C      4.092177   -2.348692    0.086936
  C      3.429676   -3.473180    0.856356
  S      0.450764   -1.652479    0.667633
  C     -0.232517   -0.587159    1.963713
  S     -0.734234    1.058010    1.373482
  P     -2.027945    0.495287   -0.219544
  S     -1.301987    0.222694   -2.023806
  O     -3.130389    1.639094   -0.157112
  C     -3.008755    2.889833   -0.858886
  C     -4.404901    3.414286   -1.130612
  O     -2.763100   -0.729014    0.453269
  C     -3.415319   -1.746744   -0.338053
  C     -4.664896   -1.212353   -1.004056
  H      3.586688    0.895692   -2.556713
  H      4.027411    2.522389   -1.999506
  H      4.310679    1.120087   -0.955296
  H      1.567672    2.199022   -1.797494
  H      2.308976    2.327280   -0.173192
  H      4.677552   -2.723930   -0.753474
  H      4.727904   -1.752371    0.749426
  H      4.187861   -4.172073    1.194750
  H      2.905018   -3.073128    1.723111
  H      2.714202   -3.992780    0.223753
  H      0.528290   -0.404532    2.723818
  H     -1.093890   -1.103028    2.378781
  H     -2.440292    3.577602   -0.226935
  H     -2.457794    2.716751   -1.790252
  H     -4.332700    4.380052   -1.619813
  H     -4.946035    2.726365   -1.774101
  H     -4.946549    3.522882   -0.195612
  H     -2.703652   -2.116200   -1.083249
  H     -3.640009   -2.533891    0.382510
  H     -5.325774   -0.770712   -0.263091
  H     -4.393353   -0.450736   -1.734009
  H     -5.177681   -2.022555   -1.512736

 Total Charge           Charge          ....    0
 Multiplicity           Mult            ....    1
 Number of Electrons    NEL             ....  202
 Basis Dimension        Dim             ....  539

ORBITAL ENERGIES
----------------

  NO   OCC          E(Eh)            E(eV)
   0   2.0000     -88.572663     -2410.1847
   1   2.0000     -88.568510     -2410.0717
   2   2.0000     -88.518421     -2408.7087
   3   2.0000     -88.512624     -2408.5509
   4   2.0000     -76.910835     -2092.8502
   5   2.0000     -76.910208     -2092.8331
   6   2.0000     -18.994114      -516.8561
   7   2.0000     -18.991067      -516.7732
   8   2.0000     -18.987325      -516.6714
   9   2.0000     -18.979478      -516.4578
  10   2.0000     -10.105546      -274.9859
  11   2.0000     -10.099328      -274.8167
  12   2.0000     -10.097404      -274.7643
  13   2.0000     -10.096939      -274.7517
  14   2.0000     -10.088434      -274.5202
  15   2.0000     -10.031918      -272.9824
  16   2.0000     -10.028922      -272.9008
  17   2.0000     -10.027751      -272.8690
  18   2.0000     -10.022158      -272.7168
  19   2.0000      -7.867197      -214.0773
  20   2.0000      -7.862776      -213.9570
  21   2.0000      -7.813263      -212.6097
  22   2.0000      -7.807348      -212.4487
  23   2.0000      -6.589204      -179.3013
  24   2.0000      -6.588788      -179.2900
  25   2.0000      -5.814069      -158.2089
  26   2.0000      -5.811122      -158.1287
  27   2.0000      -5.809994      -158.0980
  28   2.0000      -5.806590      -158.0053
  29   2.0000      -5.804205      -157.9405
  30   2.0000      -5.799605      -157.8153
  31   2.0000      -5.760801      -156.7594
  32   2.0000      -5.755032      -156.6024
  33   2.0000      -5.753650      -156.5648
  34   2.0000      -5.753252      -156.5540
  35   2.0000      -5.747780      -156.4050
  36   2.0000      -5.747185      -156.3888
  37   2.0000      -4.734812      -128.8408
  38   2.0000      -4.734272      -128.8261
  39   2.0000      -4.734120      -128.8220
  40   2.0000      -4.733643      -128.8090
  41   2.0000      -4.732753      -128.7848
  42   2.0000      -4.732669      -128.7825
  43   2.0000      -1.049745       -28.5650
  44   2.0000      -1.045309       -28.4443
  45   2.0000      -1.011339       -27.5199
  46   2.0000      -1.005593       -27.3636
  47   2.0000      -0.798658       -21.7326
  48   2.0000      -0.757103       -20.6018
  49   2.0000      -0.745582       -20.2883
  50   2.0000      -0.732984       -19.9455
  51   2.0000      -0.727017       -19.7831
  52   2.0000      -0.705155       -19.1882
  53   2.0000      -0.682794       -18.5798
  54   2.0000      -0.666173       -18.1275
  55   2.0000      -0.630723       -17.1629
  56   2.0000      -0.624518       -16.9940
  57   2.0000      -0.601222       -16.3601
  58   2.0000      -0.599904       -16.3242
  59   2.0000      -0.590536       -16.0693
  60   2.0000      -0.526404       -14.3242
  61   2.0000      -0.513211       -13.9652
  62   2.0000      -0.498646       -13.5689
  63   2.0000      -0.487808       -13.2739
  64   2.0000      -0.473810       -12.8930
  65   2.0000      -0.459937       -12.5155
  66   2.0000      -0.454784       -12.3753
  67   2.0000      -0.452579       -12.3153
  68   2.0000      -0.441047       -12.0015
  69   2.0000      -0.428103       -11.6493
  70   2.0000      -0.424152       -11.5418
  71   2.0000      -0.415231       -11.2990
  72   2.0000      -0.405715       -11.0401
  73   2.0000      -0.399466       -10.8700
  74   2.0000      -0.395019       -10.7490
  75   2.0000      -0.388812       -10.5801
  76   2.0000      -0.384344       -10.4585
  77   2.0000      -0.372634       -10.1399
  78   2.0000      -0.370700       -10.0873
  79   2.0000      -0.363699        -9.8967
  80   2.0000      -0.361646        -9.8409
  81   2.0000      -0.358830        -9.7643
  82   2.0000      -0.356924        -9.7124
  83   2.0000      -0.351379        -9.5615
  84   2.0000      -0.343633        -9.3507
  85   2.0000      -0.331645        -9.0245
  86   2.0000      -0.320237        -8.7141
  87   2.0000      -0.311138        -8.4665
  88   2.0000      -0.307559        -8.3691
  89   2.0000      -0.301851        -8.2138
  90   2.0000      -0.293386        -7.9834
  91   2.0000      -0.288664        -7.8549
  92   2.0000      -0.282540        -7.6883
  93   2.0000      -0.276398        -7.5212
  94   2.0000      -0.272460        -7.4140
  95   2.0000      -0.245026        -6.6675
  96   2.0000      -0.227266        -6.1842
  97   2.0000      -0.220778        -6.0077
  98   2.0000      -0.216906        -5.9023
  99   2.0000      -0.206878        -5.6294
 100   2.0000      -0.201570        -5.4850
 101   0.0000      -0.047757        -1.2995
 102   0.0000      -0.021043        -0.5726
 103   0.0000      -0.014258        -0.3880
 104   0.0000       0.008145         0.2216
 105   0.0000       0.020575         0.5599

MULLIKEN ATOMIC CHARGES
-----------------------
   0 C :   -0.447171
   1 C :   -0.164953
   2 O :   -0.250049
   3 P :    0.713045
   4 S :   -0.493995
   5 O :   -0.304146
   6 C :   -0.150485
   7 C :   -0.454628
   8 S :   -0.131657
   9 C :   -0.203323
  10 S :   -0.160807
  11 P :    0.743778
  12 S :   -0.468013
  13 O :   -0.277762
  14 C :   -0.151824
  15 C :   -0.443358
  16 O :   -0.331944
  17 C :   -0.149149
  18 C :   -0.448779
  19 H :    0.159138
  20 H :    0.145262
  21 H :    0.165634
  22 H :    0.161880
  23 H :    0.170114
  24 H :    0.148924
  25 H :    0.172117
  26 H :    0.147609
  27 H :    0.176550
  28 H :    0.156437
  29 H :    0.207742
  30 H :    0.188227
  31 H :    0.145389
  32 H :    0.173448
  33 H :    0.145775
  34 H :    0.154714
  35 H :    0.154921
  36 H :    0.177721
  37 H :    0.147694
  38 H :    0.155901
  39 H :    0.172663
  40 H :    0.147355
Sum of atomic charges:   -0.0000000

LOEWDIN ATOMIC CHARGES
----------------------
   0 C :   -0.400377
   1 C :    0.018139
   2 O :   -0.680783
   3 P :    0.380741
   4 S :   -0.135991
   5 O :   -0.657332
   6 C :    0.019935
   7 C :   -0.407380
   8 S :    0.176309
   9 C :   -0.412134
  10 S :    0.165004
  11 P :    0.386876
  12 S :   -0.102539
  13 O :   -0.670336
  14 C :    0.018400
  15 C :   -0.386516
  16 O :   -0.678896
  17 C :    0.021200
  18 C :   -0.399973
  19 H :    0.161739
  20 H :    0.158449
  21 H :    0.163434
  22 H :    0.184615
  23 H :    0.179374
  24 H :    0.179711
  25 H :    0.179592
  26 H :    0.159121
  27 H :    0.165315
  28 H :    0.160485
  29 H :    0.191807
  30 H :    0.183699
  31 H :    0.169328
  32 H :    0.181197
  33 H :    0.159359
  34 H :    0.159671
  35 H :    0.160129
  36 H :    0.182597
  37 H :    0.178534
  38 H :    0.160843
  39 H :    0.166744
  40 H :    0.159909

  Mayer bond orders larger than 0.100000
B(  0-C ,  1-C ) :   0.9166 B(  0-C , 19-H ) :   0.9722 B(  0-C , 20-H ) :   0.9620
B(  0-C , 21-H ) :   0.9616 B(  1-C ,  2-O ) :   0.7901 B(  1-C , 22-H ) :   0.9598
B(  1-C , 23-H ) :   0.9676 B(  2-O ,  3-P ) :   1.1662 B(  3-P ,  4-S ) :   1.7319
B(  3-P ,  5-O ) :   1.0676 B(  3-P ,  8-S ) :   1.0781 B(  5-O ,  6-C ) :   0.8113
B(  6-C ,  7-C ) :   0.9225 B(  6-C , 24-H ) :   0.9581 B(  6-C , 25-H ) :   0.9674
B(  7-C , 26-H ) :   0.9587 B(  7-C , 27-H ) :   0.9630 B(  7-C , 28-H ) :   0.9687
B(  8-S ,  9-C ) :   0.9193 B(  9-C , 10-S ) :   0.9017 B(  9-C , 29-H ) :   0.9093
B(  9-C , 30-H ) :   0.9170 B( 10-S , 11-P ) :   1.0448 B( 11-P , 12-S ) :   1.7493
B( 11-P , 13-O ) :   1.0962 B( 11-P , 16-O ) :   1.1719 B( 13-O , 14-C ) :   0.7737
B( 14-C , 15-C ) :   0.9604 B( 14-C , 31-H ) :   0.9478 B( 14-C , 32-H ) :   0.9504
B( 15-C , 33-H ) :   0.9647 B( 15-C , 34-H ) :   0.9720 B( 15-C , 35-H ) :   0.9714
B( 16-O , 17-C ) :   0.7939 B( 17-C , 18-C ) :   0.9322 B( 17-C , 36-H ) :   0.9611
B( 17-C , 37-H ) :   0.9594 B( 18-C , 38-H ) :   0.9705 B( 18-C , 39-H ) :   0.9591
B( 18-C , 40-H ) :   0.9620

Dispersion correction           -0.021493620
FINAL SINGLE POINT ENERGY     -2932.457371986840

DIPOLE MOMENT
-------------

Method             : SCF
Type of density    : Electron Density
Multiplicity       :   1
Irrep              :   0
Energy             : -2932.4821795504685724 Eh
Relativity type    :
Basis              : AO
                                X                 Y                 Z
Electronic contribution:      5.195046690      -1.118889978       8.404995531
Nuclear contribution   :     -5.754949236       0.833418307      -8.658315792
                        -----------------------------------------
Total Dipole Moment    :     -0.559902546      -0.285471670      -0.253320261
                        -----------------------------------------
Magnitude (a.u.)       :      0.677610574
Magnitude (Debye)      :      1.722349203

Rotational constants in cm-1:             0.013227             0.004938             0.004447
Rotational constants in MHz :           396.529522           148.030234           133.329261

                             ****ORCA TERMINATED NORMALLY****
TOTAL RUN TIME: 0 days 0 hours 1 minutes 17 seconds 582 msec
