                         Program Version 6.0.0  -   RELEASE  -
|  1> ! r2scan-3c def2/J RI DEFGRID2 scfconv6 printgap
|  2> %output
|  3>     printlevel normal
|  4> end
|  5> %cpcm
|  6>     smd true
|  7>     smdsolvent "water"
|  8> end
|  9> * xyz 0 1
| 10> C 3.6390477233 1.555734147 -1.6945807001
| 11> C 2.2614923231 1.7356918984 -1.0936786533
| 12> O 1.639584818 0.4729054631 -0.7876814818
| 13> P 2.1919671844 -0.5120556438 0.3191521595
| 14> S 3.0369923022 0.3199770124 1.8834408594
| 15> O 3.1300420911 -1.4723959148 -0.5274340917
| 16> C 4.0921768041 -2.3486922979 0.08693627
| 17> C 3.4296757029 -3.4731795334 0.8563562297
| 18> S 0.450763635 -1.6524794089 0.6676334607
| 19> C -0.2325170759 -0.5871590728 1.9637125861
| 20> S -0.7342340612 1.0580101486 1.3734822486
| 21> P -2.0279446955 0.4952866038 -0.2195444212
| 22> S -1.3019865854 0.2226938189 -2.0238060142
| 23> O -3.1303891965 1.6390937421 -0.1571115225
| 24> C -3.0087550024 2.8898326946 -0.858886038
| 25> C -4.404900735 3.4142860835 -1.1306121784
| 26> O -2.763099573 -0.7290141849 0.4532690187
| 27> C -3.4153192144 -1.7467442203 -0.338052663
| 28> C -4.6648961874 -1.2123529369 -1.004056181
| 29> H 3.5866882787 0.8956919448 -2.5567133414
| 30> H 4.027410655 2.522388577 -1.999505577
| 31> H 4.31067861 1.1200873879 -0.9552963971
| 32> H 1.5676722691 2.1990216858 -1.7974938051
| 33> H 2.3089763822 2.3272799656 -0.1731921385
| 34> H 4.6775518989 -2.7239295078 -0.753474195
| 35> H 4.7279044144 -1.7523710155 0.7494258348
| 36> H 4.1878607422 -4.172073449 1.1947501091
| 37> H 2.9050181988 -3.0731276899 1.7231109253
| 38> H 2.7142019843 -3.9927797731 0.2237534063
| 39> H 0.5282897875 -0.4045322326 2.7238178227
| 40> H -1.0938901207 -1.1030283609 2.378780814
| 41> H -2.4402915025 3.5776017636 -0.226934607
| 42> H -2.4577936387 2.7167513072 -1.7902521297
| 43> H -4.3327004643 4.3800520303 -1.6198125291
| 44> H -4.9460350661 2.7263650919 -1.7741012125
| 45> H -4.946549005 3.5228820037 -0.1956124143
| 46> H -2.7036521723 -2.1162001303 -1.0832490799
| 47> H -3.6400093579 -2.5338914612 0.3825104541
| 48> H -5.3257737711 -0.7707117944 -0.2630914863
| 49> H -4.3933525631 -0.4507359149 -1.7340094365
| 50> H -5.1776805868 -2.0225549067 -1.5127360364
| 51> *
| 52>
| 53>                          ****END OF INPUT****

CARTESIAN COORDINATES (ANGSTROEM)
---------------------------------
  C      3.639048    1.555734   -1.694581
  C      2.261492    1.735692   -1.093679
  O      1.639585    0.472905   -0.787681
  P      2.191967   -0.512056    0.319152
  S      3.036992    0.319977    1.883441
  O      3.130042   -1.472396   -0.527434
  C      4.092177   -2.348692    0.086936
  C      3.429676   -3.473180    0.856356
  S      0.450764   -1.652479    0.667633
  C     -0.232517   -0.587159    1.963713
  S     -0.734234    1.058010    1.373482
  P     -2.027945    0.495287   -0.219544
  S     -1.301987    0.222694   -2.023806
  O     -3.130389    1.639094   -0.157112
  C     -3.008755    2.889833   -0.858886
  C     -4.404901    3.414286   -1.130612
  O     -2.763100   -0.729014    0.453269
  C     -3.415319   -1.746744   -0.338053
  C     -4.664896   -1.212353   -1.004056
  H      3.586688    0.895692   -2.556713
  H      4.027411    2.522389   -1.999506
  H      4.310679    1.120087   -0.955296
  H      1.567672    2.199022   -1.797494
  H      2.308976    2.327280   -0.173192
  H      4.677552   -2.723930   -0.753474
  H      4.727904   -1.752371    0.749426
  H      4.187861   -4.172073    1.194750
  H      2.905018   -3.073128    1.723111
  H      2.714202   -3.992780    0.223753
  H      0.528290   -0.404532    2.723818
  H     -1.093890   -1.103028    2.378781
  H     -2.440292    3.577602   -0.226935
  H     -2.457794    2.716751   -1.790252
  H     -4.332700    4.380052   -1.619813
  H     -4.946035    2.726365   -1.774101
  H     -4.946549    3.522882   -0.195612
  H     -2.703652   -2.116200   -1.083249
  H     -3.640009   -2.533891    0.382510
  H     -5.325774   -0.770712   -0.263091
  H     -4.393353   -0.450736   -1.734009
  H     -5.177681   -2.022555   -1.512736

 Total Charge           Charge          ....    0
 Multiplicity           Mult            ....    1
 Number of Electrons    NEL             ....  202
 Basis Dimension        Dim             ....  539

ORBITAL ENERGIES
----------------

  NO   OCC          E(Eh)            E(eV)
   0   2.0000     -88.577388     -2410.3133
   1   2.0000     -88.574182     -2410.2260
   2   2.0000     -88.526924     -2408.9401
   3   2.0000     -88.520968     -2408.7780
   4   2.0000     -76.916952     -2093.0167
   5   2.0000     -76.916918     -2093.0157
   6   2.0000     -18.996237      -516.9139
   7   2.0000     -18.995560      -516.8955
   8   2.0000     -18.991319      -516.7801
   9   2.0000     -18.986316      -516.6439
  10   2.0000     -10.104747      -274.9641
  11   2.0000     -10.090130      -274.5664
  12   2.0000     -10.089692      -274.5545
  13   2.0000     -10.088553      -274.5235
  14   2.0000     -10.087105      -274.4841
  15   2.0000     -10.018877      -272.6275
  16   2.0000     -10.018582      -272.6195
  17   2.0000     -10.018561      -272.6189
  18   2.0000     -10.017823      -272.5988
  19   2.0000      -7.871889      -214.2050
  20   2.0000      -7.868494      -214.1126
  21   2.0000      -7.822031      -212.8483
  22   2.0000      -7.815996      -212.6841
  23   2.0000      -6.595590      -179.4751
  24   2.0000      -6.595356      -179.4688
  25   2.0000      -5.818753      -158.3363
  26   2.0000      -5.815809      -158.2562
  27   2.0000      -5.815649      -158.2519
  28   2.0000      -5.812252      -158.1594
  29   2.0000      -5.808927      -158.0689
  30   2.0000      -5.805447      -157.9742
  31   2.0000      -5.769521      -156.9966
  32   2.0000      -5.763626      -156.8362
  33   2.0000      -5.762385      -156.8025
  34   2.0000      -5.762055      -156.7935
  35   2.0000      -5.756393      -156.6394
  36   2.0000      -5.755867      -156.6251
  37   2.0000      -4.740904      -129.0066
  38   2.0000      -4.740900      -129.0065
  39   2.0000      -4.740453      -128.9943
  40   2.0000      -4.740417      -128.9933
  41   2.0000      -4.739580      -128.9705
  42   2.0000      -4.738929      -128.9528
  43   2.0000      -1.052396       -28.6372
  44   2.0000      -1.050544       -28.5868
  45   2.0000      -1.013488       -27.5784
  46   2.0000      -1.010762       -27.5042
  47   2.0000      -0.801340       -21.8056
  48   2.0000      -0.754874       -20.5412
  49   2.0000      -0.741995       -20.1907
  50   2.0000      -0.724298       -19.7091
  51   2.0000      -0.722647       -19.6642
  52   2.0000      -0.706348       -19.2207
  53   2.0000      -0.687063       -18.6959
  54   2.0000      -0.673230       -18.3195
  55   2.0000      -0.631208       -17.1760
  56   2.0000      -0.621537       -16.9129
  57   2.0000      -0.598579       -16.2882
  58   2.0000      -0.592236       -16.1156
  59   2.0000      -0.590829       -16.0773
  60   2.0000      -0.524033       -14.2596
  61   2.0000      -0.512389       -13.9428
  62   2.0000      -0.496073       -13.4988
  63   2.0000      -0.488005       -13.2793
  64   2.0000      -0.473761       -12.8917
  65   2.0000      -0.458357       -12.4725
  66   2.0000      -0.453391       -12.3374
  67   2.0000      -0.446811       -12.1584
  68   2.0000      -0.439256       -11.9528
  69   2.0000      -0.428543       -11.6612
  70   2.0000      -0.422538       -11.4978
  71   2.0000      -0.410476       -11.1696
  72   2.0000      -0.406031       -11.0487
  73   2.0000      -0.401765       -10.9326
  74   2.0000      -0.393762       -10.7148
  75   2.0000      -0.385382       -10.4868
  76   2.0000      -0.383224       -10.4280
  77   2.0000      -0.368119       -10.0170
  78   2.0000      -0.363763        -9.8985
  79   2.0000      -0.361946        -9.8491
  80   2.0000      -0.353381        -9.6160
  81   2.0000      -0.352778        -9.5996
  82   2.0000      -0.349870        -9.5204
  83   2.0000      -0.346930        -9.4404
  84   2.0000      -0.341863        -9.3026
  85   2.0000      -0.328672        -8.9436
  86   2.0000      -0.319069        -8.6823
  87   2.0000      -0.309258        -8.4153
  88   2.0000      -0.304389        -8.2828
  89   2.0000      -0.300633        -8.1806
  90   2.0000      -0.296714        -8.0740
  91   2.0000      -0.287642        -7.8271
  92   2.0000      -0.285606        -7.7717
  93   2.0000      -0.278880        -7.5887
  94   2.0000      -0.274273        -7.4634
  95   2.0000      -0.250832        -6.8255
  96   2.0000      -0.234199        -6.3729
  97   2.0000      -0.229606        -6.2479
  98   2.0000      -0.226430        -6.1615
  99   2.0000      -0.214283        -5.8309
 100   2.0000      -0.210611        -5.7310
 101   0.0000      -0.053094        -1.4448
 102   0.0000      -0.027570        -0.7502
 103   0.0000      -0.019207        -0.5227
 104   0.0000       0.003012         0.0820
 105   0.0000       0.016538         0.4500

MULLIKEN ATOMIC CHARGES
-----------------------
   0 C :   -0.483540
   1 C :   -0.165368
   2 O :   -0.274068
   3 P :    0.740408
   4 S :   -0.540577
   5 O :   -0.329994
   6 C :   -0.151940
   7 C :   -0.488276
   8 S :   -0.136990
   9 C :   -0.210280
  10 S :   -0.185877
  11 P :    0.777537
  12 S :   -0.521307
  13 O :   -0.307684
  14 C :   -0.145157
  15 C :   -0.483175
  16 O :   -0.351656
  17 C :   -0.140944
  18 C :   -0.489195
  19 H :    0.169467
  20 H :    0.171330
  21 H :    0.168438
  22 H :    0.177862
  23 H :    0.175410
  24 H :    0.175549
  25 H :    0.178313
  26 H :    0.172831
  27 H :    0.172852
  28 H :    0.169406
  29 H :    0.223779
  30 H :    0.223605
  31 H :    0.169546
  32 H :    0.172434
  33 H :    0.168824
  34 H :    0.165787
  35 H :    0.165429
  36 H :    0.177556
  37 H :    0.177301
  38 H :    0.169690
  39 H :    0.169718
  40 H :    0.172958
Sum of atomic charges:   -0.0000000

LOEWDIN ATOMIC CHARGES
----------------------
   0 C :   -0.403411
   1 C :    0.020312
   2 O :   -0.696780
   3 P :    0.384038
   4 S :   -0.163980
   5 O :   -0.671650
   6 C :    0.025482
   7 C :   -0.409919
   8 S :    0.175186
   9 C :   -0.403386
  10 S :    0.152527
  11 P :    0.391609
  12 S :   -0.136276
  13 O :   -0.685273
  14 C :    0.023585
  15 C :   -0.390730
  16 O :   -0.685817
  17 C :    0.027104
  18 C :   -0.403469
  19 H :    0.163954
  20 H :    0.168063
  21 H :    0.162535
  22 H :    0.190491
  23 H :    0.181125
  24 H :    0.190932
  25 H :    0.181727
  26 H :    0.168453
  27 H :    0.161643
  28 H :    0.163701
  29 H :    0.197323
  30 H :    0.196672
  31 H :    0.179015
  32 H :    0.181765
  33 H :    0.168335
  34 H :    0.162031
  35 H :    0.162853
  36 H :    0.182737
  37 H :    0.190853
  38 H :    0.164230
  39 H :    0.163060
  40 H :    0.169350

  Mayer bond orders larger than 0.100000
B(  0-C ,  1-C ) :   0.9082 B(  0-C , 19-H ) :   0.9709 B(  0-C , 20-H ) :   0.9560
B(  0-C , 21-H ) :   0.9602 B(  1-C ,  2-O ) :   0.7813 B(  1-C , 22-H ) :   0.9532
B(  1-C , 23-H ) :   0.9624 B(  2-O ,  3-P ) :   1.1708 B(  3-P ,  4-S ) :   1.6898
B(  3-P ,  5-O ) :   1.0741 B(  3-P ,  8-S ) :   1.0952 B(  5-O ,  6-C ) :   0.7991
B(  6-C ,  7-C ) :   0.9100 B(  6-C , 24-H ) :   0.9485 B(  6-C , 25-H ) :   0.9654
B(  7-C , 26-H ) :   0.9534 B(  7-C , 27-H ) :   0.9635 B(  7-C , 28-H ) :   0.9658
B(  8-S ,  9-C ) :   0.9174 B(  9-C , 10-S ) :   0.8888 B(  9-C , 29-H ) :   0.9055
B(  9-C , 30-H ) :   0.9070 B( 10-S , 11-P ) :   1.0605 B( 11-P , 12-S ) :   1.7032
B( 11-P , 13-O ) :   1.1031 B( 11-P , 16-O ) :   1.1829 B( 13-O , 14-C ) :   0.7672
B( 14-C , 15-C ) :   0.9529 B( 14-C , 31-H ) :   0.9393 B( 14-C , 32-H ) :   0.9485
B( 15-C , 33-H ) :   0.9589 B( 15-C , 34-H ) :   0.9690 B( 15-C , 35-H ) :   0.9687
B( 16-O , 17-C ) :   0.7821 B( 17-C , 18-C ) :   0.9189 B( 17-C , 36-H ) :   0.9584
B( 17-C , 37-H ) :   0.9496 B( 18-C , 38-H ) :   0.9695 B( 18-C , 39-H ) :   0.9594
B( 18-C , 40-H ) :   0.9562

Dispersion correction           -0.021493620
FINAL SINGLE POINT ENERGY     -2932.465699778243

DIPOLE MOMENT
-------------

Method             : SCF
Type of density    : Electron Density
Multiplicity       :   1
Irrep              :   0
Energy             : -2932.4905073418713073 Eh
Relativity type    :
Basis              : AO
                                X                 Y                 Z
Electronic contribution:      5.076209619      -1.274596251       8.486899351
Nuclear contribution   :     -5.754949236       0.833418307      -8.658315792
                        -----------------------------------------
Total Dipole Moment    :     -0.678739617      -0.441177943      -0.171416440
                        -----------------------------------------
Magnitude (a.u.)       :      0.827471475
Magnitude (Debye)      :      2.103265340

Rotational constants in cm-1:             0.013227             0.004938             0.004447
Rotational constants in MHz :           396.529522           148.030234           133.329261

                             ****ORCA TERMINATED NORMALLY****
TOTAL RUN TIME: 0 days 0 hours 1 minutes 39 seconds 86 msec
