                         Program Version 6.0.0  -   RELEASE  -
|  1> ! pbe def2-sv(p) def2/J RI DEFGRID1 loosescf d4 GCP(DFT/SV(P)) printgap
|  2> %output
|  3>     printlevel normal
|  4> end
|  5> * xyz 0 1
|  6> C 1.8992247142 2.7439365815 0.1834052542
|  7> C 2.8649327637 2.0821717606 1.1445509782
|  8> O 3.1787168127 0.7361055885 0.7475107353
|  9> P 2.0878662562 -0.4182880383 0.7272943528
| 10> S 0.8243152357 -0.4026043514 2.232346632
| 11> O 2.9680367366 -1.7339538316 0.620775956
| 12> C 3.4582352525 -2.4331778711 1.7829321305
| 13> C 4.5160181907 -1.6371611538 2.5178702945
| 14> S 1.3462906775 -0.3966600801 -1.2421385678
| 15> C 0.1107191763 -1.721607214 -1.0209054019
| 16> S -1.4171496621 -1.4364360544 -1.955194094
| 17> P -2.3169962182 0.0899648496 -0.8019928948
| 18> S -4.1556660355 0.5604410565 -1.279359186
| 19> O -1.300415719 1.3224577469 -0.7948795545
| 20> C -1.397067155 2.3685769926 -1.7768438907
| 21> C -0.9655415402 1.8963180096 -3.1505749382
| 22> O -2.0974143247 -0.5307816876 0.6400642633
| 23> C -2.9029735916 -0.133969401 1.7682802484
| 24> C -2.6160505098 1.2890519554 2.1953897183
| 25> H 0.9378293606 2.2315946125 0.21921867
| 26> H 1.7590666349 3.7816956687 0.4693774504
| 27> H 2.2851311452 2.6949421988 -0.83201604
| 28> H 2.443876323 2.056155264 2.155061397
| 29> H 3.8329525463 2.584800411 1.1578567674
| 30> H 2.6102294529 -2.6483281064 2.4415664446
| 31> H 3.859273438 -3.363046778 1.3777582152
| 32> H 4.0722485523 -0.7434922217 2.9545314173
| 33> H 4.9370505572 -2.2455404297 3.3122693885
| 34> H 5.3045584151 -1.3388472554 1.8321255068
| 35> H -0.1280759794 -1.8052439328 0.0394992054
| 36> H 0.5163692394 -2.6501106284 -1.4147744641
| 37> H -2.4332815602 2.7218991505 -1.8005005335
| 38> H -0.7437264391 3.1549929643 -1.3970881391
| 39> H 0.0294306799 1.4592150078 -3.1061143903
| 40> H -1.6627471404 1.144639846 -3.5203392936
| 41> H -0.9613097312 2.7389885254 -3.8341492015
| 42> H -3.9564049699 -0.2551033984 1.4969361231
| 43> H -2.6288992941 -0.8484217655 2.5459925131
| 44> H -3.1845899035 1.5154859607 3.0916582885
| 45> H -1.5550147338 1.4052820055 2.4029044499
| 46> H -2.90602203 1.9794129796 1.4046049723
| 47> *
| 48>
| 49>                          ****END OF INPUT****

CARTESIAN COORDINATES (ANGSTROEM)
---------------------------------
  C      1.899225    2.743937    0.183405
  C      2.864933    2.082172    1.144551
  O      3.178717    0.736106    0.747511
  P      2.087866   -0.418288    0.727294
  S      0.824315   -0.402604    2.232347
  O      2.968037   -1.733954    0.620776
  C      3.458235   -2.433178    1.782932
  C      4.516018   -1.637161    2.517870
  S      1.346291   -0.396660   -1.242139
  C      0.110719   -1.721607   -1.020905
  S     -1.417150   -1.436436   -1.955194
  P     -2.316996    0.089965   -0.801993
  S     -4.155666    0.560441   -1.279359
  O     -1.300416    1.322458   -0.794880
  C     -1.397067    2.368577   -1.776844
  C     -0.965542    1.896318   -3.150575
  O     -2.097414   -0.530782    0.640064
  C     -2.902974   -0.133969    1.768280
  C     -2.616051    1.289052    2.195390
  H      0.937829    2.231595    0.219219
  H      1.759067    3.781696    0.469377
  H      2.285131    2.694942   -0.832016
  H      2.443876    2.056155    2.155061
  H      3.832953    2.584800    1.157857
  H      2.610229   -2.648328    2.441566
  H      3.859273   -3.363047    1.377758
  H      4.072249   -0.743492    2.954531
  H      4.937051   -2.245540    3.312269
  H      5.304558   -1.338847    1.832126
  H     -0.128076   -1.805244    0.039499
  H      0.516369   -2.650111   -1.414774
  H     -2.433282    2.721899   -1.800501
  H     -0.743726    3.154993   -1.397088
  H      0.029431    1.459215   -3.106114
  H     -1.662747    1.144640   -3.520339
  H     -0.961310    2.738989   -3.834149
  H     -3.956405   -0.255103    1.496936
  H     -2.628899   -0.848422    2.545993
  H     -3.184590    1.515486    3.091658
  H     -1.555015    1.405282    2.402904
  H     -2.906022    1.979413    1.404605

 Total Charge           Charge          ....    0
 Multiplicity           Mult            ....    1
 Number of Electrons    NEL             ....  202
 Basis Dimension        Dim             ....  334

ORBITAL ENERGIES
----------------

  NO   OCC          E(Eh)            E(eV)
   0   2.0000     -88.044199     -2395.8045
   1   2.0000     -88.043819     -2395.7941
   2   2.0000     -87.994233     -2394.4448
   3   2.0000     -87.986904     -2394.2454
   4   2.0000     -76.431379     -2079.8035
   5   2.0000     -76.424187     -2079.6078
   6   2.0000     -18.800980      -511.6007
   7   2.0000     -18.793993      -511.4105
   8   2.0000     -18.788971      -511.2739
   9   2.0000     -18.787024      -511.2209
  10   2.0000      -9.959100      -271.0009
  11   2.0000      -9.957694      -270.9626
  12   2.0000      -9.954710      -270.8814
  13   2.0000      -9.948549      -270.7138
  14   2.0000      -9.946049      -270.6457
  15   2.0000      -9.889509      -269.1072
  16   2.0000      -9.887795      -269.0606
  17   2.0000      -9.879929      -268.8465
  18   2.0000      -9.875323      -268.7212
  19   2.0000      -7.689529      -209.2427
  20   2.0000      -7.689092      -209.2308
  21   2.0000      -7.638964      -207.8668
  22   2.0000      -7.632052      -207.6787
  23   2.0000      -6.428981      -174.9415
  24   2.0000      -6.422050      -174.7529
  25   2.0000      -5.717845      -155.5905
  26   2.0000      -5.717093      -155.5700
  27   2.0000      -5.713822      -155.4810
  28   2.0000      -5.713777      -155.4798
  29   2.0000      -5.706299      -155.2763
  30   2.0000      -5.705649      -155.2586
  31   2.0000      -5.667638      -154.2243
  32   2.0000      -5.660979      -154.0431
  33   2.0000      -5.659699      -154.0082
  34   2.0000      -5.659258      -153.9962
  35   2.0000      -5.652773      -153.8198
  36   2.0000      -5.652117      -153.8019
  37   2.0000      -4.651557      -126.5753
  38   2.0000      -4.650671      -126.5512
  39   2.0000      -4.649507      -126.5195
  40   2.0000      -4.644362      -126.3795
  41   2.0000      -4.643976      -126.3690
  42   2.0000      -4.642579      -126.3310
  43   2.0000      -0.992265       -27.0009
  44   2.0000      -0.982768       -26.7425
  45   2.0000      -0.952003       -25.9053
  46   2.0000      -0.942501       -25.6467
  47   2.0000      -0.763884       -20.7863
  48   2.0000      -0.724238       -19.7075
  49   2.0000      -0.706829       -19.2338
  50   2.0000      -0.692456       -18.8427
  51   2.0000      -0.682750       -18.5786
  52   2.0000      -0.675012       -18.3680
  53   2.0000      -0.656342       -17.8600
  54   2.0000      -0.640819       -17.4376
  55   2.0000      -0.605505       -16.4766
  56   2.0000      -0.594493       -16.1770
  57   2.0000      -0.578227       -15.7344
  58   2.0000      -0.567245       -15.4355
  59   2.0000      -0.560879       -15.2623
  60   2.0000      -0.498625       -13.5683
  61   2.0000      -0.489303       -13.3146
  62   2.0000      -0.478487       -13.0203
  63   2.0000      -0.469075       -12.7642
  64   2.0000      -0.456410       -12.4196
  65   2.0000      -0.449810       -12.2400
  66   2.0000      -0.445017       -12.1095
  67   2.0000      -0.437606       -11.9079
  68   2.0000      -0.427378       -11.6295
  69   2.0000      -0.418797       -11.3961
  70   2.0000      -0.409069       -11.1313
  71   2.0000      -0.399035       -10.8583
  72   2.0000      -0.396839       -10.7985
  73   2.0000      -0.390221       -10.6185
  74   2.0000      -0.387779       -10.5520
  75   2.0000      -0.383101       -10.4247
  76   2.0000      -0.365747        -9.9525
  77   2.0000      -0.359675        -9.7872
  78   2.0000      -0.353654        -9.6234
  79   2.0000      -0.350020        -9.5245
  80   2.0000      -0.348570        -9.4851
  81   2.0000      -0.343756        -9.3541
  82   2.0000      -0.341858        -9.3024
  83   2.0000      -0.335838        -9.1386
  84   2.0000      -0.326415        -8.8822
  85   2.0000      -0.319173        -8.6851
  86   2.0000      -0.317282        -8.6337
  87   2.0000      -0.300774        -8.1845
  88   2.0000      -0.293028        -7.9737
  89   2.0000      -0.287499        -7.8232
  90   2.0000      -0.283054        -7.7023
  91   2.0000      -0.277740        -7.5577
  92   2.0000      -0.271122        -7.3776
  93   2.0000      -0.268452        -7.3049
  94   2.0000      -0.264241        -7.1904
  95   2.0000      -0.228161        -6.2086
  96   2.0000      -0.221822        -6.0361
  97   2.0000      -0.214393        -5.8339
  98   2.0000      -0.209535        -5.7017
  99   2.0000      -0.203384        -5.5344
 100   2.0000      -0.202140        -5.5005
 101   0.0000      -0.042243        -1.1495
 102   0.0000      -0.028756        -0.7825
 103   0.0000      -0.023234        -0.6322
 104   0.0000       0.001609         0.0438
 105   0.0000       0.018952         0.5157

MULLIKEN ATOMIC CHARGES
-----------------------
   0 C :   -0.375615
   1 C :    0.009716
   2 O :   -0.371038
   3 P :    0.597264
   4 S :   -0.321463
   5 O :   -0.368674
   6 C :   -0.005146
   7 C :   -0.307248
   8 S :   -0.074281
   9 C :   -0.357770
  10 S :   -0.078435
  11 P :    0.622182
  12 S :   -0.321847
  13 O :   -0.367341
  14 C :   -0.012530
  15 C :   -0.318901
  16 O :   -0.373700
  17 C :    0.004948
  18 C :   -0.318971
  19 H :    0.169803
  20 H :    0.116102
  21 H :    0.120766
  22 H :    0.109806
  23 H :    0.107144
  24 H :    0.109852
  25 H :    0.106107
  26 H :    0.121055
  27 H :    0.113193
  28 H :    0.119045
  29 H :    0.206006
  30 H :    0.187547
  31 H :    0.112640
  32 H :    0.107384
  33 H :    0.126683
  34 H :    0.123697
  35 H :    0.110021
  36 H :    0.111178
  37 H :    0.105070
  38 H :    0.107305
  39 H :    0.131369
  40 H :    0.117078
Sum of atomic charges:    0.0000000

LOEWDIN ATOMIC CHARGES
----------------------
   0 C :   -0.378582
   1 C :   -0.116765
   2 O :   -0.240667
   3 P :    0.573599
   4 S :   -0.310077
   5 O :   -0.245513
   6 C :   -0.118836
   7 C :   -0.364171
   8 S :    0.095444
   9 C :   -0.476037
  10 S :    0.095458
  11 P :    0.572921
  12 S :   -0.317362
  13 O :   -0.241374
  14 C :   -0.122995
  15 C :   -0.370333
  16 O :   -0.237737
  17 C :   -0.114400
  18 C :   -0.368871
  19 H :    0.128065
  20 H :    0.132099
  21 H :    0.124690
  22 H :    0.110919
  23 H :    0.119800
  24 H :    0.109713
  25 H :    0.119307
  26 H :    0.122381
  27 H :    0.130874
  28 H :    0.127524
  29 H :    0.128344
  30 H :    0.137925
  31 H :    0.108523
  32 H :    0.115238
  33 H :    0.119115
  34 H :    0.120505
  35 H :    0.129592
  36 H :    0.110375
  37 H :    0.119224
  38 H :    0.128681
  39 H :    0.123312
  40 H :    0.120089

  Mayer bond orders larger than 0.100000
B(  0-C ,  1-C ) :   1.1635 B(  0-C , 19-H ) :   0.9153 B(  0-C , 20-H ) :   0.9363
B(  0-C , 21-H ) :   0.9432 B(  1-C ,  2-O ) :   0.9044 B(  1-C , 22-H ) :   0.9169
B(  1-C , 23-H ) :   0.9323 B(  2-O ,  3-P ) :   1.1105 B(  3-P ,  4-S ) :   1.5883
B(  3-P ,  5-O ) :   1.1151 B(  3-P ,  8-S ) :   0.9808 B(  4-S ,  8-S ) :   0.1144
B(  5-O ,  6-C ) :   0.9091 B(  6-C ,  7-C ) :   1.1652 B(  6-C , 24-H ) :   0.9157
B(  6-C , 25-H ) :   0.9345 B(  7-C , 26-H ) :   0.9383 B(  7-C , 27-H ) :   0.9387
B(  7-C , 28-H ) :   0.9462 B(  8-S ,  9-C ) :   0.9766 B(  9-C , 10-S ) :   1.0046
B(  9-C , 29-H ) :   0.8593 B(  9-C , 30-H ) :   0.9097 B( 10-S , 11-P ) :   0.9613
B( 11-P , 12-S ) :   1.6382 B( 11-P , 13-O ) :   1.0783 B( 11-P , 16-O ) :   1.1164
B( 13-O , 14-C ) :   0.9044 B( 14-C , 15-C ) :   1.1661 B( 14-C , 31-H ) :   0.9131
B( 14-C , 32-H ) :   0.9267 B( 15-C , 33-H ) :   0.9394 B( 15-C , 34-H ) :   0.9358
B( 15-C , 35-H ) :   0.9382 B( 16-O , 17-C ) :   0.8977 B( 17-C , 18-C ) :   1.1669
B( 17-C , 36-H ) :   0.9195 B( 17-C , 37-H ) :   0.9319 B( 18-C , 38-H ) :   0.9379
B( 18-C , 39-H ) :   0.9368 B( 18-C , 40-H ) :   0.9363

Dispersion correction           -0.067052554
FINAL SINGLE POINT ENERGY     -2929.521087985365

DIPOLE MOMENT
-------------

Method             : SCF
Type of density    : Electron Density
Multiplicity       :   1
Irrep              :   0
Energy             : -2929.6414162830087662 Eh
Relativity type    :
Basis              : AO
                                X                 Y                 Z
Electronic contribution:    -10.423834887     -12.655089720      -9.825667161
Nuclear contribution   :     12.003472510      13.070700684      10.466175272
                        -----------------------------------------
Total Dipole Moment    :      1.579637622       0.415610963       0.640508111
                        -----------------------------------------
Magnitude (a.u.)       :      1.754490847
Magnitude (Debye)      :      4.459561325

Rotational constants in cm-1:             0.012682             0.005131             0.005022
Rotational constants in MHz :           380.189452           153.809654           150.560763

                             ****ORCA TERMINATED NORMALLY****
TOTAL RUN TIME: 0 days 0 hours 0 minutes 21 seconds 997 msec
