                         Program Version 6.0.1  -  RELEASE   -
|  1> ! pbe def2-sv(p) def2/J RI DEFGRID1 loosescf d4 GCP(DFT/SV(P)) printgap
|  2> %output
|  3>     printlevel normal
|  4> end
|  5> * xyz 0 1
|  6> C 2.5315382925 -3.8450743287 -0.686351632
|  7> C 2.6684010742 -3.4474769945 0.7747337862
|  8> O 2.7592766198 -2.0143364711 0.9001974286
|  9> C 1.651276592 -1.3203505681 1.0135243966
| 10> O 0.5389156652 -1.8106200029 1.0692045269
| 11> C 1.9158529156 0.1666892468 1.0743831181
| 12> C 0.8601447223 0.9191112253 0.2769721824
| 13> H 0.7740236786 0.5044415053 -0.7377473774
| 14> C 1.169218171 2.405185857 0.161665405
| 15> O 2.1380588081 2.9261000832 0.660516877
| 16> O 0.2510307506 3.0229855062 -0.5485194027
| 17> C 0.4041815798 4.4402595798 -0.7738529121
| 18> C 1.2700908993 4.7040440188 -1.9949201093
| 19> S -0.8054039928 0.7623058118 1.0183612195
| 20> P -1.5853381463 -0.7944501548 -0.2168935135
| 21> S -0.5375341984 -1.3384605899 -1.777926582
| 22> O -2.1133214781 -1.9859718071 0.6670424532
| 23> C -2.8954436512 -1.7747277741 1.8576154287
| 24> O -3.0012829848 -0.1513162198 -0.6412227435
| 25> C -3.0561506881 0.9811670916 -1.5106496308
| 26> H 2.500367713 -4.9266094869 -0.7647999547
| 27> H 1.6132551742 -3.4353080185 -1.1046025574
| 28> H 3.3733500994 -3.4662173477 -1.2590042257
| 29> H 3.5979763771 -3.8201583581 1.2048314696
| 30> H 1.8086439404 -3.796176785 1.3536719643
| 31> H 2.9081067037 0.375382468 0.6741114552
| 32> H 1.8891525659 0.4907131429 2.117495492
| 33> H -0.6127679146 4.8035205022 -0.9203957039
| 34> H 0.8460455548 4.8872260984 0.1206102238
| 35> H 1.3032536893 5.7715496168 -2.1854828787
| 36> H 2.2818692896 4.3447957803 -1.8218420384
| 37> H 0.8581559101 4.1972629261 -2.8633298046
| 38> H -3.8176550892 -1.2516519118 1.6103662019
| 39> H -2.3172286234 -1.2000982394 2.5810047864
| 40> H -3.1028692258 -2.7715556068 2.2379762412
| 41> H -2.6044750059 1.8474532457 -1.0252922228
| 42> H -4.1119355031 1.1539305151 -1.7015473636
| 43> H -2.5291106988 0.7638880418 -2.4412478989
| 44> *
| 45>
| 46>                          ****END OF INPUT****

CARTESIAN COORDINATES (ANGSTROEM)
---------------------------------
  C      2.531538   -3.845074   -0.686352
  C      2.668401   -3.447477    0.774734
  O      2.759277   -2.014336    0.900197
  C      1.651277   -1.320351    1.013524
  O      0.538916   -1.810620    1.069205
  C      1.915853    0.166689    1.074383
  C      0.860145    0.919111    0.276972
  H      0.774024    0.504442   -0.737747
  C      1.169218    2.405186    0.161665
  O      2.138059    2.926100    0.660517
  O      0.251031    3.022986   -0.548519
  C      0.404182    4.440260   -0.773853
  C      1.270091    4.704044   -1.994920
  S     -0.805404    0.762306    1.018361
  P     -1.585338   -0.794450   -0.216894
  S     -0.537534   -1.338461   -1.777927
  O     -2.113321   -1.985972    0.667042
  C     -2.895444   -1.774728    1.857615
  O     -3.001283   -0.151316   -0.641223
  C     -3.056151    0.981167   -1.510650
  H      2.500368   -4.926609   -0.764800
  H      1.613255   -3.435308   -1.104603
  H      3.373350   -3.466217   -1.259004
  H      3.597976   -3.820158    1.204831
  H      1.808644   -3.796177    1.353672
  H      2.908107    0.375382    0.674111
  H      1.889153    0.490713    2.117495
  H     -0.612768    4.803521   -0.920396
  H      0.846046    4.887226    0.120610
  H      1.303254    5.771550   -2.185483
  H      2.281869    4.344796   -1.821842
  H      0.858156    4.197263   -2.863330
  H     -3.817655   -1.251652    1.610366
  H     -2.317229   -1.200098    2.581005
  H     -3.102869   -2.771556    2.237976
  H     -2.604475    1.847453   -1.025292
  H     -4.111936    1.153931   -1.701547
  H     -2.529111    0.763888   -2.441248

 Total Charge           Charge          ....    0
 Multiplicity           Mult            ....    1
 Number of Electrons    NEL             ....  174
 Basis Dimension        Dim             ....  316

ORBITAL ENERGIES
----------------

  NO   OCC          E(Eh)            E(eV)
   0   2.0000     -88.035932     -2395.5795
   1   2.0000     -87.980433     -2394.0693
   2   2.0000     -76.420794     -2079.5155
   3   2.0000     -18.810171      -511.8508
   4   2.0000     -18.804698      -511.7018
   5   2.0000     -18.786510      -511.2069
   6   2.0000     -18.780678      -511.0482
   7   2.0000     -18.748083      -510.1613
   8   2.0000     -18.737557      -509.8749
   9   2.0000     -10.019701      -272.6499
  10   2.0000     -10.010516      -272.4000
  11   2.0000      -9.954159      -270.8664
  12   2.0000      -9.945790      -270.6387
  13   2.0000      -9.944701      -270.6091
  14   2.0000      -9.942236      -270.5420
  15   2.0000      -9.935125      -270.3485
  16   2.0000      -9.906197      -269.5613
  17   2.0000      -9.891533      -269.1623
  18   2.0000      -9.878327      -268.8029
  19   2.0000      -7.680266      -208.9907
  20   2.0000      -7.625476      -207.4997
  21   2.0000      -6.417317      -174.6241
  22   2.0000      -5.708251      -155.3294
  23   2.0000      -5.705128      -155.2444
  24   2.0000      -5.696905      -155.0207
  25   2.0000      -5.654521      -153.8673
  26   2.0000      -5.646380      -153.6458
  27   2.0000      -5.645121      -153.6116
  28   2.0000      -4.640019      -126.2613
  29   2.0000      -4.639219      -126.2396
  30   2.0000      -4.637760      -126.1999
  31   2.0000      -1.019597       -27.7447
  32   2.0000      -1.012301       -27.5461
  33   2.0000      -0.979369       -26.6500
  34   2.0000      -0.933467       -25.4009
  35   2.0000      -0.926444       -25.2098
  36   2.0000      -0.915711       -24.9178
  37   2.0000      -0.761103       -20.7107
  38   2.0000      -0.712387       -19.3850
  39   2.0000      -0.705331       -19.1930
  40   2.0000      -0.688722       -18.7411
  41   2.0000      -0.654536       -17.8108
  42   2.0000      -0.628609       -17.1053
  43   2.0000      -0.623052       -16.9541
  44   2.0000      -0.615481       -16.7481
  45   2.0000      -0.595674       -16.2091
  46   2.0000      -0.562746       -15.3131
  47   2.0000      -0.508911       -13.8482
  48   2.0000      -0.504744       -13.7348
  49   2.0000      -0.495116       -13.4728
  50   2.0000      -0.477851       -13.0030
  51   2.0000      -0.468399       -12.7458
  52   2.0000      -0.455830       -12.4038
  53   2.0000      -0.451068       -12.2742
  54   2.0000      -0.433651       -11.8003
  55   2.0000      -0.428104       -11.6493
  56   2.0000      -0.421219       -11.4620
  57   2.0000      -0.417716       -11.3666
  58   2.0000      -0.417189       -11.3523
  59   2.0000      -0.407517       -11.0891
  60   2.0000      -0.400708       -10.9038
  61   2.0000      -0.395947       -10.7743
  62   2.0000      -0.390564       -10.6278
  63   2.0000      -0.381431       -10.3793
  64   2.0000      -0.376454       -10.2438
  65   2.0000      -0.369421       -10.0524
  66   2.0000      -0.365128        -9.9356
  67   2.0000      -0.349405        -9.5078
  68   2.0000      -0.347671        -9.4606
  69   2.0000      -0.338737        -9.2175
  70   2.0000      -0.334363        -9.0985
  71   2.0000      -0.328909        -8.9501
  72   2.0000      -0.321127        -8.7383
  73   2.0000      -0.307809        -8.3759
  74   2.0000      -0.301406        -8.2017
  75   2.0000      -0.295311        -8.0358
  76   2.0000      -0.291487        -7.9318
  77   2.0000      -0.288280        -7.8445
  78   2.0000      -0.268973        -7.3191
  79   2.0000      -0.264896        -7.2082
  80   2.0000      -0.260945        -7.1007
  81   2.0000      -0.256804        -6.9880
  82   2.0000      -0.238209        -6.4820
  83   2.0000      -0.230176        -6.2634
  84   2.0000      -0.206890        -5.6298
  85   2.0000      -0.198867        -5.4114
  86   2.0000      -0.191586        -5.2133
  87   0.0000      -0.045652        -1.2423
  88   0.0000      -0.035128        -0.9559
  89   0.0000      -0.025161        -0.6847
  90   0.0000       0.021585         0.5874
  91   0.0000       0.029998         0.8163

MULLIKEN ATOMIC CHARGES
-----------------------
   0 C :   -0.314085
   1 C :   -0.014452
   2 O :   -0.218036
   3 C :    0.133248
   4 O :   -0.209421
   5 C :   -0.034711
   6 C :   -0.374745
   7 H :    0.155508
   8 C :    0.221047
   9 O :   -0.191277
  10 O :   -0.220105
  11 C :   -0.009623
  12 C :   -0.305964
  13 S :   -0.101157
  14 P :    0.628517
  15 S :   -0.310406
  16 O :   -0.352234
  17 C :   -0.104938
  18 O :   -0.390551
  19 C :   -0.101940
  20 H :    0.109474
  21 H :    0.144451
  22 H :    0.110275
  23 H :    0.102258
  24 H :    0.109627
  25 H :    0.115836
  26 H :    0.124778
  27 H :    0.105628
  28 H :    0.110481
  29 H :    0.115290
  30 H :    0.127790
  31 H :    0.118727
  32 H :    0.122024
  33 H :    0.123555
  34 H :    0.131682
  35 H :    0.111898
  36 H :    0.118962
  37 H :    0.112590
Sum of atomic charges:   -0.0000000

LOEWDIN ATOMIC CHARGES
----------------------
   0 C :   -0.359378
   1 C :   -0.110541
   2 O :   -0.048336
   3 C :    0.038403
   4 O :   -0.175174
   5 C :   -0.247374
   6 C :   -0.273947
   7 H :    0.133665
   8 C :    0.017179
   9 O :   -0.154500
  10 O :   -0.052804
  11 C :   -0.107968
  12 C :   -0.355855
  13 S :    0.097435
  14 P :    0.596153
  15 S :   -0.300707
  16 O :   -0.227020
  17 C :   -0.207377
  18 O :   -0.267771
  19 C :   -0.222855
  20 H :    0.129586
  21 H :    0.130750
  22 H :    0.123536
  23 H :    0.117126
  24 H :    0.120713
  25 H :    0.143299
  26 H :    0.148412
  27 H :    0.118703
  28 H :    0.121247
  29 H :    0.131882
  30 H :    0.131062
  31 H :    0.127061
  32 H :    0.114392
  33 H :    0.112617
  34 H :    0.126911
  35 H :    0.103949
  36 H :    0.119025
  37 H :    0.108503

  Mayer bond orders larger than 0.100000
B(  0-C ,  1-C ) :   1.1769 B(  0-C , 20-H ) :   0.9425 B(  0-C , 21-H ) :   0.9314
B(  0-C , 22-H ) :   0.9490 B(  1-C ,  2-O ) :   0.9061 B(  1-C , 23-H ) :   0.9368
B(  1-C , 24-H ) :   0.9116 B(  2-O ,  3-C ) :   1.2683 B(  3-C ,  4-O ) :   1.9590
B(  3-C ,  5-C ) :   1.0030 B(  5-C ,  6-C ) :   1.0243 B(  5-C , 25-H ) :   0.8935
B(  5-C , 26-H ) :   0.8793 B(  6-C ,  7-H ) :   0.8226 B(  6-C ,  8-C ) :   0.9043
B(  6-C , 13-S ) :   1.0188 B(  7-H , 15-S ) :   0.1257 B(  8-C ,  9-O ) :   2.0575
B(  8-C , 10-O ) :   1.2527 B( 10-O , 11-C ) :   0.9120 B( 11-C , 12-C ) :   1.1771
B( 11-C , 27-H ) :   0.9360 B( 11-C , 28-H ) :   0.9142 B( 12-C , 29-H ) :   0.9438
B( 12-C , 30-H ) :   0.9460 B( 12-C , 31-H ) :   0.9480 B( 13-S , 14-P ) :   0.9342
B( 13-S , 15-S ) :   0.1147 B( 14-P , 15-S ) :   1.5945 B( 14-P , 16-O ) :   1.1447
B( 14-P , 18-O ) :   1.0528 B( 16-O , 17-C ) :   0.9206 B( 17-C , 32-H ) :   0.9457
B( 17-C , 33-H ) :   0.9410 B( 17-C , 34-H ) :   0.9600 B( 18-O , 19-C ) :   0.9413
B( 19-C , 35-H ) :   0.9379 B( 19-C , 36-H ) :   0.9583 B( 19-C , 37-H ) :   0.9376

Dispersion correction           -0.051376000
FINAL SINGLE POINT ENERGY     -1979.017875343298

DIPOLE MOMENT
-------------

Method             : SCF
Type of density    : Electron Density
Multiplicity       :   1
Irrep              :   0
Energy             : -1979.1484376615103429 Eh
Relativity type    :
Basis              : AO
                                X                 Y                 Z
Electronic contribution:     -6.125264973      -4.319323947       4.699608648
Nuclear contribution   :      5.834018419       4.922196563      -4.373711767
                        -----------------------------------------
Total Dipole Moment    :     -0.291246554       0.602872616       0.325896881
                        -----------------------------------------
Magnitude (a.u.)       :      0.744639996
Magnitude (Debye)      :      1.892724453

Rotational constants in cm-1:             0.011155             0.007863             0.005735
Rotational constants in MHz :           334.418638           235.719999           171.939555

                             ****ORCA TERMINATED NORMALLY****
TOTAL RUN TIME: 0 days 0 hours 0 minutes 39 seconds 7 msec
