                         Program Version 6.0.0  -   RELEASE  -
|  1> ! pbe def2-sv(p) def2/J RI DEFGRID1 loosescf d4 GCP(DFT/SV(P)) printgap
|  2> %output
|  3>     printlevel normal
|  4> end
|  5> * xyz 0 1
|  6> C 5.8950561329 -0.233145118 0.5908639176
|  7> C 4.4671936809 -0.7393054685 0.6072182122
|  8> O 3.6595556349 0.1889750415 -0.1465225946
|  9> P 2.2161372602 -0.2261852269 -0.6646881646
| 10> S 2.1564803483 -1.9190965382 -1.6490002533
| 11> O 1.8025075883 1.0073321773 -1.5513178184
| 12> C 2.2662759017 2.3706632985 -1.3717265914
| 13> C 1.9716318929 2.9234107694 0.0057023707
| 14> S 1.0202174146 -0.191551304 1.0998729519
| 15> C -0.0327111325 -1.6245471529 0.769873322
| 16> S -1.1702418476 -1.4075325763 -0.6319455971
| 17> P -2.2950272064 0.2643687005 0.0369395341
| 18> S -1.6253528988 2.0757933726 -0.228502392
| 19> O -2.6365747727 -0.14248238 1.5416311008
| 20> C -2.5260494886 0.7468186787 2.6755879751
| 21> C -1.5136427972 0.2137414236 3.6687683446
| 22> O -3.6409847435 0.0797273396 -0.7775656145
| 23> C -4.4604439416 -1.1142330094 -0.6886464603
| 24> C -5.894536981 -0.7155610015 -0.9701570146
| 25> H 6.5181578651 -0.9116789107 1.1639954287
| 26> H 6.2630221724 -0.1860298333 -0.4302657316
| 27> H 5.944675648 0.7589729742 1.029921682
| 28> H 4.0706253484 -0.7859032971 1.6249896605
| 29> H 4.3855217105 -1.7273855049 0.1423897889
| 30> H 3.3375572985 2.3857045855 -1.5812284739
| 31> H 1.7236082233 2.9184262096 -2.1436030224
| 32> H 0.9021453893 2.9023588893 0.2022515789
| 33> H 2.4850577369 2.3414681492 0.7686118439
| 34> H 2.3175953605 3.95115305 0.0511932262
| 35> H -0.6016330717 -1.81162847 1.6767772782
| 36> H 0.5860785614 -2.4796829424 0.4987124049
| 37> H -2.2440054304 1.7420828174 2.3169528837
| 38> H -3.5255892027 0.7869702285 3.1128079307
| 39> H -1.5165810525 0.8536926157 4.5450476745
| 40> H -1.774761831 -0.7979191889 3.9668021376
| 41> H -0.515516262 0.2165842319 3.2347707838
| 42> H -4.0884995574 -1.8244302387 -1.4308159593
| 43> H -4.3519995801 -1.5422372176 0.3104801139
| 44> H -5.9652345244 -0.2550649408 -1.9514810414
| 45> H -6.5216652487 -1.6007997317 -0.9418484111
| 46> H -6.2403194286 -0.0037348139 -0.2258063896
| 47> *
| 48>
| 49>                          ****END OF INPUT****

CARTESIAN COORDINATES (ANGSTROEM)
---------------------------------
  C      5.895056   -0.233145    0.590864
  C      4.467194   -0.739305    0.607218
  O      3.659556    0.188975   -0.146523
  P      2.216137   -0.226185   -0.664688
  S      2.156480   -1.919097   -1.649000
  O      1.802508    1.007332   -1.551318
  C      2.266276    2.370663   -1.371727
  C      1.971632    2.923411    0.005702
  S      1.020217   -0.191551    1.099873
  C     -0.032711   -1.624547    0.769873
  S     -1.170242   -1.407533   -0.631946
  P     -2.295027    0.264369    0.036940
  S     -1.625353    2.075793   -0.228502
  O     -2.636575   -0.142482    1.541631
  C     -2.526049    0.746819    2.675588
  C     -1.513643    0.213741    3.668768
  O     -3.640985    0.079727   -0.777566
  C     -4.460444   -1.114233   -0.688646
  C     -5.894537   -0.715561   -0.970157
  H      6.518158   -0.911679    1.163995
  H      6.263022   -0.186030   -0.430266
  H      5.944676    0.758973    1.029922
  H      4.070625   -0.785903    1.624990
  H      4.385522   -1.727386    0.142390
  H      3.337557    2.385705   -1.581228
  H      1.723608    2.918426   -2.143603
  H      0.902145    2.902359    0.202252
  H      2.485058    2.341468    0.768612
  H      2.317595    3.951153    0.051193
  H     -0.601633   -1.811628    1.676777
  H      0.586079   -2.479683    0.498712
  H     -2.244005    1.742083    2.316953
  H     -3.525589    0.786970    3.112808
  H     -1.516581    0.853693    4.545048
  H     -1.774762   -0.797919    3.966802
  H     -0.515516    0.216584    3.234771
  H     -4.088500   -1.824430   -1.430816
  H     -4.352000   -1.542237    0.310480
  H     -5.965235   -0.255065   -1.951481
  H     -6.521665   -1.600800   -0.941848
  H     -6.240319   -0.003735   -0.225806

 Total Charge           Charge          ....    0
 Multiplicity           Mult            ....    1
 Number of Electrons    NEL             ....  202
 Basis Dimension        Dim             ....  334

ORBITAL ENERGIES
----------------

  NO   OCC          E(Eh)            E(eV)
   0   2.0000     -88.042214     -2395.7504
   1   2.0000     -88.036327     -2395.5902
   2   2.0000     -87.981916     -2394.1097
   3   2.0000     -87.979058     -2394.0319
   4   2.0000     -76.424493     -2079.6162
   5   2.0000     -76.421824     -2079.5435
   6   2.0000     -18.795048      -511.4393
   7   2.0000     -18.794693      -511.4296
   8   2.0000     -18.787496      -511.2337
   9   2.0000     -18.785243      -511.1725
  10   2.0000      -9.955783      -270.9106
  11   2.0000      -9.954175      -270.8669
  12   2.0000      -9.953614      -270.8516
  13   2.0000      -9.953386      -270.8454
  14   2.0000      -9.949757      -270.7467
  15   2.0000      -9.890640      -269.1380
  16   2.0000      -9.890315      -269.1291
  17   2.0000      -9.888213      -269.0720
  18   2.0000      -9.877447      -268.7790
  19   2.0000      -7.686491      -209.1601
  20   2.0000      -7.681331      -209.0196
  21   2.0000      -7.627111      -207.5442
  22   2.0000      -7.624380      -207.4699
  23   2.0000      -6.421926      -174.7495
  24   2.0000      -6.419472      -174.6827
  25   2.0000      -5.714364      -155.4957
  26   2.0000      -5.710996      -155.4041
  27   2.0000      -5.709409      -155.3609
  28   2.0000      -5.705728      -155.2608
  29   2.0000      -5.703626      -155.2035
  30   2.0000      -5.698232      -155.0568
  31   2.0000      -5.656172      -153.9123
  32   2.0000      -5.653241      -153.8325
  33   2.0000      -5.647460      -153.6752
  34   2.0000      -5.647371      -153.6728
  35   2.0000      -5.644831      -153.6037
  36   2.0000      -5.644642      -153.5985
  37   2.0000      -4.644942      -126.3953
  38   2.0000      -4.643519      -126.3566
  39   2.0000      -4.642644      -126.3328
  40   2.0000      -4.642160      -126.3196
  41   2.0000      -4.641014      -126.2884
  42   2.0000      -4.639606      -126.2501
  43   2.0000      -0.986845       -26.8534
  44   2.0000      -0.983064       -26.7505
  45   2.0000      -0.942809       -25.6551
  46   2.0000      -0.941410       -25.6171
  47   2.0000      -0.760389       -20.6912
  48   2.0000      -0.721312       -19.6279
  49   2.0000      -0.710624       -19.3371
  50   2.0000      -0.693723       -18.8772
  51   2.0000      -0.690385       -18.7863
  52   2.0000      -0.669884       -18.2285
  53   2.0000      -0.647080       -17.6079
  54   2.0000      -0.634945       -17.2777
  55   2.0000      -0.593022       -16.1369
  56   2.0000      -0.587370       -15.9831
  57   2.0000      -0.571642       -15.5552
  58   2.0000      -0.569468       -15.4960
  59   2.0000      -0.562816       -15.3150
  60   2.0000      -0.508114       -13.8265
  61   2.0000      -0.504426       -13.7261
  62   2.0000      -0.482502       -13.1295
  63   2.0000      -0.468702       -12.7540
  64   2.0000      -0.461132       -12.5480
  65   2.0000      -0.444521       -12.0960
  66   2.0000      -0.440897       -11.9974
  67   2.0000      -0.434829       -11.8323
  68   2.0000      -0.430891       -11.7251
  69   2.0000      -0.412568       -11.2265
  70   2.0000      -0.402243       -10.9456
  71   2.0000      -0.396351       -10.7853
  72   2.0000      -0.393652       -10.7118
  73   2.0000      -0.387584       -10.5467
  74   2.0000      -0.376241       -10.2380
  75   2.0000      -0.370353       -10.0778
  76   2.0000      -0.367950       -10.0124
  77   2.0000      -0.361612        -9.8400
  78   2.0000      -0.356510        -9.7011
  79   2.0000      -0.352311        -9.5869
  80   2.0000      -0.345615        -9.4047
  81   2.0000      -0.343471        -9.3463
  82   2.0000      -0.338932        -9.2228
  83   2.0000      -0.337227        -9.1764
  84   2.0000      -0.333103        -9.0642
  85   2.0000      -0.324311        -8.8250
  86   2.0000      -0.308986        -8.4079
  87   2.0000      -0.305807        -8.3214
  88   2.0000      -0.302161        -8.2222
  89   2.0000      -0.288688        -7.8556
  90   2.0000      -0.285348        -7.7647
  91   2.0000      -0.272972        -7.4280
  92   2.0000      -0.266349        -7.2477
  93   2.0000      -0.264348        -7.1933
  94   2.0000      -0.256205        -6.9717
  95   2.0000      -0.237921        -6.4741
  96   2.0000      -0.215675        -5.8688
  97   2.0000      -0.202233        -5.5030
  98   2.0000      -0.200182        -5.4472
  99   2.0000      -0.193798        -5.2735
 100   2.0000      -0.189482        -5.1561
 101   0.0000      -0.046699        -1.2707
 102   0.0000      -0.023655        -0.6437
 103   0.0000      -0.006064        -0.1650
 104   0.0000       0.000256         0.0070
 105   0.0000       0.017254         0.4695

MULLIKEN ATOMIC CHARGES
-----------------------
   0 C :   -0.281176
   1 C :   -0.007387
   2 O :   -0.387936
   3 P :    0.635568
   4 S :   -0.314808
   5 O :   -0.355514
   6 C :    0.019400
   7 C :   -0.350403
   8 S :   -0.129360
   9 C :   -0.349824
  10 S :   -0.074965
  11 P :    0.613515
  12 S :   -0.304338
  13 O :   -0.396467
  14 C :   -0.007134
  15 C :   -0.315552
  16 O :   -0.367667
  17 C :   -0.023257
  18 C :   -0.277173
  19 H :    0.112706
  20 H :    0.121847
  21 H :    0.115061
  22 H :    0.099044
  23 H :    0.104958
  24 H :    0.104838
  25 H :    0.113974
  26 H :    0.156060
  27 H :    0.114564
  28 H :    0.109251
  29 H :    0.184076
  30 H :    0.188007
  31 H :    0.114025
  32 H :    0.101349
  33 H :    0.114320
  34 H :    0.116554
  35 H :    0.135268
  36 H :    0.114051
  37 H :    0.105355
  38 H :    0.123843
  39 H :    0.110317
  40 H :    0.115008
Sum of atomic charges:    0.0000000

LOEWDIN ATOMIC CHARGES
----------------------
   0 C :   -0.350394
   1 C :   -0.122234
   2 O :   -0.248535
   3 P :    0.576599
   4 S :   -0.308563
   5 O :   -0.229459
   6 C :   -0.102804
   7 C :   -0.378430
   8 S :    0.072838
   9 C :   -0.479976
  10 S :    0.087235
  11 P :    0.560209
  12 S :   -0.296564
  13 O :   -0.259262
  14 C :   -0.118332
  15 C :   -0.362327
  16 O :   -0.246640
  17 C :   -0.120046
  18 C :   -0.350149
  19 H :    0.131430
  20 H :    0.129496
  21 H :    0.125756
  22 H :    0.107246
  23 H :    0.108434
  24 H :    0.112599
  25 H :    0.126138
  26 H :    0.123479
  27 H :    0.113314
  28 H :    0.130921
  29 H :    0.130526
  30 H :    0.129880
  31 H :    0.108366
  32 H :    0.115326
  33 H :    0.133287
  34 H :    0.123747
  35 H :    0.116178
  36 H :    0.114236
  37 H :    0.108836
  38 H :    0.130875
  39 H :    0.129767
  40 H :    0.127003

  Mayer bond orders larger than 0.100000
B(  0-C ,  1-C ) :   1.1606 B(  0-C , 19-H ) :   0.9417 B(  0-C , 20-H ) :   0.9505
B(  0-C , 21-H ) :   0.9516 B(  1-C ,  2-O ) :   0.9009 B(  1-C , 22-H ) :   0.9262
B(  1-C , 23-H ) :   0.9077 B(  2-O ,  3-P ) :   1.0697 B(  3-P ,  4-S ) :   1.6423
B(  3-P ,  5-O ) :   1.1634 B(  3-P ,  8-S ) :   0.9275 B(  4-S ,  8-S ) :   0.1105
B(  5-O ,  6-C ) :   0.8893 B(  6-C ,  7-C ) :   1.1705 B(  6-C , 24-H ) :   0.9318
B(  6-C , 25-H ) :   0.9316 B(  7-C , 26-H ) :   0.9202 B(  7-C , 27-H ) :   0.9359
B(  7-C , 28-H ) :   0.9347 B(  8-S ,  9-C ) :   1.0132 B(  9-C , 10-S ) :   1.0014
B(  9-C , 29-H ) :   0.8958 B(  9-C , 30-H ) :   0.8828 B( 10-S , 11-P ) :   0.9717
B( 10-S , 12-S ) :   0.1007 B( 11-P , 12-S ) :   1.6622 B( 11-P , 13-O ) :   1.0564
B( 11-P , 16-O ) :   1.1298 B( 13-O , 14-C ) :   0.9056 B( 14-C , 15-C ) :   1.1674
B( 14-C , 31-H ) :   0.8971 B( 14-C , 32-H ) :   0.9339 B( 15-C , 33-H ) :   0.9373
B( 15-C , 34-H ) :   0.9439 B( 15-C , 35-H ) :   0.9299 B( 16-O , 17-C ) :   0.8963
B( 17-C , 18-C ) :   1.1623 B( 17-C , 36-H ) :   0.9298 B( 17-C , 37-H ) :   0.9189
B( 18-C , 38-H ) :   0.9497 B( 18-C , 39-H ) :   0.9411 B( 18-C , 40-H ) :   0.9503

Dispersion correction           -0.064164392
FINAL SINGLE POINT ENERGY     -2929.515753273315

DIPOLE MOMENT
-------------

Method             : SCF
Type of density    : Electron Density
Multiplicity       :   1
Irrep              :   0
Energy             : -2929.6359895559885445 Eh
Relativity type    :
Basis              : AO
                                X                 Y                 Z
Electronic contribution:     -1.188201673      -4.773651504     -13.818551778
Nuclear contribution   :      1.162152444       4.650472996      15.542943952
                        -----------------------------------------
Total Dipole Moment    :     -0.026049229      -0.123178508       1.724392175
                        -----------------------------------------
Magnitude (a.u.)       :      1.728982325
Magnitude (Debye)      :      4.394723815

Rotational constants in cm-1:             0.013279             0.004590             0.004412
Rotational constants in MHz :           398.089741           137.617235           132.274436

                             ****ORCA TERMINATED NORMALLY****
TOTAL RUN TIME: 0 days 0 hours 0 minutes 20 seconds 704 msec
