                         Program Version 6.0.1  -  RELEASE   -
|  1> ! pbe def2-sv(p) def2/J RI DEFGRID1 loosescf d4 GCP(DFT/SV(P)) printgap
|  2> %output
|  3>     printlevel normal
|  4> end
|  5> * xyz 0 1
|  6> C 3.0026597524 -3.7741196938 -0.3742287651
|  7> C 1.5896661055 -3.2238209744 -0.483158443
|  8> O 1.5422690817 -2.0849487724 -1.3616212569
|  9> C 1.8724367352 -0.9023313778 -0.8955477767
| 10> O 2.2173631176 -0.6727593593 0.2462426395
| 11> C 1.7289017335 0.1747255451 -1.955444428
| 12> C 0.5504994234 1.0875949561 -1.5850867903
| 13> H 0.4722917693 1.9082152243 -2.2999604412
| 14> C 0.7553617701 1.6320229197 -0.1893835313
| 15> O 0.1524016987 1.1958446748 0.7758721573
| 16> O 1.6297608723 2.5903730009 -0.1595176479
| 17> C 2.0185963145 3.1411935139 1.1203911865
| 18> C 3.2386167191 2.4070743365 1.6506963303
| 19> S -1.0259435353 0.1664521119 -1.6497294023
| 20> P -1.7508569323 -0.1104024945 0.3343662984
| 21> S -2.6272733345 1.3253978788 1.3639525523
| 22> O -2.8706783661 -1.1837848288 -0.1101116216
| 23> C -4.0699049288 -0.8032895448 -0.7842154527
| 24> O -0.8755596489 -1.205994439 1.0913460105
| 25> C -0.2679362709 -1.0064354424 2.3690864284
| 26> H 2.9900192669 -4.6709486023 0.2361425944
| 27> H 3.3852614144 -4.0174221504 -1.3615429786
| 28> H 3.6570287451 -3.0402571599 0.090774369
| 29> H 1.2066601866 -2.9257071625 0.4969901652
| 30> H 0.9132079282 -3.9442007174 -0.943204861
| 31> H 1.5398013942 -0.2905404688 -2.9210874449
| 32> H 2.6403683584 0.7736182272 -1.9843952894
| 33> H 2.2372148919 4.1882404515 0.9108086251
| 34> H 1.1737918285 3.0567638368 1.8087456913
| 35> H 4.0832729488 2.5483322743 0.982829794
| 36> H 3.4897801281 2.7903554153 2.6337927944
| 37> H 3.0273682221 1.3420369524 1.7272167179
| 38> H -4.7535315688 -1.6402165249 -0.6640982484
| 39> H -3.8666754502 -0.6225280726 -1.8399840601
| 40> H -4.4882302738 0.0960315725 -0.326515474
| 41> H -0.7107379673 -0.1453451965 2.8719704553
| 42> H 0.8010356242 -0.8412040955 2.2305732328
| 43> H -0.4514164928 -1.9142277996 2.9401296644
| 44> *
| 45>
| 46>                          ****END OF INPUT****

CARTESIAN COORDINATES (ANGSTROEM)
---------------------------------
  C      3.002660   -3.774120   -0.374229
  C      1.589666   -3.223821   -0.483158
  O      1.542269   -2.084949   -1.361621
  C      1.872437   -0.902331   -0.895548
  O      2.217363   -0.672759    0.246243
  C      1.728902    0.174726   -1.955444
  C      0.550499    1.087595   -1.585087
  H      0.472292    1.908215   -2.299960
  C      0.755362    1.632023   -0.189384
  O      0.152402    1.195845    0.775872
  O      1.629761    2.590373   -0.159518
  C      2.018596    3.141194    1.120391
  C      3.238617    2.407074    1.650696
  S     -1.025944    0.166452   -1.649729
  P     -1.750857   -0.110402    0.334366
  S     -2.627273    1.325398    1.363953
  O     -2.870678   -1.183785   -0.110112
  C     -4.069905   -0.803290   -0.784215
  O     -0.875560   -1.205994    1.091346
  C     -0.267936   -1.006435    2.369086
  H      2.990019   -4.670949    0.236143
  H      3.385261   -4.017422   -1.361543
  H      3.657029   -3.040257    0.090774
  H      1.206660   -2.925707    0.496990
  H      0.913208   -3.944201   -0.943205
  H      1.539801   -0.290540   -2.921087
  H      2.640368    0.773618   -1.984395
  H      2.237215    4.188240    0.910809
  H      1.173792    3.056764    1.808746
  H      4.083273    2.548332    0.982830
  H      3.489780    2.790355    2.633793
  H      3.027368    1.342037    1.727217
  H     -4.753532   -1.640217   -0.664098
  H     -3.866675   -0.622528   -1.839984
  H     -4.488230    0.096032   -0.326515
  H     -0.710738   -0.145345    2.871970
  H      0.801036   -0.841204    2.230573
  H     -0.451416   -1.914228    2.940130

 Total Charge           Charge          ....    0
 Multiplicity           Mult            ....    1
 Number of Electrons    NEL             ....  174
 Basis Dimension        Dim             ....  316

ORBITAL ENERGIES
----------------

  NO   OCC          E(Eh)            E(eV)
   0   2.0000     -88.031955     -2395.4713
   1   2.0000     -87.956956     -2393.4304
   2   2.0000     -76.413830     -2079.3260
   3   2.0000     -18.826487      -512.2948
   4   2.0000     -18.812017      -511.9010
   5   2.0000     -18.772638      -510.8295
   6   2.0000     -18.769363      -510.7403
   7   2.0000     -18.762126      -510.5434
   8   2.0000     -18.752548      -510.2828
   9   2.0000     -10.035007      -273.0664
  10   2.0000     -10.023319      -272.7484
  11   2.0000      -9.959492      -271.0115
  12   2.0000      -9.959470      -271.0109
  13   2.0000      -9.951183      -270.7855
  14   2.0000      -9.924553      -270.0608
  15   2.0000      -9.923541      -270.0333
  16   2.0000      -9.923515      -270.0326
  17   2.0000      -9.891805      -269.1697
  18   2.0000      -9.891623      -269.1647
  19   2.0000      -7.676951      -208.9004
  20   2.0000      -7.602270      -206.8683
  21   2.0000      -6.408558      -174.3857
  22   2.0000      -5.705357      -155.2507
  23   2.0000      -5.700980      -155.1316
  24   2.0000      -5.693839      -154.9372
  25   2.0000      -5.631580      -153.2431
  26   2.0000      -5.623090      -153.0120
  27   2.0000      -5.621823      -152.9776
  28   2.0000      -4.631264      -126.0231
  29   2.0000      -4.630805      -126.0106
  30   2.0000      -4.628997      -125.9614
  31   2.0000      -1.038997       -28.2726
  32   2.0000      -1.020769       -27.7765
  33   2.0000      -0.964156       -26.2360
  34   2.0000      -0.945093       -25.7173
  35   2.0000      -0.928083       -25.2544
  36   2.0000      -0.917378       -24.9631
  37   2.0000      -0.773348       -21.0439
  38   2.0000      -0.719233       -19.5713
  39   2.0000      -0.710353       -19.3297
  40   2.0000      -0.685241       -18.6463
  41   2.0000      -0.654464       -17.8089
  42   2.0000      -0.629057       -17.1175
  43   2.0000      -0.610192       -16.6042
  44   2.0000      -0.603265       -16.4157
  45   2.0000      -0.602256       -16.3882
  46   2.0000      -0.570038       -15.5115
  47   2.0000      -0.514867       -14.0103
  48   2.0000      -0.506563       -13.7843
  49   2.0000      -0.503076       -13.6894
  50   2.0000      -0.489322       -13.3151
  51   2.0000      -0.470095       -12.7919
  52   2.0000      -0.461971       -12.5709
  53   2.0000      -0.455086       -12.3835
  54   2.0000      -0.441493       -12.0136
  55   2.0000      -0.432665       -11.7734
  56   2.0000      -0.430307       -11.7093
  57   2.0000      -0.420518       -11.4429
  58   2.0000      -0.410695       -11.1756
  59   2.0000      -0.401738       -10.9319
  60   2.0000      -0.399222       -10.8634
  61   2.0000      -0.392379       -10.6772
  62   2.0000      -0.391955       -10.6656
  63   2.0000      -0.384193       -10.4544
  64   2.0000      -0.377982       -10.2854
  65   2.0000      -0.374883       -10.2011
  66   2.0000      -0.364219        -9.9109
  67   2.0000      -0.362020        -9.8511
  68   2.0000      -0.348751        -9.4900
  69   2.0000      -0.345305        -9.3962
  70   2.0000      -0.340978        -9.2785
  71   2.0000      -0.336549        -9.1580
  72   2.0000      -0.327754        -8.9187
  73   2.0000      -0.311340        -8.4720
  74   2.0000      -0.300505        -8.1772
  75   2.0000      -0.298349        -8.1185
  76   2.0000      -0.286557        -7.7976
  77   2.0000      -0.284700        -7.7471
  78   2.0000      -0.272549        -7.4164
  79   2.0000      -0.267162        -7.2699
  80   2.0000      -0.258856        -7.0438
  81   2.0000      -0.241921        -6.5830
  82   2.0000      -0.237450        -6.4613
  83   2.0000      -0.236189        -6.4270
  84   2.0000      -0.220358        -5.9963
  85   2.0000      -0.178321        -4.8523
  86   2.0000      -0.168495        -4.5850
  87   0.0000      -0.052317        -1.4236
  88   0.0000      -0.038172        -1.0387
  89   0.0000      -0.026790        -0.7290
  90   0.0000      -0.001327        -0.0361
  91   0.0000       0.034646         0.9428

MULLIKEN ATOMIC CHARGES
-----------------------
   0 C :   -0.309088
   1 C :   -0.023801
   2 O :   -0.211073
   3 C :    0.108650
   4 O :   -0.207109
   5 C :   -0.038343
   6 C :   -0.287026
   7 H :    0.148615
   8 C :    0.226447
   9 O :   -0.199399
  10 O :   -0.216049
  11 C :   -0.022334
  12 C :   -0.318066
  13 S :   -0.117273
  14 P :    0.640123
  15 S :   -0.351220
  16 O :   -0.386280
  17 C :   -0.102087
  18 O :   -0.382501
  19 C :   -0.110866
  20 H :    0.116309
  21 H :    0.113968
  22 H :    0.124725
  23 H :    0.127247
  24 H :    0.111261
  25 H :    0.120516
  26 H :    0.123918
  27 H :    0.111194
  28 H :    0.129225
  29 H :    0.112294
  30 H :    0.116184
  31 H :    0.151001
  32 H :    0.116453
  33 H :    0.106966
  34 H :    0.111762
  35 H :    0.120494
  36 H :    0.134060
  37 H :    0.111104
Sum of atomic charges:    0.0000000

LOEWDIN ATOMIC CHARGES
----------------------
   0 C :   -0.357090
   1 C :   -0.108367
   2 O :   -0.038283
   3 C :    0.032639
   4 O :   -0.164246
   5 C :   -0.242027
   6 C :   -0.256725
   7 H :    0.145838
   8 C :    0.033626
   9 O :   -0.134619
  10 O :   -0.031225
  11 C :   -0.104853
  12 C :   -0.358453
  13 S :    0.089078
  14 P :    0.586404
  15 S :   -0.352223
  16 O :   -0.267429
  17 C :   -0.222774
  18 O :   -0.247292
  19 C :   -0.221715
  20 H :    0.132437
  21 H :    0.124759
  22 H :    0.128745
  23 H :    0.124870
  24 H :    0.123501
  25 H :    0.137785
  26 H :    0.143684
  27 H :    0.121692
  28 H :    0.128729
  29 H :    0.124662
  30 H :    0.132629
  31 H :    0.136744
  32 H :    0.117908
  33 H :    0.102796
  34 H :    0.105234
  35 H :    0.109519
  36 H :    0.110620
  37 H :    0.113421

  Mayer bond orders larger than 0.100000
B(  0-C ,  1-C ) :   1.1640 B(  0-C , 20-H ) :   0.9443 B(  0-C , 21-H ) :   0.9474
B(  0-C , 22-H ) :   0.9460 B(  1-C ,  2-O ) :   0.9057 B(  1-C , 23-H ) :   0.9147
B(  1-C , 24-H ) :   0.9376 B(  2-O ,  3-C ) :   1.2682 B(  3-C ,  4-O ) :   1.9427
B(  3-C ,  5-C ) :   0.9934 B(  5-C ,  6-C ) :   1.0336 B(  5-C , 25-H ) :   0.9031
B(  5-C , 26-H ) :   0.8844 B(  6-C ,  7-H ) :   0.8811 B(  6-C ,  8-C ) :   0.9138
B(  6-C , 13-S ) :   1.0386 B(  8-C ,  9-O ) :   1.8379 B(  8-C , 10-O ) :   1.2892
B(  9-O , 14-P ) :   0.1795 B( 10-O , 11-C ) :   0.8887 B( 11-C , 12-C ) :   1.1768
B( 11-C , 27-H ) :   0.9365 B( 11-C , 28-H ) :   0.9122 B( 12-C , 29-H ) :   0.9491
B( 12-C , 30-H ) :   0.9415 B( 12-C , 31-H ) :   0.9320 B( 13-S , 14-P ) :   0.9290
B( 13-S , 15-S ) :   0.1056 B( 14-P , 15-S ) :   1.5675 B( 14-P , 16-O ) :   1.0472
B( 14-P , 18-O ) :   1.1001 B( 16-O , 17-C ) :   0.9511 B( 17-C , 32-H ) :   0.9601
B( 17-C , 33-H ) :   0.9482 B( 17-C , 34-H ) :   0.9261 B( 18-O , 19-C ) :   0.9230
B( 19-C , 35-H ) :   0.9303 B( 19-C , 36-H ) :   0.9345 B( 19-C , 37-H ) :   0.9539

Dispersion correction           -0.054260222
FINAL SINGLE POINT ENERGY     -1979.005126880036

DIPOLE MOMENT
-------------

Method             : SCF
Type of density    : Electron Density
Multiplicity       :   1
Irrep              :   0
Energy             : -1979.1372755877755480 Eh
Relativity type    :
Basis              : AO
                                X                 Y                 Z
Electronic contribution:    -16.070556460       6.670270047      -4.718854757
Nuclear contribution   :     17.970749744      -6.859327328       4.022097991
                        -----------------------------------------
Total Dipole Moment    :      1.900193284      -0.189057280      -0.696756766
                        -----------------------------------------
Magnitude (a.u.)       :      2.032719155
Magnitude (Debye)      :      5.166761482

Rotational constants in cm-1:             0.011432             0.009174             0.006836
Rotational constants in MHz :           342.719549           275.024383           204.931420

                             ****ORCA TERMINATED NORMALLY****
TOTAL RUN TIME: 0 days 0 hours 0 minutes 42 seconds 341 msec
