                         Program Version 6.0.0  -   RELEASE  -
|  1> ! r2scan-3c def2/J RI DEFGRID2 scfconv6 printgap
|  2> %output
|  3>     printlevel normal
|  4> end
|  5> * xyz 0 1
|  6> C 6.094719009 0.1689899809 -1.5115714099
|  7> C 4.6892765166 0.6453212042 -1.2056094781
|  8> O 3.9723392077 -0.4540065904 -0.6050891718
|  9> P 2.6371734152 -0.1964721661 0.1954919899
| 10> S 2.7270053828 1.1513595248 1.6216581341
| 11> O 2.4448966408 -1.693845362 0.6578344329
| 12> C 1.4246349561 -2.1110842022 1.5860063806
| 13> C 0.3371949688 -2.8796354713 0.8601749323
| 14> S 1.2119017644 0.2218187715 -1.3394207881
| 15> C 0.2023581582 1.4326694658 -0.4390707219
| 16> S -0.8578345951 0.7004213444 0.8336893906
| 17> P -2.4636879047 0.1413526834 -0.466786897
| 18> S -2.032818451 -1.1005646663 -1.914351044
| 19> O -3.0112567882 1.5140425455 -1.0139815111
| 20> C -3.5424027776 2.565006676 -0.1652439624
| 21> C -5.0492040042 2.45810363 -0.0566055795
| 22> O -3.6027352966 -0.340581408 0.5271821931
| 23> C -3.594235906 -1.6470614151 1.1348037053
| 24> C -2.9648023176 -1.5981390034 2.5132616418
| 25> H 6.6500791622 0.9738349171 -1.9817599149
| 26> H 6.5952526779 -0.1267077144 -0.5940274496
| 27> H 6.0571706323 -0.6847945501 -2.1817253236
| 28> H 4.1616957597 0.9425430619 -2.1166470256
| 29> H 4.6963560328 1.4863173077 -0.5031475735
| 30> H 1.9397324131 -2.750833163 2.3055237824
| 31> H 1.0240899997 -1.2340695678 2.1071838409
| 32> H 0.774942229 -3.7095782438 0.3130028421
| 33> H -0.3754985212 -3.2620230024 1.5836675776
| 34> H -0.183896382 -2.2421719368 0.1474162508
| 35> H -0.4104221554 1.9346759605 -1.1844671417
| 36> H 0.8603213107 2.1299940798 0.0797844836
| 37> H -3.068190324 2.5020788736 0.8177188378
| 38> H -3.2464040153 3.490770364 -0.6623525847
| 39> H -5.327619235 1.533987693 0.4419307087
| 40> H -5.4233505126 3.3016394592 0.5152316379
| 41> H -5.4953548949 2.4701160131 -1.047329944
| 42> H -4.6463994083 -1.931996913 1.190833838
| 43> H -3.0660442407 -2.3407044621 0.4728157326
| 44> H -3.5042906076 -0.8984973715 3.1451448193
| 45> H -3.0069012347 -2.586716695 2.9589432527
| 46> H -1.9271651858 -1.2778536993 2.4485222911
| 47> *
| 48>
| 49>                          ****END OF INPUT****

CARTESIAN COORDINATES (ANGSTROEM)
---------------------------------
  C      6.094719    0.168990   -1.511571
  C      4.689277    0.645321   -1.205609
  O      3.972339   -0.454007   -0.605089
  P      2.637173   -0.196472    0.195492
  S      2.727005    1.151360    1.621658
  O      2.444897   -1.693845    0.657834
  C      1.424635   -2.111084    1.586006
  C      0.337195   -2.879635    0.860175
  S      1.211902    0.221819   -1.339421
  C      0.202358    1.432669   -0.439071
  S     -0.857835    0.700421    0.833689
  P     -2.463688    0.141353   -0.466787
  S     -2.032818   -1.100565   -1.914351
  O     -3.011257    1.514043   -1.013982
  C     -3.542403    2.565007   -0.165244
  C     -5.049204    2.458104   -0.056606
  O     -3.602735   -0.340581    0.527182
  C     -3.594236   -1.647061    1.134804
  C     -2.964802   -1.598139    2.513262
  H      6.650079    0.973835   -1.981760
  H      6.595253   -0.126708   -0.594027
  H      6.057171   -0.684795   -2.181725
  H      4.161696    0.942543   -2.116647
  H      4.696356    1.486317   -0.503148
  H      1.939732   -2.750833    2.305524
  H      1.024090   -1.234070    2.107184
  H      0.774942   -3.709578    0.313003
  H     -0.375499   -3.262023    1.583668
  H     -0.183896   -2.242172    0.147416
  H     -0.410422    1.934676   -1.184467
  H      0.860321    2.129994    0.079784
  H     -3.068190    2.502079    0.817719
  H     -3.246404    3.490770   -0.662353
  H     -5.327619    1.533988    0.441931
  H     -5.423351    3.301639    0.515232
  H     -5.495355    2.470116   -1.047330
  H     -4.646399   -1.931997    1.190834
  H     -3.066044   -2.340704    0.472816
  H     -3.504291   -0.898497    3.145145
  H     -3.006901   -2.586717    2.958943
  H     -1.927165   -1.277854    2.448522

 Total Charge           Charge          ....    0
 Multiplicity           Mult            ....    1
 Number of Electrons    NEL             ....  202
 Basis Dimension        Dim             ....  539

ORBITAL ENERGIES
----------------

  NO   OCC          E(Eh)            E(eV)
   0   2.0000     -88.577856     -2410.3260
   1   2.0000     -88.573129     -2410.1974
   2   2.0000     -88.520380     -2408.7620
   3   2.0000     -88.520054     -2408.7531
   4   2.0000     -76.917842     -2093.0409
   5   2.0000     -76.910993     -2092.8545
   6   2.0000     -19.001522      -517.0577
   7   2.0000     -18.998771      -516.9829
   8   2.0000     -18.989576      -516.7326
   9   2.0000     -18.987433      -516.6743
  10   2.0000     -10.107773      -275.0465
  11   2.0000     -10.107676      -275.0439
  12   2.0000     -10.107577      -275.0412
  13   2.0000     -10.096707      -274.7454
  14   2.0000     -10.094727      -274.6915
  15   2.0000     -10.039785      -273.1964
  16   2.0000     -10.035562      -273.0815
  17   2.0000     -10.030120      -272.9334
  18   2.0000     -10.021148      -272.6893
  19   2.0000      -7.872030      -214.2088
  20   2.0000      -7.866866      -214.0683
  21   2.0000      -7.815240      -212.6635
  22   2.0000      -7.814670      -212.6480
  23   2.0000      -6.596250      -179.4931
  24   2.0000      -6.589753      -179.3163
  25   2.0000      -5.818746      -158.3361
  26   2.0000      -5.815842      -158.2571
  27   2.0000      -5.813789      -158.2012
  28   2.0000      -5.810624      -158.1151
  29   2.0000      -5.809361      -158.0807
  30   2.0000      -5.804138      -157.9386
  31   2.0000      -5.762747      -156.8123
  32   2.0000      -5.762471      -156.8048
  33   2.0000      -5.755686      -156.6202
  34   2.0000      -5.755193      -156.6068
  35   2.0000      -5.755039      -156.6026
  36   2.0000      -5.754466      -156.5870
  37   2.0000      -4.742278      -129.0439
  38   2.0000      -4.741308      -129.0176
  39   2.0000      -4.739345      -128.9641
  40   2.0000      -4.735085      -128.8482
  41   2.0000      -4.734844      -128.8417
  42   2.0000      -4.733434      -128.8033
  43   2.0000      -1.058854       -28.8129
  44   2.0000      -1.050767       -28.5928
  45   2.0000      -1.019004       -27.7285
  46   2.0000      -1.007845       -27.4249
  47   2.0000      -0.800259       -21.7762
  48   2.0000      -0.762550       -20.7500
  49   2.0000      -0.754003       -20.5175
  50   2.0000      -0.743126       -20.2215
  51   2.0000      -0.726402       -19.7664
  52   2.0000      -0.710041       -19.3212
  53   2.0000      -0.685285       -18.6475
  54   2.0000      -0.669066       -18.2062
  55   2.0000      -0.631046       -17.1716
  56   2.0000      -0.625730       -17.0270
  57   2.0000      -0.613965       -16.7068
  58   2.0000      -0.595689       -16.2095
  59   2.0000      -0.590474       -16.0676
  60   2.0000      -0.536111       -14.5883
  61   2.0000      -0.527662       -14.3584
  62   2.0000      -0.507028       -13.7969
  63   2.0000      -0.494207       -13.4480
  64   2.0000      -0.482146       -13.1199
  65   2.0000      -0.469695       -12.7811
  66   2.0000      -0.457834       -12.4583
  67   2.0000      -0.455309       -12.3896
  68   2.0000      -0.449494       -12.2314
  69   2.0000      -0.433938       -11.8081
  70   2.0000      -0.423303       -11.5187
  71   2.0000      -0.415677       -11.3112
  72   2.0000      -0.411826       -11.2063
  73   2.0000      -0.406252       -11.0547
  74   2.0000      -0.395508       -10.7623
  75   2.0000      -0.387482       -10.5439
  76   2.0000      -0.381560       -10.3828
  77   2.0000      -0.378968       -10.3122
  78   2.0000      -0.376735       -10.2515
  79   2.0000      -0.370332       -10.0773
  80   2.0000      -0.369504       -10.0547
  81   2.0000      -0.363452        -9.8900
  82   2.0000      -0.358469        -9.7544
  83   2.0000      -0.349014        -9.4972
  84   2.0000      -0.346767        -9.4360
  85   2.0000      -0.339868        -9.2483
  86   2.0000      -0.328257        -8.9323
  87   2.0000      -0.317209        -8.6317
  88   2.0000      -0.314848        -8.5675
  89   2.0000      -0.313463        -8.5298
  90   2.0000      -0.305418        -8.3108
  91   2.0000      -0.294281        -8.0078
  92   2.0000      -0.282407        -7.6847
  93   2.0000      -0.280593        -7.6353
  94   2.0000      -0.272199        -7.4069
  95   2.0000      -0.254376        -6.9219
  96   2.0000      -0.229747        -6.2517
  97   2.0000      -0.224700        -6.1144
  98   2.0000      -0.220021        -5.9871
  99   2.0000      -0.214843        -5.8462
 100   2.0000      -0.206363        -5.6154
 101   0.0000      -0.045060        -1.2261
 102   0.0000      -0.030493        -0.8298
 103   0.0000      -0.008559        -0.2329
 104   0.0000       0.002628         0.0715
 105   0.0000       0.006247         0.1700

MULLIKEN ATOMIC CHARGES
-----------------------
   0 C :   -0.437641
   1 C :   -0.147742
   2 O :   -0.305038
   3 P :    0.705585
   4 S :   -0.475663
   5 O :   -0.286770
   6 C :   -0.121949
   7 C :   -0.464171
   8 S :   -0.112437
   9 C :   -0.237547
  10 S :   -0.194951
  11 P :    0.651855
  12 S :   -0.397219
  13 O :   -0.301991
  14 C :   -0.106158
  15 C :   -0.461267
  16 O :   -0.284894
  17 C :   -0.162765
  18 C :   -0.432714
  19 H :    0.145041
  20 H :    0.157845
  21 H :    0.154550
  22 H :    0.154316
  23 H :    0.165305
  24 H :    0.149953
  25 H :    0.162369
  26 H :    0.153058
  27 H :    0.141430
  28 H :    0.187490
  29 H :    0.197231
  30 H :    0.221220
  31 H :    0.166923
  32 H :    0.151574
  33 H :    0.166559
  34 H :    0.147650
  35 H :    0.158673
  36 H :    0.153765
  37 H :    0.174402
  38 H :    0.157379
  39 H :    0.151284
  40 H :    0.155461
Sum of atomic charges:    0.0000000

LOEWDIN ATOMIC CHARGES
----------------------
   0 C :   -0.384721
   1 C :    0.020154
   2 O :   -0.652521
   3 P :    0.380943
   4 S :   -0.133893
   5 O :   -0.641594
   6 C :    0.021043
   7 C :   -0.408716
   8 S :    0.148031
   9 C :   -0.423257
  10 S :    0.113778
  11 P :    0.370984
  12 S :   -0.085616
  13 O :   -0.660071
  14 C :    0.023143
  15 C :   -0.392157
  16 O :   -0.669512
  17 C :    0.022524
  18 C :   -0.401132
  19 H :    0.159331
  20 H :    0.161716
  21 H :    0.160581
  22 H :    0.172574
  23 H :    0.178925
  24 H :    0.177244
  25 H :    0.178251
  26 H :    0.160807
  27 H :    0.156401
  28 H :    0.171197
  29 H :    0.187613
  30 H :    0.194705
  31 H :    0.177823
  32 H :    0.179582
  33 H :    0.166816
  34 H :    0.159494
  35 H :    0.162190
  36 H :    0.180356
  37 H :    0.182693
  38 H :    0.160346
  39 H :    0.161387
  40 H :    0.162558

  Mayer bond orders larger than 0.100000
B(  0-C ,  1-C ) :   0.9611 B(  0-C , 19-H ) :   0.9644 B(  0-C , 20-H ) :   0.9715
B(  0-C , 21-H ) :   0.9712 B(  1-C ,  2-O ) :   0.7802 B(  1-C , 22-H ) :   0.9438
B(  1-C , 23-H ) :   0.9526 B(  2-O ,  3-P ) :   1.1442 B(  3-P ,  4-S ) :   1.7450
B(  3-P ,  5-O ) :   1.1533 B(  3-P ,  8-S ) :   1.0194 B(  5-O ,  6-C ) :   0.7629
B(  6-C ,  7-C ) :   0.9309 B(  6-C , 24-H ) :   0.9649 B(  6-C , 25-H ) :   0.9680
B(  7-C , 26-H ) :   0.9670 B(  7-C , 27-H ) :   0.9658 B(  7-C , 28-H ) :   0.9509
B(  8-S ,  9-C ) :   0.9281 B(  9-C , 10-S ) :   0.8801 B(  9-C , 29-H ) :   0.9186
B(  9-C , 30-H ) :   0.9087 B( 10-S , 11-P ) :   0.9715 B( 11-P , 12-S ) :   1.9016
B( 11-P , 13-O ) :   1.1367 B( 11-P , 16-O ) :   1.0334 B( 13-O , 14-C ) :   0.7541
B( 14-C , 15-C ) :   0.9462 B( 14-C , 31-H ) :   0.9639 B( 14-C , 32-H ) :   0.9583
B( 15-C , 33-H ) :   0.9677 B( 15-C , 34-H ) :   0.9649 B( 15-C , 35-H ) :   0.9704
B( 16-O , 17-C ) :   0.7708 B( 17-C , 18-C ) :   0.9354 B( 17-C , 36-H ) :   0.9652
B( 17-C , 37-H ) :   0.9589 B( 18-C , 38-H ) :   0.9699 B( 18-C , 39-H ) :   0.9662
B( 18-C , 40-H ) :   0.9561

Dispersion correction           -0.021287794
FINAL SINGLE POINT ENERGY     -2932.462871343413

DIPOLE MOMENT
-------------

Method             : SCF
Type of density    : Electron Density
Multiplicity       :   1
Irrep              :   0
Energy             : -2932.4879514097865467 Eh
Relativity type    :
Basis              : AO
                                X                 Y                 Z
Electronic contribution:      5.837486936       2.550505670      -7.355315230
Nuclear contribution   :     -6.682196404      -2.132370007       8.004880279
                        -----------------------------------------
Total Dipole Moment    :     -0.844709468       0.418135663       0.649565050
                        -----------------------------------------
Magnitude (a.u.)       :      1.144686102
Magnitude (Debye)      :      2.909560845

Rotational constants in cm-1:             0.013596             0.004397             0.004107
Rotational constants in MHz :           407.587502           131.806124           123.111051

                             ****ORCA TERMINATED NORMALLY****
TOTAL RUN TIME: 0 days 0 hours 1 minutes 20 seconds 950 msec
