                         Program Version 6.0.0  -   RELEASE  -
|  1> ! r2scan-3c def2/J RI DEFGRID2 scfconv6 printgap
|  2> %output
|  3>     printlevel normal
|  4> end
|  5> %cpcm
|  6>     smd true
|  7>     smdsolvent "water"
|  8> end
|  9> * xyz 0 1
| 10> C 6.094719009 0.1689899809 -1.5115714099
| 11> C 4.6892765166 0.6453212042 -1.2056094781
| 12> O 3.9723392077 -0.4540065904 -0.6050891718
| 13> P 2.6371734152 -0.1964721661 0.1954919899
| 14> S 2.7270053828 1.1513595248 1.6216581341
| 15> O 2.4448966408 -1.693845362 0.6578344329
| 16> C 1.4246349561 -2.1110842022 1.5860063806
| 17> C 0.3371949688 -2.8796354713 0.8601749323
| 18> S 1.2119017644 0.2218187715 -1.3394207881
| 19> C 0.2023581582 1.4326694658 -0.4390707219
| 20> S -0.8578345951 0.7004213444 0.8336893906
| 21> P -2.4636879047 0.1413526834 -0.466786897
| 22> S -2.032818451 -1.1005646663 -1.914351044
| 23> O -3.0112567882 1.5140425455 -1.0139815111
| 24> C -3.5424027776 2.565006676 -0.1652439624
| 25> C -5.0492040042 2.45810363 -0.0566055795
| 26> O -3.6027352966 -0.340581408 0.5271821931
| 27> C -3.594235906 -1.6470614151 1.1348037053
| 28> C -2.9648023176 -1.5981390034 2.5132616418
| 29> H 6.6500791622 0.9738349171 -1.9817599149
| 30> H 6.5952526779 -0.1267077144 -0.5940274496
| 31> H 6.0571706323 -0.6847945501 -2.1817253236
| 32> H 4.1616957597 0.9425430619 -2.1166470256
| 33> H 4.6963560328 1.4863173077 -0.5031475735
| 34> H 1.9397324131 -2.750833163 2.3055237824
| 35> H 1.0240899997 -1.2340695678 2.1071838409
| 36> H 0.774942229 -3.7095782438 0.3130028421
| 37> H -0.3754985212 -3.2620230024 1.5836675776
| 38> H -0.183896382 -2.2421719368 0.1474162508
| 39> H -0.4104221554 1.9346759605 -1.1844671417
| 40> H 0.8603213107 2.1299940798 0.0797844836
| 41> H -3.068190324 2.5020788736 0.8177188378
| 42> H -3.2464040153 3.490770364 -0.6623525847
| 43> H -5.327619235 1.533987693 0.4419307087
| 44> H -5.4233505126 3.3016394592 0.5152316379
| 45> H -5.4953548949 2.4701160131 -1.047329944
| 46> H -4.6463994083 -1.931996913 1.190833838
| 47> H -3.0660442407 -2.3407044621 0.4728157326
| 48> H -3.5042906076 -0.8984973715 3.1451448193
| 49> H -3.0069012347 -2.586716695 2.9589432527
| 50> H -1.9271651858 -1.2778536993 2.4485222911
| 51> *
| 52>
| 53>                          ****END OF INPUT****

CARTESIAN COORDINATES (ANGSTROEM)
---------------------------------
  C      6.094719    0.168990   -1.511571
  C      4.689277    0.645321   -1.205609
  O      3.972339   -0.454007   -0.605089
  P      2.637173   -0.196472    0.195492
  S      2.727005    1.151360    1.621658
  O      2.444897   -1.693845    0.657834
  C      1.424635   -2.111084    1.586006
  C      0.337195   -2.879635    0.860175
  S      1.211902    0.221819   -1.339421
  C      0.202358    1.432669   -0.439071
  S     -0.857835    0.700421    0.833689
  P     -2.463688    0.141353   -0.466787
  S     -2.032818   -1.100565   -1.914351
  O     -3.011257    1.514043   -1.013982
  C     -3.542403    2.565007   -0.165244
  C     -5.049204    2.458104   -0.056606
  O     -3.602735   -0.340581    0.527182
  C     -3.594236   -1.647061    1.134804
  C     -2.964802   -1.598139    2.513262
  H      6.650079    0.973835   -1.981760
  H      6.595253   -0.126708   -0.594027
  H      6.057171   -0.684795   -2.181725
  H      4.161696    0.942543   -2.116647
  H      4.696356    1.486317   -0.503148
  H      1.939732   -2.750833    2.305524
  H      1.024090   -1.234070    2.107184
  H      0.774942   -3.709578    0.313003
  H     -0.375499   -3.262023    1.583668
  H     -0.183896   -2.242172    0.147416
  H     -0.410422    1.934676   -1.184467
  H      0.860321    2.129994    0.079784
  H     -3.068190    2.502079    0.817719
  H     -3.246404    3.490770   -0.662353
  H     -5.327619    1.533988    0.441931
  H     -5.423351    3.301639    0.515232
  H     -5.495355    2.470116   -1.047330
  H     -4.646399   -1.931997    1.190834
  H     -3.066044   -2.340704    0.472816
  H     -3.504291   -0.898497    3.145145
  H     -3.006901   -2.586717    2.958943
  H     -1.927165   -1.277854    2.448522

 Total Charge           Charge          ....    0
 Multiplicity           Mult            ....    1
 Number of Electrons    NEL             ....  202
 Basis Dimension        Dim             ....  539

ORBITAL ENERGIES
----------------

  NO   OCC          E(Eh)            E(eV)
   0   2.0000     -88.578544     -2410.3447
   1   2.0000     -88.577682     -2410.3213
   2   2.0000     -88.530509     -2409.0376
   3   2.0000     -88.527997     -2408.9693
   4   2.0000     -76.920493     -2093.1130
   5   2.0000     -76.919331     -2093.0814
   6   2.0000     -18.997965      -516.9609
   7   2.0000     -18.997220      -516.9406
   8   2.0000     -18.996547      -516.9223
   9   2.0000     -18.995541      -516.8949
  10   2.0000     -10.104822      -274.9662
  11   2.0000     -10.092246      -274.6240
  12   2.0000     -10.092140      -274.6211
  13   2.0000     -10.091072      -274.5920
  14   2.0000     -10.090980      -274.5895
  15   2.0000     -10.020221      -272.6641
  16   2.0000     -10.019781      -272.6521
  17   2.0000     -10.018464      -272.6163
  18   2.0000     -10.015627      -272.5391
  19   2.0000      -7.872319      -214.2167
  20   2.0000      -7.871851      -214.2040
  21   2.0000      -7.825615      -212.9458
  22   2.0000      -7.823028      -212.8754
  23   2.0000      -6.598901      -179.5652
  24   2.0000      -6.598193      -179.5460
  25   2.0000      -5.819238      -158.3495
  26   2.0000      -5.818613      -158.3325
  27   2.0000      -5.816066      -158.2632
  28   2.0000      -5.815692      -158.2530
  29   2.0000      -5.809627      -158.0880
  30   2.0000      -5.809112      -158.0740
  31   2.0000      -5.773074      -157.0933
  32   2.0000      -5.770694      -157.0286
  33   2.0000      -5.766004      -156.9009
  34   2.0000      -5.765629      -156.8907
  35   2.0000      -5.763346      -156.8286
  36   2.0000      -5.762933      -156.8174
  37   2.0000      -4.744846      -129.1138
  38   2.0000      -4.743934      -129.0890
  39   2.0000      -4.743527      -129.0779
  40   2.0000      -4.743287      -129.0714
  41   2.0000      -4.742166      -129.0409
  42   2.0000      -4.741878      -129.0331
  43   2.0000      -1.058303       -28.7979
  44   2.0000      -1.055903       -28.7326
  45   2.0000      -1.015331       -27.6285
  46   2.0000      -1.014489       -27.6056
  47   2.0000      -0.800620       -21.7860
  48   2.0000      -0.757356       -20.6087
  49   2.0000      -0.748301       -20.3623
  50   2.0000      -0.727739       -19.8028
  51   2.0000      -0.721170       -19.6240
  52   2.0000      -0.709174       -19.2976
  53   2.0000      -0.688235       -18.7278
  54   2.0000      -0.675292       -18.3756
  55   2.0000      -0.627905       -17.0862
  56   2.0000      -0.620428       -16.8827
  57   2.0000      -0.602974       -16.4078
  58   2.0000      -0.591959       -16.1080
  59   2.0000      -0.586894       -15.9702
  60   2.0000      -0.531051       -14.4506
  61   2.0000      -0.524553       -14.2738
  62   2.0000      -0.498292       -13.5592
  63   2.0000      -0.496109       -13.4998
  64   2.0000      -0.479190       -13.0394
  65   2.0000      -0.463381       -12.6092
  66   2.0000      -0.454177       -12.3588
  67   2.0000      -0.450514       -12.2591
  68   2.0000      -0.442470       -12.0402
  69   2.0000      -0.430159       -11.7052
  70   2.0000      -0.418187       -11.3795
  71   2.0000      -0.413622       -11.2552
  72   2.0000      -0.405532       -11.0351
  73   2.0000      -0.400323       -10.8933
  74   2.0000      -0.393984       -10.7209
  75   2.0000      -0.384261       -10.4563
  76   2.0000      -0.376463       -10.2441
  77   2.0000      -0.370643       -10.0857
  78   2.0000      -0.366494        -9.9728
  79   2.0000      -0.363140        -9.8815
  80   2.0000      -0.355875        -9.6838
  81   2.0000      -0.355504        -9.6738
  82   2.0000      -0.351904        -9.5758
  83   2.0000      -0.345731        -9.4078
  84   2.0000      -0.342472        -9.3191
  85   2.0000      -0.334886        -9.1127
  86   2.0000      -0.325801        -8.8655
  87   2.0000      -0.315929        -8.5969
  88   2.0000      -0.306951        -8.3526
  89   2.0000      -0.304573        -8.2878
  90   2.0000      -0.303084        -8.2473
  91   2.0000      -0.288107        -7.8398
  92   2.0000      -0.283985        -7.7276
  93   2.0000      -0.280409        -7.6303
  94   2.0000      -0.276657        -7.5282
  95   2.0000      -0.257026        -6.9940
  96   2.0000      -0.235998        -6.4218
  97   2.0000      -0.234633        -6.3847
  98   2.0000      -0.229777        -6.2526
  99   2.0000      -0.221506        -6.0275
 100   2.0000      -0.215544        -5.8652
 101   0.0000      -0.050284        -1.3683
 102   0.0000      -0.035601        -0.9688
 103   0.0000      -0.009600        -0.2612
 104   0.0000      -0.000653        -0.0178
 105   0.0000       0.000056         0.0015

MULLIKEN ATOMIC CHARGES
-----------------------
   0 C :   -0.479790
   1 C :   -0.138675
   2 O :   -0.336630
   3 P :    0.723210
   4 S :   -0.513098
   5 O :   -0.320095
   6 C :   -0.115014
   7 C :   -0.498929
   8 S :   -0.132333
   9 C :   -0.242927
  10 S :   -0.197267
  11 P :    0.683737
  12 S :   -0.471082
  13 O :   -0.326691
  14 C :   -0.094595
  15 C :   -0.501780
  16 O :   -0.304545
  17 C :   -0.150582
  18 C :   -0.462419
  19 H :    0.169662
  20 H :    0.166269
  21 H :    0.165983
  22 H :    0.172130
  23 H :    0.170666
  24 H :    0.175045
  25 H :    0.165694
  26 H :    0.165664
  27 H :    0.174132
  28 H :    0.173368
  29 H :    0.233363
  30 H :    0.235185
  31 H :    0.175037
  32 H :    0.177727
  33 H :    0.170315
  34 H :    0.171491
  35 H :    0.167053
  36 H :    0.177855
  37 H :    0.172104
  38 H :    0.172447
  39 H :    0.173313
  40 H :    0.155002
Sum of atomic charges:    0.0000000

LOEWDIN ATOMIC CHARGES
----------------------
   0 C :   -0.388527
   1 C :    0.025270
   2 O :   -0.672166
   3 P :    0.381745
   4 S :   -0.159990
   5 O :   -0.662174
   6 C :    0.025676
   7 C :   -0.411485
   8 S :    0.137696
   9 C :   -0.414299
  10 S :    0.119442
  11 P :    0.379201
  12 S :   -0.139093
  13 O :   -0.674618
  14 C :    0.031698
  15 C :   -0.395928
  16 O :   -0.673278
  17 C :    0.028597
  18 C :   -0.401472
  19 H :    0.169165
  20 H :    0.162998
  21 H :    0.163379
  22 H :    0.180160
  23 H :    0.181602
  24 H :    0.187695
  25 H :    0.180473
  26 H :    0.162601
  27 H :    0.169722
  28 H :    0.164877
  29 H :    0.200229
  30 H :    0.199824
  31 H :    0.182584
  32 H :    0.190543
  33 H :    0.165949
  34 H :    0.169091
  35 H :    0.163436
  36 H :    0.190590
  37 H :    0.182642
  38 H :    0.164231
  39 H :    0.170455
  40 H :    0.161457

  Mayer bond orders larger than 0.100000
B(  0-C ,  1-C ) :   0.9552 B(  0-C , 19-H ) :   0.9581 B(  0-C , 20-H ) :   0.9699
B(  0-C , 21-H ) :   0.9688 B(  1-C ,  2-O ) :   0.7738 B(  1-C , 22-H ) :   0.9354
B(  1-C , 23-H ) :   0.9476 B(  2-O ,  3-P ) :   1.1463 B(  3-P ,  4-S ) :   1.7241
B(  3-P ,  5-O ) :   1.1516 B(  3-P ,  8-S ) :   1.0357 B(  5-O ,  6-C ) :   0.7519
B(  6-C ,  7-C ) :   0.9279 B(  6-C , 24-H ) :   0.9548 B(  6-C , 25-H ) :   0.9606
B(  7-C , 26-H ) :   0.9677 B(  7-C , 27-H ) :   0.9584 B(  7-C , 28-H ) :   0.9554
B(  8-S ,  9-C ) :   0.9176 B(  9-C , 10-S ) :   0.8756 B(  9-C , 29-H ) :   0.9061
B(  9-C , 30-H ) :   0.9060 B( 10-S , 11-P ) :   0.9827 B( 11-P , 12-S ) :   1.8528
B( 11-P , 13-O ) :   1.1517 B( 11-P , 16-O ) :   1.0512 B( 13-O , 14-C ) :   0.7439
B( 14-C , 15-C ) :   0.9331 B( 14-C , 31-H ) :   0.9569 B( 14-C , 32-H ) :   0.9499
B( 15-C , 33-H ) :   0.9671 B( 15-C , 34-H ) :   0.9587 B( 15-C , 35-H ) :   0.9695
B( 16-O , 17-C ) :   0.7618 B( 17-C , 18-C ) :   0.9355 B( 17-C , 36-H ) :   0.9545
B( 17-C , 37-H ) :   0.9558 B( 18-C , 38-H ) :   0.9692 B( 18-C , 39-H ) :   0.9594
B( 18-C , 40-H ) :   0.9531

Dispersion correction           -0.021287794
FINAL SINGLE POINT ENERGY     -2932.473497011741

DIPOLE MOMENT
-------------

Method             : SCF
Type of density    : Electron Density
Multiplicity       :   1
Irrep              :   0
Energy             : -2932.4985770781145220 Eh
Relativity type    :
Basis              : AO
                                X                 Y                 Z
Electronic contribution:      5.520583394       2.902028265      -6.929237788
Nuclear contribution   :     -6.682196404      -2.132370007       8.004880279
                        -----------------------------------------
Total Dipole Moment    :     -1.161613010       0.769658259       1.075642492
                        -----------------------------------------
Magnitude (a.u.)       :      1.760319684
Magnitude (Debye)      :      4.474377052

Rotational constants in cm-1:             0.013596             0.004397             0.004107
Rotational constants in MHz :           407.587502           131.806124           123.111051

                             ****ORCA TERMINATED NORMALLY****
TOTAL RUN TIME: 0 days 0 hours 1 minutes 45 seconds 881 msec
