                         Program Version 6.0.0  -   RELEASE  -
|  1> ! r2scan-3c def2/J RI DEFGRID2 scfconv6 printgap
|  2> %output
|  3>     printlevel normal
|  4> end
|  5> * xyz 0 1
|  6> C 0.5035859149 -1.7941278685 2.1832298047
|  7> C 1.8751707253 -1.164077353 2.3136435673
|  8> O 2.2112111144 -0.3493555141 1.1804166842
|  9> P 2.4273536451 -0.9675503592 -0.2752643987
| 10> S 3.1693160009 -2.7788745961 -0.31020716
| 11> O 3.2979831041 0.1624436908 -0.9747161415
| 12> C 4.740190252 0.1273957073 -0.9528442256
| 13> C 5.2915241885 0.3496210155 0.4398239032
| 14> S 0.6172075939 -0.6510095342 -1.3170550992
| 15> C 0.4382071219 1.1383775088 -1.0352630431
| 16> S -0.3410397407 1.5518478481 0.5464431148
| 17> P -2.2786241298 0.912739514 0.0294160963
| 18> S -2.8600859925 1.2577212355 -1.8165794542
| 19> O -3.2102971881 1.5703077416 1.1374202077
| 20> C -3.675520373 2.9320742414 1.0427108899
| 21> C -4.9528985721 3.0488611664 1.8498974772
| 22> O -2.2507255632 -0.5921793367 0.5132157723
| 23> C -3.2097014569 -1.5718774706 0.0524729978
| 24> C -2.6169678267 -2.4095683215 -1.0625243287
| 25> H -0.2612719581 -1.0327002292 2.0513677637
| 26> H 0.4875065865 -2.4614820862 1.3208362845
| 27> H 0.2846908715 -2.3699542562 3.0766958774
| 28> H 2.6382119904 -1.9426433088 2.4156826328
| 29> H 1.9249391099 -0.4750435241 3.1575699269
| 30> H 5.0676555729 -0.8392211724 -1.3481518267
| 31> H 5.0298522629 0.9257967727 -1.6373517517
| 32> H 6.3727777983 0.430911776 0.3887858919
| 33> H 4.8790720306 1.2591493673 0.8687753468
| 34> H 5.030814742 -0.4924653866 1.0794880345
| 35> H -0.1940311065 1.504194131 -1.845077768
| 36> H 1.416208229 1.6087461071 -1.0499442271
| 37> H -2.8924398979 3.5837438616 1.4379725856
| 38> H -3.8454753738 3.1712445234 -0.012625895
| 39> H -5.3008628483 4.0761074078 1.8185273331
| 40> H -5.7189279363 2.3988240928 1.4364308592
| 41> H -4.7667677963 2.762035006 2.8807390854
| 42> H -3.4326510572 -2.1758403927 0.9330795295
| 43> H -4.1155139297 -1.0604826456 -0.2839752059
| 44> H -2.4015808567 -1.7866528066 -1.9283543208
| 45> H -1.6899232262 -2.8725151911 -0.7356572751
| 46> H -3.3249546051 -3.1812521887 -1.346702263
| 47> *
| 48>
| 49>                          ****END OF INPUT****

CARTESIAN COORDINATES (ANGSTROEM)
---------------------------------
  C      0.503586   -1.794128    2.183230
  C      1.875171   -1.164077    2.313644
  O      2.211211   -0.349356    1.180417
  P      2.427354   -0.967550   -0.275264
  S      3.169316   -2.778875   -0.310207
  O      3.297983    0.162444   -0.974716
  C      4.740190    0.127396   -0.952844
  C      5.291524    0.349621    0.439824
  S      0.617208   -0.651010   -1.317055
  C      0.438207    1.138378   -1.035263
  S     -0.341040    1.551848    0.546443
  P     -2.278624    0.912740    0.029416
  S     -2.860086    1.257721   -1.816579
  O     -3.210297    1.570308    1.137420
  C     -3.675520    2.932074    1.042711
  C     -4.952899    3.048861    1.849897
  O     -2.250726   -0.592179    0.513216
  C     -3.209701   -1.571877    0.052473
  C     -2.616968   -2.409568   -1.062524
  H     -0.261272   -1.032700    2.051368
  H      0.487507   -2.461482    1.320836
  H      0.284691   -2.369954    3.076696
  H      2.638212   -1.942643    2.415683
  H      1.924939   -0.475044    3.157570
  H      5.067656   -0.839221   -1.348152
  H      5.029852    0.925797   -1.637352
  H      6.372778    0.430912    0.388786
  H      4.879072    1.259149    0.868775
  H      5.030815   -0.492465    1.079488
  H     -0.194031    1.504194   -1.845078
  H      1.416208    1.608746   -1.049944
  H     -2.892440    3.583744    1.437973
  H     -3.845475    3.171245   -0.012626
  H     -5.300863    4.076107    1.818527
  H     -5.718928    2.398824    1.436431
  H     -4.766768    2.762035    2.880739
  H     -3.432651   -2.175840    0.933080
  H     -4.115514   -1.060483   -0.283975
  H     -2.401581   -1.786653   -1.928354
  H     -1.689923   -2.872515   -0.735657
  H     -3.324955   -3.181252   -1.346702

 Total Charge           Charge          ....    0
 Multiplicity           Mult            ....    1
 Number of Electrons    NEL             ....  202
 Basis Dimension        Dim             ....  539

ORBITAL ENERGIES
----------------

  NO   OCC          E(Eh)            E(eV)
   0   2.0000     -88.579509     -2410.3710
   1   2.0000     -88.573447     -2410.2060
   2   2.0000     -88.524621     -2408.8774
   3   2.0000     -88.522075     -2408.8081
   4   2.0000     -76.917452     -2093.0303
   5   2.0000     -76.914324     -2092.9452
   6   2.0000     -18.995658      -516.8981
   7   2.0000     -18.992804      -516.8205
   8   2.0000     -18.990705      -516.7634
   9   2.0000     -18.989508      -516.7308
  10   2.0000     -10.107668      -275.0436
  11   2.0000     -10.101010      -274.8625
  12   2.0000     -10.100439      -274.8469
  13   2.0000     -10.099443      -274.8198
  14   2.0000     -10.094856      -274.6950
  15   2.0000     -10.035530      -273.0807
  16   2.0000     -10.030541      -272.9449
  17   2.0000     -10.023635      -272.7570
  18   2.0000     -10.020026      -272.6588
  19   2.0000      -7.873947      -214.2610
  20   2.0000      -7.867586      -214.0879
  21   2.0000      -7.819370      -212.7759
  22   2.0000      -7.816687      -212.7029
  23   2.0000      -6.596033      -179.4872
  24   2.0000      -6.592642      -179.3949
  25   2.0000      -5.820769      -158.3912
  26   2.0000      -5.817804      -158.3105
  27   2.0000      -5.814910      -158.2317
  28   2.0000      -5.811200      -158.1308
  29   2.0000      -5.811088      -158.1277
  30   2.0000      -5.804513      -157.9488
  31   2.0000      -5.766944      -156.9265
  32   2.0000      -5.764358      -156.8561
  33   2.0000      -5.759763      -156.7311
  34   2.0000      -5.759337      -156.7195
  35   2.0000      -5.757092      -156.6584
  36   2.0000      -5.756567      -156.6442
  37   2.0000      -4.741468      -129.0219
  38   2.0000      -4.740913      -129.0068
  39   2.0000      -4.739853      -128.9779
  40   2.0000      -4.737986      -128.9271
  41   2.0000      -4.737639      -128.9177
  42   2.0000      -4.736481      -128.8862
  43   2.0000      -1.052690       -28.6452
  44   2.0000      -1.048981       -28.5442
  45   2.0000      -1.013095       -27.5677
  46   2.0000      -1.010325       -27.4924
  47   2.0000      -0.803187       -21.8558
  48   2.0000      -0.761718       -20.7274
  49   2.0000      -0.748995       -20.3812
  50   2.0000      -0.732725       -19.9385
  51   2.0000      -0.728634       -19.8271
  52   2.0000      -0.711372       -19.3574
  53   2.0000      -0.689965       -18.7749
  54   2.0000      -0.670591       -18.2477
  55   2.0000      -0.630979       -17.1698
  56   2.0000      -0.624614       -16.9966
  57   2.0000      -0.606027       -16.4908
  58   2.0000      -0.603931       -16.4338
  59   2.0000      -0.591670       -16.1002
  60   2.0000      -0.534701       -14.5499
  61   2.0000      -0.518047       -14.0968
  62   2.0000      -0.497924       -13.5492
  63   2.0000      -0.490348       -13.3431
  64   2.0000      -0.480599       -13.0778
  65   2.0000      -0.465334       -12.6624
  66   2.0000      -0.456650       -12.4261
  67   2.0000      -0.454355       -12.3636
  68   2.0000      -0.452092       -12.3020
  69   2.0000      -0.430446       -11.7130
  70   2.0000      -0.426156       -11.5963
  71   2.0000      -0.412966       -11.2374
  72   2.0000      -0.411373       -11.1940
  73   2.0000      -0.404256       -11.0004
  74   2.0000      -0.400248       -10.8913
  75   2.0000      -0.395940       -10.7741
  76   2.0000      -0.381622       -10.3845
  77   2.0000      -0.370799       -10.0900
  78   2.0000      -0.369236       -10.0474
  79   2.0000      -0.367243        -9.9932
  80   2.0000      -0.362068        -9.8524
  81   2.0000      -0.360848        -9.8192
  82   2.0000      -0.356297        -9.6953
  83   2.0000      -0.352599        -9.5947
  84   2.0000      -0.343455        -9.3459
  85   2.0000      -0.333724        -9.0811
  86   2.0000      -0.322298        -8.7702
  87   2.0000      -0.317900        -8.6505
  88   2.0000      -0.309727        -8.4281
  89   2.0000      -0.305787        -8.3209
  90   2.0000      -0.302341        -8.2271
  91   2.0000      -0.294882        -8.0241
  92   2.0000      -0.288970        -7.8633
  93   2.0000      -0.282469        -7.6864
  94   2.0000      -0.271548        -7.3892
  95   2.0000      -0.245534        -6.6813
  96   2.0000      -0.230350        -6.2681
  97   2.0000      -0.225038        -6.1236
  98   2.0000      -0.222856        -6.0642
  99   2.0000      -0.219370        -5.9694
 100   2.0000      -0.215863        -5.8739
 101   0.0000      -0.044992        -1.2243
 102   0.0000      -0.023347        -0.6353
 103   0.0000      -0.015372        -0.4183
 104   0.0000       0.005884         0.1601
 105   0.0000       0.008099         0.2204

MULLIKEN ATOMIC CHARGES
-----------------------
   0 C :   -0.458116
   1 C :   -0.140925
   2 O :   -0.267322
   3 P :    0.647073
   4 S :   -0.460800
   5 O :   -0.305289
   6 C :   -0.154248
   7 C :   -0.431962
   8 S :   -0.098052
   9 C :   -0.265768
  10 S :   -0.112911
  11 P :    0.657463
  12 S :   -0.481383
  13 O :   -0.286915
  14 C :   -0.144905
  15 C :   -0.443662
  16 O :   -0.263918
  17 C :   -0.110383
  18 C :   -0.469366
  19 H :    0.179835
  20 H :    0.167180
  21 H :    0.143480
  22 H :    0.162981
  23 H :    0.147407
  24 H :    0.173892
  25 H :    0.148924
  26 H :    0.147894
  27 H :    0.153878
  28 H :    0.167105
  29 H :    0.216685
  30 H :    0.213843
  31 H :    0.149873
  32 H :    0.170193
  33 H :    0.147289
  34 H :    0.156565
  35 H :    0.153829
  36 H :    0.149987
  37 H :    0.154910
  38 H :    0.178889
  39 H :    0.162036
  40 H :    0.144715
Sum of atomic charges:    0.0000000

LOEWDIN ATOMIC CHARGES
----------------------
   0 C :   -0.409513
   1 C :    0.016314
   2 O :   -0.677048
   3 P :    0.370937
   4 S :   -0.110480
   5 O :   -0.693433
   6 C :    0.023781
   7 C :   -0.399536
   8 S :    0.189185
   9 C :   -0.409843
  10 S :    0.175001
  11 P :    0.370837
  12 S :   -0.136236
  13 O :   -0.662521
  14 C :    0.020826
  15 C :   -0.385984
  16 O :   -0.673725
  17 C :    0.026911
  18 C :   -0.402614
  19 H :    0.172781
  20 H :    0.165387
  21 H :    0.157617
  22 H :    0.178373
  23 H :    0.180015
  24 H :    0.180842
  25 H :    0.179582
  26 H :    0.159744
  27 H :    0.160681
  28 H :    0.164812
  29 H :    0.195799
  30 H :    0.195549
  31 H :    0.171350
  32 H :    0.181271
  33 H :    0.160257
  34 H :    0.160603
  35 H :    0.159802
  36 H :    0.178829
  37 H :    0.176745
  38 H :    0.167300
  39 H :    0.161732
  40 H :    0.158069

  Mayer bond orders larger than 0.100000
B(  0-C ,  1-C ) :   0.9283 B(  0-C , 19-H ) :   0.9574 B(  0-C , 20-H ) :   0.9613
B(  0-C , 21-H ) :   0.9610 B(  1-C ,  2-O ) :   0.7941 B(  1-C , 22-H ) :   0.9586
B(  1-C , 23-H ) :   0.9600 B(  2-O ,  3-P ) :   1.0331 B(  3-P ,  4-S ) :   1.8116
B(  3-P ,  5-O ) :   1.1266 B(  3-P ,  8-S ) :   1.0851 B(  5-O ,  6-C ) :   0.8111
B(  6-C ,  7-C ) :   0.9241 B(  6-C , 24-H ) :   0.9662 B(  6-C , 25-H ) :   0.9621
B(  7-C , 26-H ) :   0.9611 B(  7-C , 27-H ) :   0.9703 B(  7-C , 28-H ) :   0.9603
B(  8-S ,  9-C ) :   0.9114 B(  9-C , 10-S ) :   0.9210 B(  9-C , 29-H ) :   0.9077
B(  9-C , 30-H ) :   0.9103 B( 10-S , 11-P ) :   1.0872 B( 11-P , 12-S ) :   1.7507
B( 11-P , 13-O ) :   1.0908 B( 11-P , 16-O ) :   1.1662 B( 13-O , 14-C ) :   0.7747
B( 14-C , 15-C ) :   0.9593 B( 14-C , 31-H ) :   0.9452 B( 14-C , 32-H ) :   0.9509
B( 15-C , 33-H ) :   0.9645 B( 15-C , 34-H ) :   0.9721 B( 15-C , 35-H ) :   0.9715
B( 16-O , 17-C ) :   0.7498 B( 17-C , 18-C ) :   0.9450 B( 17-C , 36-H ) :   0.9599
B( 17-C , 37-H ) :   0.9625 B( 18-C , 38-H ) :   0.9618 B( 18-C , 39-H ) :   0.9692
B( 18-C , 40-H ) :   0.9634

Dispersion correction           -0.021317138
FINAL SINGLE POINT ENERGY     -2932.464211167253

DIPOLE MOMENT
-------------

Method             : SCF
Type of density    : Electron Density
Multiplicity       :   1
Irrep              :   0
Energy             : -2932.4894626665545729 Eh
Relativity type    :
Basis              : AO
                                X                 Y                 Z
Electronic contribution:      4.431944986      -0.126961238     -11.020725633
Nuclear contribution   :     -4.664235402       1.045434097      12.225277008
                        -----------------------------------------
Total Dipole Moment    :     -0.232290417       0.918472858       1.204551375
                        -----------------------------------------
Magnitude (a.u.)       :      1.532480096
Magnitude (Debye)      :      3.895254843

Rotational constants in cm-1:             0.014053             0.004346             0.004143
Rotational constants in MHz :           421.293177           130.293266           124.200112

                             ****ORCA TERMINATED NORMALLY****
TOTAL RUN TIME: 0 days 0 hours 1 minutes 22 seconds 233 msec
