                         Program Version 6.0.0  -   RELEASE  -
|  1> ! r2scan-3c def2/J RI DEFGRID2 scfconv6 printgap
|  2> %output
|  3>     printlevel normal
|  4> end
|  5> %cpcm
|  6>     smd true
|  7>     smdsolvent "water"
|  8> end
|  9> * xyz 0 1
| 10> C 0.5035859149 -1.7941278685 2.1832298047
| 11> C 1.8751707253 -1.164077353 2.3136435673
| 12> O 2.2112111144 -0.3493555141 1.1804166842
| 13> P 2.4273536451 -0.9675503592 -0.2752643987
| 14> S 3.1693160009 -2.7788745961 -0.31020716
| 15> O 3.2979831041 0.1624436908 -0.9747161415
| 16> C 4.740190252 0.1273957073 -0.9528442256
| 17> C 5.2915241885 0.3496210155 0.4398239032
| 18> S 0.6172075939 -0.6510095342 -1.3170550992
| 19> C 0.4382071219 1.1383775088 -1.0352630431
| 20> S -0.3410397407 1.5518478481 0.5464431148
| 21> P -2.2786241298 0.912739514 0.0294160963
| 22> S -2.8600859925 1.2577212355 -1.8165794542
| 23> O -3.2102971881 1.5703077416 1.1374202077
| 24> C -3.675520373 2.9320742414 1.0427108899
| 25> C -4.9528985721 3.0488611664 1.8498974772
| 26> O -2.2507255632 -0.5921793367 0.5132157723
| 27> C -3.2097014569 -1.5718774706 0.0524729978
| 28> C -2.6169678267 -2.4095683215 -1.0625243287
| 29> H -0.2612719581 -1.0327002292 2.0513677637
| 30> H 0.4875065865 -2.4614820862 1.3208362845
| 31> H 0.2846908715 -2.3699542562 3.0766958774
| 32> H 2.6382119904 -1.9426433088 2.4156826328
| 33> H 1.9249391099 -0.4750435241 3.1575699269
| 34> H 5.0676555729 -0.8392211724 -1.3481518267
| 35> H 5.0298522629 0.9257967727 -1.6373517517
| 36> H 6.3727777983 0.430911776 0.3887858919
| 37> H 4.8790720306 1.2591493673 0.8687753468
| 38> H 5.030814742 -0.4924653866 1.0794880345
| 39> H -0.1940311065 1.504194131 -1.845077768
| 40> H 1.416208229 1.6087461071 -1.0499442271
| 41> H -2.8924398979 3.5837438616 1.4379725856
| 42> H -3.8454753738 3.1712445234 -0.012625895
| 43> H -5.3008628483 4.0761074078 1.8185273331
| 44> H -5.7189279363 2.3988240928 1.4364308592
| 45> H -4.7667677963 2.762035006 2.8807390854
| 46> H -3.4326510572 -2.1758403927 0.9330795295
| 47> H -4.1155139297 -1.0604826456 -0.2839752059
| 48> H -2.4015808567 -1.7866528066 -1.9283543208
| 49> H -1.6899232262 -2.8725151911 -0.7356572751
| 50> H -3.3249546051 -3.1812521887 -1.346702263
| 51> *
| 52>
| 53>                          ****END OF INPUT****

CARTESIAN COORDINATES (ANGSTROEM)
---------------------------------
  C      0.503586   -1.794128    2.183230
  C      1.875171   -1.164077    2.313644
  O      2.211211   -0.349356    1.180417
  P      2.427354   -0.967550   -0.275264
  S      3.169316   -2.778875   -0.310207
  O      3.297983    0.162444   -0.974716
  C      4.740190    0.127396   -0.952844
  C      5.291524    0.349621    0.439824
  S      0.617208   -0.651010   -1.317055
  C      0.438207    1.138378   -1.035263
  S     -0.341040    1.551848    0.546443
  P     -2.278624    0.912740    0.029416
  S     -2.860086    1.257721   -1.816579
  O     -3.210297    1.570308    1.137420
  C     -3.675520    2.932074    1.042711
  C     -4.952899    3.048861    1.849897
  O     -2.250726   -0.592179    0.513216
  C     -3.209701   -1.571877    0.052473
  C     -2.616968   -2.409568   -1.062524
  H     -0.261272   -1.032700    2.051368
  H      0.487507   -2.461482    1.320836
  H      0.284691   -2.369954    3.076696
  H      2.638212   -1.942643    2.415683
  H      1.924939   -0.475044    3.157570
  H      5.067656   -0.839221   -1.348152
  H      5.029852    0.925797   -1.637352
  H      6.372778    0.430912    0.388786
  H      4.879072    1.259149    0.868775
  H      5.030815   -0.492465    1.079488
  H     -0.194031    1.504194   -1.845078
  H      1.416208    1.608746   -1.049944
  H     -2.892440    3.583744    1.437973
  H     -3.845475    3.171245   -0.012626
  H     -5.300863    4.076107    1.818527
  H     -5.718928    2.398824    1.436431
  H     -4.766768    2.762035    2.880739
  H     -3.432651   -2.175840    0.933080
  H     -4.115514   -1.060483   -0.283975
  H     -2.401581   -1.786653   -1.928354
  H     -1.689923   -2.872515   -0.735657
  H     -3.324955   -3.181252   -1.346702

 Total Charge           Charge          ....    0
 Multiplicity           Mult            ....    1
 Number of Electrons    NEL             ....  202
 Basis Dimension        Dim             ....  539

ORBITAL ENERGIES
----------------

  NO   OCC          E(Eh)            E(eV)
   0   2.0000     -88.581617     -2410.4284
   1   2.0000     -88.578354     -2410.3395
   2   2.0000     -88.530917     -2409.0487
   3   2.0000     -88.529477     -2409.0095
   4   2.0000     -76.920172     -2093.1043
   5   2.0000     -76.919895     -2093.0968
   6   2.0000     -18.995717      -516.8997
   7   2.0000     -18.993655      -516.8436
   8   2.0000     -18.992253      -516.8055
   9   2.0000     -18.992030      -516.7994
  10   2.0000     -10.106498      -275.0118
  11   2.0000     -10.090922      -274.5880
  12   2.0000     -10.089612      -274.5523
  13   2.0000     -10.089532      -274.5501
  14   2.0000     -10.088128      -274.5119
  15   2.0000     -10.019505      -272.6446
  16   2.0000     -10.018618      -272.6205
  17   2.0000     -10.016369      -272.5593
  18   2.0000     -10.015453      -272.5343
  19   2.0000      -7.876018      -214.3173
  20   2.0000      -7.872588      -214.2240
  21   2.0000      -7.825880      -212.9530
  22   2.0000      -7.824508      -212.9157
  23   2.0000      -6.598792      -179.5623
  24   2.0000      -6.598264      -179.5479
  25   2.0000      -5.822839      -158.4475
  26   2.0000      -5.819870      -158.3667
  27   2.0000      -5.819848      -158.3661
  28   2.0000      -5.816132      -158.2650
  29   2.0000      -5.813178      -158.1846
  30   2.0000      -5.809642      -158.0884
  31   2.0000      -5.773457      -157.1038
  32   2.0000      -5.772024      -157.0648
  33   2.0000      -5.766253      -156.9077
  34   2.0000      -5.765820      -156.8959
  35   2.0000      -5.764895      -156.8708
  36   2.0000      -5.764486      -156.8596
  37   2.0000      -4.744183      -129.0958
  38   2.0000      -4.743674      -129.0819
  39   2.0000      -4.743550      -129.0786
  40   2.0000      -4.743243      -129.0702
  41   2.0000      -4.742681      -129.0549
  42   2.0000      -4.742215      -129.0422
  43   2.0000      -1.052893       -28.6507
  44   2.0000      -1.050633       -28.5892
  45   2.0000      -1.012628       -27.5550
  46   2.0000      -1.011426       -27.5223
  47   2.0000      -0.804377       -21.8882
  48   2.0000      -0.758291       -20.6341
  49   2.0000      -0.743008       -20.2183
  50   2.0000      -0.723188       -19.6789
  51   2.0000      -0.722158       -19.6509
  52   2.0000      -0.710306       -19.3284
  53   2.0000      -0.693370       -18.8676
  54   2.0000      -0.675743       -18.3879
  55   2.0000      -0.629482       -17.1291
  56   2.0000      -0.620399       -16.8819
  57   2.0000      -0.599110       -16.3026
  58   2.0000      -0.596677       -16.2364
  59   2.0000      -0.589731       -16.0474
  60   2.0000      -0.529411       -14.4060
  61   2.0000      -0.514609       -14.0032
  62   2.0000      -0.493357       -13.4249
  63   2.0000      -0.487907       -13.2766
  64   2.0000      -0.478965       -13.0333
  65   2.0000      -0.459760       -12.5107
  66   2.0000      -0.455011       -12.3815
  67   2.0000      -0.449223       -12.2240
  68   2.0000      -0.445508       -12.1229
  69   2.0000      -0.428631       -11.6636
  70   2.0000      -0.423135       -11.5141
  71   2.0000      -0.410973       -11.1831
  72   2.0000      -0.406520       -11.0620
  73   2.0000      -0.400433       -10.8963
  74   2.0000      -0.396420       -10.7871
  75   2.0000      -0.390600       -10.6288
  76   2.0000      -0.380569       -10.3558
  77   2.0000      -0.365172        -9.9368
  78   2.0000      -0.363250        -9.8845
  79   2.0000      -0.358446        -9.7538
  80   2.0000      -0.355091        -9.6625
  81   2.0000      -0.352560        -9.5937
  82   2.0000      -0.349990        -9.5237
  83   2.0000      -0.346025        -9.4158
  84   2.0000      -0.341687        -9.2978
  85   2.0000      -0.331242        -9.0136
  86   2.0000      -0.319305        -8.6887
  87   2.0000      -0.312252        -8.4968
  88   2.0000      -0.305794        -8.3211
  89   2.0000      -0.302544        -8.2327
  90   2.0000      -0.300482        -8.1765
  91   2.0000      -0.292871        -7.9694
  92   2.0000      -0.287189        -7.8148
  93   2.0000      -0.280380        -7.6295
  94   2.0000      -0.271838        -7.3971
  95   2.0000      -0.248431        -6.7602
  96   2.0000      -0.236933        -6.4473
  97   2.0000      -0.232409        -6.3242
  98   2.0000      -0.230325        -6.2675
  99   2.0000      -0.226884        -6.1738
 100   2.0000      -0.221995        -6.0408
 101   0.0000      -0.048091        -1.3086
 102   0.0000      -0.029372        -0.7993
 103   0.0000      -0.019271        -0.5244
 104   0.0000       0.002508         0.0682
 105   0.0000       0.005824         0.1585

MULLIKEN ATOMIC CHARGES
-----------------------
   0 C :   -0.489343
   1 C :   -0.142028
   2 O :   -0.282653
   3 P :    0.675631
   4 S :   -0.515853
   5 O :   -0.326650
   6 C :   -0.146183
   7 C :   -0.474737
   8 S :   -0.128079
   9 C :   -0.273378
  10 S :   -0.115348
  11 P :    0.686393
  12 S :   -0.527843
  13 O :   -0.312924
  14 C :   -0.138588
  15 C :   -0.485315
  16 O :   -0.286557
  17 C :   -0.113940
  18 C :   -0.502720
  19 H :    0.175308
  20 H :    0.167612
  21 H :    0.170726
  22 H :    0.171759
  23 H :    0.175699
  24 H :    0.176290
  25 H :    0.175460
  26 H :    0.172359
  27 H :    0.168861
  28 H :    0.168295
  29 H :    0.231521
  30 H :    0.245818
  31 H :    0.171927
  32 H :    0.170720
  33 H :    0.169648
  34 H :    0.166410
  35 H :    0.165719
  36 H :    0.176467
  37 H :    0.170906
  38 H :    0.171062
  39 H :    0.168049
  40 H :    0.169501
Sum of atomic charges:    0.0000000

LOEWDIN ATOMIC CHARGES
----------------------
   0 C :   -0.412524
   1 C :    0.021604
   2 O :   -0.682346
   3 P :    0.374536
   4 S :   -0.147972
   5 O :   -0.700304
   6 C :    0.028553
   7 C :   -0.402785
   8 S :    0.171950
   9 C :   -0.402781
  10 S :    0.176018
  11 P :    0.375574
  12 S :   -0.165828
  13 O :   -0.674663
  14 C :    0.025352
  15 C :   -0.390102
  16 O :   -0.685123
  17 C :    0.031862
  18 C :   -0.407347
  19 H :    0.169714
  20 H :    0.162513
  21 H :    0.167198
  22 H :    0.181631
  23 H :    0.191126
  24 H :    0.181281
  25 H :    0.190823
  26 H :    0.168881
  27 H :    0.164355
  28 H :    0.162685
  29 H :    0.200468
  30 H :    0.206720
  31 H :    0.180157
  32 H :    0.181820
  33 H :    0.168962
  34 H :    0.162469
  35 H :    0.163055
  36 H :    0.189818
  37 H :    0.181933
  38 H :    0.161952
  39 H :    0.162139
  40 H :    0.166624

  Mayer bond orders larger than 0.100000
B(  0-C ,  1-C ) :   0.9149 B(  0-C , 19-H ) :   0.9582 B(  0-C , 20-H ) :   0.9631
B(  0-C , 21-H ) :   0.9560 B(  1-C ,  2-O ) :   0.7826 B(  1-C , 22-H ) :   0.9570
B(  1-C , 23-H ) :   0.9510 B(  2-O ,  3-P ) :   1.0403 B(  3-P ,  4-S ) :   1.7752
B(  3-P ,  5-O ) :   1.1352 B(  3-P ,  8-S ) :   1.0979 B(  5-O ,  6-C ) :   0.7996
B(  6-C ,  7-C ) :   0.9128 B(  6-C , 24-H ) :   0.9627 B(  6-C , 25-H ) :   0.9516
B(  7-C , 26-H ) :   0.9551 B(  7-C , 27-H ) :   0.9694 B(  7-C , 28-H ) :   0.9595
B(  8-S ,  9-C ) :   0.9058 B(  9-C , 10-S ) :   0.9185 B(  9-C , 29-H ) :   0.9028
B(  9-C , 30-H ) :   0.8984 B( 10-S , 11-P ) :   1.1022 B( 11-P , 12-S ) :   1.7117
B( 11-P , 13-O ) :   1.0971 B( 11-P , 16-O ) :   1.1714 B( 13-O , 14-C ) :   0.7673
B( 14-C , 15-C ) :   0.9542 B( 14-C , 31-H ) :   0.9364 B( 14-C , 32-H ) :   0.9483
B( 15-C , 33-H ) :   0.9587 B( 15-C , 34-H ) :   0.9698 B( 15-C , 35-H ) :   0.9688
B( 16-O , 17-C ) :   0.7383 B( 17-C , 18-C ) :   0.9314 B( 17-C , 36-H ) :   0.9505
B( 17-C , 37-H ) :   0.9602 B( 18-C , 38-H ) :   0.9648 B( 18-C , 39-H ) :   0.9676
B( 18-C , 40-H ) :   0.9593

Dispersion correction           -0.021317138
FINAL SINGLE POINT ENERGY     -2932.472138649805

DIPOLE MOMENT
-------------

Method             : SCF
Type of density    : Electron Density
Multiplicity       :   1
Irrep              :   0
Energy             : -2932.4973901491066499 Eh
Relativity type    :
Basis              : AO
                                X                 Y                 Z
Electronic contribution:      4.460302263       0.281593224     -10.579241178
Nuclear contribution   :     -4.664235402       1.045434097      12.225277008
                        -----------------------------------------
Total Dipole Moment    :     -0.203933139       1.327027321       1.646035830
                        -----------------------------------------
Magnitude (a.u.)       :      2.124152582
Magnitude (Debye)      :      5.399166784

Rotational constants in cm-1:             0.014053             0.004346             0.004143
Rotational constants in MHz :           421.293177           130.293266           124.200112

                             ****ORCA TERMINATED NORMALLY****
TOTAL RUN TIME: 0 days 0 hours 1 minutes 47 seconds 682 msec
