                         Program Version 6.0.0  -   RELEASE  -
|  1> ! pbe def2-sv(p) def2/J RI DEFGRID1 loosescf d4 GCP(DFT/SV(P)) printgap
|  2> %output
|  3>     printlevel normal
|  4> end
|  5> * xyz 0 1
|  6> C 4.6201058237 -1.6167233825 -0.7068450056
|  7> C 4.6670621687 -0.1628319487 -0.2827712681
|  8> O 3.5025902571 0.2248144663 0.4658139335
|  9> P 2.0569896732 0.3337915858 -0.1901389179
| 10> S 2.0528524192 1.0192184846 -2.0300106453
| 11> O 1.2859926101 1.1619864654 0.9189782657
| 12> C 1.2467903073 2.6011463677 0.9263057605
| 13> C 2.610242022 3.2097993809 1.1733695025
| 14> S 1.2522549169 -1.5785970413 0.148766422
| 15> C 0.0366233163 -1.6973794629 -1.2124220056
| 16> S -1.6360942822 -2.0039556865 -0.6133961854
| 17> P -2.0237776343 -0.0692195548 0.1813516231
| 18> S -1.4027956725 1.4123186164 -0.9424112324
| 19> O -1.3947299184 0.021557912 1.6191437394
| 20> C -1.3369230476 -1.0247749942 2.6235704018
| 21> C -2.6813401528 -1.6525454372 2.9175721597
| 22> O -3.5801595107 -0.1164494762 0.4843016187
| 23> C -4.5885343394 -0.2555030996 -0.5360556
| 24> C -5.0385621596 1.0957302673 -1.0564022037
| 25> H 5.5719042907 -1.8909077797 -1.1503067905
| 26> H 4.4219653895 -2.2549506504 0.1505408111
| 27> H 3.8325701054 -1.762804582 -1.4448989742
| 28> H 4.7460433032 0.4886611952 -1.1591208635
| 29> H 5.4936064272 0.0310664432 0.4021073083
| 30> H 0.8322424065 2.939527735 -0.0295986621
| 31> H 0.5412841709 2.8348632596 1.7254741032
| 32> H 3.0508481371 2.7893841576 2.0736809446
| 33> H 3.2663328276 3.0048408446 0.3281579325
| 34> H 2.5057799466 4.2844561537 1.2857021272
| 35> H 0.3009317772 -2.5534269345 -1.8274476116
| 36> H 0.0640271911 -0.7690306348 -1.7901655894
| 37> H -0.6177476913 -1.7766159458 2.2855734335
| 38> H -0.9358269025 -0.5027653966 3.4937240966
| 39> H -2.5735938738 -2.3243592207 3.763735261
| 40> H -3.4119583791 -0.8847512105 3.1581431249
| 41> H -3.0328226732 -2.2206753032 2.0589834977
| 42> H -4.1983255823 -0.8787906117 -1.3449148812
| 43> H -5.4064433685 -0.7773073042 -0.0354997289
| 44> H -5.8395636257 0.9542154819 -1.7747433866
| 45> H -5.3948977182 1.7128111776 -0.2362154773
| 46> H -4.2117873816 1.6088632028 -1.5430180614
| 47> *
| 48>
| 49>                          ****END OF INPUT****

CARTESIAN COORDINATES (ANGSTROEM)
---------------------------------
  C      4.620106   -1.616723   -0.706845
  C      4.667062   -0.162832   -0.282771
  O      3.502590    0.224814    0.465814
  P      2.056990    0.333792   -0.190139
  S      2.052852    1.019218   -2.030011
  O      1.285993    1.161986    0.918978
  C      1.246790    2.601146    0.926306
  C      2.610242    3.209799    1.173370
  S      1.252255   -1.578597    0.148766
  C      0.036623   -1.697379   -1.212422
  S     -1.636094   -2.003956   -0.613396
  P     -2.023778   -0.069220    0.181352
  S     -1.402796    1.412319   -0.942411
  O     -1.394730    0.021558    1.619144
  C     -1.336923   -1.024775    2.623570
  C     -2.681340   -1.652545    2.917572
  O     -3.580160   -0.116449    0.484302
  C     -4.588534   -0.255503   -0.536056
  C     -5.038562    1.095730   -1.056402
  H      5.571904   -1.890908   -1.150307
  H      4.421965   -2.254951    0.150541
  H      3.832570   -1.762805   -1.444899
  H      4.746043    0.488661   -1.159121
  H      5.493606    0.031066    0.402107
  H      0.832242    2.939528   -0.029599
  H      0.541284    2.834863    1.725474
  H      3.050848    2.789384    2.073681
  H      3.266333    3.004841    0.328158
  H      2.505780    4.284456    1.285702
  H      0.300932   -2.553427   -1.827448
  H      0.064027   -0.769031   -1.790166
  H     -0.617748   -1.776616    2.285573
  H     -0.935827   -0.502765    3.493724
  H     -2.573594   -2.324359    3.763735
  H     -3.411958   -0.884751    3.158143
  H     -3.032823   -2.220675    2.058983
  H     -4.198326   -0.878791   -1.344915
  H     -5.406443   -0.777307   -0.035500
  H     -5.839564    0.954215   -1.774743
  H     -5.394898    1.712811   -0.236215
  H     -4.211787    1.608863   -1.543018

 Total Charge           Charge          ....    0
 Multiplicity           Mult            ....    1
 Number of Electrons    NEL             ....  202
 Basis Dimension        Dim             ....  334

ORBITAL ENERGIES
----------------

  NO   OCC          E(Eh)            E(eV)
   0   2.0000     -88.046577     -2395.8692
   1   2.0000     -88.041804     -2395.7393
   2   2.0000     -87.982900     -2394.1364
   3   2.0000     -87.977995     -2394.0030
   4   2.0000     -76.424726     -2079.6225
   5   2.0000     -76.420941     -2079.5195
   6   2.0000     -18.793975      -511.4101
   7   2.0000     -18.788870      -511.2711
   8   2.0000     -18.788406      -511.2585
   9   2.0000     -18.778385      -510.9858
  10   2.0000      -9.956357      -270.9262
  11   2.0000      -9.955966      -270.9156
  12   2.0000      -9.952198      -270.8131
  13   2.0000      -9.948743      -270.7191
  14   2.0000      -9.937545      -270.4143
  15   2.0000      -9.886601      -269.0281
  16   2.0000      -9.881545      -268.8905
  17   2.0000      -9.879620      -268.8381
  18   2.0000      -9.875333      -268.7215
  19   2.0000      -7.691591      -209.2988
  20   2.0000      -7.686855      -209.1700
  21   2.0000      -7.627787      -207.5626
  22   2.0000      -7.622909      -207.4299
  23   2.0000      -6.421959      -174.7504
  24   2.0000      -6.418491      -174.6560
  25   2.0000      -5.719343      -155.6312
  26   2.0000      -5.715853      -155.5363
  27   2.0000      -5.714709      -155.5051
  28   2.0000      -5.711387      -155.4147
  29   2.0000      -5.708961      -155.3487
  30   2.0000      -5.703748      -155.2069
  31   2.0000      -5.656672      -153.9259
  32   2.0000      -5.651904      -153.7961
  33   2.0000      -5.648615      -153.7066
  34   2.0000      -5.647811      -153.6848
  35   2.0000      -5.643437      -153.5657
  36   2.0000      -5.643029      -153.5546
  37   2.0000      -4.644683      -126.3883
  38   2.0000      -4.644076      -126.3717
  39   2.0000      -4.641989      -126.3149
  40   2.0000      -4.640733      -126.2808
  41   2.0000      -4.640110      -126.2638
  42   2.0000      -4.639405      -126.2446
  43   2.0000      -0.986419       -26.8418
  44   2.0000      -0.979805       -26.6619
  45   2.0000      -0.944145       -25.6915
  46   2.0000      -0.937026       -25.4978
  47   2.0000      -0.763087       -20.7646
  48   2.0000      -0.719067       -19.5668
  49   2.0000      -0.706907       -19.2359
  50   2.0000      -0.690001       -18.7759
  51   2.0000      -0.682513       -18.5721
  52   2.0000      -0.672106       -18.2889
  53   2.0000      -0.648592       -17.6491
  54   2.0000      -0.632533       -17.2121
  55   2.0000      -0.598052       -16.2738
  56   2.0000      -0.589094       -16.0301
  57   2.0000      -0.573047       -15.5934
  58   2.0000      -0.566846       -15.4247
  59   2.0000      -0.563201       -15.3255
  60   2.0000      -0.498966       -13.5775
  61   2.0000      -0.485810       -13.2196
  62   2.0000      -0.473680       -12.8895
  63   2.0000      -0.465245       -12.6600
  64   2.0000      -0.447758       -12.1841
  65   2.0000      -0.445356       -12.1187
  66   2.0000      -0.440656       -11.9909
  67   2.0000      -0.434540       -11.8244
  68   2.0000      -0.429385       -11.6842
  69   2.0000      -0.413279       -11.2459
  70   2.0000      -0.402642       -10.9565
  71   2.0000      -0.398822       -10.8525
  72   2.0000      -0.392374       -10.6770
  73   2.0000      -0.385484       -10.4895
  74   2.0000      -0.383773       -10.4430
  75   2.0000      -0.377172       -10.2634
  76   2.0000      -0.358523        -9.7559
  77   2.0000      -0.353566        -9.6210
  78   2.0000      -0.350602        -9.5404
  79   2.0000      -0.349690        -9.5155
  80   2.0000      -0.346434        -9.4269
  81   2.0000      -0.342608        -9.3228
  82   2.0000      -0.335915        -9.1407
  83   2.0000      -0.332568        -9.0496
  84   2.0000      -0.330969        -9.0061
  85   2.0000      -0.317462        -8.6386
  86   2.0000      -0.308020        -8.3817
  87   2.0000      -0.295620        -8.0442
  88   2.0000      -0.291542        -7.9333
  89   2.0000      -0.288362        -7.8467
  90   2.0000      -0.274546        -7.4708
  91   2.0000      -0.271142        -7.3781
  92   2.0000      -0.263908        -7.1813
  93   2.0000      -0.263275        -7.1641
  94   2.0000      -0.257513        -7.0073
  95   2.0000      -0.239213        -6.5093
  96   2.0000      -0.220080        -5.9887
  97   2.0000      -0.212052        -5.7702
  98   2.0000      -0.201795        -5.4911
  99   2.0000      -0.192263        -5.2317
 100   2.0000      -0.183563        -4.9950
 101   0.0000      -0.040872        -1.1122
 102   0.0000      -0.030821        -0.8387
 103   0.0000      -0.010975        -0.2986
 104   0.0000       0.014623         0.3979
 105   0.0000       0.023118         0.6291

MULLIKEN ATOMIC CHARGES
-----------------------
   0 C :   -0.308991
   1 C :   -0.003619
   2 O :   -0.374983
   3 P :    0.615274
   4 S :   -0.318993
   5 O :   -0.354476
   6 C :   -0.001009
   7 C :   -0.302155
   8 S :   -0.097934
   9 C :   -0.353111
  10 S :   -0.116188
  11 P :    0.595896
  12 S :   -0.300410
  13 O :   -0.348928
  14 C :    0.000950
  15 C :   -0.308075
  16 O :   -0.372111
  17 C :   -0.015183
  18 C :   -0.291596
  19 H :    0.111049
  20 H :    0.116218
  21 H :    0.120566
  22 H :    0.109244
  23 H :    0.103270
  24 H :    0.121525
  25 H :    0.101810
  26 H :    0.111926
  27 H :    0.119006
  28 H :    0.108965
  29 H :    0.182675
  30 H :    0.213787
  31 H :    0.115273
  32 H :    0.107870
  33 H :    0.112756
  34 H :    0.121810
  35 H :    0.115103
  36 H :    0.105391
  37 H :    0.105284
  38 H :    0.106544
  39 H :    0.113422
  40 H :    0.132146
Sum of atomic charges:    0.0000000

LOEWDIN ATOMIC CHARGES
----------------------
   0 C :   -0.369206
   1 C :   -0.120356
   2 O :   -0.245538
   3 P :    0.571711
   4 S :   -0.312150
   5 O :   -0.232416
   6 C :   -0.118681
   7 C :   -0.366061
   8 S :    0.089728
   9 C :   -0.477631
  10 S :    0.065050
  11 P :    0.562672
  12 S :   -0.289380
  13 O :   -0.226897
  14 C :   -0.112607
  15 C :   -0.367532
  16 O :   -0.242491
  17 C :   -0.116020
  18 C :   -0.363905
  19 H :    0.129795
  20 H :    0.123265
  21 H :    0.119587
  22 H :    0.109289
  23 H :    0.117665
  24 H :    0.109185
  25 H :    0.118516
  26 H :    0.123811
  27 H :    0.120624
  28 H :    0.128951
  29 H :    0.136778
  30 H :    0.127829
  31 H :    0.103777
  32 H :    0.122388
  33 H :    0.131015
  34 H :    0.127816
  35 H :    0.116878
  36 H :    0.106513
  37 H :    0.117823
  38 H :    0.128431
  39 H :    0.126331
  40 H :    0.125443

  Mayer bond orders larger than 0.100000
B(  0-C ,  1-C ) :   1.1675 B(  0-C , 19-H ) :   0.9382 B(  0-C , 20-H ) :   0.9441
B(  0-C , 21-H ) :   0.9369 B(  1-C ,  2-O ) :   0.9126 B(  1-C , 22-H ) :   0.9140
B(  1-C , 23-H ) :   0.9340 B(  2-O ,  3-P ) :   1.0957 B(  3-P ,  4-S ) :   1.5960
B(  3-P ,  5-O ) :   1.1491 B(  3-P ,  8-S ) :   0.9567 B(  4-S ,  8-S ) :   0.1134
B(  5-O ,  6-C ) :   0.9039 B(  6-C ,  7-C ) :   1.1571 B(  6-C , 24-H ) :   0.9139
B(  6-C , 25-H ) :   0.9361 B(  7-C , 26-H ) :   0.9448 B(  7-C , 27-H ) :   0.9377
B(  7-C , 28-H ) :   0.9393 B(  8-S ,  9-C ) :   0.9916 B(  9-C , 10-S ) :   1.0081
B(  9-C , 29-H ) :   0.9108 B(  9-C , 30-H ) :   0.8456 B( 10-S , 11-P ) :   0.9333
B( 10-S , 12-S ) :   0.1067 B( 11-P , 12-S ) :   1.6459 B( 11-P , 13-O ) :   1.1542
B( 11-P , 16-O ) :   1.0901 B( 13-O , 14-C ) :   0.8969 B( 14-C , 15-C ) :   1.1686
B( 14-C , 31-H ) :   0.9113 B( 14-C , 32-H ) :   0.9358 B( 15-C , 33-H ) :   0.9357
B( 15-C , 34-H ) :   0.9424 B( 15-C , 35-H ) :   0.9399 B( 16-O , 17-C ) :   0.9065
B( 17-C , 18-C ) :   1.1688 B( 17-C , 36-H ) :   0.9163 B( 17-C , 37-H ) :   0.9356
B( 18-C , 38-H ) :   0.9386 B( 18-C , 39-H ) :   0.9474 B( 18-C , 40-H ) :   0.9290

Dispersion correction           -0.068152334
FINAL SINGLE POINT ENERGY     -2929.518821635801

DIPOLE MOMENT
-------------

Method             : SCF
Type of density    : Electron Density
Multiplicity       :   1
Irrep              :   0
Energy             : -2929.6366789343683195 Eh
Relativity type    :
Basis              : AO
                                X                 Y                 Z
Electronic contribution:      0.731842627      -2.608115788      -7.097133315
Nuclear contribution   :     -0.974026157       1.741469414       8.030166780
                        -----------------------------------------
Total Dipole Moment    :     -0.242183530      -0.866646374       0.933033465
                        -----------------------------------------
Magnitude (a.u.)       :      1.296256242
Magnitude (Debye)      :      3.294821524

Rotational constants in cm-1:             0.013023             0.005240             0.004936
Rotational constants in MHz :           390.412626           157.102057           147.969285

                             ****ORCA TERMINATED NORMALLY****
TOTAL RUN TIME: 0 days 0 hours 0 minutes 21 seconds 648 msec
