                         Program Version 6.0.1  -  RELEASE   -
|  1> ! pbe def2-sv(p) def2/J RI DEFGRID1 loosescf d4 GCP(DFT/SV(P)) printgap
|  2> %output
|  3>     printlevel normal
|  4> end
|  5> * xyz 0 1
|  6> C 1.772459097 -3.8244004122 0.1347062529
|  7> C 2.6317474439 -2.5766697419 0.2191752623
|  8> O 2.2858822326 -1.7093824183 -0.8779410864
|  9> C 2.1230178077 -0.4252807511 -0.6748492613
| 10> O 2.2650342073 0.1466926019 0.3889113535
| 11> C 1.7114562486 0.3048174589 -1.9402898943
| 12> C 0.3946713293 1.0434724356 -1.6848129666
| 13> H 0.1973097539 1.7476439587 -2.4962835484
| 14> C 0.441704181 1.7904019123 -0.3673754175
| 15> O -0.3325686277 1.5397533527 0.5444449832
| 16> O 1.3309951789 2.7320743368 -0.3505068363
| 17> C 1.5287664182 3.4604856032 0.882173809
| 18> C 2.4611610421 4.6184684315 0.5916849553
| 19> S -1.0319847141 -0.0947839367 -1.6561184659
| 20> P -1.4847400324 -0.504321267 0.3765340721
| 21> S -0.3425617094 -1.0954612102 1.8535960819
| 22> O -2.6622949672 0.444909808 0.9049941707
| 23> C -3.7111726323 0.9083029087 0.0396820231
| 24> O -2.3142888975 -1.7933517139 -0.1967735355
| 25> C -2.9829624084 -2.6942149283 0.6822489448
| 26> H 0.7269500071 -3.5626266439 0.2821836213
| 27> H 1.8891148107 -4.2923848909 -0.8379661241
| 28> H 2.0719671824 -4.5178398395 0.9129297622
| 29> H 3.6929789112 -2.8140522882 0.1113663948
| 30> H 2.4644060427 -2.0400059203 1.1579695799
| 31> H 1.5945167593 -0.4039203647 -2.7579207233
| 32> H 2.4857994852 1.0366322439 -2.1770938568
| 33> H 0.5529684292 3.7944813105 1.2473728212
| 34> H 1.9514474551 2.759999278 1.6092165857
| 35> H 2.0228973226 5.2740150496 -0.1546028107
| 36> H 2.6279721891 5.1772001178 1.5063752382
| 37> H 3.4114357527 4.2458187754 0.2226779634
| 38> H -3.9438296396 0.159644735 -0.719287358
| 39> H -3.3998085422 1.8367459722 -0.4381060519
| 40> H -4.5685598684 1.082433096 0.685780289
| 41> H -3.2625399514 -3.5487992321 0.0710564301
| 42> H -3.8671893734 -2.2226655631 1.1132393443
| 43> H -2.3102280944 -3.0015230609 1.4861191993
| 44> *
| 45>
| 46>                          ****END OF INPUT****

CARTESIAN COORDINATES (ANGSTROEM)
---------------------------------
  C      1.772459   -3.824400    0.134706
  C      2.631747   -2.576670    0.219175
  O      2.285882   -1.709382   -0.877941
  C      2.123018   -0.425281   -0.674849
  O      2.265034    0.146693    0.388911
  C      1.711456    0.304817   -1.940290
  C      0.394671    1.043472   -1.684813
  H      0.197310    1.747644   -2.496284
  C      0.441704    1.790402   -0.367375
  O     -0.332569    1.539753    0.544445
  O      1.330995    2.732074   -0.350507
  C      1.528766    3.460486    0.882174
  C      2.461161    4.618468    0.591685
  S     -1.031985   -0.094784   -1.656118
  P     -1.484740   -0.504321    0.376534
  S     -0.342562   -1.095461    1.853596
  O     -2.662295    0.444910    0.904994
  C     -3.711173    0.908303    0.039682
  O     -2.314289   -1.793352   -0.196774
  C     -2.982962   -2.694215    0.682249
  H      0.726950   -3.562627    0.282184
  H      1.889115   -4.292385   -0.837966
  H      2.071967   -4.517840    0.912930
  H      3.692979   -2.814052    0.111366
  H      2.464406   -2.040006    1.157970
  H      1.594517   -0.403920   -2.757921
  H      2.485799    1.036632   -2.177094
  H      0.552968    3.794481    1.247373
  H      1.951447    2.759999    1.609217
  H      2.022897    5.274015   -0.154603
  H      2.627972    5.177200    1.506375
  H      3.411436    4.245819    0.222678
  H     -3.943830    0.159645   -0.719287
  H     -3.399809    1.836746   -0.438106
  H     -4.568560    1.082433    0.685780
  H     -3.262540   -3.548799    0.071056
  H     -3.867189   -2.222666    1.113239
  H     -2.310228   -3.001523    1.486119

 Total Charge           Charge          ....    0
 Multiplicity           Mult            ....    1
 Number of Electrons    NEL             ....  174
 Basis Dimension        Dim             ....  316

ORBITAL ENERGIES
----------------

  NO   OCC          E(Eh)            E(eV)
   0   2.0000     -88.034383     -2395.5373
   1   2.0000     -87.959798     -2393.5078
   2   2.0000     -76.413216     -2079.3093
   3   2.0000     -18.819250      -512.0978
   4   2.0000     -18.803483      -511.6688
   5   2.0000     -18.772028      -510.8128
   6   2.0000     -18.764598      -510.6107
   7   2.0000     -18.760814      -510.5077
   8   2.0000     -18.736902      -509.8570
   9   2.0000     -10.029433      -272.9147
  10   2.0000     -10.011371      -272.4233
  11   2.0000      -9.954999      -270.8893
  12   2.0000      -9.953175      -270.8397
  13   2.0000      -9.937392      -270.4102
  14   2.0000      -9.936842      -270.3952
  15   2.0000      -9.924977      -270.0724
  16   2.0000      -9.916104      -269.8309
  17   2.0000      -9.893730      -269.2221
  18   2.0000      -9.873108      -268.6609
  19   2.0000      -7.679251      -208.9630
  20   2.0000      -7.605260      -206.9496
  21   2.0000      -6.408098      -174.3732
  22   2.0000      -5.707591      -155.3115
  23   2.0000      -5.703484      -155.1997
  24   2.0000      -5.696027      -154.9968
  25   2.0000      -5.634657      -153.3268
  26   2.0000      -5.625974      -153.0905
  27   2.0000      -5.624683      -153.0554
  28   2.0000      -4.631394      -126.0266
  29   2.0000      -4.630171      -125.9934
  30   2.0000      -4.628258      -125.9413
  31   2.0000      -1.032008       -28.0824
  32   2.0000      -1.009178       -27.4611
  33   2.0000      -0.961208       -26.1558
  34   2.0000      -0.936254       -25.4768
  35   2.0000      -0.916028       -24.9264
  36   2.0000      -0.915464       -24.9110
  37   2.0000      -0.768058       -20.8999
  38   2.0000      -0.716254       -19.4903
  39   2.0000      -0.705202       -19.1895
  40   2.0000      -0.684431       -18.6243
  41   2.0000      -0.652908       -17.7665
  42   2.0000      -0.627456       -17.0739
  43   2.0000      -0.613456       -16.6930
  44   2.0000      -0.601063       -16.3558
  45   2.0000      -0.585132       -15.9222
  46   2.0000      -0.558141       -15.1878
  47   2.0000      -0.518780       -14.1167
  48   2.0000      -0.502314       -13.6687
  49   2.0000      -0.500140       -13.6095
  50   2.0000      -0.488970       -13.3056
  51   2.0000      -0.461438       -12.5564
  52   2.0000      -0.458425       -12.4744
  53   2.0000      -0.452258       -12.3066
  54   2.0000      -0.443890       -12.0789
  55   2.0000      -0.427962       -11.6454
  56   2.0000      -0.416913       -11.3448
  57   2.0000      -0.412306       -11.2194
  58   2.0000      -0.409816       -11.1517
  59   2.0000      -0.408270       -11.1096
  60   2.0000      -0.397051       -10.8043
  61   2.0000      -0.390298       -10.6205
  62   2.0000      -0.385882       -10.5004
  63   2.0000      -0.373674       -10.1682
  64   2.0000      -0.370073       -10.0702
  65   2.0000      -0.365859        -9.9555
  66   2.0000      -0.360436        -9.8080
  67   2.0000      -0.350046        -9.5252
  68   2.0000      -0.344201        -9.3662
  69   2.0000      -0.335736        -9.1358
  70   2.0000      -0.331082        -9.0092
  71   2.0000      -0.326511        -8.8848
  72   2.0000      -0.317612        -8.6427
  73   2.0000      -0.310724        -8.4552
  74   2.0000      -0.308463        -8.3937
  75   2.0000      -0.293393        -7.9836
  76   2.0000      -0.288316        -7.8455
  77   2.0000      -0.277398        -7.5484
  78   2.0000      -0.266530        -7.2527
  79   2.0000      -0.256340        -6.9754
  80   2.0000      -0.254098        -6.9143
  81   2.0000      -0.250886        -6.8269
  82   2.0000      -0.236687        -6.4406
  83   2.0000      -0.224962        -6.1215
  84   2.0000      -0.214951        -5.8491
  85   2.0000      -0.180657        -4.9159
  86   2.0000      -0.171633        -4.6704
  87   0.0000      -0.040913        -1.1133
  88   0.0000      -0.035961        -0.9786
  89   0.0000      -0.025399        -0.6911
  90   0.0000       0.006304         0.1715
  91   0.0000       0.035162         0.9568

MULLIKEN ATOMIC CHARGES
-----------------------
   0 C :   -0.287190
   1 C :   -0.030298
   2 O :   -0.215964
   3 C :    0.096982
   4 O :   -0.194462
   5 C :   -0.033119
   6 C :   -0.302809
   7 H :    0.146717
   8 C :    0.229124
   9 O :   -0.203651
  10 O :   -0.216382
  11 C :   -0.030556
  12 C :   -0.277814
  13 S :   -0.082066
  14 P :    0.645751
  15 S :   -0.321104
  16 O :   -0.381969
  17 C :   -0.101080
  18 O :   -0.420547
  19 C :   -0.098173
  20 H :    0.125190
  21 H :    0.105130
  22 H :    0.105541
  23 H :    0.098086
  24 H :    0.133702
  25 H :    0.116864
  26 H :    0.123720
  27 H :    0.114736
  28 H :    0.131658
  29 H :    0.113497
  30 H :    0.116750
  31 H :    0.119950
  32 H :    0.115620
  33 H :    0.108989
  34 H :    0.122847
  35 H :    0.114111
  36 H :    0.098493
  37 H :    0.113725
Sum of atomic charges:    0.0000000

LOEWDIN ATOMIC CHARGES
----------------------
   0 C :   -0.354748
   1 C :   -0.110824
   2 O :   -0.041490
   3 C :    0.026735
   4 O :   -0.156189
   5 C :   -0.246404
   6 C :   -0.262320
   7 H :    0.146683
   8 C :    0.026208
   9 O :   -0.143674
  10 O :   -0.033402
  11 C :   -0.101094
  12 C :   -0.350587
  13 S :    0.114115
  14 P :    0.585734
  15 S :   -0.306650
  16 O :   -0.256709
  17 C :   -0.214442
  18 O :   -0.295042
  19 C :   -0.221156
  20 H :    0.125295
  21 H :    0.121312
  22 H :    0.128415
  23 H :    0.113603
  24 H :    0.123852
  25 H :    0.136086
  26 H :    0.145752
  27 H :    0.120671
  28 H :    0.130839
  29 H :    0.125748
  30 H :    0.134043
  31 H :    0.129013
  32 H :    0.106913
  33 H :    0.109205
  34 H :    0.120582
  35 H :    0.116016
  36 H :    0.103224
  37 H :    0.104686

  Mayer bond orders larger than 0.100000
B(  0-C ,  1-C ) :   1.1723 B(  0-C , 20-H ) :   0.9353 B(  0-C , 21-H ) :   0.9480
B(  0-C , 22-H ) :   0.9435 B(  1-C ,  2-O ) :   0.8943 B(  1-C , 23-H ) :   0.9340
B(  1-C , 24-H ) :   0.9039 B(  2-O ,  3-C ) :   1.2719 B(  2-O ,  4-O ) :   0.1049
B(  3-C ,  4-O ) :   1.9806 B(  3-C ,  5-C ) :   0.9883 B(  4-O ,  8-C ) :   0.1055
B(  5-C ,  6-C ) :   1.0252 B(  5-C , 25-H ) :   0.9050 B(  5-C , 26-H ) :   0.8796
B(  6-C ,  7-H ) :   0.8757 B(  6-C ,  8-C ) :   0.9153 B(  6-C , 13-S ) :   1.0409
B(  8-C ,  9-O ) :   1.8691 B(  8-C , 10-O ) :   1.2807 B(  9-O , 14-P ) :   0.1853
B( 10-O , 11-C ) :   0.8861 B( 11-C , 12-C ) :   1.1553 B( 11-C , 27-H ) :   0.9293
B( 11-C , 28-H ) :   0.9263 B( 12-C , 29-H ) :   0.9510 B( 12-C , 30-H ) :   0.9428
B( 12-C , 31-H ) :   0.9487 B( 13-S , 14-P ) :   0.9257 B( 13-S , 15-S ) :   0.1072
B( 14-P , 15-S ) :   1.6017 B( 14-P , 16-O ) :   1.0674 B( 14-P , 18-O ) :   0.9886
B( 16-O , 17-C ) :   0.9379 B( 17-C , 32-H ) :   0.9378 B( 17-C , 33-H ) :   0.9523
B( 17-C , 34-H ) :   0.9574 B( 18-O , 19-C ) :   0.9511 B( 19-C , 35-H ) :   0.9595
B( 19-C , 36-H ) :   0.9510 B( 19-C , 37-H ) :   0.9300

Dispersion correction           -0.054001446
FINAL SINGLE POINT ENERGY     -1979.004617071814

DIPOLE MOMENT
-------------

Method             : SCF
Type of density    : Electron Density
Multiplicity       :   1
Irrep              :   0
Energy             : -1979.1337317755896947 Eh
Relativity type    :
Basis              : AO
                                X                 Y                 Z
Electronic contribution:     -5.247851362      -0.279093303      -1.507697795
Nuclear contribution   :      5.444318820       1.172071657       0.437982431
                        -----------------------------------------
Total Dipole Moment    :      0.196467458       0.892978355      -1.069715364
                        -----------------------------------------
Magnitude (a.u.)       :      1.407231596
Magnitude (Debye)      :      3.576898456

Rotational constants in cm-1:             0.011812             0.009081             0.006607
Rotational constants in MHz :           354.114284           272.234360           198.061255

                             ****ORCA TERMINATED NORMALLY****
TOTAL RUN TIME: 0 days 0 hours 0 minutes 43 seconds 714 msec
