                         Program Version 6.0.0  -   RELEASE  -
|  1> ! pbe def2-sv(p) def2/J RI DEFGRID1 loosescf d4 GCP(DFT/SV(P)) printgap
|  2> %output
|  3>     printlevel normal
|  4> end
|  5> * xyz 0 1
|  6> C 1.8461920718 -0.949107361 -2.915202174
|  7> C 3.2379182288 -0.6745079746 -2.3830936612
|  8> O 3.3516159518 -0.9656456929 -0.9793266699
|  9> P 2.6424701843 -0.0980047526 0.1503517574
| 10> S 2.6788826743 1.8433726901 -0.0837920263
| 11> O 3.4442624724 -0.5208709823 1.4415727936
| 12> C 3.6270515398 -1.9042700296 1.8504414194
| 13> C 2.8115015764 -2.1942305058 3.0948855257
| 14> S 0.739001822 -1.009840613 0.3714519547
| 15> C 0.0147216484 0.3323469518 1.3771247301
| 16> S -1.7663108769 0.1543507074 1.5252473704
| 17> P -2.325486506 0.7094255147 -0.4680475898
| 18> S -0.9238243229 1.4883432367 -1.5876558674
| 19> O -3.54024543 1.6874351126 -0.2759645012
| 20> C -4.6912449662 1.3717692456 0.5552234726
| 21> C -4.7115264581 2.2750610206 1.7715712974
| 22> O -3.0541729496 -0.5673139622 -1.0802595129
| 23> C -2.3649138416 -1.7065378852 -1.6288989508
| 24> C -2.2313185464 -2.8137467264 -0.6014957063
| 25> H 1.5220806336 -1.9464371485 -2.6276629466
| 26> H 1.1416344821 -0.2156753811 -2.5233833853
| 27> H 1.8551086994 -0.8703674491 -3.9975330763
| 28> H 3.5127754576 0.372409001 -2.5448138407
| 29> H 3.9804946253 -1.329383456 -2.8417557444
| 30> H 3.3463775516 -2.5616907242 1.0253739213
| 31> H 4.696323627 -1.9959422264 2.0456200674
| 32> H 3.0619273509 -3.1863914882 3.4566703082
| 33> H 3.0402340442 -1.4646295827 3.8669862059
| 34> H 1.7474401291 -2.1582497088 2.8745261483
| 35> H 0.2559804193 1.2818743317 0.8927871293
| 36> H 0.4176030993 0.2921005684 2.38691746
| 37> H -5.5567506189 1.5460799603 -0.0855952267
| 38> H -4.6496007562 0.3192419765 0.8410026078
| 39> H -3.853441092 2.0745563631 2.4082446021
| 40> H -4.684765273 3.3161133805 1.4617473633
| 41> H -5.6216190222 2.0915380297 2.3335880658
| 42> H -2.9877601166 -2.0193990522 -2.4690053977
| 43> H -1.3872821021 -1.3854202639 -2.0014240237
| 44> H -3.2053545446 -3.0534911711 -0.1848090278
| 45> H -1.8212307212 -3.6942880137 -1.0846255012
| 46> H -1.5633814342 -2.5135728444 0.202788586
| 47> *
| 48>
| 49>                          ****END OF INPUT****

CARTESIAN COORDINATES (ANGSTROEM)
---------------------------------
  C      1.846192   -0.949107   -2.915202
  C      3.237918   -0.674508   -2.383094
  O      3.351616   -0.965646   -0.979327
  P      2.642470   -0.098005    0.150352
  S      2.678883    1.843373   -0.083792
  O      3.444262   -0.520871    1.441573
  C      3.627052   -1.904270    1.850441
  C      2.811502   -2.194231    3.094886
  S      0.739002   -1.009841    0.371452
  C      0.014722    0.332347    1.377125
  S     -1.766311    0.154351    1.525247
  P     -2.325487    0.709426   -0.468048
  S     -0.923824    1.488343   -1.587656
  O     -3.540245    1.687435   -0.275965
  C     -4.691245    1.371769    0.555223
  C     -4.711526    2.275061    1.771571
  O     -3.054173   -0.567314   -1.080260
  C     -2.364914   -1.706538   -1.628899
  C     -2.231319   -2.813747   -0.601496
  H      1.522081   -1.946437   -2.627663
  H      1.141634   -0.215675   -2.523383
  H      1.855109   -0.870367   -3.997533
  H      3.512775    0.372409   -2.544814
  H      3.980495   -1.329383   -2.841756
  H      3.346378   -2.561691    1.025374
  H      4.696324   -1.995942    2.045620
  H      3.061927   -3.186391    3.456670
  H      3.040234   -1.464630    3.866986
  H      1.747440   -2.158250    2.874526
  H      0.255980    1.281874    0.892787
  H      0.417603    0.292101    2.386917
  H     -5.556751    1.546080   -0.085595
  H     -4.649601    0.319242    0.841003
  H     -3.853441    2.074556    2.408245
  H     -4.684765    3.316113    1.461747
  H     -5.621619    2.091538    2.333588
  H     -2.987760   -2.019399   -2.469005
  H     -1.387282   -1.385420   -2.001424
  H     -3.205355   -3.053491   -0.184809
  H     -1.821231   -3.694288   -1.084626
  H     -1.563381   -2.513573    0.202789

 Total Charge           Charge          ....    0
 Multiplicity           Mult            ....    1
 Number of Electrons    NEL             ....  202
 Basis Dimension        Dim             ....  334

ORBITAL ENERGIES
----------------

  NO   OCC          E(Eh)            E(eV)
   0   2.0000     -88.049112     -2395.9382
   1   2.0000     -88.042249     -2395.7514
   2   2.0000     -87.984603     -2394.1828
   3   2.0000     -87.981407     -2394.0958
   4   2.0000     -76.426024     -2079.6578
   5   2.0000     -76.423478     -2079.5886
   6   2.0000     -18.792727      -511.3761
   7   2.0000     -18.792335      -511.3654
   8   2.0000     -18.789734      -511.2947
   9   2.0000     -18.788190      -511.2527
  10   2.0000      -9.961353      -271.0622
  11   2.0000      -9.956855      -270.9398
  12   2.0000      -9.954380      -270.8724
  13   2.0000      -9.952587      -270.8237
  14   2.0000      -9.951038      -270.7815
  15   2.0000      -9.888995      -269.0932
  16   2.0000      -9.888745      -269.0864
  17   2.0000      -9.884894      -268.9816
  18   2.0000      -9.879147      -268.8253
  19   2.0000      -7.693845      -209.3602
  20   2.0000      -7.686545      -209.1615
  21   2.0000      -7.629367      -207.6056
  22   2.0000      -7.626632      -207.5312
  23   2.0000      -6.423715      -174.7982
  24   2.0000      -6.421010      -174.7246
  25   2.0000      -5.721710      -155.6956
  26   2.0000      -5.718296      -155.6027
  27   2.0000      -5.714283      -155.4936
  28   2.0000      -5.711315      -155.4128
  29   2.0000      -5.710937      -155.4025
  30   2.0000      -5.703521      -155.2007
  31   2.0000      -5.658507      -153.9758
  32   2.0000      -5.655692      -153.8992
  33   2.0000      -5.649730      -153.7370
  34   2.0000      -5.649553      -153.7322
  35   2.0000      -5.647197      -153.6680
  36   2.0000      -5.646682      -153.6540
  37   2.0000      -4.646374      -126.4343
  38   2.0000      -4.645487      -126.4101
  39   2.0000      -4.644050      -126.3710
  40   2.0000      -4.643906      -126.3671
  41   2.0000      -4.642717      -126.3348
  42   2.0000      -4.641224      -126.2941
  43   2.0000      -0.988367       -26.8948
  44   2.0000      -0.986068       -26.8323
  45   2.0000      -0.943848       -25.6834
  46   2.0000      -0.942886       -25.6572
  47   2.0000      -0.764171       -20.7941
  48   2.0000      -0.722105       -19.6495
  49   2.0000      -0.713545       -19.4165
  50   2.0000      -0.691138       -18.8068
  51   2.0000      -0.687937       -18.7197
  52   2.0000      -0.678879       -18.4732
  53   2.0000      -0.648981       -17.6597
  54   2.0000      -0.634498       -17.2656
  55   2.0000      -0.595099       -16.1935
  56   2.0000      -0.587882       -15.9971
  57   2.0000      -0.577194       -15.7063
  58   2.0000      -0.575802       -15.6684
  59   2.0000      -0.559472       -15.2240
  60   2.0000      -0.506140       -13.7728
  61   2.0000      -0.501730       -13.6528
  62   2.0000      -0.478757       -13.0276
  63   2.0000      -0.471631       -12.8337
  64   2.0000      -0.454123       -12.3573
  65   2.0000      -0.450601       -12.2615
  66   2.0000      -0.441120       -12.0035
  67   2.0000      -0.440264       -11.9802
  68   2.0000      -0.432820       -11.7776
  69   2.0000      -0.425033       -11.5657
  70   2.0000      -0.406801       -11.0696
  71   2.0000      -0.399029       -10.8581
  72   2.0000      -0.394123       -10.7246
  73   2.0000      -0.384674       -10.4675
  74   2.0000      -0.376148       -10.2355
  75   2.0000      -0.368365       -10.0237
  76   2.0000      -0.365790        -9.9536
  77   2.0000      -0.359111        -9.7719
  78   2.0000      -0.358826        -9.7641
  79   2.0000      -0.351710        -9.5705
  80   2.0000      -0.350353        -9.5336
  81   2.0000      -0.348473        -9.4824
  82   2.0000      -0.345370        -9.3980
  83   2.0000      -0.340018        -9.2524
  84   2.0000      -0.330466        -8.9924
  85   2.0000      -0.315962        -8.5978
  86   2.0000      -0.311941        -8.4883
  87   2.0000      -0.304027        -8.2730
  88   2.0000      -0.300707        -8.1827
  89   2.0000      -0.295133        -8.0310
  90   2.0000      -0.289971        -7.8905
  91   2.0000      -0.276731        -7.5302
  92   2.0000      -0.269869        -7.3435
  93   2.0000      -0.261940        -7.1277
  94   2.0000      -0.260114        -7.0781
  95   2.0000      -0.233983        -6.3670
  96   2.0000      -0.220522        -6.0007
  97   2.0000      -0.207048        -5.6341
  98   2.0000      -0.201504        -5.4832
  99   2.0000      -0.196972        -5.3599
 100   2.0000      -0.191269        -5.2047
 101   0.0000      -0.049625        -1.3504
 102   0.0000      -0.034486        -0.9384
 103   0.0000      -0.012684        -0.3452
 104   0.0000       0.007659         0.2084
 105   0.0000       0.010886         0.2962

MULLIKEN ATOMIC CHARGES
-----------------------
   0 C :   -0.359829
   1 C :    0.007551
   2 O :   -0.380923
   3 P :    0.606504
   4 S :   -0.296128
   5 O :   -0.362470
   6 C :   -0.009122
   7 C :   -0.292756
   8 S :   -0.133888
   9 C :   -0.333982
  10 S :   -0.130366
  11 P :    0.592798
  12 S :   -0.276451
  13 O :   -0.354435
  14 C :   -0.022288
  15 C :   -0.285136
  16 O :   -0.378057
  17 C :   -0.012984
  18 C :   -0.304605
  19 H :    0.109800
  20 H :    0.173836
  21 H :    0.112594
  22 H :    0.113136
  23 H :    0.102411
  24 H :    0.104706
  25 H :    0.112179
  26 H :    0.109601
  27 H :    0.120015
  28 H :    0.118364
  29 H :    0.213137
  30 H :    0.179812
  31 H :    0.116210
  32 H :    0.109191
  33 H :    0.122690
  34 H :    0.124762
  35 H :    0.110258
  36 H :    0.105811
  37 H :    0.118683
  38 H :    0.110327
  39 H :    0.107491
  40 H :    0.131550
Sum of atomic charges:   -0.0000000

LOEWDIN ATOMIC CHARGES
----------------------
   0 C :   -0.378134
   1 C :   -0.114660
   2 O :   -0.248361
   3 P :    0.567812
   4 S :   -0.292490
   5 O :   -0.244166
   6 C :   -0.112765
   7 C :   -0.361191
   8 S :    0.066043
   9 C :   -0.479109
  10 S :    0.070439
  11 P :    0.562256
  12 S :   -0.273692
  13 O :   -0.235915
  14 C :   -0.112139
  15 C :   -0.358341
  16 O :   -0.251090
  17 C :   -0.117198
  18 C :   -0.365049
  19 H :    0.118999
  20 H :    0.122915
  21 H :    0.131555
  22 H :    0.114240
  23 H :    0.117269
  24 H :    0.108393
  25 H :    0.122422
  26 H :    0.129946
  27 H :    0.128577
  28 H :    0.118966
  29 H :    0.124419
  30 H :    0.131853
  31 H :    0.124067
  32 H :    0.107815
  33 H :    0.122415
  34 H :    0.131720
  35 H :    0.129956
  36 H :    0.119175
  37 H :    0.109995
  38 H :    0.124124
  39 H :    0.129233
  40 H :    0.109693

  Mayer bond orders larger than 0.100000
B(  0-C ,  1-C ) :   1.1636 B(  0-C , 19-H ) :   0.9433 B(  0-C , 20-H ) :   0.9155
B(  0-C , 21-H ) :   0.9363 B(  1-C ,  2-O ) :   0.9055 B(  1-C , 22-H ) :   0.9172
B(  1-C , 23-H ) :   0.9342 B(  2-O ,  3-P ) :   1.0943 B(  3-P ,  4-S ) :   1.6588
B(  3-P ,  5-O ) :   1.1299 B(  3-P ,  8-S ) :   0.9402 B(  4-S ,  8-S ) :   0.1107
B(  5-O ,  6-C ) :   0.8911 B(  6-C ,  7-C ) :   1.1638 B(  6-C , 24-H ) :   0.9174
B(  6-C , 25-H ) :   0.9343 B(  7-C , 26-H ) :   0.9397 B(  7-C , 27-H ) :   0.9461
B(  7-C , 28-H ) :   0.9358 B(  8-S ,  9-C ) :   0.9731 B(  9-C , 10-S ) :   1.0304
B(  9-C , 29-H ) :   0.8532 B(  9-C , 30-H ) :   0.9023 B( 10-S , 11-P ) :   0.9081
B( 10-S , 12-S ) :   0.1136 B( 11-P , 12-S ) :   1.6759 B( 11-P , 13-O ) :   1.1499
B( 11-P , 16-O ) :   1.0874 B( 13-O , 14-C ) :   0.8866 B( 14-C , 15-C ) :   1.1630
B( 14-C , 31-H ) :   0.9340 B( 14-C , 32-H ) :   0.9188 B( 15-C , 33-H ) :   0.9410
B( 15-C , 34-H ) :   0.9458 B( 15-C , 35-H ) :   0.9396 B( 16-O , 17-C ) :   0.9077
B( 17-C , 18-C ) :   1.1692 B( 17-C , 36-H ) :   0.9351 B( 17-C , 37-H ) :   0.9054
B( 18-C , 38-H ) :   0.9458 B( 18-C , 39-H ) :   0.9398 B( 18-C , 40-H ) :   0.9277

Dispersion correction           -0.064854922
FINAL SINGLE POINT ENERGY     -2929.514790523626

DIPOLE MOMENT
-------------

Method             : SCF
Type of density    : Electron Density
Multiplicity       :   1
Irrep              :   0
Energy             : -2929.6342070617806712 Eh
Relativity type    :
Basis              : AO
                                X                 Y                 Z
Electronic contribution:      5.868827834      14.724966494      -2.997750256
Nuclear contribution   :     -6.636976279     -16.667113336       3.487327007
                        -----------------------------------------
Total Dipole Moment    :     -0.768148445      -1.942146841       0.489576751
                        -----------------------------------------
Magnitude (a.u.)       :      2.145150760
Magnitude (Debye)      :      5.452539911

Rotational constants in cm-1:             0.012023             0.004788             0.004578
Rotational constants in MHz :           360.450595           143.529584           137.236205

                             ****ORCA TERMINATED NORMALLY****
TOTAL RUN TIME: 0 days 0 hours 0 minutes 21 seconds 37 msec
