                         Program Version 6.0.1  -  RELEASE   -
|  1> ! pbe def2-sv(p) def2/J RI DEFGRID1 loosescf d4 GCP(DFT/SV(P)) printgap
|  2> %output
|  3>     printlevel normal
|  4> end
|  5> * xyz 0 1
|  6> C 3.3408756927 -1.8212543023 1.4079023705
|  7> C 3.0058899012 -2.3881785169 0.0383618229
|  8> O 2.7141764605 -1.3195798779 -0.882777832
|  9> C 1.4721971749 -1.0732949266 -1.2297672721
| 10> O 0.5047489933 -1.704413784 -0.8445185289
| 11> C 1.3792832171 0.0988534114 -2.1828390688
| 12> C 0.3080746242 1.0867126092 -1.7237235
| 13> H 0.2321056042 1.9064777246 -2.4442329866
| 14> C 0.5822034314 1.6747342745 -0.3519227661
| 15> O -0.3099687733 1.864248148 0.4534765901
| 16> O 1.8458155891 1.9233941125 -0.1529466243
| 17> C 2.2449955827 2.4630828323 1.1265932186
| 18> C 2.0373650831 3.9671159658 1.1736978515
| 19> S -1.3694641435 0.3656522652 -1.6730529385
| 20> P -1.5341047988 -0.3671034353 0.3105477872
| 21> S -0.2832085988 -0.7308497807 1.7773844824
| 22> O -2.7099176807 0.5000167166 0.979118053
| 23> C -3.8371969201 0.9787488884 0.2337303972
| 24> O -2.3049914507 -1.6943546368 -0.1990453475
| 25> C -2.676980273 -2.7187959349 0.7215384771
| 26> H 2.467367442 -1.3300834138 1.8340488971
| 27> H 3.6398073137 -2.6300668977 2.0659899103
| 28> H 4.152075665 -1.1038892439 1.326293922
| 29> H 2.1397913571 -3.0531799949 0.0925198507
| 30> H 3.860911808 -2.9092279529 -0.3952626585
| 31> H 1.0997843631 -0.283072769 -3.1661778406
| 32> H 2.3493884174 0.5921373336 -2.2338372033
| 33> H 1.669303758 1.9596161683 1.90899497
| 34> H 3.2998128059 2.2007266273 1.2034658961
| 35> H 0.9779234958 4.2022686629 1.1006810806
| 36> H 2.4155593407 4.3472446314 2.1167272079
| 37> H 2.5677290558 4.4447189155 0.3546587354
| 38> H -4.6338347146 1.1124662084 0.9618870895
| 39> H -4.1296104368 0.256242435 -0.5301201096
| 40> H -3.5814609546 1.9294693759 -0.2326891188
| 41> H -1.7855126366 -3.13928191 1.189445117
| 42> H -3.1885943195 -3.4719913084 0.127809618
| 43> H -3.3364527864 -2.3200475546 1.4950743706
| 44> *
| 45>
| 46>                          ****END OF INPUT****

CARTESIAN COORDINATES (ANGSTROEM)
---------------------------------
  C      3.340876   -1.821254    1.407902
  C      3.005890   -2.388179    0.038362
  O      2.714176   -1.319580   -0.882778
  C      1.472197   -1.073295   -1.229767
  O      0.504749   -1.704414   -0.844519
  C      1.379283    0.098853   -2.182839
  C      0.308075    1.086713   -1.723723
  H      0.232106    1.906478   -2.444233
  C      0.582203    1.674734   -0.351923
  O     -0.309969    1.864248    0.453477
  O      1.845816    1.923394   -0.152947
  C      2.244996    2.463083    1.126593
  C      2.037365    3.967116    1.173698
  S     -1.369464    0.365652   -1.673053
  P     -1.534105   -0.367103    0.310548
  S     -0.283209   -0.730850    1.777384
  O     -2.709918    0.500017    0.979118
  C     -3.837197    0.978749    0.233730
  O     -2.304991   -1.694355   -0.199045
  C     -2.676980   -2.718796    0.721538
  H      2.467367   -1.330083    1.834049
  H      3.639807   -2.630067    2.065990
  H      4.152076   -1.103889    1.326294
  H      2.139791   -3.053180    0.092520
  H      3.860912   -2.909228   -0.395263
  H      1.099784   -0.283073   -3.166178
  H      2.349388    0.592137   -2.233837
  H      1.669304    1.959616    1.908995
  H      3.299813    2.200727    1.203466
  H      0.977923    4.202269    1.100681
  H      2.415559    4.347245    2.116727
  H      2.567729    4.444719    0.354659
  H     -4.633835    1.112466    0.961887
  H     -4.129610    0.256242   -0.530120
  H     -3.581461    1.929469   -0.232689
  H     -1.785513   -3.139282    1.189445
  H     -3.188594   -3.471991    0.127810
  H     -3.336453   -2.320048    1.495074

 Total Charge           Charge          ....    0
 Multiplicity           Mult            ....    1
 Number of Electrons    NEL             ....  174
 Basis Dimension        Dim             ....  316

ORBITAL ENERGIES
----------------

  NO   OCC          E(Eh)            E(eV)
   0   2.0000     -88.027726     -2395.3562
   1   2.0000     -87.961450     -2393.5528
   2   2.0000     -76.409619     -2079.2114
   3   2.0000     -18.819612      -512.1077
   4   2.0000     -18.802352      -511.6380
   5   2.0000     -18.763980      -510.5939
   6   2.0000     -18.763925      -510.5924
   7   2.0000     -18.752261      -510.2750
   8   2.0000     -18.736046      -509.8337
   9   2.0000     -10.024098      -272.7696
  10   2.0000     -10.008735      -272.3515
  11   2.0000      -9.954042      -270.8633
  12   2.0000      -9.953895      -270.8593
  13   2.0000      -9.942488      -270.5488
  14   2.0000      -9.930115      -270.2122
  15   2.0000      -9.923945      -270.0443
  16   2.0000      -9.913346      -269.7559
  17   2.0000      -9.891757      -269.1684
  18   2.0000      -9.878833      -268.8167
  19   2.0000      -7.672845      -208.7887
  20   2.0000      -7.606757      -206.9904
  21   2.0000      -6.404909      -174.2864
  22   2.0000      -5.701264      -155.1393
  23   2.0000      -5.697807      -155.0452
  24   2.0000      -5.688721      -154.7980
  25   2.0000      -5.636311      -153.3718
  26   2.0000      -5.627484      -153.1316
  27   2.0000      -5.626023      -153.0919
  28   2.0000      -4.627865      -125.9306
  29   2.0000      -4.626969      -125.9062
  30   2.0000      -4.625309      -125.8611
  31   2.0000      -1.028973       -27.9998
  32   2.0000      -1.009101       -27.4590
  33   2.0000      -0.957181       -26.0462
  34   2.0000      -0.932104       -25.3638
  35   2.0000      -0.915286       -24.9062
  36   2.0000      -0.912606       -24.8333
  37   2.0000      -0.765176       -20.8215
  38   2.0000      -0.710778       -19.3413
  39   2.0000      -0.707553       -19.2535
  40   2.0000      -0.681223       -18.5370
  41   2.0000      -0.651288       -17.7224
  42   2.0000      -0.626700       -17.0534
  43   2.0000      -0.615823       -16.7574
  44   2.0000      -0.598513       -16.2864
  45   2.0000      -0.591175       -16.0867
  46   2.0000      -0.566302       -15.4099
  47   2.0000      -0.511216       -13.9109
  48   2.0000      -0.498901       -13.5758
  49   2.0000      -0.495008       -13.4699
  50   2.0000      -0.484465       -13.1830
  51   2.0000      -0.456313       -12.4169
  52   2.0000      -0.454267       -12.3612
  53   2.0000      -0.447467       -12.1762
  54   2.0000      -0.428340       -11.6557
  55   2.0000      -0.428148       -11.6505
  56   2.0000      -0.421423       -11.4675
  57   2.0000      -0.412768       -11.2320
  58   2.0000      -0.410339       -11.1659
  59   2.0000      -0.399522       -10.8715
  60   2.0000      -0.396870       -10.7994
  61   2.0000      -0.391100       -10.6424
  62   2.0000      -0.387162       -10.5352
  63   2.0000      -0.381349       -10.3770
  64   2.0000      -0.371850       -10.1185
  65   2.0000      -0.366014        -9.9598
  66   2.0000      -0.359172        -9.7736
  67   2.0000      -0.350261        -9.5311
  68   2.0000      -0.348681        -9.4881
  69   2.0000      -0.335910        -9.1406
  70   2.0000      -0.334646        -9.1062
  71   2.0000      -0.326198        -8.8763
  72   2.0000      -0.319419        -8.6918
  73   2.0000      -0.306104        -8.3295
  74   2.0000      -0.301115        -8.1938
  75   2.0000      -0.295378        -8.0377
  76   2.0000      -0.290080        -7.8935
  77   2.0000      -0.274445        -7.4680
  78   2.0000      -0.263470        -7.1694
  79   2.0000      -0.259064        -7.0495
  80   2.0000      -0.251376        -6.8403
  81   2.0000      -0.245385        -6.6773
  82   2.0000      -0.233768        -6.3611
  83   2.0000      -0.226495        -6.1632
  84   2.0000      -0.193284        -5.2595
  85   2.0000      -0.181243        -4.9319
  86   2.0000      -0.169193        -4.6040
  87   0.0000      -0.046926        -1.2769
  88   0.0000      -0.041898        -1.1401
  89   0.0000      -0.025173        -0.6850
  90   0.0000       0.007198         0.1959
  91   0.0000       0.033837         0.9208

MULLIKEN ATOMIC CHARGES
-----------------------
   0 C :   -0.310299
   1 C :   -0.017618
   2 O :   -0.223507
   3 C :    0.094594
   4 O :   -0.187410
   5 C :   -0.020759
   6 C :   -0.316900
   7 H :    0.153928
   8 C :    0.199415
   9 O :   -0.182525
  10 O :   -0.218607
  11 C :   -0.017001
  12 C :   -0.310147
  13 S :   -0.067888
  14 P :    0.637949
  15 S :   -0.339782
  16 O :   -0.374302
  17 C :   -0.106596
  18 O :   -0.394068
  19 C :   -0.096616
  20 H :    0.142643
  21 H :    0.107924
  22 H :    0.104445
  23 H :    0.117305
  24 H :    0.100219
  25 H :    0.124462
  26 H :    0.112030
  27 H :    0.132644
  28 H :    0.106231
  29 H :    0.133387
  30 H :    0.118756
  31 H :    0.112105
  32 H :    0.120624
  33 H :    0.109946
  34 H :    0.116691
  35 H :    0.120385
  36 H :    0.113726
  37 H :    0.104617
Sum of atomic charges:   -0.0000000

LOEWDIN ATOMIC CHARGES
----------------------
   0 C :   -0.359817
   1 C :   -0.109961
   2 O :   -0.049605
   3 C :    0.025735
   4 O :   -0.164298
   5 C :   -0.251852
   6 C :   -0.261170
   7 H :    0.152276
   8 C :    0.007752
   9 O :   -0.151233
  10 O :   -0.035659
  11 C :   -0.107050
  12 C :   -0.356789
  13 S :    0.124786
  14 P :    0.605173
  15 S :   -0.309100
  16 O :   -0.257737
  17 C :   -0.219897
  18 O :   -0.270763
  19 C :   -0.216452
  20 H :    0.124841
  21 H :    0.129368
  22 H :    0.119653
  23 H :    0.123437
  24 H :    0.115832
  25 H :    0.147845
  26 H :    0.138519
  27 H :    0.128874
  28 H :    0.119628
  29 H :    0.132823
  30 H :    0.134218
  31 H :    0.123954
  32 H :    0.119302
  33 H :    0.103554
  34 H :    0.110804
  35 H :    0.111161
  36 H :    0.116018
  37 H :    0.105829

  Mayer bond orders larger than 0.100000
B(  0-C ,  1-C ) :   1.1791 B(  0-C , 20-H ) :   0.9280 B(  0-C , 21-H ) :   0.9420
B(  0-C , 22-H ) :   0.9480 B(  1-C ,  2-O ) :   0.9044 B(  1-C , 23-H ) :   0.9053
B(  1-C , 24-H ) :   0.9362 B(  2-O ,  3-C ) :   1.2510 B(  3-C ,  4-O ) :   1.9833
B(  3-C ,  5-C ) :   1.0011 B(  5-C ,  6-C ) :   1.0189 B(  5-C , 25-H ) :   0.8844
B(  5-C , 26-H ) :   0.8839 B(  6-C ,  7-H ) :   0.8719 B(  6-C ,  8-C ) :   0.8961
B(  6-C , 13-S ) :   1.0571 B(  8-C ,  9-O ) :   1.9682 B(  8-C , 10-O ) :   1.2769
B( 10-O , 11-C ) :   0.8960 B( 11-C , 12-C ) :   1.1721 B( 11-C , 27-H ) :   0.9105
B( 11-C , 28-H ) :   0.9360 B( 12-C , 29-H ) :   0.9440 B( 12-C , 30-H ) :   0.9436
B( 12-C , 31-H ) :   0.9475 B( 13-S , 14-P ) :   0.9161 B( 13-S , 15-S ) :   0.1137
B( 14-P , 15-S ) :   1.5291 B( 14-P , 16-O ) :   1.0804 B( 14-P , 18-O ) :   1.0469
B( 16-O , 17-C ) :   0.9407 B( 17-C , 32-H ) :   0.9569 B( 17-C , 33-H ) :   0.9401
B( 17-C , 34-H ) :   0.9488 B( 18-O , 19-C ) :   0.9438 B( 19-C , 35-H ) :   0.9414
B( 19-C , 36-H ) :   0.9573 B( 19-C , 37-H ) :   0.9479

Dispersion correction           -0.055720324
FINAL SINGLE POINT ENERGY     -1978.992441151981

DIPOLE MOMENT
-------------

Method             : SCF
Type of density    : Electron Density
Multiplicity       :   1
Irrep              :   0
Energy             : -1979.1202672155200162 Eh
Relativity type    :
Basis              : AO
                                X                 Y                 Z
Electronic contribution:    -10.107738011      -2.298180055      -6.716943679
Nuclear contribution   :     10.999169737       2.875141574       6.066295953
                        -----------------------------------------
Total Dipole Moment    :      0.891431726       0.576961519      -0.650647726
                        -----------------------------------------
Magnitude (a.u.)       :      1.245342354
Magnitude (Debye)      :      3.165408705

Rotational constants in cm-1:             0.012303             0.009224             0.007389
Rotational constants in MHz :           368.843412           276.541986           221.507772

                             ****ORCA TERMINATED NORMALLY****
TOTAL RUN TIME: 0 days 0 hours 0 minutes 42 seconds 376 msec
