                         Program Version 6.0.0  -   RELEASE  -
|  1> ! pbe def2-sv(p) def2/J RI DEFGRID1 loosescf d4 GCP(DFT/SV(P)) printgap
|  2> %output
|  3>     printlevel normal
|  4> end
|  5> * xyz 0 1
|  6> C 2.7117407588 2.2671324943 -2.0313629846
|  7> C 3.1251115009 0.8127049626 -2.1298514153
|  8> O 2.2169355351 -0.0558605611 -1.4211144084
|  9> P 2.072609544 -0.1292339841 0.148371425
| 10> S 1.2594455942 1.3376712589 1.1752435447
| 11> O 3.5985080332 -0.3680516546 0.5574134368
| 12> C 4.0730996675 -0.2371905337 1.9055695845
| 13> C 3.5502457376 -1.3416269703 2.8017624884
| 14> S 1.1271028816 -2.0109140072 0.2687527248
| 15> C -0.2275126457 -1.6455682593 1.4359104616
| 16> S -1.8834167541 -1.7981599181 0.7123926727
| 17> P -2.0747887238 0.0939389227 -0.2098296724
| 18> S -0.8617520756 0.496493016 -1.7071206154
| 19> O -2.0218209537 0.9927842609 1.0912003416
| 20> C -2.5786172943 2.3193729234 1.21112991
| 21> C -1.9396152026 3.3041231674 0.2553136343
| 22> O -3.6098198771 0.1822614499 -0.6097789637
| 23> C -4.0961428122 -0.2635557865 -1.8864319572
| 24> C -4.0539119691 -1.7729404832 -2.0053034491
| 25> H 3.3455428281 2.8690661101 -2.6745156013
| 26> H 1.6741261748 2.3754876171 -2.3413193728
| 27> H 2.8053749798 2.6204863033 -1.0054997739
| 28> H 4.1334599375 0.6574949486 -1.7381848863
| 29> H 3.0630960917 0.4525079416 -3.1581873206
| 30> H 5.158704825 -0.2781706278 1.8069414024
| 31> H 3.7694154652 0.7436442525 2.2862242821
| 32> H 3.7458192711 -2.3134493785 2.3558019688
| 33> H 4.0391754964 -1.2813662516 3.7686769878
| 34> H 2.4759967078 -1.2276813085 2.9414886231
| 35> H -0.0960448514 -0.633227733 1.8277798767
| 36> H -0.1881956254 -2.3910325106 2.2253089479
| 37> H -3.6561478266 2.2512326561 1.0460949358
| 38> H -2.3714595479 2.5836915528 2.2494811416
| 39> H -2.154632761 3.0239905007 -0.7751616906
| 40> H -2.3304129633 4.298665268 0.444647349
| 41> H -0.860153083 3.3089523122 0.3943608338
| 42> H -5.1170392961 0.1182984258 -1.9274532616
| 43> H -3.4894978554 0.2021599052 -2.6702918146
| 44> H -4.5264451887 -2.075789229 -2.9340828089
| 45> H -3.0193711631 -2.1150334783 -2.0066271917
| 46> H -4.5706229016 -2.23263611 -1.1668416786
| 47> *
| 48>
| 49>                          ****END OF INPUT****

CARTESIAN COORDINATES (ANGSTROEM)
---------------------------------
  C      2.711741    2.267132   -2.031363
  C      3.125112    0.812705   -2.129851
  O      2.216936   -0.055861   -1.421114
  P      2.072610   -0.129234    0.148371
  S      1.259446    1.337671    1.175244
  O      3.598508   -0.368052    0.557413
  C      4.073100   -0.237191    1.905570
  C      3.550246   -1.341627    2.801762
  S      1.127103   -2.010914    0.268753
  C     -0.227513   -1.645568    1.435910
  S     -1.883417   -1.798160    0.712393
  P     -2.074789    0.093939   -0.209830
  S     -0.861752    0.496493   -1.707121
  O     -2.021821    0.992784    1.091200
  C     -2.578617    2.319373    1.211130
  C     -1.939615    3.304123    0.255314
  O     -3.609820    0.182261   -0.609779
  C     -4.096143   -0.263556   -1.886432
  C     -4.053912   -1.772940   -2.005303
  H      3.345543    2.869066   -2.674516
  H      1.674126    2.375488   -2.341319
  H      2.805375    2.620486   -1.005500
  H      4.133460    0.657495   -1.738185
  H      3.063096    0.452508   -3.158187
  H      5.158705   -0.278171    1.806941
  H      3.769415    0.743644    2.286224
  H      3.745819   -2.313449    2.355802
  H      4.039175   -1.281366    3.768677
  H      2.475997   -1.227681    2.941489
  H     -0.096045   -0.633228    1.827780
  H     -0.188196   -2.391033    2.225309
  H     -3.656148    2.251233    1.046095
  H     -2.371460    2.583692    2.249481
  H     -2.154633    3.023991   -0.775162
  H     -2.330413    4.298665    0.444647
  H     -0.860153    3.308952    0.394361
  H     -5.117039    0.118298   -1.927453
  H     -3.489498    0.202160   -2.670292
  H     -4.526445   -2.075789   -2.934083
  H     -3.019371   -2.115033   -2.006627
  H     -4.570623   -2.232636   -1.166842

 Total Charge           Charge          ....    0
 Multiplicity           Mult            ....    1
 Number of Electrons    NEL             ....  202
 Basis Dimension        Dim             ....  334

ORBITAL ENERGIES
----------------

  NO   OCC          E(Eh)            E(eV)
   0   2.0000     -88.036023     -2395.5820
   1   2.0000     -88.034956     -2395.5529
   2   2.0000     -87.984454     -2394.1787
   3   2.0000     -87.975787     -2393.9429
   4   2.0000     -76.422376     -2079.5586
   5   2.0000     -76.419950     -2079.4926
   6   2.0000     -18.790351      -511.3114
   7   2.0000     -18.784975      -511.1651
   8   2.0000     -18.784145      -511.1426
   9   2.0000     -18.781048      -511.0583
  10   2.0000      -9.952219      -270.8136
  11   2.0000      -9.949092      -270.7286
  12   2.0000      -9.948978      -270.7255
  13   2.0000      -9.948252      -270.7057
  14   2.0000      -9.948176      -270.7036
  15   2.0000      -9.883239      -268.9366
  16   2.0000      -9.881767      -268.8966
  17   2.0000      -9.875289      -268.7203
  18   2.0000      -9.872618      -268.6476
  19   2.0000      -7.681423      -209.0221
  20   2.0000      -7.680593      -208.9996
  21   2.0000      -7.629171      -207.6003
  22   2.0000      -7.620496      -207.3642
  23   2.0000      -6.419474      -174.6828
  24   2.0000      -6.417277      -174.6230
  25   2.0000      -5.709335      -155.3589
  26   2.0000      -5.708503      -155.3363
  27   2.0000      -5.705976      -155.2675
  28   2.0000      -5.705207      -155.2466
  29   2.0000      -5.698251      -155.0573
  30   2.0000      -5.697324      -155.0321
  31   2.0000      -5.657840      -153.9577
  32   2.0000      -5.650329      -153.7533
  33   2.0000      -5.649312      -153.7256
  34   2.0000      -5.649000      -153.7171
  35   2.0000      -5.641121      -153.5027
  36   2.0000      -5.640794      -153.4938
  37   2.0000      -4.642148      -126.3193
  38   2.0000      -4.640964      -126.2870
  39   2.0000      -4.640338      -126.2700
  40   2.0000      -4.640168      -126.2654
  41   2.0000      -4.638957      -126.2324
  42   2.0000      -4.637380      -126.1895
  43   2.0000      -0.982669       -26.7398
  44   2.0000      -0.981916       -26.7193
  45   2.0000      -0.939141       -25.5553
  46   2.0000      -0.937353       -25.5067
  47   2.0000      -0.756508       -20.5856
  48   2.0000      -0.716888       -19.5075
  49   2.0000      -0.703175       -19.1344
  50   2.0000      -0.684476       -18.6255
  51   2.0000      -0.682717       -18.5777
  52   2.0000      -0.668496       -18.1907
  53   2.0000      -0.649479       -17.6732
  54   2.0000      -0.629952       -17.1419
  55   2.0000      -0.595020       -16.1913
  56   2.0000      -0.586071       -15.9478
  57   2.0000      -0.573354       -15.6017
  58   2.0000      -0.571843       -15.5606
  59   2.0000      -0.554395       -15.0859
  60   2.0000      -0.492441       -13.4000
  61   2.0000      -0.491254       -13.3677
  62   2.0000      -0.466307       -12.6888
  63   2.0000      -0.463531       -12.6133
  64   2.0000      -0.451524       -12.2866
  65   2.0000      -0.448997       -12.2178
  66   2.0000      -0.429433       -11.6855
  67   2.0000      -0.426956       -11.6181
  68   2.0000      -0.421111       -11.4590
  69   2.0000      -0.410520       -11.1708
  70   2.0000      -0.408072       -11.1042
  71   2.0000      -0.404867       -11.0170
  72   2.0000      -0.401399       -10.9226
  73   2.0000      -0.380778       -10.3615
  74   2.0000      -0.375762       -10.2250
  75   2.0000      -0.368188       -10.0189
  76   2.0000      -0.361865        -9.8469
  77   2.0000      -0.350229        -9.5302
  78   2.0000      -0.349892        -9.5210
  79   2.0000      -0.342470        -9.3191
  80   2.0000      -0.340373        -9.2620
  81   2.0000      -0.336549        -9.1580
  82   2.0000      -0.335719        -9.1354
  83   2.0000      -0.330037        -8.9808
  84   2.0000      -0.328340        -8.9346
  85   2.0000      -0.312528        -8.5043
  86   2.0000      -0.307073        -8.3559
  87   2.0000      -0.292568        -7.9612
  88   2.0000      -0.291335        -7.9276
  89   2.0000      -0.285642        -7.7727
  90   2.0000      -0.281612        -7.6631
  91   2.0000      -0.272071        -7.4034
  92   2.0000      -0.269556        -7.3350
  93   2.0000      -0.257914        -7.0182
  94   2.0000      -0.252528        -6.8716
  95   2.0000      -0.231892        -6.3101
  96   2.0000      -0.216946        -5.9034
  97   2.0000      -0.205104        -5.5812
  98   2.0000      -0.198661        -5.4058
  99   2.0000      -0.186686        -5.0800
 100   2.0000      -0.181995        -4.9523
 101   0.0000      -0.033844        -0.9209
 102   0.0000      -0.029404        -0.8001
 103   0.0000      -0.011735        -0.3193
 104   0.0000       0.004915         0.1337
 105   0.0000       0.017076         0.4647

MULLIKEN ATOMIC CHARGES
-----------------------
   0 C :   -0.316976
   1 C :   -0.001202
   2 O :   -0.358199
   3 P :    0.634193
   4 S :   -0.323802
   5 O :   -0.381208
   6 C :    0.000139
   7 C :   -0.314276
   8 S :   -0.069630
   9 C :   -0.376044
  10 S :   -0.086802
  11 P :    0.625156
  12 S :   -0.313803
  13 O :   -0.371044
  14 C :    0.005426
  15 C :   -0.320730
  16 O :   -0.379928
  17 C :   -0.003483
  18 C :   -0.323672
  19 H :    0.105624
  20 H :    0.132496
  21 H :    0.124754
  22 H :    0.105499
  23 H :    0.107773
  24 H :    0.100946
  25 H :    0.107351
  26 H :    0.119394
  27 H :    0.111030
  28 H :    0.118624
  29 H :    0.208707
  30 H :    0.182741
  31 H :    0.104861
  32 H :    0.104564
  33 H :    0.121495
  34 H :    0.103446
  35 H :    0.137725
  36 H :    0.102223
  37 H :    0.110215
  38 H :    0.114200
  39 H :    0.133752
  40 H :    0.118463
Sum of atomic charges:   -0.0000000

LOEWDIN ATOMIC CHARGES
----------------------
   0 C :   -0.367811
   1 C :   -0.108731
   2 O :   -0.229338
   3 P :    0.571099
   4 S :   -0.298186
   5 O :   -0.251505
   6 C :   -0.122241
   7 C :   -0.367736
   8 S :    0.091597
   9 C :   -0.483374
  10 S :    0.081376
  11 P :    0.569879
  12 S :   -0.307284
  13 O :   -0.242488
  14 C :   -0.106584
  15 C :   -0.370773
  16 O :   -0.245055
  17 C :   -0.122539
  18 C :   -0.370714
  19 H :    0.126958
  20 H :    0.130681
  21 H :    0.120848
  22 H :    0.110547
  23 H :    0.121159
  24 H :    0.116560
  25 H :    0.106792
  26 H :    0.125656
  27 H :    0.129695
  28 H :    0.118441
  29 H :    0.124902
  30 H :    0.136342
  31 H :    0.111042
  32 H :    0.119990
  33 H :    0.119583
  34 H :    0.125947
  35 H :    0.128412
  36 H :    0.116994
  37 H :    0.109056
  38 H :    0.131956
  39 H :    0.124165
  40 H :    0.124682

  Mayer bond orders larger than 0.100000
B(  0-C ,  1-C ) :   1.1647 B(  0-C , 19-H ) :   0.9373 B(  0-C , 20-H ) :   0.9415
B(  0-C , 21-H ) :   0.9365 B(  1-C ,  2-O ) :   0.9073 B(  1-C , 22-H ) :   0.9272
B(  1-C , 23-H ) :   0.9351 B(  2-O ,  3-P ) :   1.1413 B(  3-P ,  4-S ) :   1.5830
B(  3-P ,  5-O ) :   1.0707 B(  3-P ,  8-S ) :   0.9695 B(  4-S ,  8-S ) :   0.1218
B(  5-O ,  6-C ) :   0.9223 B(  6-C ,  7-C ) :   1.1638 B(  6-C , 24-H ) :   0.9332
B(  6-C , 25-H ) :   0.9113 B(  7-C , 26-H ) :   0.9438 B(  7-C , 27-H ) :   0.9384
B(  7-C , 28-H ) :   0.9388 B(  8-S ,  9-C ) :   0.9975 B(  9-C , 10-S ) :   1.0021
B(  9-C , 29-H ) :   0.8472 B(  9-C , 30-H ) :   0.9106 B( 10-S , 11-P ) :   0.9551
B( 10-S , 12-S ) :   0.1172 B( 11-P , 12-S ) :   1.6374 B( 11-P , 13-O ) :   1.1140
B( 11-P , 16-O ) :   1.0818 B( 13-O , 14-C ) :   0.9058 B( 14-C , 15-C ) :   1.1677
B( 14-C , 31-H ) :   0.9311 B( 14-C , 32-H ) :   0.9353 B( 15-C , 33-H ) :   0.9345
B( 15-C , 34-H ) :   0.9355 B( 15-C , 35-H ) :   0.9370 B( 16-O , 17-C ) :   0.9087
B( 17-C , 18-C ) :   1.1654 B( 17-C , 36-H ) :   0.9322 B( 17-C , 37-H ) :   0.9100
B( 18-C , 38-H ) :   0.9385 B( 18-C , 39-H ) :   0.9326 B( 18-C , 40-H ) :   0.9449

Dispersion correction           -0.067973090
FINAL SINGLE POINT ENERGY     -2929.514719763210

DIPOLE MOMENT
-------------

Method             : SCF
Type of density    : Electron Density
Multiplicity       :   1
Irrep              :   0
Energy             : -2929.6317702406327044 Eh
Relativity type    :
Basis              : AO
                                X                 Y                 Z
Electronic contribution:     -1.668693410     -10.179043080       1.221725099
Nuclear contribution   :      1.732550839      10.379650531      -0.950108950
                        -----------------------------------------
Total Dipole Moment    :      0.063857430       0.200607451       0.271616149
                        -----------------------------------------
Magnitude (a.u.)       :      0.343651644
Magnitude (Debye)      :      0.873493062

Rotational constants in cm-1:             0.011891             0.005557             0.005151
Rotational constants in MHz :           356.485374           166.596245           154.417895

                             ****ORCA TERMINATED NORMALLY****
TOTAL RUN TIME: 0 days 0 hours 0 minutes 21 seconds 364 msec
