                         Program Version 6.0.0  -   RELEASE  -
|  1> ! wb97x-v def2-tzvp def2/J RIJCOSX DEFGRID2 scfconv7 GCP(DFT/TZ) printgap
|  2> %output
|  3>     printlevel normal
|  4> end
|  5> * xyz 0 1
|  6> C -1.4169375484959632 -0.9929311392287695 0.00019741173969303058
|  7> S -3.78796286486528e-05 0.10903666361791445 -0.0004478265175833204
|  8> O -0.0008920206379279472 0.8854095818419849 1.2669133148950784
|  9> O -0.0004612801642877287 0.8832555758139929 -1.2691334454290804
| 10> C 1.418682356476824 -0.990587349661984 0.0006913202408700859
| 11> H -1.3811502469879706 -1.6101993446697125 -0.9002699539830784
| 12> H -1.3825211887120537 -1.6074697144425545 0.9025766236519299
| 13> H -2.3081461960688645 -0.35942904896807903 -0.0014609162959109492
| 14> H 1.3839943476960972 -1.6081909742660911 -0.8995951266443437
| 15> H 2.308844988759356 -0.3556046492911528 -0.0010707019135113044
| 16> H 1.3851671219222634 -1.6049033762443274 0.903262877492489
| 17> *
| 18>
| 19>                          ****END OF INPUT****

CARTESIAN COORDINATES (ANGSTROEM)
---------------------------------
  C     -1.416938   -0.992931    0.000197
  S     -0.000038    0.109037   -0.000448
  O     -0.000892    0.885410    1.266913
  O     -0.000461    0.883256   -1.269133
  C      1.418682   -0.990587    0.000691
  H     -1.381150   -1.610199   -0.900270
  H     -1.382521   -1.607470    0.902577
  H     -2.308146   -0.359429   -0.001461
  H      1.383994   -1.608191   -0.899595
  H      2.308845   -0.355605   -0.001071
  H      1.385167   -1.604903    0.903263

 Total Charge           Charge          ....    0
 Multiplicity           Mult            ....    1
 Number of Electrons    NEL             ....   50
 Basis Dimension        Dim             ....  197

ORBITAL ENERGIES
----------------

  NO   OCC          E(Eh)            E(eV)
   0   2.0000     -94.322676     -2566.6505
   1   2.0000     -21.658710      -589.3635
   2   2.0000     -21.658700      -589.3632
   3   2.0000     -12.098909      -329.2280
   4   2.0000     -12.098580      -329.2191
   5   2.0000      -9.804603      -266.7968
   6   2.0000      -7.785533      -211.8551
   7   2.0000      -7.784608      -211.8299
   8   2.0000      -7.784247      -211.8201
   9   2.0000      -1.724780       -46.9336
  10   2.0000      -1.656432       -45.0738
  11   2.0000      -1.335566       -36.3426
  12   2.0000      -1.250230       -34.0205
  13   2.0000      -1.147536       -31.2260
  14   2.0000      -1.039267       -28.2799
  15   2.0000      -1.000420       -27.2228
  16   2.0000      -0.988263       -26.8920
  17   2.0000      -0.899901       -24.4876
  18   2.0000      -0.898233       -24.4422
  19   2.0000      -0.893234       -24.3061
  20   2.0000      -0.874211       -23.7885
  21   2.0000      -0.868713       -23.6389
  22   2.0000      -0.868470       -23.6323
  23   2.0000      -0.865063       -23.5396
  24   2.0000      -0.814890       -22.1743
  25   0.0000      -0.288402        -7.8478
  26   0.0000      -0.231170        -6.2904
  27   0.0000      -0.222996        -6.0680
  28   0.0000      -0.222068        -6.0428
  29   0.0000      -0.035979        -0.9790

MULLIKEN ATOMIC CHARGES
-----------------------
   0 C :   -0.358263
   1 S :    0.755025
   2 O :   -0.473993
   3 O :   -0.473987
   4 C :   -0.358262
   5 H :    0.145327
   6 H :    0.145378
   7 H :    0.164033
   8 H :    0.145312
   9 H :    0.164039
  10 H :    0.145391
Sum of atomic charges:   -0.0000000

LOEWDIN ATOMIC CHARGES
----------------------
   0 C :   -0.402992
   1 S :    0.728187
   2 O :   -0.334604
   3 O :   -0.334604
   4 C :   -0.402994
   5 H :    0.121336
   6 H :    0.121345
   7 H :    0.130821
   8 H :    0.121335
   9 H :    0.130822
  10 H :    0.121348

  Mayer bond orders larger than 0.100000
B(  0-C ,  1-S ) :   0.9092 B(  0-C ,  5-H ) :   0.9489 B(  0-C ,  6-H ) :   0.9489
B(  0-C ,  7-H ) :   0.9501 B(  1-S ,  2-O ) :   1.8453 B(  1-S ,  3-O ) :   1.8452
B(  1-S ,  4-C ) :   0.9092 B(  4-C ,  8-H ) :   0.9489 B(  4-C ,  9-H ) :   0.9501
B(  4-C , 10-H ) :   0.9489

FINAL SINGLE POINT ENERGY      -628.412258888245

DIPOLE MOMENT
-------------

Method             : SCF
Type of density    : Electron Density
Multiplicity       :   1
Irrep              :   0
Energy             :  -628.4204341424451741 Eh
Relativity type    :
Basis              : AO
                                X                 Y                 Z
Electronic contribution:     -0.003880900       4.721963932      -0.003674718
Nuclear contribution   :      0.005528360      -6.726806314       0.005347193
                        -----------------------------------------
Total Dipole Moment    :      0.001647460      -2.004842382       0.001672475
                        -----------------------------------------
Magnitude (a.u.)       :      2.004843756
Magnitude (Debye)      :      5.095907850

Rotational constants in cm-1:             0.147317             0.138778             0.133312
Rotational constants in MHz :          4416.454839          4160.462502          3996.604157

                             ****ORCA TERMINATED NORMALLY****
TOTAL RUN TIME: 0 days 0 hours 1 minutes 1 seconds 774 msec
