                         Program Version 6.0.0  -   RELEASE  -
|  1> ! wb97x-v def2-tzvp def2/J RIJCOSX DEFGRID2 scfconv7 GCP(DFT/TZ) printgap
|  2> %output
|  3>     printlevel normal
|  4> end
|  5> %cpcm
|  6>     smd true
|  7>     smdsolvent "water"
|  8> end
|  9> * xyz 0 1
| 10> C -1.4169375484959632 -0.9929311392287695 0.00019741173969303058
| 11> S -3.78796286486528e-05 0.10903666361791445 -0.0004478265175833204
| 12> O -0.0008920206379279472 0.8854095818419849 1.2669133148950784
| 13> O -0.0004612801642877287 0.8832555758139929 -1.2691334454290804
| 14> C 1.418682356476824 -0.990587349661984 0.0006913202408700859
| 15> H -1.3811502469879706 -1.6101993446697125 -0.9002699539830784
| 16> H -1.3825211887120537 -1.6074697144425545 0.9025766236519299
| 17> H -2.3081461960688645 -0.35942904896807903 -0.0014609162959109492
| 18> H 1.3839943476960972 -1.6081909742660911 -0.8995951266443437
| 19> H 2.308844988759356 -0.3556046492911528 -0.0010707019135113044
| 20> H 1.3851671219222634 -1.6049033762443274 0.903262877492489
| 21> *
| 22>
| 23>                          ****END OF INPUT****

CARTESIAN COORDINATES (ANGSTROEM)
---------------------------------
  C     -1.416938   -0.992931    0.000197
  S     -0.000038    0.109037   -0.000448
  O     -0.000892    0.885410    1.266913
  O     -0.000461    0.883256   -1.269133
  C      1.418682   -0.990587    0.000691
  H     -1.381150   -1.610199   -0.900270
  H     -1.382521   -1.607470    0.902577
  H     -2.308146   -0.359429   -0.001461
  H      1.383994   -1.608191   -0.899595
  H      2.308845   -0.355605   -0.001071
  H      1.385167   -1.604903    0.903263

 Total Charge           Charge          ....    0
 Multiplicity           Mult            ....    1
 Number of Electrons    NEL             ....   50
 Basis Dimension        Dim             ....  197

ORBITAL ENERGIES
----------------

  NO   OCC          E(Eh)            E(eV)
   0   2.0000     -94.326710     -2566.7603
   1   2.0000     -21.672152      -589.7292
   2   2.0000     -21.672137      -589.7288
   3   2.0000     -12.077651      -328.6496
   4   2.0000     -12.077345      -328.6413
   5   2.0000      -9.809298      -266.9246
   6   2.0000      -7.789709      -211.9688
   7   2.0000      -7.789391      -211.9601
   8   2.0000      -7.789168      -211.9540
   9   2.0000      -1.739529       -47.3350
  10   2.0000      -1.672993       -45.5244
  11   2.0000      -1.328991       -36.1637
  12   2.0000      -1.231029       -33.4980
  13   2.0000      -1.147230       -31.2177
  14   2.0000      -1.058528       -28.8040
  15   2.0000      -1.001015       -27.2390
  16   2.0000      -0.990241       -26.9458
  17   2.0000      -0.912440       -24.8288
  18   2.0000      -0.903052       -24.5733
  19   2.0000      -0.896072       -24.3834
  20   2.0000      -0.863234       -23.4898
  21   2.0000      -0.857297       -23.3282
  22   2.0000      -0.851133       -23.1605
  23   2.0000      -0.848644       -23.0928
  24   2.0000      -0.813099       -22.1255
  25   0.0000      -0.294231        -8.0064
  26   0.0000      -0.230164        -6.2631
  27   0.0000      -0.217876        -5.9287
  28   0.0000      -0.211104        -5.7444
  29   0.0000      -0.005216        -0.1419

MULLIKEN ATOMIC CHARGES
-----------------------
   0 C :   -0.386021
   1 S :    0.817598
   2 O :   -0.577322
   3 O :   -0.577319
   4 C :   -0.386027
   5 H :    0.184691
   6 H :    0.184682
   7 H :    0.185168
   8 H :    0.184689
   9 H :    0.185179
  10 H :    0.184683
Sum of atomic charges:   -0.0000000

LOEWDIN ATOMIC CHARGES
----------------------
   0 C :   -0.386251
   1 S :    0.753541
   2 O :   -0.400180
   3 O :   -0.400180
   4 C :   -0.386254
   5 H :    0.136486
   6 H :    0.136478
   7 H :    0.136696
   8 H :    0.136489
   9 H :    0.136699
  10 H :    0.136478

  Mayer bond orders larger than 0.100000
B(  0-C ,  1-S ) :   0.9362 B(  0-C ,  5-H ) :   0.9357 B(  0-C ,  6-H ) :   0.9357
B(  0-C ,  7-H ) :   0.9335 B(  1-S ,  2-O ) :   1.7476 B(  1-S ,  3-O ) :   1.7476
B(  1-S ,  4-C ) :   0.9362 B(  4-C ,  8-H ) :   0.9357 B(  4-C ,  9-H ) :   0.9335
B(  4-C , 10-H ) :   0.9357

FINAL SINGLE POINT ENERGY      -628.434802763936

DIPOLE MOMENT
-------------

Method             : SCF
Type of density    : Electron Density
Multiplicity       :   1
Irrep              :   0
Energy             :  -628.4429780181357046 Eh
Relativity type    :
Basis              : AO
                                X                 Y                 Z
Electronic contribution:     -0.003237762       3.952306709      -0.003081290
Nuclear contribution   :      0.005528360      -6.726806314       0.005347193
                        -----------------------------------------
Total Dipole Moment    :      0.002290598      -2.774499605       0.002265903
                        -----------------------------------------
Magnitude (a.u.)       :      2.774501476
Magnitude (Debye)      :      7.052222302

Rotational constants in cm-1:             0.147317             0.138778             0.133312
Rotational constants in MHz :          4416.454839          4160.462502          3996.604157

                             ****ORCA TERMINATED NORMALLY****
TOTAL RUN TIME: 0 days 0 hours 1 minutes 10 seconds 293 msec
