                         Program Version 6.0.0  -   RELEASE  -
|  1> ! r2scan-3c def2/J RI DEFGRID2 scfconv6 printgap
|  2> %output
|  3>     printlevel normal
|  4> end
|  5> * xyz 0 1
|  6> C 3.1602455351 -2.0981849132 -2.5104907802
|  7> C 1.9794768684 -1.3570531561 -1.918081324
|  8> O 2.4266414102 -0.2363212783 -1.1175968117
|  9> P 2.5550253088 -0.2852215554 0.4545645885
| 10> S 3.3007703294 1.3732875121 1.1718267421
| 11> O 3.4088576905 -1.6035141724 0.6937882407
| 12> C 4.0853105292 -1.8779180904 1.9351986684
| 13> C 3.121718379 -2.0825284084 3.0858222015
| 14> S 0.6070284049 -0.8053412419 1.1510389411
| 15> C -0.0450636718 0.8756501149 1.1649916453
| 16> S -0.3414858033 1.540224516 -0.5109786797
| 17> P -2.373874606 0.9810785865 -0.6901930588
| 18> S -3.195715481 1.3027078183 -2.4375569168
| 19> O -2.9832385763 1.7581137544 0.5487787356
| 20> C -4.3895130947 2.0794567143 0.6192098823
| 21> C -5.2369049119 0.8388135359 0.8035625945
| 22> O -2.4345448568 -0.5254072278 -0.1788249964
| 23> C -2.1039420199 -1.6192623044 -1.056789514
| 24> C -2.1612625606 -2.8947412111 -0.2423226713
| 25> H 3.7781519969 -1.4135367828 -3.0849626694
| 26> H 3.7631406171 -2.5371909605 -1.7202794692
| 27> H 2.7938828944 -2.8842931217 -3.1632704219
| 28> H 1.3735477865 -2.0203674552 -1.2936398386
| 29> H 1.3602046751 -0.9066250967 -2.6975101805
| 30> H 4.6567105143 -2.7827806209 1.7234546098
| 31> H 4.7665015446 -1.0480786721 2.1457538081
| 32> H 2.6271617942 -1.1438750991 3.3300581342
| 33> H 2.3681087781 -2.8204711147 2.8229265066
| 34> H 3.673248532 -2.4241301939 3.9558624819
| 35> H 0.6909020489 1.5346172003 1.6271645686
| 36> H -0.9782570591 0.8659990968 1.7201160684
| 37> H -4.4594975543 2.7544166991 1.4731673062
| 38> H -4.6701394426 2.60703088 -0.2977556383
| 39> H -4.9002364862 0.276710295 1.6705016605
| 40> H -6.2739890045 1.1289583592 0.9395908609
| 41> H -5.1590144202 0.2072380256 -0.0803492098
| 42> H -2.8218620274 -1.6245677716 -1.8825828138
| 43> H -1.1034572292 -1.4516630477 -1.4675627556
| 44> H -3.1567230499 -3.0272998247 0.1701562496
| 45> H -1.9229291091 -3.7371180653 -0.8829535753
| 46> H -1.4444120784 -2.842656394 0.5730465158
| 47> *
| 48>
| 49>                          ****END OF INPUT****

CARTESIAN COORDINATES (ANGSTROEM)
---------------------------------
  C      3.160246   -2.098185   -2.510491
  C      1.979477   -1.357053   -1.918081
  O      2.426641   -0.236321   -1.117597
  P      2.555025   -0.285222    0.454565
  S      3.300770    1.373288    1.171827
  O      3.408858   -1.603514    0.693788
  C      4.085311   -1.877918    1.935199
  C      3.121718   -2.082528    3.085822
  S      0.607028   -0.805341    1.151039
  C     -0.045064    0.875650    1.164992
  S     -0.341486    1.540225   -0.510979
  P     -2.373875    0.981079   -0.690193
  S     -3.195715    1.302708   -2.437557
  O     -2.983239    1.758114    0.548779
  C     -4.389513    2.079457    0.619210
  C     -5.236905    0.838814    0.803563
  O     -2.434545   -0.525407   -0.178825
  C     -2.103942   -1.619262   -1.056790
  C     -2.161263   -2.894741   -0.242323
  H      3.778152   -1.413537   -3.084963
  H      3.763141   -2.537191   -1.720279
  H      2.793883   -2.884293   -3.163270
  H      1.373548   -2.020367   -1.293640
  H      1.360205   -0.906625   -2.697510
  H      4.656711   -2.782781    1.723455
  H      4.766502   -1.048079    2.145754
  H      2.627162   -1.143875    3.330058
  H      2.368109   -2.820471    2.822927
  H      3.673249   -2.424130    3.955862
  H      0.690902    1.534617    1.627165
  H     -0.978257    0.865999    1.720116
  H     -4.459498    2.754417    1.473167
  H     -4.670139    2.607031   -0.297756
  H     -4.900236    0.276710    1.670502
  H     -6.273989    1.128958    0.939591
  H     -5.159014    0.207238   -0.080349
  H     -2.821862   -1.624568   -1.882583
  H     -1.103457   -1.451663   -1.467563
  H     -3.156723   -3.027300    0.170156
  H     -1.922929   -3.737118   -0.882954
  H     -1.444412   -2.842656    0.573047

 Total Charge           Charge          ....    0
 Multiplicity           Mult            ....    1
 Number of Electrons    NEL             ....  202
 Basis Dimension        Dim             ....  539

ORBITAL ENERGIES
----------------

  NO   OCC          E(Eh)            E(eV)
   0   2.0000     -88.579095     -2410.3597
   1   2.0000     -88.573703     -2410.2130
   2   2.0000     -88.524883     -2408.8845
   3   2.0000     -88.521033     -2408.7798
   4   2.0000     -76.918949     -2093.0710
   5   2.0000     -76.914241     -2092.9429
   6   2.0000     -19.001765      -517.0643
   7   2.0000     -18.994219      -516.8590
   8   2.0000     -18.994167      -516.8576
   9   2.0000     -18.992762      -516.8193
  10   2.0000     -10.107303      -275.0337
  11   2.0000     -10.106667      -275.0164
  12   2.0000     -10.105764      -274.9918
  13   2.0000     -10.100900      -274.8595
  14   2.0000     -10.100223      -274.8410
  15   2.0000     -10.035690      -273.0850
  16   2.0000     -10.035047      -273.0675
  17   2.0000     -10.034214      -273.0448
  18   2.0000     -10.031167      -272.9619
  19   2.0000      -7.873693      -214.2541
  20   2.0000      -7.867475      -214.0849
  21   2.0000      -7.819549      -212.7808
  22   2.0000      -7.815610      -212.6736
  23   2.0000      -6.597462      -179.5261
  24   2.0000      -6.592721      -179.3971
  25   2.0000      -5.820411      -158.3814
  26   2.0000      -5.817515      -158.3026
  27   2.0000      -5.814785      -158.2283
  28   2.0000      -5.811047      -158.1266
  29   2.0000      -5.810952      -158.1240
  30   2.0000      -5.804538      -157.9495
  31   2.0000      -5.767276      -156.9356
  32   2.0000      -5.763289      -156.8271
  33   2.0000      -5.759747      -156.7307
  34   2.0000      -5.759568      -156.7258
  35   2.0000      -5.755927      -156.6267
  36   2.0000      -5.755578      -156.6173
  37   2.0000      -4.743341      -129.0729
  38   2.0000      -4.742321      -129.0451
  39   2.0000      -4.740910      -129.0067
  40   2.0000      -4.738061      -128.9292
  41   2.0000      -4.737843      -128.9233
  42   2.0000      -4.736420      -128.8845
  43   2.0000      -1.057244       -28.7691
  44   2.0000      -1.052466       -28.6391
  45   2.0000      -1.016309       -27.6552
  46   2.0000      -1.013518       -27.5792
  47   2.0000      -0.802379       -21.8338
  48   2.0000      -0.763223       -20.7684
  49   2.0000      -0.754294       -20.5254
  50   2.0000      -0.740439       -20.1484
  51   2.0000      -0.735814       -20.0225
  52   2.0000      -0.712512       -19.3884
  53   2.0000      -0.690399       -18.7867
  54   2.0000      -0.670590       -18.2477
  55   2.0000      -0.633052       -17.2262
  56   2.0000      -0.628191       -17.0939
  57   2.0000      -0.612675       -16.6717
  58   2.0000      -0.601809       -16.3761
  59   2.0000      -0.595272       -16.1982
  60   2.0000      -0.532944       -14.5022
  61   2.0000      -0.529136       -14.3985
  62   2.0000      -0.501310       -13.6413
  63   2.0000      -0.497935       -13.5495
  64   2.0000      -0.483440       -13.1551
  65   2.0000      -0.472532       -12.8582
  66   2.0000      -0.460318       -12.5259
  67   2.0000      -0.453695       -12.3457
  68   2.0000      -0.450440       -12.2571
  69   2.0000      -0.437146       -11.8953
  70   2.0000      -0.435638       -11.8543
  71   2.0000      -0.417479       -11.3602
  72   2.0000      -0.414386       -11.2760
  73   2.0000      -0.403022       -10.9668
  74   2.0000      -0.398041       -10.8312
  75   2.0000      -0.390316       -10.6210
  76   2.0000      -0.383088       -10.4243
  77   2.0000      -0.381477       -10.3805
  78   2.0000      -0.375869       -10.2279
  79   2.0000      -0.372457       -10.1351
  80   2.0000      -0.367665       -10.0047
  81   2.0000      -0.364715        -9.9244
  82   2.0000      -0.363174        -9.8825
  83   2.0000      -0.358200        -9.7471
  84   2.0000      -0.350426        -9.5356
  85   2.0000      -0.335201        -9.1213
  86   2.0000      -0.328314        -8.9339
  87   2.0000      -0.318400        -8.6641
  88   2.0000      -0.317498        -8.6396
  89   2.0000      -0.313083        -8.5194
  90   2.0000      -0.305940        -8.3251
  91   2.0000      -0.292596        -7.9620
  92   2.0000      -0.291407        -7.9296
  93   2.0000      -0.284954        -7.7540
  94   2.0000      -0.271179        -7.3792
  95   2.0000      -0.250434        -6.8147
  96   2.0000      -0.232504        -6.3268
  97   2.0000      -0.225601        -6.1389
  98   2.0000      -0.220765        -6.0073
  99   2.0000      -0.219690        -5.9781
 100   2.0000      -0.214181        -5.8282
 101   0.0000      -0.043901        -1.1946
 102   0.0000      -0.023823        -0.6483
 103   0.0000      -0.016591        -0.4515
 104   0.0000       0.005048         0.1374
 105   0.0000       0.007872         0.2142

MULLIKEN ATOMIC CHARGES
-----------------------
   0 C :   -0.469849
   1 C :   -0.105441
   2 O :   -0.260628
   3 P :    0.639509
   4 S :   -0.432878
   5 O :   -0.293737
   6 C :   -0.164536
   7 C :   -0.448025
   8 S :   -0.156541
   9 C :   -0.240092
  10 S :   -0.112962
  11 P :    0.638189
  12 S :   -0.459727
  13 O :   -0.300424
  14 C :   -0.148427
  15 C :   -0.438371
  16 O :   -0.267285
  17 C :   -0.120194
  18 C :   -0.462247
  19 H :    0.160500
  20 H :    0.164139
  21 H :    0.146154
  22 H :    0.149518
  23 H :    0.167808
  24 H :    0.148849
  25 H :    0.176036
  26 H :    0.181238
  27 H :    0.152659
  28 H :    0.149558
  29 H :    0.222986
  30 H :    0.203720
  31 H :    0.149836
  32 H :    0.173971
  33 H :    0.153093
  34 H :    0.148384
  35 H :    0.168822
  36 H :    0.168218
  37 H :    0.153342
  38 H :    0.153538
  39 H :    0.147969
  40 H :    0.163329
Sum of atomic charges:    0.0000000

LOEWDIN ATOMIC CHARGES
----------------------
   0 C :   -0.391588
   1 C :    0.013907
   2 O :   -0.652426
   3 P :    0.378604
   4 S :   -0.096882
   5 O :   -0.670644
   6 C :    0.023654
   7 C :   -0.408463
   8 S :    0.134363
   9 C :   -0.411918
  10 S :    0.186415
  11 P :    0.361477
  12 S :   -0.111045
  13 O :   -0.679215
  14 C :    0.024580
  15 C :   -0.400001
  16 O :   -0.682916
  17 C :    0.010825
  18 C :   -0.392281
  19 H :    0.163277
  20 H :    0.165033
  21 H :    0.158861
  22 H :    0.172490
  23 H :    0.184057
  24 H :    0.179739
  25 H :    0.181392
  26 H :    0.166891
  27 H :    0.159562
  28 H :    0.160286
  29 H :    0.195334
  30 H :    0.193872
  31 H :    0.180054
  32 H :    0.181239
  33 H :    0.159721
  34 H :    0.160098
  35 H :    0.165691
  36 H :    0.179278
  37 H :    0.174442
  38 H :    0.160360
  39 H :    0.159718
  40 H :    0.162160

  Mayer bond orders larger than 0.100000
B(  0-C ,  1-C ) :   0.9459 B(  0-C , 19-H ) :   0.9711 B(  0-C , 20-H ) :   0.9695
B(  0-C , 21-H ) :   0.9649 B(  1-C ,  2-O ) :   0.7376 B(  1-C , 22-H ) :   0.9671
B(  1-C , 23-H ) :   0.9567 B(  2-O ,  3-P ) :   1.1384 B(  3-P ,  4-S ) :   1.8521
B(  3-P ,  5-O ) :   1.0378 B(  3-P ,  8-S ) :   1.0052 B(  5-O ,  6-C ) :   0.8182
B(  6-C ,  7-C ) :   0.9157 B(  6-C , 24-H ) :   0.9615 B(  6-C , 25-H ) :   0.9677
B(  7-C , 26-H ) :   0.9631 B(  7-C , 27-H ) :   0.9678 B(  7-C , 28-H ) :   0.9553
B(  8-S ,  9-C ) :   0.9101 B(  9-C , 10-S ) :   0.9072 B(  9-C , 29-H ) :   0.9061
B(  9-C , 30-H ) :   0.9175 B( 10-S , 11-P ) :   1.0913 B( 11-P , 12-S ) :   1.8068
B( 11-P , 13-O ) :   1.1442 B( 11-P , 16-O ) :   1.0516 B( 13-O , 14-C ) :   0.8038
B( 14-C , 15-C ) :   0.9285 B( 14-C , 31-H ) :   0.9619 B( 14-C , 32-H ) :   0.9654
B( 15-C , 33-H ) :   0.9712 B( 15-C , 34-H ) :   0.9615 B( 15-C , 35-H ) :   0.9589
B( 16-O , 17-C ) :   0.7537 B( 17-C , 18-C ) :   0.9310 B( 17-C , 36-H ) :   0.9365
B( 17-C , 37-H ) :   0.9489 B( 18-C , 38-H ) :   0.9720 B( 18-C , 39-H ) :   0.9691
B( 18-C , 40-H ) :   0.9698

Dispersion correction           -0.021079494
FINAL SINGLE POINT ENERGY     -2932.463513229806

DIPOLE MOMENT
-------------

Method             : SCF
Type of density    : Electron Density
Multiplicity       :   1
Irrep              :   0
Energy             : -2932.4888450793823722 Eh
Relativity type    :
Basis              : AO
                                X                 Y                 Z
Electronic contribution:      4.601876525      20.488552693      -4.514225575
Nuclear contribution   :     -4.893807107     -22.579203550       5.463722195
                        -----------------------------------------
Total Dipole Moment    :     -0.291930582      -2.090650857       0.949496620
                        -----------------------------------------
Magnitude (a.u.)       :      2.314646475
Magnitude (Debye)      :      5.883363780

Rotational constants in cm-1:             0.013151             0.004346             0.004218
Rotational constants in MHz :           394.271069           130.296651           126.461888

                             ****ORCA TERMINATED NORMALLY****
TOTAL RUN TIME: 0 days 0 hours 1 minutes 18 seconds 942 msec
