                         Program Version 6.0.0  -   RELEASE  -
|  1> ! r2scan-3c def2/J RI DEFGRID2 scfconv6 printgap
|  2> %output
|  3>     printlevel normal
|  4> end
|  5> %cpcm
|  6>     smd true
|  7>     smdsolvent "water"
|  8> end
|  9> * xyz 0 1
| 10> C 3.1602455351 -2.0981849132 -2.5104907802
| 11> C 1.9794768684 -1.3570531561 -1.918081324
| 12> O 2.4266414102 -0.2363212783 -1.1175968117
| 13> P 2.5550253088 -0.2852215554 0.4545645885
| 14> S 3.3007703294 1.3732875121 1.1718267421
| 15> O 3.4088576905 -1.6035141724 0.6937882407
| 16> C 4.0853105292 -1.8779180904 1.9351986684
| 17> C 3.121718379 -2.0825284084 3.0858222015
| 18> S 0.6070284049 -0.8053412419 1.1510389411
| 19> C -0.0450636718 0.8756501149 1.1649916453
| 20> S -0.3414858033 1.540224516 -0.5109786797
| 21> P -2.373874606 0.9810785865 -0.6901930588
| 22> S -3.195715481 1.3027078183 -2.4375569168
| 23> O -2.9832385763 1.7581137544 0.5487787356
| 24> C -4.3895130947 2.0794567143 0.6192098823
| 25> C -5.2369049119 0.8388135359 0.8035625945
| 26> O -2.4345448568 -0.5254072278 -0.1788249964
| 27> C -2.1039420199 -1.6192623044 -1.056789514
| 28> C -2.1612625606 -2.8947412111 -0.2423226713
| 29> H 3.7781519969 -1.4135367828 -3.0849626694
| 30> H 3.7631406171 -2.5371909605 -1.7202794692
| 31> H 2.7938828944 -2.8842931217 -3.1632704219
| 32> H 1.3735477865 -2.0203674552 -1.2936398386
| 33> H 1.3602046751 -0.9066250967 -2.6975101805
| 34> H 4.6567105143 -2.7827806209 1.7234546098
| 35> H 4.7665015446 -1.0480786721 2.1457538081
| 36> H 2.6271617942 -1.1438750991 3.3300581342
| 37> H 2.3681087781 -2.8204711147 2.8229265066
| 38> H 3.673248532 -2.4241301939 3.9558624819
| 39> H 0.6909020489 1.5346172003 1.6271645686
| 40> H -0.9782570591 0.8659990968 1.7201160684
| 41> H -4.4594975543 2.7544166991 1.4731673062
| 42> H -4.6701394426 2.60703088 -0.2977556383
| 43> H -4.9002364862 0.276710295 1.6705016605
| 44> H -6.2739890045 1.1289583592 0.9395908609
| 45> H -5.1590144202 0.2072380256 -0.0803492098
| 46> H -2.8218620274 -1.6245677716 -1.8825828138
| 47> H -1.1034572292 -1.4516630477 -1.4675627556
| 48> H -3.1567230499 -3.0272998247 0.1701562496
| 49> H -1.9229291091 -3.7371180653 -0.8829535753
| 50> H -1.4444120784 -2.842656394 0.5730465158
| 51> *
| 52>
| 53>                          ****END OF INPUT****

CARTESIAN COORDINATES (ANGSTROEM)
---------------------------------
  C      3.160246   -2.098185   -2.510491
  C      1.979477   -1.357053   -1.918081
  O      2.426641   -0.236321   -1.117597
  P      2.555025   -0.285222    0.454565
  S      3.300770    1.373288    1.171827
  O      3.408858   -1.603514    0.693788
  C      4.085311   -1.877918    1.935199
  C      3.121718   -2.082528    3.085822
  S      0.607028   -0.805341    1.151039
  C     -0.045064    0.875650    1.164992
  S     -0.341486    1.540225   -0.510979
  P     -2.373875    0.981079   -0.690193
  S     -3.195715    1.302708   -2.437557
  O     -2.983239    1.758114    0.548779
  C     -4.389513    2.079457    0.619210
  C     -5.236905    0.838814    0.803563
  O     -2.434545   -0.525407   -0.178825
  C     -2.103942   -1.619262   -1.056790
  C     -2.161263   -2.894741   -0.242323
  H      3.778152   -1.413537   -3.084963
  H      3.763141   -2.537191   -1.720279
  H      2.793883   -2.884293   -3.163270
  H      1.373548   -2.020367   -1.293640
  H      1.360205   -0.906625   -2.697510
  H      4.656711   -2.782781    1.723455
  H      4.766502   -1.048079    2.145754
  H      2.627162   -1.143875    3.330058
  H      2.368109   -2.820471    2.822927
  H      3.673249   -2.424130    3.955862
  H      0.690902    1.534617    1.627165
  H     -0.978257    0.865999    1.720116
  H     -4.459498    2.754417    1.473167
  H     -4.670139    2.607031   -0.297756
  H     -4.900236    0.276710    1.670502
  H     -6.273989    1.128958    0.939591
  H     -5.159014    0.207238   -0.080349
  H     -2.821862   -1.624568   -1.882583
  H     -1.103457   -1.451663   -1.467563
  H     -3.156723   -3.027300    0.170156
  H     -1.922929   -3.737118   -0.882954
  H     -1.444412   -2.842656    0.573047

 Total Charge           Charge          ....    0
 Multiplicity           Mult            ....    1
 Number of Electrons    NEL             ....  202
 Basis Dimension        Dim             ....  539

ORBITAL ENERGIES
----------------

  NO   OCC          E(Eh)            E(eV)
   0   2.0000     -88.579351     -2410.3667
   1   2.0000     -88.578277     -2410.3375
   2   2.0000     -88.532275     -2409.0857
   3   2.0000     -88.530608     -2409.0403
   4   2.0000     -76.921484     -2093.1400
   5   2.0000     -76.920202     -2093.1051
   6   2.0000     -18.998387      -516.9724
   7   2.0000     -18.995244      -516.8869
   8   2.0000     -18.994914      -516.8779
   9   2.0000     -18.994492      -516.8664
  10   2.0000     -10.105619      -274.9879
  11   2.0000     -10.092348      -274.6267
  12   2.0000     -10.091818      -274.6123
  13   2.0000     -10.090411      -274.5740
  14   2.0000     -10.089740      -274.5558
  15   2.0000     -10.019595      -272.6470
  16   2.0000     -10.019230      -272.6371
  17   2.0000     -10.018939      -272.6292
  18   2.0000     -10.018585      -272.6196
  19   2.0000      -7.873337      -214.2444
  20   2.0000      -7.872749      -214.2284
  21   2.0000      -7.827335      -212.9926
  22   2.0000      -7.825557      -212.9442
  23   2.0000      -6.600057      -179.5967
  24   2.0000      -6.598696      -179.5597
  25   2.0000      -5.820555      -158.3854
  26   2.0000      -5.819530      -158.3575
  27   2.0000      -5.816851      -158.2846
  28   2.0000      -5.816615      -158.2781
  29   2.0000      -5.810537      -158.1128
  30   2.0000      -5.809912      -158.0957
  31   2.0000      -5.774927      -157.1437
  32   2.0000      -5.773136      -157.0950
  33   2.0000      -5.767515      -156.9420
  34   2.0000      -5.767431      -156.9398
  35   2.0000      -5.765860      -156.8970
  36   2.0000      -5.765571      -156.8892
  37   2.0000      -4.745881      -129.1420
  38   2.0000      -4.744861      -129.1142
  39   2.0000      -4.743973      -129.0901
  40   2.0000      -4.743781      -129.0848
  41   2.0000      -4.743651      -129.0813
  42   2.0000      -4.742540      -129.0511
  43   2.0000      -1.055523       -28.7222
  44   2.0000      -1.053384       -28.6640
  45   2.0000      -1.014355       -27.6020
  46   2.0000      -1.013646       -27.5827
  47   2.0000      -0.802717       -21.8430
  48   2.0000      -0.758199       -20.6316
  49   2.0000      -0.745799       -20.2942
  50   2.0000      -0.727107       -19.7856
  51   2.0000      -0.724965       -19.7273
  52   2.0000      -0.709947       -19.3186
  53   2.0000      -0.692914       -18.8551
  54   2.0000      -0.675884       -18.3917
  55   2.0000      -0.628372       -17.0989
  56   2.0000      -0.621623       -16.9152
  57   2.0000      -0.603283       -16.4162
  58   2.0000      -0.593100       -16.1391
  59   2.0000      -0.590915       -16.0796
  60   2.0000      -0.527950       -14.3662
  61   2.0000      -0.521902       -14.2017
  62   2.0000      -0.495402       -13.4806
  63   2.0000      -0.491481       -13.3739
  64   2.0000      -0.480768       -13.0824
  65   2.0000      -0.464771       -12.6471
  66   2.0000      -0.454921       -12.3790
  67   2.0000      -0.444662       -12.0999
  68   2.0000      -0.438520       -11.9327
  69   2.0000      -0.437582       -11.9072
  70   2.0000      -0.428796       -11.6681
  71   2.0000      -0.411587       -11.1999
  72   2.0000      -0.406906       -11.0725
  73   2.0000      -0.397692       -10.8217
  74   2.0000      -0.394140       -10.7251
  75   2.0000      -0.386409       -10.5147
  76   2.0000      -0.377333       -10.2678
  77   2.0000      -0.374318       -10.1857
  78   2.0000      -0.363619        -9.8946
  79   2.0000      -0.361286        -9.8311
  80   2.0000      -0.357845        -9.7374
  81   2.0000      -0.352890        -9.6026
  82   2.0000      -0.352524        -9.5927
  83   2.0000      -0.348836        -9.4923
  84   2.0000      -0.344840        -9.3836
  85   2.0000      -0.328203        -8.9308
  86   2.0000      -0.322656        -8.7799
  87   2.0000      -0.314757        -8.5650
  88   2.0000      -0.308633        -8.3983
  89   2.0000      -0.304230        -8.2785
  90   2.0000      -0.302620        -8.2347
  91   2.0000      -0.290421        -7.9027
  92   2.0000      -0.288049        -7.8382
  93   2.0000      -0.280616        -7.6360
  94   2.0000      -0.270277        -7.3546
  95   2.0000      -0.252607        -6.8738
  96   2.0000      -0.239864        -6.5270
  97   2.0000      -0.234158        -6.3718
  98   2.0000      -0.230789        -6.2801
  99   2.0000      -0.228884        -6.2283
 100   2.0000      -0.220650        -6.0042
 101   0.0000      -0.046174        -1.2565
 102   0.0000      -0.029989        -0.8160
 103   0.0000      -0.020245        -0.5509
 104   0.0000       0.002330         0.0634
 105   0.0000       0.007658         0.2084

MULLIKEN ATOMIC CHARGES
-----------------------
   0 C :   -0.512343
   1 C :   -0.088311
   2 O :   -0.297532
   3 P :    0.654000
   4 S :   -0.496998
   5 O :   -0.309592
   6 C :   -0.157394
   7 C :   -0.485789
   8 S :   -0.137923
   9 C :   -0.245726
  10 S :   -0.159425
  11 P :    0.666271
  12 S :   -0.518464
  13 O :   -0.321135
  14 C :   -0.138967
  15 C :   -0.479214
  16 O :   -0.284688
  17 C :   -0.117016
  18 C :   -0.494277
  19 H :    0.167357
  20 H :    0.169882
  21 H :    0.171343
  22 H :    0.171478
  23 H :    0.181011
  24 H :    0.176935
  25 H :    0.180491
  26 H :    0.175181
  27 H :    0.169281
  28 H :    0.173554
  29 H :    0.234257
  30 H :    0.237792
  31 H :    0.176072
  32 H :    0.175995
  33 H :    0.169897
  34 H :    0.172963
  35 H :    0.167747
  36 H :    0.172803
  37 H :    0.175627
  38 H :    0.166580
  39 H :    0.172704
  40 H :    0.165572
Sum of atomic charges:    0.0000000

LOEWDIN ATOMIC CHARGES
----------------------
   0 C :   -0.395099
   1 C :    0.022601
   2 O :   -0.676542
   3 P :    0.381681
   4 S :   -0.144959
   5 O :   -0.672909
   6 C :    0.029596
   7 C :   -0.410831
   8 S :    0.152742
   9 C :   -0.405531
  10 S :    0.157502
  11 P :    0.366139
  12 S :   -0.151943
  13 O :   -0.687254
  14 C :    0.029535
  15 C :   -0.402789
  16 O :   -0.687959
  17 C :    0.016344
  18 C :   -0.393180
  19 H :    0.163734
  20 H :    0.165261
  21 H :    0.169015
  22 H :    0.182310
  23 H :    0.190320
  24 H :    0.191878
  25 H :    0.182236
  26 H :    0.162064
  27 H :    0.164023
  28 H :    0.169048
  29 H :    0.198675
  30 H :    0.205502
  31 H :    0.191210
  32 H :    0.181709
  33 H :    0.164313
  34 H :    0.169308
  35 H :    0.162936
  36 H :    0.181838
  37 H :    0.181574
  38 H :    0.163792
  39 H :    0.169717
  40 H :    0.162390

  Mayer bond orders larger than 0.100000
B(  0-C ,  1-C ) :   0.9352 B(  0-C , 19-H ) :   0.9700 B(  0-C , 20-H ) :   0.9686
B(  0-C , 21-H ) :   0.9587 B(  1-C ,  2-O ) :   0.7307 B(  1-C , 22-H ) :   0.9566
B(  1-C , 23-H ) :   0.9486 B(  2-O ,  3-P ) :   1.1440 B(  3-P ,  4-S ) :   1.8186
B(  3-P ,  5-O ) :   1.0516 B(  3-P ,  8-S ) :   1.0218 B(  5-O ,  6-C ) :   0.8060
B(  6-C ,  7-C ) :   0.9031 B(  6-C , 24-H ) :   0.9505 B(  6-C , 25-H ) :   0.9669
B(  7-C , 26-H ) :   0.9648 B(  7-C , 27-H ) :   0.9646 B(  7-C , 28-H ) :   0.9503
B(  8-S ,  9-C ) :   0.9078 B(  9-C , 10-S ) :   0.8956 B(  9-C , 29-H ) :   0.9015
B(  9-C , 30-H ) :   0.9074 B( 10-S , 11-P ) :   1.1021 B( 11-P , 12-S ) :   1.7716
B( 11-P , 13-O ) :   1.1536 B( 11-P , 16-O ) :   1.0659 B( 13-O , 14-C ) :   0.7913
B( 14-C , 15-C ) :   0.9180 B( 14-C , 31-H ) :   0.9513 B( 14-C , 32-H ) :   0.9613
B( 15-C , 33-H ) :   0.9697 B( 15-C , 34-H ) :   0.9556 B( 15-C , 35-H ) :   0.9583
B( 16-O , 17-C ) :   0.7436 B( 17-C , 18-C ) :   0.9305 B( 17-C , 36-H ) :   0.9320
B( 17-C , 37-H ) :   0.9411 B( 18-C , 38-H ) :   0.9698 B( 18-C , 39-H ) :   0.9620
B( 18-C , 40-H ) :   0.9680

Dispersion correction           -0.021079494
FINAL SINGLE POINT ENERGY     -2932.474860161743

DIPOLE MOMENT
-------------

Method             : SCF
Type of density    : Electron Density
Multiplicity       :   1
Irrep              :   0
Energy             : -2932.5001920113186316 Eh
Relativity type    :
Basis              : AO
                                X                 Y                 Z
Electronic contribution:      4.316577214      19.530014163      -4.094704006
Nuclear contribution   :     -4.893807107     -22.579203550       5.463722195
                        -----------------------------------------
Total Dipole Moment    :     -0.577229894      -3.049189387       1.369018189
                        -----------------------------------------
Magnitude (a.u.)       :      3.391896383
Magnitude (Debye)      :      8.621515442

Rotational constants in cm-1:             0.013151             0.004346             0.004218
Rotational constants in MHz :           394.271069           130.296651           126.461888

                             ****ORCA TERMINATED NORMALLY****
TOTAL RUN TIME: 0 days 0 hours 1 minutes 54 seconds 860 msec
