                         Program Version 6.0.0  -   RELEASE  -
|  1> ! r2scan-3c def2/J RI DEFGRID2 scfconv6 printgap
|  2> %output
|  3>     printlevel normal
|  4> end
|  5> * xyz 0 1
|  6> C 3.0398145817 -1.8391450642 0.0778670324
|  7> C 1.7251718801 -1.1569839962 0.0450231069
|  8> C 1.5157826545 0.1752650773 -0.0777465603
|  9> C 0.1915639736 0.759254957 -0.0980352962
| 10> O 0.043353761 1.9680140764 -0.230395753
| 11> N -0.8878327334 -0.1213521372 0.0426416081
| 12> C -0.6951227634 -1.4859731161 0.1309278057
| 13> O -1.5688877072 -2.3305812572 0.1989365549
| 14> N 0.6091046013 -1.9252189286 0.1424263834
| 15> C -2.2588718892 0.5028439102 0.0702537167
| 16> C -3.400174254 -0.4957921806 0.2672919753
| 17> C -2.3127806025 1.4822722996 1.2491324724
| 18> C -2.4926158898 1.2077799771 -1.2704091385
| 19> Cl 2.812279515 1.313441123 -0.2281692296
| 20> H 3.837873858 -1.11235661 -0.0244936887
| 21> H 3.1025592327 -2.562079919 -0.7320780043
| 22> H 3.155778271 -2.3719876794 1.0188691987
| 23> H 0.704830439 -2.9336818927 0.2185910079
| 24> H -3.299521266 -1.0467002594 1.1970407107
| 25> H -4.325914222 0.0725377063 0.3021369595
| 26> H -3.4635358572 -1.2064552344 -0.5501141392
| 27> H -1.5957882614 2.2885107604 1.1337451303
| 28> H -2.1073420928 0.9557049465 2.1785627342
| 29> H -3.3065616147 1.9148311374 1.3060046737
| 30> H -2.4115394856 0.4912683171 -2.0848896769
| 31> H -3.49052061 1.6344852434 -1.2792870963
| 32> H -1.7757219382 2.0069176887 -1.4295770186
| 33> *
| 34>
| 35>                          ****END OF INPUT****

CARTESIAN COORDINATES (ANGSTROEM)
---------------------------------
  C      3.039815   -1.839145    0.077867
  C      1.725172   -1.156984    0.045023
  C      1.515783    0.175265   -0.077747
  C      0.191564    0.759255   -0.098035
  O      0.043354    1.968014   -0.230396
  N     -0.887833   -0.121352    0.042642
  C     -0.695123   -1.485973    0.130928
  O     -1.568888   -2.330581    0.198937
  N      0.609105   -1.925219    0.142426
  C     -2.258872    0.502844    0.070254
  C     -3.400174   -0.495792    0.267292
  C     -2.312781    1.482272    1.249132
  C     -2.492616    1.207780   -1.270409
  Cl     2.812280    1.313441   -0.228169
  H      3.837874   -1.112357   -0.024494
  H      3.102559   -2.562080   -0.732078
  H      3.155778   -2.371988    1.018869
  H      0.704830   -2.933682    0.218591
  H     -3.299521   -1.046700    1.197041
  H     -4.325914    0.072538    0.302137
  H     -3.463536   -1.206455   -0.550114
  H     -1.595788    2.288511    1.133745
  H     -2.107342    0.955705    2.178563
  H     -3.306562    1.914831    1.306005
  H     -2.411539    0.491268   -2.084890
  H     -3.490521    1.634485   -1.279287
  H     -1.775722    2.006918   -1.429577

 Total Charge           Charge          ....    0
 Multiplicity           Mult            ....    1
 Number of Electrons    NEL             ....  114
 Basis Dimension        Dim             ....  359

ORBITAL ENERGIES
----------------

  NO   OCC          E(Eh)            E(eV)
   0   2.0000    -101.224714     -2754.4645
   1   2.0000     -18.927420      -515.0413
   2   2.0000     -18.925885      -514.9995
   3   2.0000     -14.235331      -387.3631
   4   2.0000     -14.231190      -387.2504
   5   2.0000     -10.183102      -277.0963
   6   2.0000     -10.151670      -276.2410
   7   2.0000     -10.125619      -275.5321
   8   2.0000     -10.102550      -274.9044
   9   2.0000     -10.096029      -274.7269
  10   2.0000     -10.067479      -273.9500
  11   2.0000     -10.014661      -272.5128
  12   2.0000     -10.014532      -272.5093
  13   2.0000     -10.014517      -272.5089
  14   2.0000      -9.380113      -255.2458
  15   2.0000      -7.126801      -193.9301
  16   2.0000      -7.116194      -193.6415
  17   2.0000      -7.115687      -193.6277
  18   2.0000      -1.051329       -28.6081
  19   2.0000      -1.014099       -27.5950
  20   2.0000      -0.955004       -25.9870
  21   2.0000      -0.917318       -24.9615
  22   2.0000      -0.846643       -23.0383
  23   2.0000      -0.782949       -21.3051
  24   2.0000      -0.764243       -20.7961
  25   2.0000      -0.707823       -19.2608
  26   2.0000      -0.658728       -17.9249
  27   2.0000      -0.657870       -17.9015
  28   2.0000      -0.635080       -17.2814
  29   2.0000      -0.625264       -17.0143
  30   2.0000      -0.565384       -15.3849
  31   2.0000      -0.550023       -14.9669
  32   2.0000      -0.513686       -13.9781
  33   2.0000      -0.471682       -12.8351
  34   2.0000      -0.452688       -12.3183
  35   2.0000      -0.435048       -11.8383
  36   2.0000      -0.433133       -11.7861
  37   2.0000      -0.422889       -11.5074
  38   2.0000      -0.413768       -11.2592
  39   2.0000      -0.406236       -11.0542
  40   2.0000      -0.402904       -10.9636
  41   2.0000      -0.396474       -10.7886
  42   2.0000      -0.393353       -10.7037
  43   2.0000      -0.383695       -10.4409
  44   2.0000      -0.360775        -9.8172
  45   2.0000      -0.358863        -9.7651
  46   2.0000      -0.347641        -9.4598
  47   2.0000      -0.340631        -9.2690
  48   2.0000      -0.326524        -8.8852
  49   2.0000      -0.312882        -8.5139
  50   2.0000      -0.306413        -8.3379
  51   2.0000      -0.303751        -8.2655
  52   2.0000      -0.288602        -7.8533
  53   2.0000      -0.253070        -6.8864
  54   2.0000      -0.250775        -6.8239
  55   2.0000      -0.229177        -6.2362
  56   2.0000      -0.216324        -5.8865
  57   0.0000      -0.072662        -1.9772
  58   0.0000      -0.024098        -0.6557
  59   0.0000      -0.000665        -0.0181
  60   0.0000       0.041478         1.1287
  61   0.0000       0.064023         1.7421

MULLIKEN ATOMIC CHARGES
-----------------------
   0 C :   -0.608914
   1 C :    0.153951
   2 C :   -0.090903
   3 C :    0.217312
   4 O :   -0.444377
   5 N :    0.191653
   6 C :    0.218994
   7 O :   -0.446906
   8 N :   -0.022679
   9 C :    0.102416
  10 C :   -0.408278
  11 C :   -0.562387
  12 C :   -0.567234
  13 Cl:   -0.094957
  14 H :    0.191277
  15 H :    0.174795
  16 H :    0.176715
  17 H :    0.280163
  18 H :    0.170895
  19 H :    0.151132
  20 H :    0.175750
  21 H :    0.204810
  22 H :    0.158220
  23 H :    0.158122
  24 H :    0.159309
  25 H :    0.157652
  26 H :    0.203468
Sum of atomic charges:   -0.0000000

LOEWDIN ATOMIC CHARGES
----------------------
   0 C :   -0.349549
   1 C :    0.156502
   2 C :   -0.126037
   3 C :    0.363032
   4 O :   -0.510115
   5 N :   -0.598731
   6 C :    0.469121
   7 O :   -0.433707
   8 N :   -0.523700
   9 C :    0.061365
  10 C :   -0.348642
  11 C :   -0.355424
  12 C :   -0.355733
  13 Cl:    0.185129
  14 H :    0.181141
  15 H :    0.175484
  16 H :    0.176156
  17 H :    0.300176
  18 H :    0.174382
  19 H :    0.156206
  20 H :    0.176960
  21 H :    0.190411
  22 H :    0.162061
  23 H :    0.160962
  24 H :    0.162282
  25 H :    0.160971
  26 H :    0.189297

  Mayer bond orders larger than 0.100000
B(  0-C ,  1-C ) :   0.8470 B(  0-C , 14-H ) :   0.9572 B(  0-C , 15-H ) :   0.9678
B(  0-C , 16-H ) :   0.9656 B(  1-C ,  2-C ) :   1.4976 B(  1-C ,  8-N ) :   1.1527
B(  2-C ,  3-C ) :   0.9508 B(  2-C , 13-Cl) :   1.1494 B(  3-C ,  4-O ) :   1.8828
B(  3-C ,  5-N ) :   1.0985 B(  5-N ,  6-C ) :   1.1314 B(  5-N ,  9-C ) :   0.8556
B(  6-C ,  7-O ) :   1.8923 B(  6-C ,  8-N ) :   1.0356 B(  8-N , 17-H ) :   0.9048
B(  9-C , 10-C ) :   0.9344 B(  9-C , 11-C ) :   0.9231 B(  9-C , 12-C ) :   0.9265
B( 10-C , 18-H ) :   0.9685 B( 10-C , 19-H ) :   0.9566 B( 10-C , 20-H ) :   0.9668
B( 11-C , 21-H ) :   0.9583 B( 11-C , 22-H ) :   0.9676 B( 11-C , 23-H ) :   0.9719
B( 12-C , 24-H ) :   0.9672 B( 12-C , 25-H ) :   0.9720 B( 12-C , 26-H ) :   0.9600

Dispersion correction           -0.011525323
FINAL SINGLE POINT ENERGY     -1070.813082388946

DIPOLE MOMENT
-------------

Method             : SCF
Type of density    : Electron Density
Multiplicity       :   1
Irrep              :   0
Energy             : -1070.8245269396995809 Eh
Relativity type    :
Basis              : AO
                                X                 Y                 Z
Electronic contribution:     18.552142513       2.288027933      -1.329702355
Nuclear contribution   :    -17.848280555      -3.532966510       1.483746991
                        -----------------------------------------
Total Dipole Moment    :      0.703861958      -1.244938576       0.154044636
                        -----------------------------------------
Magnitude (a.u.)       :      1.438410047
Magnitude (Debye)      :      3.656147782

Rotational constants in cm-1:             0.033364             0.016338             0.011867
Rotational constants in MHz :          1000.215031           489.808320           355.750957

                             ****ORCA TERMINATED NORMALLY****
TOTAL RUN TIME: 0 days 0 hours 1 minutes 6 seconds 705 msec
