                         Program Version 6.0.0  -   RELEASE  -
|  1> ! r2scan-3c def2/J RI DEFGRID2 scfconv6 printgap
|  2> %output
|  3>     printlevel normal
|  4> end
|  5> %cpcm
|  6>     smd true
|  7>     smdsolvent "water"
|  8> end
|  9> * xyz 0 1
| 10> C 3.0398145817 -1.8391450642 0.0778670324
| 11> C 1.7251718801 -1.1569839962 0.0450231069
| 12> C 1.5157826545 0.1752650773 -0.0777465603
| 13> C 0.1915639736 0.759254957 -0.0980352962
| 14> O 0.043353761 1.9680140764 -0.230395753
| 15> N -0.8878327334 -0.1213521372 0.0426416081
| 16> C -0.6951227634 -1.4859731161 0.1309278057
| 17> O -1.5688877072 -2.3305812572 0.1989365549
| 18> N 0.6091046013 -1.9252189286 0.1424263834
| 19> C -2.2588718892 0.5028439102 0.0702537167
| 20> C -3.400174254 -0.4957921806 0.2672919753
| 21> C -2.3127806025 1.4822722996 1.2491324724
| 22> C -2.4926158898 1.2077799771 -1.2704091385
| 23> Cl 2.812279515 1.313441123 -0.2281692296
| 24> H 3.837873858 -1.11235661 -0.0244936887
| 25> H 3.1025592327 -2.562079919 -0.7320780043
| 26> H 3.155778271 -2.3719876794 1.0188691987
| 27> H 0.704830439 -2.9336818927 0.2185910079
| 28> H -3.299521266 -1.0467002594 1.1970407107
| 29> H -4.325914222 0.0725377063 0.3021369595
| 30> H -3.4635358572 -1.2064552344 -0.5501141392
| 31> H -1.5957882614 2.2885107604 1.1337451303
| 32> H -2.1073420928 0.9557049465 2.1785627342
| 33> H -3.3065616147 1.9148311374 1.3060046737
| 34> H -2.4115394856 0.4912683171 -2.0848896769
| 35> H -3.49052061 1.6344852434 -1.2792870963
| 36> H -1.7757219382 2.0069176887 -1.4295770186
| 37> *
| 38>
| 39>                          ****END OF INPUT****

CARTESIAN COORDINATES (ANGSTROEM)
---------------------------------
  C      3.039815   -1.839145    0.077867
  C      1.725172   -1.156984    0.045023
  C      1.515783    0.175265   -0.077747
  C      0.191564    0.759255   -0.098035
  O      0.043354    1.968014   -0.230396
  N     -0.887833   -0.121352    0.042642
  C     -0.695123   -1.485973    0.130928
  O     -1.568888   -2.330581    0.198937
  N      0.609105   -1.925219    0.142426
  C     -2.258872    0.502844    0.070254
  C     -3.400174   -0.495792    0.267292
  C     -2.312781    1.482272    1.249132
  C     -2.492616    1.207780   -1.270409
  Cl     2.812280    1.313441   -0.228169
  H      3.837874   -1.112357   -0.024494
  H      3.102559   -2.562080   -0.732078
  H      3.155778   -2.371988    1.018869
  H      0.704830   -2.933682    0.218591
  H     -3.299521   -1.046700    1.197041
  H     -4.325914    0.072538    0.302137
  H     -3.463536   -1.206455   -0.550114
  H     -1.595788    2.288511    1.133745
  H     -2.107342    0.955705    2.178563
  H     -3.306562    1.914831    1.306005
  H     -2.411539    0.491268   -2.084890
  H     -3.490521    1.634485   -1.279287
  H     -1.775722    2.006918   -1.429577

 Total Charge           Charge          ....    0
 Multiplicity           Mult            ....    1
 Number of Electrons    NEL             ....  114
 Basis Dimension        Dim             ....  359

ORBITAL ENERGIES
----------------

  NO   OCC          E(Eh)            E(eV)
   0   2.0000    -101.226776     -2754.5206
   1   2.0000     -18.933057      -515.1947
   2   2.0000     -18.932347      -515.1753
   3   2.0000     -14.231335      -387.2543
   4   2.0000     -14.223699      -387.0465
   5   2.0000     -10.184269      -277.1281
   6   2.0000     -10.156010      -276.3591
   7   2.0000     -10.117553      -275.3126
   8   2.0000     -10.096758      -274.7468
   9   2.0000     -10.093578      -274.6602
  10   2.0000     -10.039098      -273.1777
  11   2.0000     -10.011770      -272.4341
  12   2.0000     -10.010899      -272.4104
  13   2.0000     -10.010756      -272.4065
  14   2.0000      -9.382397      -255.3080
  15   2.0000      -7.128894      -193.9871
  16   2.0000      -7.118538      -193.7053
  17   2.0000      -7.118060      -193.6923
  18   2.0000      -1.052247       -28.6331
  19   2.0000      -1.021410       -27.7940
  20   2.0000      -0.949580       -25.8394
  21   2.0000      -0.915442       -24.9104
  22   2.0000      -0.845874       -23.0174
  23   2.0000      -0.778097       -21.1731
  24   2.0000      -0.752505       -20.4767
  25   2.0000      -0.696319       -18.9478
  26   2.0000      -0.656147       -17.8547
  27   2.0000      -0.655214       -17.8293
  28   2.0000      -0.628731       -17.1086
  29   2.0000      -0.616705       -16.7814
  30   2.0000      -0.560575       -15.2540
  31   2.0000      -0.545590       -14.8462
  32   2.0000      -0.502799       -13.6819
  33   2.0000      -0.465454       -12.6657
  34   2.0000      -0.448105       -12.1936
  35   2.0000      -0.436917       -11.8891
  36   2.0000      -0.423578       -11.5261
  37   2.0000      -0.416499       -11.3335
  38   2.0000      -0.415850       -11.3158
  39   2.0000      -0.402913       -10.9638
  40   2.0000      -0.395848       -10.7716
  41   2.0000      -0.390624       -10.6294
  42   2.0000      -0.389280       -10.5929
  43   2.0000      -0.371334       -10.1045
  44   2.0000      -0.357035        -9.7154
  45   2.0000      -0.355591        -9.6761
  46   2.0000      -0.343613        -9.3502
  47   2.0000      -0.336134        -9.1467
  48   2.0000      -0.323921        -8.8143
  49   2.0000      -0.310407        -8.4466
  50   2.0000      -0.305773        -8.3205
  51   2.0000      -0.303961        -8.2712
  52   2.0000      -0.291349        -7.9280
  53   2.0000      -0.257304        -7.0016
  54   2.0000      -0.255375        -6.9491
  55   2.0000      -0.237723        -6.4688
  56   2.0000      -0.213791        -5.8176
  57   0.0000      -0.066474        -1.8089
  58   0.0000      -0.024779        -0.6743
  59   0.0000       0.002573         0.0700
  60   0.0000       0.057115         1.5542
  61   0.0000       0.077251         2.1021

MULLIKEN ATOMIC CHARGES
-----------------------
   0 C :   -0.623680
   1 C :    0.191383
   2 C :   -0.103848
   3 C :    0.209648
   4 O :   -0.513997
   5 N :    0.210720
   6 C :    0.243847
   7 O :   -0.518117
   8 N :   -0.024626
   9 C :    0.153584
  10 C :   -0.461721
  11 C :   -0.600407
  12 C :   -0.604350
  13 Cl:   -0.127841
  14 H :    0.190346
  15 H :    0.205476
  16 H :    0.206968
  17 H :    0.335023
  18 H :    0.177562
  19 H :    0.175172
  20 H :    0.178421
  21 H :    0.190802
  22 H :    0.179212
  23 H :    0.181062
  24 H :    0.179259
  25 H :    0.180494
  26 H :    0.189609
Sum of atomic charges:   -0.0000000

LOEWDIN ATOMIC CHARGES
----------------------
   0 C :   -0.343270
   1 C :    0.184534
   2 C :   -0.137471
   3 C :    0.364742
   4 O :   -0.574968
   5 N :   -0.585993
   6 C :    0.476641
   7 O :   -0.485643
   8 N :   -0.485606
   9 C :    0.065810
  10 C :   -0.353788
  11 C :   -0.360299
  12 C :   -0.360749
  13 Cl:    0.163323
  14 H :    0.178846
  15 H :    0.191257
  16 H :    0.191766
  17 H :    0.317982
  18 H :    0.173807
  19 H :    0.164560
  20 H :    0.174988
  21 H :    0.183935
  22 H :    0.168502
  23 H :    0.168005
  24 H :    0.168262
  25 H :    0.167945
  26 H :    0.182883

  Mayer bond orders larger than 0.100000
B(  0-C ,  1-C ) :   0.8568 B(  0-C , 14-H ) :   0.9657 B(  0-C , 15-H ) :   0.9485
B(  0-C , 16-H ) :   0.9461 B(  1-C ,  2-C ) :   1.4717 B(  1-C ,  8-N ) :   1.1621
B(  2-C ,  3-C ) :   0.9633 B(  2-C , 13-Cl) :   1.0763 B(  3-C ,  4-O ) :   1.8457
B(  3-C ,  5-N ) :   1.1125 B(  5-N ,  6-C ) :   1.1419 B(  5-N ,  9-C ) :   0.8543
B(  6-C ,  7-O ) :   1.8368 B(  6-C ,  8-N ) :   1.0547 B(  8-N , 17-H ) :   0.8814
B(  9-C , 10-C ) :   0.9025 B(  9-C , 11-C ) :   0.9097 B(  9-C , 12-C ) :   0.9138
B( 10-C , 18-H ) :   0.9731 B( 10-C , 19-H ) :   0.9525 B( 10-C , 20-H ) :   0.9711
B( 11-C , 21-H ) :   0.9610 B( 11-C , 22-H ) :   0.9649 B( 11-C , 23-H ) :   0.9685
B( 12-C , 24-H ) :   0.9643 B( 12-C , 25-H ) :   0.9688 B( 12-C , 26-H ) :   0.9625

Dispersion correction           -0.011525323
FINAL SINGLE POINT ENERGY     -1070.827754857424

DIPOLE MOMENT
-------------

Method             : SCF
Type of density    : Electron Density
Multiplicity       :   1
Irrep              :   0
Energy             : -1070.8391994081771372 Eh
Relativity type    :
Basis              : AO
                                X                 Y                 Z
Electronic contribution:     18.825327262       1.522868633      -1.231542362
Nuclear contribution   :    -17.848280555      -3.532966510       1.483746991
                        -----------------------------------------
Total Dipole Moment    :      0.977046707      -2.010097877       0.252204629
                        -----------------------------------------
Magnitude (a.u.)       :      2.249160047
Magnitude (Debye)      :      5.716910509

Rotational constants in cm-1:             0.033364             0.016338             0.011867
Rotational constants in MHz :          1000.215031           489.808320           355.750957

                             ****ORCA TERMINATED NORMALLY****
TOTAL RUN TIME: 0 days 0 hours 1 minutes 27 seconds 729 msec
