                         Program Version 6.0.0  -   RELEASE  -
|  1> ! r2scan-3c def2/J RI DEFGRID2 scfconv6 printgap
|  2> %output
|  3>     printlevel normal
|  4> end
|  5> * xyz 0 1
|  6> C 1.1127610934 -2.8856541687 0.8686769374
|  7> C 2.1190938801 -1.8748909663 1.3816375431
|  8> O 1.7270996961 -0.5347700036 1.0224284744
|  9> P 2.3632591898 0.2625828387 -0.208552507
| 10> S 3.0566553402 -0.8287735965 -1.6713202118
| 11> O 3.5299087646 1.1695844504 0.3687057566
| 12> C 3.3664957784 2.2428085171 1.3253173713
| 13> C 3.3594040085 1.7288983704 2.750842233
| 14> S 0.801815583 1.6371230591 -0.6001963649
| 15> C 0.0640991276 0.7335593329 -1.9825513692
| 16> S -0.6146895781 -0.8760735324 -1.5030463625
| 17> P -2.1285256735 -0.1454637281 -0.2323055982
| 18> S -3.0199770738 1.5162556096 -0.7832328302
| 19> O -1.4111403435 -0.1342561271 1.1732194537
| 20> C -1.8661535007 0.6741200705 2.2839022726
| 21> C -0.6598317775 1.2907168096 2.9610703538
| 22> O -3.1009337243 -1.3925302552 -0.0670209538
| 23> C -4.0773414832 -1.7389179674 -1.0697182252
| 24> C -5.1420852293 -2.5913715769 -0.4092727292
| 25> H 0.1092364474 -2.6024603731 1.1777981988
| 26> H 1.1430800169 -2.9281920687 -0.2180896314
| 27> H 1.3521950596 -3.8652753873 1.2695878718
| 28> H 3.1152616467 -2.0807044169 0.9787783233
| 29> H 2.1573453319 -1.8719905595 2.4727342409
| 30> H 4.2257162933 2.8894332989 1.1385504466
| 31> H 2.4446083485 2.783036635 1.091881606
| 32> H 4.2582138356 1.1484454833 2.9418305235
| 33> H 3.3286214093 2.5744947542 3.4306896902
| 34> H 2.4883557002 1.1032883174 2.9243680565
| 35> H 0.8226211785 0.5339137423 -2.7385576535
| 36> H -0.7332132456 1.3674908434 -2.3703954431
| 37> H -2.546129637 1.4448114659 1.9052980333
| 38> H -2.4100333112 0.0095272988 2.9583935204
| 39> H -0.1492517097 1.961699248 2.2745924414
| 40> H -0.9860718072 1.8488947126 3.8325330829
| 41> H 0.027750471 0.5079225162 3.2685305202
| 42> H -4.4997068526 -0.8148775354 -1.4789133673
| 43> H -3.5661645195 -2.2839009377 -1.8675880031
| 44> H -5.8743139108 -2.8859560054 -1.1537920011
| 45> H -4.689600279 -3.4792128818 0.0226621219
| 46> H -5.6367281148 -2.0288251097 0.3775027177
| 47> *
| 48>
| 49>                          ****END OF INPUT****

CARTESIAN COORDINATES (ANGSTROEM)
---------------------------------
  C      1.112761   -2.885654    0.868677
  C      2.119094   -1.874891    1.381638
  O      1.727100   -0.534770    1.022428
  P      2.363259    0.262583   -0.208553
  S      3.056655   -0.828774   -1.671320
  O      3.529909    1.169584    0.368706
  C      3.366496    2.242809    1.325317
  C      3.359404    1.728898    2.750842
  S      0.801816    1.637123   -0.600196
  C      0.064099    0.733559   -1.982551
  S     -0.614690   -0.876074   -1.503046
  P     -2.128526   -0.145464   -0.232306
  S     -3.019977    1.516256   -0.783233
  O     -1.411140   -0.134256    1.173219
  C     -1.866154    0.674120    2.283902
  C     -0.659832    1.290717    2.961070
  O     -3.100934   -1.392530   -0.067021
  C     -4.077341   -1.738918   -1.069718
  C     -5.142085   -2.591372   -0.409273
  H      0.109236   -2.602460    1.177798
  H      1.143080   -2.928192   -0.218090
  H      1.352195   -3.865275    1.269588
  H      3.115262   -2.080704    0.978778
  H      2.157345   -1.871991    2.472734
  H      4.225716    2.889433    1.138550
  H      2.444608    2.783037    1.091882
  H      4.258214    1.148445    2.941831
  H      3.328621    2.574495    3.430690
  H      2.488356    1.103288    2.924368
  H      0.822621    0.533914   -2.738558
  H     -0.733213    1.367491   -2.370395
  H     -2.546130    1.444811    1.905298
  H     -2.410033    0.009527    2.958394
  H     -0.149252    1.961699    2.274592
  H     -0.986072    1.848895    3.832533
  H      0.027750    0.507923    3.268531
  H     -4.499707   -0.814878   -1.478913
  H     -3.566165   -2.283901   -1.867588
  H     -5.874314   -2.885956   -1.153792
  H     -4.689600   -3.479213    0.022662
  H     -5.636728   -2.028825    0.377503

 Total Charge           Charge          ....    0
 Multiplicity           Mult            ....    1
 Number of Electrons    NEL             ....  202
 Basis Dimension        Dim             ....  539

ORBITAL ENERGIES
----------------

  NO   OCC          E(Eh)            E(eV)
   0   2.0000     -88.576322     -2410.2842
   1   2.0000     -88.576274     -2410.2829
   2   2.0000     -88.520692     -2408.7705
   3   2.0000     -88.518731     -2408.7171
   4   2.0000     -76.913755     -2092.9297
   5   2.0000     -76.913708     -2092.9284
   6   2.0000     -18.992422      -516.8101
   7   2.0000     -18.990712      -516.7636
   8   2.0000     -18.990368      -516.7542
   9   2.0000     -18.986343      -516.6447
  10   2.0000     -10.107770      -275.0464
  11   2.0000     -10.107027      -275.0262
  12   2.0000     -10.099134      -274.8114
  13   2.0000     -10.098605      -274.7970
  14   2.0000     -10.096382      -274.7365
  15   2.0000     -10.037461      -273.1332
  16   2.0000     -10.033699      -273.0308
  17   2.0000     -10.032175      -272.9894
  18   2.0000     -10.020780      -272.6793
  19   2.0000      -7.870876      -214.1774
  20   2.0000      -7.870667      -214.1717
  21   2.0000      -7.815518      -212.6710
  22   2.0000      -7.813604      -212.6190
  23   2.0000      -6.592373      -179.3876
  24   2.0000      -6.591965      -179.3765
  25   2.0000      -5.817740      -158.3087
  26   2.0000      -5.817601      -158.3050
  27   2.0000      -5.814801      -158.2288
  28   2.0000      -5.814462      -158.2195
  29   2.0000      -5.807848      -158.0396
  30   2.0000      -5.807772      -158.0375
  31   2.0000      -5.763050      -156.8206
  32   2.0000      -5.761448      -156.7770
  33   2.0000      -5.755798      -156.6232
  34   2.0000      -5.755610      -156.6181
  35   2.0000      -5.754093      -156.5768
  36   2.0000      -5.753176      -156.5519
  37   2.0000      -4.737806      -128.9223
  38   2.0000      -4.737784      -128.9217
  39   2.0000      -4.737304      -128.9086
  40   2.0000      -4.736680      -128.8916
  41   2.0000      -4.736138      -128.8769
  42   2.0000      -4.735637      -128.8632
  43   2.0000      -1.049951       -28.5706
  44   2.0000      -1.044524       -28.4229
  45   2.0000      -1.010527       -27.4978
  46   2.0000      -1.007442       -27.4139
  47   2.0000      -0.804737       -21.8980
  48   2.0000      -0.762238       -20.7416
  49   2.0000      -0.753436       -20.5020
  50   2.0000      -0.734676       -19.9915
  51   2.0000      -0.733394       -19.9567
  52   2.0000      -0.708863       -19.2892
  53   2.0000      -0.684337       -18.6218
  54   2.0000      -0.670996       -18.2587
  55   2.0000      -0.630062       -17.1449
  56   2.0000      -0.619150       -16.8479
  57   2.0000      -0.613116       -16.6837
  58   2.0000      -0.602602       -16.3976
  59   2.0000      -0.589058       -16.0291
  60   2.0000      -0.535090       -14.5605
  61   2.0000      -0.526233       -14.3195
  62   2.0000      -0.500942       -13.6313
  63   2.0000      -0.497680       -13.5426
  64   2.0000      -0.474915       -12.9231
  65   2.0000      -0.465495       -12.6668
  66   2.0000      -0.459779       -12.5112
  67   2.0000      -0.453176       -12.3316
  68   2.0000      -0.449079       -12.2201
  69   2.0000      -0.431452       -11.7404
  70   2.0000      -0.421653       -11.4738
  71   2.0000      -0.411364       -11.1938
  72   2.0000      -0.409511       -11.1434
  73   2.0000      -0.402227       -10.9451
  74   2.0000      -0.395803       -10.7703
  75   2.0000      -0.389117       -10.5884
  76   2.0000      -0.385825       -10.4988
  77   2.0000      -0.374150       -10.1811
  78   2.0000      -0.370568       -10.0837
  79   2.0000      -0.368057       -10.0154
  80   2.0000      -0.365287        -9.9400
  81   2.0000      -0.363456        -9.8901
  82   2.0000      -0.357359        -9.7242
  83   2.0000      -0.355853        -9.6833
  84   2.0000      -0.351641        -9.5686
  85   2.0000      -0.332313        -9.0427
  86   2.0000      -0.323843        -8.8122
  87   2.0000      -0.318555        -8.6683
  88   2.0000      -0.316238        -8.6053
  89   2.0000      -0.306197        -8.3320
  90   2.0000      -0.296061        -8.0562
  91   2.0000      -0.293450        -7.9852
  92   2.0000      -0.288526        -7.8512
  93   2.0000      -0.279489        -7.6053
  94   2.0000      -0.273386        -7.4392
  95   2.0000      -0.244338        -6.6488
  96   2.0000      -0.228934        -6.2296
  97   2.0000      -0.227100        -6.1797
  98   2.0000      -0.219593        -5.9754
  99   2.0000      -0.215027        -5.8512
 100   2.0000      -0.210228        -5.7206
 101   0.0000      -0.048673        -1.3245
 102   0.0000      -0.027043        -0.7359
 103   0.0000      -0.002752        -0.0749
 104   0.0000       0.004800         0.1306
 105   0.0000       0.008691         0.2365

MULLIKEN ATOMIC CHARGES
-----------------------
   0 C :   -0.471295
   1 C :   -0.134269
   2 O :   -0.246989
   3 P :    0.657102
   4 S :   -0.445449
   5 O :   -0.269444
   6 C :   -0.144172
   7 C :   -0.433328
   8 S :   -0.165984
   9 C :   -0.248296
  10 S :   -0.125529
  11 P :    0.717916
  12 S :   -0.501781
  13 O :   -0.257372
  14 C :   -0.129157
  15 C :   -0.470661
  16 O :   -0.291555
  17 C :   -0.151824
  18 C :   -0.442528
  19 H :    0.164034
  20 H :    0.180315
  21 H :    0.140016
  22 H :    0.162526
  23 H :    0.144936
  24 H :    0.158007
  25 H :    0.148201
  26 H :    0.157249
  27 H :    0.150797
  28 H :    0.161448
  29 H :    0.212124
  30 H :    0.212988
  31 H :    0.171175
  32 H :    0.148497
  33 H :    0.164497
  34 H :    0.144989
  35 H :    0.154688
  36 H :    0.170271
  37 H :    0.151258
  38 H :    0.147163
  39 H :    0.153287
  40 H :    0.156150
Sum of atomic charges:    0.0000000

LOEWDIN ATOMIC CHARGES
----------------------
   0 C :   -0.405248
   1 C :    0.021153
   2 O :   -0.689250
   3 P :    0.388702
   4 S :   -0.095735
   5 O :   -0.662531
   6 C :    0.024522
   7 C :   -0.396893
   8 S :    0.153353
   9 C :   -0.418518
  10 S :    0.177615
  11 P :    0.371272
  12 S :   -0.141718
  13 O :   -0.663415
  14 C :    0.026493
  15 C :   -0.395483
  16 O :   -0.664347
  17 C :    0.019971
  18 C :   -0.386072
  19 H :    0.164319
  20 H :    0.167377
  21 H :    0.155492
  22 H :    0.178318
  23 H :    0.174103
  24 H :    0.183529
  25 H :    0.173906
  26 H :    0.162136
  27 H :    0.160286
  28 H :    0.164610
  29 H :    0.191126
  30 H :    0.191851
  31 H :    0.183385
  32 H :    0.172422
  33 H :    0.162865
  34 H :    0.157881
  35 H :    0.159855
  36 H :    0.180829
  37 H :    0.171677
  38 H :    0.160088
  39 H :    0.159578
  40 H :    0.160497

  Mayer bond orders larger than 0.100000
B(  0-C ,  1-C ) :   0.9420 B(  0-C , 19-H ) :   0.9690 B(  0-C , 20-H ) :   0.9623
B(  0-C , 21-H ) :   0.9624 B(  1-C ,  2-O ) :   0.7684 B(  1-C , 22-H ) :   0.9612
B(  1-C , 23-H ) :   0.9642 B(  2-O ,  3-P ) :   1.0476 B(  3-P ,  4-S ) :   1.8364
B(  3-P ,  5-O ) :   1.1320 B(  3-P ,  8-S ) :   1.0433 B(  5-O ,  6-C ) :   0.7805
B(  6-C ,  7-C ) :   0.9390 B(  6-C , 24-H ) :   0.9639 B(  6-C , 25-H ) :   0.9647
B(  7-C , 26-H ) :   0.9693 B(  7-C , 27-H ) :   0.9661 B(  7-C , 28-H ) :   0.9583
B(  8-S ,  9-C ) :   0.9128 B(  9-C , 10-S ) :   0.9042 B(  9-C , 29-H ) :   0.9109
B(  9-C , 30-H ) :   0.9097 B( 10-S , 11-P ) :   1.0716 B( 11-P , 12-S ) :   1.7225
B( 11-P , 13-O ) :   1.1772 B( 11-P , 16-O ) :   1.0838 B( 13-O , 14-C ) :   0.7651
B( 14-C , 15-C ) :   0.9600 B( 14-C , 31-H ) :   0.9572 B( 14-C , 32-H ) :   0.9511
B( 15-C , 33-H ) :   0.9671 B( 15-C , 34-H ) :   0.9632 B( 15-C , 35-H ) :   0.9686
B( 16-O , 17-C ) :   0.7793 B( 17-C , 18-C ) :   0.9568 B( 17-C , 36-H ) :   0.9520
B( 17-C , 37-H ) :   0.9452 B( 18-C , 38-H ) :   0.9646 B( 18-C , 39-H ) :   0.9717
B( 18-C , 40-H ) :   0.9721

Dispersion correction           -0.022067333
FINAL SINGLE POINT ENERGY     -2932.460593226010

DIPOLE MOMENT
-------------

Method             : SCF
Type of density    : Electron Density
Multiplicity       :   1
Irrep              :   0
Energy             : -2932.4850159680681827 Eh
Relativity type    :
Basis              : AO
                                X                 Y                 Z
Electronic contribution:      5.037947524       6.156318093     -19.777680127
Nuclear contribution   :     -5.476025504      -6.415927271      21.426265930
                        -----------------------------------------
Total Dipole Moment    :     -0.438077980      -0.259609179       1.648585803
                        -----------------------------------------
Magnitude (a.u.)       :      1.725440347
Magnitude (Debye)      :      4.385720823

Rotational constants in cm-1:             0.012205             0.005322             0.004976
Rotational constants in MHz :           365.904262           159.550442           149.177390

                             ****ORCA TERMINATED NORMALLY****
TOTAL RUN TIME: 0 days 0 hours 1 minutes 27 seconds 175 msec
