                         Program Version 6.0.0  -   RELEASE  -
|  1> ! r2scan-3c def2/J RI DEFGRID2 scfconv6 printgap
|  2> %output
|  3>     printlevel normal
|  4> end
|  5> %cpcm
|  6>     smd true
|  7>     smdsolvent "water"
|  8> end
|  9> * xyz 0 1
| 10> C 1.1127610934 -2.8856541687 0.8686769374
| 11> C 2.1190938801 -1.8748909663 1.3816375431
| 12> O 1.7270996961 -0.5347700036 1.0224284744
| 13> P 2.3632591898 0.2625828387 -0.208552507
| 14> S 3.0566553402 -0.8287735965 -1.6713202118
| 15> O 3.5299087646 1.1695844504 0.3687057566
| 16> C 3.3664957784 2.2428085171 1.3253173713
| 17> C 3.3594040085 1.7288983704 2.750842233
| 18> S 0.801815583 1.6371230591 -0.6001963649
| 19> C 0.0640991276 0.7335593329 -1.9825513692
| 20> S -0.6146895781 -0.8760735324 -1.5030463625
| 21> P -2.1285256735 -0.1454637281 -0.2323055982
| 22> S -3.0199770738 1.5162556096 -0.7832328302
| 23> O -1.4111403435 -0.1342561271 1.1732194537
| 24> C -1.8661535007 0.6741200705 2.2839022726
| 25> C -0.6598317775 1.2907168096 2.9610703538
| 26> O -3.1009337243 -1.3925302552 -0.0670209538
| 27> C -4.0773414832 -1.7389179674 -1.0697182252
| 28> C -5.1420852293 -2.5913715769 -0.4092727292
| 29> H 0.1092364474 -2.6024603731 1.1777981988
| 30> H 1.1430800169 -2.9281920687 -0.2180896314
| 31> H 1.3521950596 -3.8652753873 1.2695878718
| 32> H 3.1152616467 -2.0807044169 0.9787783233
| 33> H 2.1573453319 -1.8719905595 2.4727342409
| 34> H 4.2257162933 2.8894332989 1.1385504466
| 35> H 2.4446083485 2.783036635 1.091881606
| 36> H 4.2582138356 1.1484454833 2.9418305235
| 37> H 3.3286214093 2.5744947542 3.4306896902
| 38> H 2.4883557002 1.1032883174 2.9243680565
| 39> H 0.8226211785 0.5339137423 -2.7385576535
| 40> H -0.7332132456 1.3674908434 -2.3703954431
| 41> H -2.546129637 1.4448114659 1.9052980333
| 42> H -2.4100333112 0.0095272988 2.9583935204
| 43> H -0.1492517097 1.961699248 2.2745924414
| 44> H -0.9860718072 1.8488947126 3.8325330829
| 45> H 0.027750471 0.5079225162 3.2685305202
| 46> H -4.4997068526 -0.8148775354 -1.4789133673
| 47> H -3.5661645195 -2.2839009377 -1.8675880031
| 48> H -5.8743139108 -2.8859560054 -1.1537920011
| 49> H -4.689600279 -3.4792128818 0.0226621219
| 50> H -5.6367281148 -2.0288251097 0.3775027177
| 51> *
| 52>
| 53>                          ****END OF INPUT****

CARTESIAN COORDINATES (ANGSTROEM)
---------------------------------
  C      1.112761   -2.885654    0.868677
  C      2.119094   -1.874891    1.381638
  O      1.727100   -0.534770    1.022428
  P      2.363259    0.262583   -0.208553
  S      3.056655   -0.828774   -1.671320
  O      3.529909    1.169584    0.368706
  C      3.366496    2.242809    1.325317
  C      3.359404    1.728898    2.750842
  S      0.801816    1.637123   -0.600196
  C      0.064099    0.733559   -1.982551
  S     -0.614690   -0.876074   -1.503046
  P     -2.128526   -0.145464   -0.232306
  S     -3.019977    1.516256   -0.783233
  O     -1.411140   -0.134256    1.173219
  C     -1.866154    0.674120    2.283902
  C     -0.659832    1.290717    2.961070
  O     -3.100934   -1.392530   -0.067021
  C     -4.077341   -1.738918   -1.069718
  C     -5.142085   -2.591372   -0.409273
  H      0.109236   -2.602460    1.177798
  H      1.143080   -2.928192   -0.218090
  H      1.352195   -3.865275    1.269588
  H      3.115262   -2.080704    0.978778
  H      2.157345   -1.871991    2.472734
  H      4.225716    2.889433    1.138550
  H      2.444608    2.783037    1.091882
  H      4.258214    1.148445    2.941831
  H      3.328621    2.574495    3.430690
  H      2.488356    1.103288    2.924368
  H      0.822621    0.533914   -2.738558
  H     -0.733213    1.367491   -2.370395
  H     -2.546130    1.444811    1.905298
  H     -2.410033    0.009527    2.958394
  H     -0.149252    1.961699    2.274592
  H     -0.986072    1.848895    3.832533
  H      0.027750    0.507923    3.268531
  H     -4.499707   -0.814878   -1.478913
  H     -3.566165   -2.283901   -1.867588
  H     -5.874314   -2.885956   -1.153792
  H     -4.689600   -3.479213    0.022662
  H     -5.636728   -2.028825    0.377503

 Total Charge           Charge          ....    0
 Multiplicity           Mult            ....    1
 Number of Electrons    NEL             ....  202
 Basis Dimension        Dim             ....  539

ORBITAL ENERGIES
----------------

  NO   OCC          E(Eh)            E(eV)
   0   2.0000     -88.580366     -2410.3943
   1   2.0000     -88.580338     -2410.3935
   2   2.0000     -88.529162     -2409.0010
   3   2.0000     -88.527912     -2408.9670
   4   2.0000     -76.920250     -2093.1064
   5   2.0000     -76.918786     -2093.0666
   6   2.0000     -18.994729      -516.8728
   7   2.0000     -18.993394      -516.8365
   8   2.0000     -18.993118      -516.8290
   9   2.0000     -18.989216      -516.7228
  10   2.0000     -10.106742      -275.0184
  11   2.0000     -10.094303      -274.6799
  12   2.0000     -10.089493      -274.5491
  13   2.0000     -10.089218      -274.5416
  14   2.0000     -10.088177      -274.5132
  15   2.0000     -10.019438      -272.6428
  16   2.0000     -10.019030      -272.6317
  17   2.0000     -10.017843      -272.5994
  18   2.0000     -10.014808      -272.5168
  19   2.0000      -7.874920      -214.2875
  20   2.0000      -7.874724      -214.2821
  21   2.0000      -7.824395      -212.9126
  22   2.0000      -7.823022      -212.8753
  23   2.0000      -6.598479      -179.5537
  24   2.0000      -6.597471      -179.5263
  25   2.0000      -5.821772      -158.4185
  26   2.0000      -5.821635      -158.4147
  27   2.0000      -5.818822      -158.3382
  28   2.0000      -5.818502      -158.3295
  29   2.0000      -5.811936      -158.1508
  30   2.0000      -5.811872      -158.1491
  31   2.0000      -5.772127      -157.0676
  32   2.0000      -5.770497      -157.0232
  33   2.0000      -5.764816      -156.8686
  34   2.0000      -5.764078      -156.8485
  35   2.0000      -5.763298      -156.8273
  36   2.0000      -5.763124      -156.8226
  37   2.0000      -4.744255      -129.0977
  38   2.0000      -4.743171      -129.0682
  39   2.0000      -4.742838      -129.0592
  40   2.0000      -4.742404      -129.0474
  41   2.0000      -4.742282      -129.0440
  42   2.0000      -4.741308      -129.0176
  43   2.0000      -1.052206       -28.6320
  44   2.0000      -1.046724       -28.4828
  45   2.0000      -1.012054       -27.5394
  46   2.0000      -1.009141       -27.4601
  47   2.0000      -0.807197       -21.9650
  48   2.0000      -0.758467       -20.6389
  49   2.0000      -0.745873       -20.2962
  50   2.0000      -0.725913       -19.7531
  51   2.0000      -0.723478       -19.6868
  52   2.0000      -0.707990       -19.2654
  53   2.0000      -0.687703       -18.7134
  54   2.0000      -0.676936       -18.4204
  55   2.0000      -0.628442       -17.1008
  56   2.0000      -0.614099       -16.7105
  57   2.0000      -0.605541       -16.4776
  58   2.0000      -0.594554       -16.1786
  59   2.0000      -0.585838       -15.9415
  60   2.0000      -0.531184       -14.4542
  61   2.0000      -0.522459       -14.2168
  62   2.0000      -0.497908       -13.5488
  63   2.0000      -0.493281       -13.4229
  64   2.0000      -0.475201       -12.9309
  65   2.0000      -0.459674       -12.5084
  66   2.0000      -0.454991       -12.3809
  67   2.0000      -0.445547       -12.1239
  68   2.0000      -0.442212       -12.0332
  69   2.0000      -0.431037       -11.7291
  70   2.0000      -0.418207       -11.3800
  71   2.0000      -0.408436       -11.1141
  72   2.0000      -0.406123       -11.0512
  73   2.0000      -0.398160       -10.8345
  74   2.0000      -0.389836       -10.6080
  75   2.0000      -0.385222       -10.4824
  76   2.0000      -0.385010       -10.4766
  77   2.0000      -0.365487        -9.9454
  78   2.0000      -0.362909        -9.8752
  79   2.0000      -0.360711        -9.8154
  80   2.0000      -0.356441        -9.6992
  81   2.0000      -0.352259        -9.5855
  82   2.0000      -0.350311        -9.5324
  83   2.0000      -0.348808        -9.4916
  84   2.0000      -0.344553        -9.3758
  85   2.0000      -0.328012        -8.9257
  86   2.0000      -0.317466        -8.6387
  87   2.0000      -0.313944        -8.5428
  88   2.0000      -0.312535        -8.5045
  89   2.0000      -0.305953        -8.3254
  90   2.0000      -0.296393        -8.0653
  91   2.0000      -0.290888        -7.9155
  92   2.0000      -0.287150        -7.8137
  93   2.0000      -0.279100        -7.5947
  94   2.0000      -0.273539        -7.4434
  95   2.0000      -0.247902        -6.7458
  96   2.0000      -0.237893        -6.4734
  97   2.0000      -0.233241        -6.3468
  98   2.0000      -0.228221        -6.2102
  99   2.0000      -0.224256        -6.1023
 100   2.0000      -0.219775        -5.9804
 101   0.0000      -0.053261        -1.4493
 102   0.0000      -0.033332        -0.9070
 103   0.0000      -0.004875        -0.1326
 104   0.0000       0.000064         0.0017
 105   0.0000       0.007147         0.1945

MULLIKEN ATOMIC CHARGES
-----------------------
   0 C :   -0.496848
   1 C :   -0.130521
   2 O :   -0.265513
   3 P :    0.674340
   4 S :   -0.502450
   5 O :   -0.308505
   6 C :   -0.128351
   7 C :   -0.471285
   8 S :   -0.173846
   9 C :   -0.257924
  10 S :   -0.135865
  11 P :    0.744197
  12 S :   -0.544830
  13 O :   -0.286759
  14 C :   -0.119995
  15 C :   -0.516405
  16 O :   -0.318451
  17 C :   -0.145125
  18 C :   -0.483499
  19 H :    0.165156
  20 H :    0.171968
  21 H :    0.165749
  22 H :    0.169490
  23 H :    0.176874
  24 H :    0.179615
  25 H :    0.159759
  26 H :    0.167579
  27 H :    0.173831
  28 H :    0.168955
  29 H :    0.233300
  30 H :    0.233531
  31 H :    0.170661
  32 H :    0.173094
  33 H :    0.172456
  34 H :    0.169426
  35 H :    0.172458
  36 H :    0.171170
  37 H :    0.171229
  38 H :    0.169446
  39 H :    0.165640
  40 H :    0.166250
Sum of atomic charges:   -0.0000000

LOEWDIN ATOMIC CHARGES
----------------------
   0 C :   -0.407911
   1 C :    0.026909
   2 O :   -0.696800
   3 P :    0.391012
   4 S :   -0.137043
   5 O :   -0.683063
   6 C :    0.032285
   7 C :   -0.397343
   8 S :    0.152981
   9 C :   -0.413703
  10 S :    0.171698
  11 P :    0.375074
  12 S :   -0.170269
  13 O :   -0.679208
  14 C :    0.031137
  15 C :   -0.398135
  16 O :   -0.676616
  17 C :    0.024311
  18 C :   -0.389785
  19 H :    0.163459
  20 H :    0.162149
  21 H :    0.164736
  22 H :    0.181042
  23 H :    0.187630
  24 H :    0.192783
  25 H :    0.180034
  26 H :    0.164729
  27 H :    0.169563
  28 H :    0.165996
  29 H :    0.197333
  30 H :    0.198110
  31 H :    0.183508
  32 H :    0.182938
  33 H :    0.163095
  34 H :    0.167699
  35 H :    0.164125
  36 H :    0.181412
  37 H :    0.179638
  38 H :    0.168802
  39 H :    0.163068
  40 H :    0.162622

  Mayer bond orders larger than 0.100000
B(  0-C ,  1-C ) :   0.9296 B(  0-C , 19-H ) :   0.9674 B(  0-C , 20-H ) :   0.9650
B(  0-C , 21-H ) :   0.9584 B(  1-C ,  2-O ) :   0.7557 B(  1-C , 22-H ) :   0.9599
B(  1-C , 23-H ) :   0.9541 B(  2-O ,  3-P ) :   1.0576 B(  3-P ,  4-S ) :   1.8075
B(  3-P ,  5-O ) :   1.1420 B(  3-P ,  8-S ) :   1.0592 B(  5-O ,  6-C ) :   0.7713
B(  6-C ,  7-C ) :   0.9321 B(  6-C , 24-H ) :   0.9538 B(  6-C , 25-H ) :   0.9535
B(  7-C , 26-H ) :   0.9676 B(  7-C , 27-H ) :   0.9602 B(  7-C , 28-H ) :   0.9565
B(  8-S ,  9-C ) :   0.8972 B(  9-C , 10-S ) :   0.8947 B(  9-C , 29-H ) :   0.9047
B(  9-C , 30-H ) :   0.9043 B( 10-S , 11-P ) :   1.0842 B( 11-P , 12-S ) :   1.6901
B( 11-P , 13-O ) :   1.1826 B( 11-P , 16-O ) :   1.0899 B( 13-O , 14-C ) :   0.7565
B( 14-C , 15-C ) :   0.9475 B( 14-C , 31-H ) :   0.9546 B( 14-C , 32-H ) :   0.9403
B( 15-C , 33-H ) :   0.9646 B( 15-C , 34-H ) :   0.9570 B( 15-C , 35-H ) :   0.9655
B( 16-O , 17-C ) :   0.7718 B( 17-C , 18-C ) :   0.9526 B( 17-C , 36-H ) :   0.9492
B( 17-C , 37-H ) :   0.9366 B( 18-C , 38-H ) :   0.9588 B( 18-C , 39-H ) :   0.9688
B( 18-C , 40-H ) :   0.9696

Dispersion correction           -0.022067333
FINAL SINGLE POINT ENERGY     -2932.471381989658

DIPOLE MOMENT
-------------

Method             : SCF
Type of density    : Electron Density
Multiplicity       :   1
Irrep              :   0
Energy             : -2932.4958047317163619 Eh
Relativity type    :
Basis              : AO
                                X                 Y                 Z
Electronic contribution:      4.862956784       6.169858483     -19.211495995
Nuclear contribution   :     -5.476025504      -6.415927271      21.426265930
                        -----------------------------------------
Total Dipole Moment    :     -0.613068720      -0.246068789       2.214769934
                        -----------------------------------------
Magnitude (a.u.)       :      2.311192109
Magnitude (Debye)      :      5.874583481

Rotational constants in cm-1:             0.012205             0.005322             0.004976
Rotational constants in MHz :           365.904262           159.550442           149.177390

                             ****ORCA TERMINATED NORMALLY****
TOTAL RUN TIME: 0 days 0 hours 2 minutes 1 seconds 33 msec
