                         Program Version 6.0.0  -   RELEASE  -
|  1> ! pbe def2-sv(p) def2/J RI DEFGRID1 loosescf d4 GCP(DFT/SV(P)) printgap
|  2> %output
|  3>     printlevel normal
|  4> end
|  5> * xyz 0 1
|  6> C -2.5920393418 -0.693161297 -7.29849e-05
|  7> C -2.5920528272 0.6931257087 -9.828e-06
|  8> C -1.4006354594 1.4149321199 8.02159e-05
|  9> C -0.220431498 0.7006229371 3.80295e-05
| 10> C -0.2204160385 -0.7006242867 -1.66157e-05
| 11> C -1.4006077443 -1.4149478006 -8.90677e-05
| 12> C 1.1861042614 -1.156239973 9.8212e-05
| 13> O 1.6372250043 -2.2800408421 2.60155e-05
| 14> N 1.9464462991 1.52525e-05 -3.80035e-05
| 15> C 1.1860825106 1.1562547448 -2.60036e-05
| 16> O 1.6371814227 2.2800584697 -3.52645e-05
| 17> H -3.5305514169 -1.2244001841 0.0002942311
| 18> H -3.5305715232 1.2243469024 0.0001465971
| 19> H -1.3904874791 2.4931093173 0.000224624
| 20> H -1.3904395908 -2.4931230529 0.0001131317
| 21> H 2.9578148214 2.62413e-05 -0.0001269847
| 22> *
| 23>
| 24>                          ****END OF INPUT****

CARTESIAN COORDINATES (ANGSTROEM)
---------------------------------
  C     -2.592039   -0.693161   -0.000073
  C     -2.592053    0.693126   -0.000010
  C     -1.400635    1.414932    0.000080
  C     -0.220431    0.700623    0.000038
  C     -0.220416   -0.700624   -0.000017
  C     -1.400608   -1.414948   -0.000089
  C      1.186104   -1.156240    0.000098
  O      1.637225   -2.280041    0.000026
  N      1.946446    0.000015   -0.000038
  C      1.186083    1.156255   -0.000026
  O      1.637181    2.280058   -0.000035
  H     -3.530551   -1.224400    0.000294
  H     -3.530572    1.224347    0.000147
  H     -1.390487    2.493109    0.000225
  H     -1.390440   -2.493123    0.000113
  H      2.957815    0.000026   -0.000127

 Total Charge           Charge          ....    0
 Multiplicity           Mult            ....    1
 Number of Electrons    NEL             ....   76
 Basis Dimension        Dim             ....  164

ORBITAL ENERGIES
----------------

  NO   OCC          E(Eh)            E(eV)
   0   2.0000     -18.750172      -510.2181
   1   2.0000     -18.750172      -510.2181
   2   2.0000     -14.046570      -382.2266
   3   2.0000     -10.011924      -272.4383
   4   2.0000     -10.011824      -272.4356
   5   2.0000      -9.925147      -270.0770
   6   2.0000      -9.925147      -270.0770
   7   2.0000      -9.924868      -270.0694
   8   2.0000      -9.924813      -270.0679
   9   2.0000      -9.924557      -270.0609
  10   2.0000      -9.924352      -270.0553
  11   2.0000      -0.976246       -26.5650
  12   2.0000      -0.953204       -25.9380
  13   2.0000      -0.875933       -23.8354
  14   2.0000      -0.804516       -21.8920
  15   2.0000      -0.717701       -19.5296
  16   2.0000      -0.703967       -19.1559
  17   2.0000      -0.612504       -16.6671
  18   2.0000      -0.610069       -16.6008
  19   2.0000      -0.558457       -15.1964
  20   2.0000      -0.536239       -14.5918
  21   2.0000      -0.484660       -13.1883
  22   2.0000      -0.466596       -12.6967
  23   2.0000      -0.434482       -11.8229
  24   2.0000      -0.434124       -11.8131
  25   2.0000      -0.413356       -11.2480
  26   2.0000      -0.413246       -11.2450
  27   2.0000      -0.387632       -10.5480
  28   2.0000      -0.379119       -10.3163
  29   2.0000      -0.360658        -9.8140
  30   2.0000      -0.352265        -9.5856
  31   2.0000      -0.347651        -9.4601
  32   2.0000      -0.334046        -9.0898
  33   2.0000      -0.262899        -7.1539
  34   2.0000      -0.259584        -7.0636
  35   2.0000      -0.254788        -6.9331
  36   2.0000      -0.244120        -6.6428
  37   2.0000      -0.219871        -5.9830
  38   0.0000      -0.114124        -3.1055
  39   0.0000      -0.076133        -2.0717
  40   0.0000      -0.011987        -0.3262
  41   0.0000       0.033317         0.9066
  42   0.0000       0.038719         1.0536

MULLIKEN ATOMIC CHARGES
-----------------------
   0 C :   -0.034635
   1 C :   -0.034634
   2 C :   -0.137984
   3 C :    0.019565
   4 C :    0.019563
   5 C :   -0.137985
   6 C :    0.159104
   7 O :   -0.130836
   8 N :   -0.264455
   9 C :    0.159097
  10 O :   -0.130831
  11 H :    0.071327
  12 H :    0.071326
  13 H :    0.067838
  14 H :    0.067836
  15 H :    0.235705
Sum of atomic charges:   -0.0000000

LOEWDIN ATOMIC CHARGES
----------------------
   0 C :   -0.103096
   1 C :   -0.103097
   2 C :   -0.086685
   3 C :   -0.055600
   4 C :   -0.055601
   5 C :   -0.086685
   6 C :    0.046268
   7 O :   -0.135130
   8 N :   -0.123842
   9 C :    0.046264
  10 O :   -0.135126
  11 H :    0.132154
  12 H :    0.132154
  13 H :    0.138862
  14 H :    0.138862
  15 H :    0.250297

  Mayer bond orders larger than 0.100000
B(  0-C ,  1-C ) :   1.3849 B(  0-C ,  5-C ) :   1.3277 B(  0-C , 11-H ) :   0.9624
B(  1-C ,  2-C ) :   1.3277 B(  1-C , 12-H ) :   0.9624 B(  2-C ,  3-C ) :   1.3947
B(  2-C , 13-H ) :   0.9739 B(  3-C ,  4-C ) :   1.3685 B(  3-C ,  9-C ) :   0.8889
B(  4-C ,  5-C ) :   1.3947 B(  4-C ,  6-C ) :   0.8889 B(  5-C , 14-H ) :   0.9739
B(  6-C ,  7-O ) :   2.2248 B(  6-C ,  8-N ) :   1.0822 B(  8-N ,  9-C ) :   1.0822
B(  8-N , 15-H ) :   0.8473 B(  9-C , 10-O ) :   2.2248

Dispersion correction           -0.019772599
FINAL SINGLE POINT ENERGY      -512.080799212947

DIPOLE MOMENT
-------------

Method             : SCF
Type of density    : Electron Density
Multiplicity       :   1
Irrep              :   0
Energy             :  -512.1229715104121851 Eh
Relativity type    :
Basis              : AO
                                X                 Y                 Z
Electronic contribution:      5.409591285       0.000042844      -0.000441261
Nuclear contribution   :     -6.399394032      -0.000037910       0.000610968
                        -----------------------------------------
Total Dipole Moment    :     -0.989802746       0.000004934       0.000169707
                        -----------------------------------------
Magnitude (a.u.)       :      0.989802761
Magnitude (Debye)      :      2.515878678

Rotational constants in cm-1:             0.059058             0.040121             0.023891
Rotational constants in MHz :          1770.526803          1202.811714           716.235427

                             ****ORCA TERMINATED NORMALLY****
TOTAL RUN TIME: 0 days 0 hours 0 minutes 17 seconds 309 msec
