                         Program Version 6.0.0  -   RELEASE  -
|  1> ! pbe def2-sv(p) def2/J RI DEFGRID1 loosescf d4 GCP(DFT/SV(P)) printgap
|  2> %output
|  3>     printlevel normal
|  4> end
|  5> * xyz 0 1
|  6> C 3.0671932909 2.4252362322 -1.8561323271
|  7> C 3.8189288132 2.133608717 -0.5732686168
|  8> O 3.6674386734 0.7623322645 -0.1718826743
|  9> P 2.29239651 0.1820812457 0.3796496582
| 10> S 1.382186962 1.421431803 1.6033063372
| 11> O 2.7551581768 -1.2047938403 0.9745975839
| 12> C 2.9543346968 -1.450870256 2.385479122
| 13> C 2.2874207063 -2.760826869 2.7528513869
| 14> S 1.2998869555 -0.4890196917 -1.3711588552
| 15> C 0.4004533538 -1.9134621487 -0.6893485577
| 16> S -0.6172262392 -1.5109359589 0.757439663
| 17> P -2.1235144832 -0.4051046124 -0.2386257242
| 18> S -2.45548312 -0.8558047712 -2.1177609064
| 19> O -1.8330135531 1.131819994 0.0500709866
| 20> C -1.2431593044 2.0486858825 -0.8876981308
| 21> C -2.3085588172 2.9341211005 -1.502813219
| 22> O -3.2684077373 -0.7372092873 0.7981643274
| 23> C -4.6695200552 -0.6481914813 0.4650282836
| 24> C -5.1349845202 0.7883334184 0.3507357074
| 25> H 1.9966711717 2.297746182 -1.6934489899
| 26> H 3.2590090087 3.4475988645 -2.1651223391
| 27> H 3.3810144298 1.7430911862 -2.6418579558
| 28> H 3.4608118947 2.7732783043 0.2403829928
| 29> H 4.8954698453 2.2566449426 -0.6971695867
| 30> H 4.0332108395 -1.4897596477 2.5478592702
| 31> H 2.5301299021 -0.6164463922 2.9542582424
| 32> H 1.2160033132 -2.6997416369 2.5715191774
| 33> H 2.7019863978 -3.5708868141 2.1597560574
| 34> H 2.4598847237 -2.9626009783 3.8049331808
| 35> H 1.1102217652 -2.6739510569 -0.3756482962
| 36> H -0.2372124818 -2.2712169594 -1.4986810805
| 37> H -0.5267057364 2.6290285941 -0.3012711615
| 38> H -0.716147511 1.4881069139 -1.6663854752
| 39> H -2.8794077111 3.4302940488 -0.7229793668
| 40> H -1.8297128555 3.680383669 -2.1283937432
| 41> H -2.9789880445 2.3369553315 -2.1176439337
| 42> H -4.8362762622 -1.1873212325 -0.4732343737
| 43> H -5.1647078727 -1.1697876239 1.2854069705
| 44> H -6.2129468375 0.8076941669 0.223735339
| 45> H -4.8654335883 1.340772583 1.2472212204
| 46> H -4.6676418399 1.2636693193 -0.5094824606
| 47> *
| 48>
| 49>                          ****END OF INPUT****

CARTESIAN COORDINATES (ANGSTROEM)
---------------------------------
  C      3.067193    2.425236   -1.856132
  C      3.818929    2.133609   -0.573269
  O      3.667439    0.762332   -0.171883
  P      2.292397    0.182081    0.379650
  S      1.382187    1.421432    1.603306
  O      2.755158   -1.204794    0.974598
  C      2.954335   -1.450870    2.385479
  C      2.287421   -2.760827    2.752851
  S      1.299887   -0.489020   -1.371159
  C      0.400453   -1.913462   -0.689349
  S     -0.617226   -1.510936    0.757440
  P     -2.123514   -0.405105   -0.238626
  S     -2.455483   -0.855805   -2.117761
  O     -1.833014    1.131820    0.050071
  C     -1.243159    2.048686   -0.887698
  C     -2.308559    2.934121   -1.502813
  O     -3.268408   -0.737209    0.798164
  C     -4.669520   -0.648191    0.465028
  C     -5.134985    0.788333    0.350736
  H      1.996671    2.297746   -1.693449
  H      3.259009    3.447599   -2.165122
  H      3.381014    1.743091   -2.641858
  H      3.460812    2.773278    0.240383
  H      4.895470    2.256645   -0.697170
  H      4.033211   -1.489760    2.547859
  H      2.530130   -0.616446    2.954258
  H      1.216003   -2.699742    2.571519
  H      2.701986   -3.570887    2.159756
  H      2.459885   -2.962601    3.804933
  H      1.110222   -2.673951   -0.375648
  H     -0.237212   -2.271217   -1.498681
  H     -0.526706    2.629029   -0.301271
  H     -0.716148    1.488107   -1.666385
  H     -2.879408    3.430294   -0.722979
  H     -1.829713    3.680384   -2.128394
  H     -2.978988    2.336955   -2.117644
  H     -4.836276   -1.187321   -0.473234
  H     -5.164708   -1.169788    1.285407
  H     -6.212947    0.807694    0.223735
  H     -4.865434    1.340773    1.247221
  H     -4.667642    1.263669   -0.509482

 Total Charge           Charge          ....    0
 Multiplicity           Mult            ....    1
 Number of Electrons    NEL             ....  202
 Basis Dimension        Dim             ....  334

ORBITAL ENERGIES
----------------

  NO   OCC          E(Eh)            E(eV)
   0   2.0000     -88.041821     -2395.7397
   1   2.0000     -88.038666     -2395.6539
   2   2.0000     -87.990093     -2394.3322
   3   2.0000     -87.985222     -2394.1996
   4   2.0000     -76.427485     -2079.6976
   5   2.0000     -76.424963     -2079.6290
   6   2.0000     -18.796301      -511.4734
   7   2.0000     -18.789948      -511.3005
   8   2.0000     -18.789877      -511.2986
   9   2.0000     -18.784167      -511.1432
  10   2.0000      -9.955881      -270.9133
  11   2.0000      -9.954170      -270.8667
  12   2.0000      -9.953160      -270.8393
  13   2.0000      -9.952622      -270.8246
  14   2.0000      -9.939841      -270.4768
  15   2.0000      -9.888883      -269.0902
  16   2.0000      -9.888402      -269.0771
  17   2.0000      -9.884758      -268.9779
  18   2.0000      -9.877729      -268.7867
  19   2.0000      -7.686708      -209.1660
  20   2.0000      -7.683671      -209.0833
  21   2.0000      -7.635014      -207.7593
  22   2.0000      -7.630134      -207.6265
  23   2.0000      -6.424912      -174.8308
  24   2.0000      -6.422648      -174.7691
  25   2.0000      -5.714804      -155.5077
  26   2.0000      -5.711615      -155.4209
  27   2.0000      -5.711135      -155.4079
  28   2.0000      -5.708379      -155.3329
  29   2.0000      -5.703559      -155.2017
  30   2.0000      -5.700340      -155.1141
  31   2.0000      -5.663761      -154.1188
  32   2.0000      -5.658894      -153.9863
  33   2.0000      -5.655942      -153.9060
  34   2.0000      -5.655052      -153.8818
  35   2.0000      -5.650988      -153.7712
  36   2.0000      -5.650227      -153.7505
  37   2.0000      -4.647581      -126.4671
  38   2.0000      -4.646706      -126.4433
  39   2.0000      -4.645235      -126.4033
  40   2.0000      -4.644970      -126.3961
  41   2.0000      -4.644252      -126.3765
  42   2.0000      -4.643480      -126.3555
  43   2.0000      -0.988412       -26.8961
  44   2.0000      -0.982535       -26.7361
  45   2.0000      -0.947897       -25.7936
  46   2.0000      -0.940451       -25.5910
  47   2.0000      -0.762640       -20.7525
  48   2.0000      -0.723108       -19.6768
  49   2.0000      -0.709288       -19.3007
  50   2.0000      -0.689118       -18.7518
  51   2.0000      -0.683024       -18.5860
  52   2.0000      -0.670812       -18.2537
  53   2.0000      -0.651919       -17.7396
  54   2.0000      -0.639493       -17.4015
  55   2.0000      -0.602520       -16.3954
  56   2.0000      -0.594050       -16.1649
  57   2.0000      -0.574076       -15.6214
  58   2.0000      -0.564680       -15.3657
  59   2.0000      -0.559839       -15.2340
  60   2.0000      -0.504773       -13.7356
  61   2.0000      -0.494238       -13.4489
  62   2.0000      -0.474779       -12.9194
  63   2.0000      -0.473506       -12.8847
  64   2.0000      -0.458295       -12.4708
  65   2.0000      -0.442624       -12.0444
  66   2.0000      -0.439645       -11.9634
  67   2.0000      -0.431716       -11.7476
  68   2.0000      -0.426349       -11.6015
  69   2.0000      -0.416346       -11.3293
  70   2.0000      -0.402259       -10.9460
  71   2.0000      -0.395817       -10.7707
  72   2.0000      -0.392248       -10.6736
  73   2.0000      -0.387090       -10.5333
  74   2.0000      -0.380072       -10.3423
  75   2.0000      -0.377233       -10.2650
  76   2.0000      -0.372499       -10.1362
  77   2.0000      -0.358954        -9.7676
  78   2.0000      -0.357505        -9.7282
  79   2.0000      -0.354847        -9.6559
  80   2.0000      -0.348161        -9.4739
  81   2.0000      -0.343637        -9.3508
  82   2.0000      -0.339921        -9.2497
  83   2.0000      -0.334857        -9.1119
  84   2.0000      -0.333452        -9.0737
  85   2.0000      -0.323634        -8.8065
  86   2.0000      -0.307655        -8.3717
  87   2.0000      -0.298805        -8.1309
  88   2.0000      -0.289791        -7.8856
  89   2.0000      -0.286952        -7.8084
  90   2.0000      -0.282604        -7.6900
  91   2.0000      -0.275116        -7.4863
  92   2.0000      -0.274074        -7.4579
  93   2.0000      -0.262755        -7.1499
  94   2.0000      -0.258551        -7.0355
  95   2.0000      -0.239674        -6.5219
  96   2.0000      -0.216602        -5.8940
  97   2.0000      -0.212356        -5.7785
  98   2.0000      -0.206230        -5.6118
  99   2.0000      -0.198201        -5.3933
 100   2.0000      -0.192367        -5.2346
 101   0.0000      -0.048843        -1.3291
 102   0.0000      -0.027212        -0.7405
 103   0.0000      -0.018707        -0.5090
 104   0.0000       0.007301         0.1987
 105   0.0000       0.020351         0.5538

MULLIKEN ATOMIC CHARGES
-----------------------
   0 C :   -0.335687
   1 C :   -0.000495
   2 O :   -0.365322
   3 P :    0.610320
   4 S :   -0.316917
   5 O :   -0.375046
   6 C :   -0.005245
   7 C :   -0.307528
   8 S :   -0.103177
   9 C :   -0.347995
  10 S :   -0.093463
  11 P :    0.648101
  12 S :   -0.343135
  13 O :   -0.362592
  14 C :   -0.042616
  15 C :   -0.291949
  16 O :   -0.374780
  17 C :   -0.001684
  18 C :   -0.319870
  19 H :    0.133478
  20 H :    0.116153
  21 H :    0.124563
  22 H :    0.108572
  23 H :    0.106590
  24 H :    0.107009
  25 H :    0.114156
  26 H :    0.134970
  27 H :    0.116525
  28 H :    0.114463
  29 H :    0.188532
  30 H :    0.193872
  31 H :    0.117595
  32 H :    0.122940
  33 H :    0.113508
  34 H :    0.106025
  35 H :    0.124903
  36 H :    0.111623
  37 H :    0.107351
  38 H :    0.111857
  39 H :    0.121710
  40 H :    0.132683
Sum of atomic charges:    0.0000000

LOEWDIN ATOMIC CHARGES
----------------------
   0 C :   -0.369947
   1 C :   -0.121059
   2 O :   -0.245244
   3 P :    0.567282
   4 S :   -0.307387
   5 O :   -0.241519
   6 C :   -0.115099
   7 C :   -0.357761
   8 S :    0.086605
   9 C :   -0.477397
  10 S :    0.093209
  11 P :    0.577732
  12 S :   -0.322536
  13 O :   -0.237130
  14 C :   -0.129024
  15 C :   -0.360488
  16 O :   -0.243449
  17 C :   -0.112571
  18 C :   -0.364200
  19 H :    0.119540
  20 H :    0.132709
  21 H :    0.127678
  22 H :    0.108149
  23 H :    0.119616
  24 H :    0.116975
  25 H :    0.109509
  26 H :    0.121951
  27 H :    0.125036
  28 H :    0.132834
  29 H :    0.133895
  30 H :    0.130146
  31 H :    0.111585
  32 H :    0.100329
  33 H :    0.123554
  34 H :    0.128309
  35 H :    0.121794
  36 H :    0.111194
  37 H :    0.120031
  38 H :    0.130707
  39 H :    0.128971
  40 H :    0.125475

  Mayer bond orders larger than 0.100000
B(  0-C ,  1-C ) :   1.1609 B(  0-C , 19-H ) :   0.9306 B(  0-C , 20-H ) :   0.9384
B(  0-C , 21-H ) :   0.9435 B(  1-C ,  2-O ) :   0.9148 B(  1-C , 22-H ) :   0.9113
B(  1-C , 23-H ) :   0.9326 B(  2-O ,  3-P ) :   1.1113 B(  3-P ,  4-S ) :   1.6204
B(  3-P ,  5-O ) :   1.1218 B(  3-P ,  8-S ) :   0.9557 B(  4-S ,  8-S ) :   0.1044
B(  5-O ,  6-C ) :   0.8926 B(  6-C ,  7-C ) :   1.1650 B(  6-C , 24-H ) :   0.9332
B(  6-C , 25-H ) :   0.9016 B(  7-C , 26-H ) :   0.9380 B(  7-C , 27-H ) :   0.9484
B(  7-C , 28-H ) :   0.9395 B(  8-S ,  9-C ) :   0.9887 B(  9-C , 10-S ) :   1.0276
B(  9-C , 29-H ) :   0.9014 B(  9-C , 30-H ) :   0.8771 B( 10-S , 11-P ) :   0.9314
B( 10-S , 12-S ) :   0.1055 B( 11-P , 12-S ) :   1.5903 B( 11-P , 13-O ) :   1.1277
B( 11-P , 16-O ) :   1.1358 B( 13-O , 14-C ) :   0.8990 B( 14-C , 15-C ) :   1.1652
B( 14-C , 31-H ) :   0.9167 B( 14-C , 32-H ) :   0.8987 B( 15-C , 33-H ) :   0.9449
B( 15-C , 34-H ) :   0.9398 B( 15-C , 35-H ) :   0.9319 B( 16-O , 17-C ) :   0.9098
B( 17-C , 18-C ) :   1.1617 B( 17-C , 36-H ) :   0.9174 B( 17-C , 37-H ) :   0.9356
B( 18-C , 38-H ) :   0.9375 B( 18-C , 39-H ) :   0.9456 B( 18-C , 40-H ) :   0.9340

Dispersion correction           -0.066692951
FINAL SINGLE POINT ENERGY     -2929.522563014884

DIPOLE MOMENT
-------------

Method             : SCF
Type of density    : Electron Density
Multiplicity       :   1
Irrep              :   0
Energy             : -2929.6401679860955483 Eh
Relativity type    :
Basis              : AO
                                X                 Y                 Z
Electronic contribution:      4.102106889     -10.256200972       0.245198396
Nuclear contribution   :     -3.751467141      10.422580001      -0.027848728
                        -----------------------------------------
Total Dipole Moment    :      0.350639748       0.166379030       0.217349667
                        -----------------------------------------
Magnitude (a.u.)       :      0.444827036
Magnitude (Debye)      :      1.130660472

Rotational constants in cm-1:             0.011759             0.005505             0.004706
Rotational constants in MHz :           352.518022           165.028438           141.093425

                             ****ORCA TERMINATED NORMALLY****
TOTAL RUN TIME: 0 days 0 hours 0 minutes 21 seconds 403 msec
