                         Program Version 6.0.0  -   RELEASE  -
|  1> ! pbe def2-sv(p) def2/J RI DEFGRID1 loosescf d4 GCP(DFT/SV(P)) printgap
|  2> %output
|  3>     printlevel normal
|  4> end
|  5> * xyz 0 1
|  6> C 3.0028567991 -1.498681505 -2.4669701841
|  7> C 2.0862358568 -0.2964398249 -2.5264633256
|  8> O 2.2739127887 0.6047855962 -1.4120403914
|  9> P 2.1735767788 0.2437234526 0.1159378275
| 10> S 1.7810316297 1.7866655731 1.256492332
| 11> O 3.6303549499 -0.3593887287 0.3673902286
| 12> C 4.2340134293 -0.4544605193 1.665674625
| 13> C 3.5005539834 -1.4166129516 2.5789995574
| 14> S 0.8699634066 -1.4328464254 0.2869364583
| 15> C -0.2590634304 -0.8271174214 1.5814326343
| 16> S -2.0133606674 -1.0893722779 1.2091215518
| 17> P -2.3846221496 0.3120454035 -0.3466990311
| 18> S -0.8392648286 1.2106184075 -1.1773406835
| 19> O -3.5341447664 1.2393661788 0.2254063624
| 20> C -3.5127888767 1.8684774502 1.5177425387
| 21> C -2.4153479413 2.907684808 1.6417952872
| 22> O -3.3049556001 -0.4494070064 -1.3821117931
| 23> C -2.761965144 -1.1458212151 -2.517042753
| 24> C -2.0957026366 -2.4475802574 -2.1159148458
| 25> H 2.7606983722 -2.114552534 -1.6021245328
| 26> H 2.8715029259 -2.0884617304 -3.3687726141
| 27> H 4.0380806064 -1.1765413763 -2.3912169845
| 28> H 1.0346897184 -0.5962117951 -2.5435242296
| 29> H 2.2953970392 0.3344280301 -3.3916384849
| 30> H 5.2489588848 -0.7944702773 1.4544963417
| 31> H 4.2626427864 0.5466091231 2.1081011715
| 32> H 2.5288251827 -1.0031817994 2.8451450123
| 33> H 3.3595217849 -2.3752030814 2.0862278248
| 34> H 4.0796023951 -1.5590257426 3.4857683716
| 35> H -0.049402937 0.2343141988 1.7403806241
| 36> H -0.0845418288 -1.4030570789 2.4870218333
| 37> H -4.4995794816 2.3282969416 1.5950130092
| 38> H -3.4064542708 1.0943833522 2.2840911062
| 39> H -1.4301559428 2.4463810345 1.5710950597
| 40> H -2.5000331664 3.6437090498 0.8456955733
| 41> H -2.4958525994 3.4075081544 2.6017198933
| 42> H -3.6275592553 -1.3185616057 -3.1580737029
| 43> H -2.0526870988 -0.4834872359 -3.0257206303
| 44> H -2.7804011844 -3.0528471691 -1.5277968362
| 45> H -1.8078500004 -2.9932228727 -3.0087186486
| 46> H -1.2042458995 -2.2512138336 -1.5210465535
| 47> *
| 48>
| 49>                          ****END OF INPUT****

CARTESIAN COORDINATES (ANGSTROEM)
---------------------------------
  C      3.002857   -1.498682   -2.466970
  C      2.086236   -0.296440   -2.526463
  O      2.273913    0.604786   -1.412040
  P      2.173577    0.243723    0.115938
  S      1.781032    1.786666    1.256492
  O      3.630355   -0.359389    0.367390
  C      4.234013   -0.454461    1.665675
  C      3.500554   -1.416613    2.579000
  S      0.869963   -1.432846    0.286936
  C     -0.259063   -0.827117    1.581433
  S     -2.013361   -1.089372    1.209122
  P     -2.384622    0.312045   -0.346699
  S     -0.839265    1.210618   -1.177341
  O     -3.534145    1.239366    0.225406
  C     -3.512789    1.868477    1.517743
  C     -2.415348    2.907685    1.641795
  O     -3.304956   -0.449407   -1.382112
  C     -2.761965   -1.145821   -2.517043
  C     -2.095703   -2.447580   -2.115915
  H      2.760698   -2.114553   -1.602125
  H      2.871503   -2.088462   -3.368773
  H      4.038081   -1.176541   -2.391217
  H      1.034690   -0.596212   -2.543524
  H      2.295397    0.334428   -3.391638
  H      5.248959   -0.794470    1.454496
  H      4.262643    0.546609    2.108101
  H      2.528825   -1.003182    2.845145
  H      3.359522   -2.375203    2.086228
  H      4.079602   -1.559026    3.485768
  H     -0.049403    0.234314    1.740381
  H     -0.084542   -1.403057    2.487022
  H     -4.499579    2.328297    1.595013
  H     -3.406454    1.094383    2.284091
  H     -1.430156    2.446381    1.571095
  H     -2.500033    3.643709    0.845696
  H     -2.495853    3.407508    2.601720
  H     -3.627559   -1.318562   -3.158074
  H     -2.052687   -0.483487   -3.025721
  H     -2.780401   -3.052847   -1.527797
  H     -1.807850   -2.993223   -3.008719
  H     -1.204246   -2.251214   -1.521047

 Total Charge           Charge          ....    0
 Multiplicity           Mult            ....    1
 Number of Electrons    NEL             ....  202
 Basis Dimension        Dim             ....  334

ORBITAL ENERGIES
----------------

  NO   OCC          E(Eh)            E(eV)
   0   2.0000     -88.049353     -2395.9447
   1   2.0000     -88.045308     -2395.8346
   2   2.0000     -87.984883     -2394.1904
   3   2.0000     -87.984504     -2394.1801
   4   2.0000     -76.426286     -2079.6650
   5   2.0000     -76.424684     -2079.6214
   6   2.0000     -18.790177      -511.3067
   7   2.0000     -18.786604      -511.2095
   8   2.0000     -18.785675      -511.1842
   9   2.0000     -18.785430      -511.1775
  10   2.0000      -9.959398      -271.0090
  11   2.0000      -9.953851      -270.8580
  12   2.0000      -9.951646      -270.7980
  13   2.0000      -9.950124      -270.7566
  14   2.0000      -9.949221      -270.7321
  15   2.0000      -9.888794      -269.0878
  16   2.0000      -9.885488      -268.9978
  17   2.0000      -9.881988      -268.9026
  18   2.0000      -9.877661      -268.7848
  19   2.0000      -7.694062      -209.3661
  20   2.0000      -7.689375      -209.2385
  21   2.0000      -7.629593      -207.6118
  22   2.0000      -7.629222      -207.6017
  23   2.0000      -6.423164      -174.7832
  24   2.0000      -6.421877      -174.7482
  25   2.0000      -5.721902      -155.7009
  26   2.0000      -5.718314      -155.6032
  27   2.0000      -5.717248      -155.5742
  28   2.0000      -5.714011      -155.4862
  29   2.0000      -5.711372      -155.4143
  30   2.0000      -5.706350      -155.2777
  31   2.0000      -5.658532      -153.9765
  32   2.0000      -5.658218      -153.9679
  33   2.0000      -5.650444      -153.7564
  34   2.0000      -5.649769      -153.7380
  35   2.0000      -5.649514      -153.7311
  36   2.0000      -5.649440      -153.7291
  37   2.0000      -4.645810      -126.4189
  38   2.0000      -4.644910      -126.3944
  39   2.0000      -4.644136      -126.3734
  40   2.0000      -4.644086      -126.3720
  41   2.0000      -4.643690      -126.3612
  42   2.0000      -4.642193      -126.3205
  43   2.0000      -0.985884       -26.8273
  44   2.0000      -0.983854       -26.7720
  45   2.0000      -0.941700       -25.6250
  46   2.0000      -0.941135       -25.6096
  47   2.0000      -0.762940       -20.7607
  48   2.0000      -0.718894       -19.5621
  49   2.0000      -0.710756       -19.3407
  50   2.0000      -0.689114       -18.7518
  51   2.0000      -0.680815       -18.5259
  52   2.0000      -0.679909       -18.5013
  53   2.0000      -0.651730       -17.7345
  54   2.0000      -0.636227       -17.3126
  55   2.0000      -0.601228       -16.3603
  56   2.0000      -0.593186       -16.1414
  57   2.0000      -0.575101       -15.6493
  58   2.0000      -0.571361       -15.5475
  59   2.0000      -0.561899       -15.2900
  60   2.0000      -0.496377       -13.5071
  61   2.0000      -0.491019       -13.3613
  62   2.0000      -0.469018       -12.7626
  63   2.0000      -0.466247       -12.6872
  64   2.0000      -0.453711       -12.3461
  65   2.0000      -0.451960       -12.2985
  66   2.0000      -0.439030       -11.9466
  67   2.0000      -0.434552       -11.8248
  68   2.0000      -0.424180       -11.5425
  69   2.0000      -0.420783       -11.4501
  70   2.0000      -0.412488       -11.2244
  71   2.0000      -0.407441       -11.0870
  72   2.0000      -0.397240       -10.8095
  73   2.0000      -0.389274       -10.5927
  74   2.0000      -0.381615       -10.3843
  75   2.0000      -0.368980       -10.0405
  76   2.0000      -0.366772        -9.9804
  77   2.0000      -0.357649        -9.7321
  78   2.0000      -0.353725        -9.6254
  79   2.0000      -0.350431        -9.5357
  80   2.0000      -0.346378        -9.4254
  81   2.0000      -0.345591        -9.4040
  82   2.0000      -0.339632        -9.2418
  83   2.0000      -0.336690        -9.1618
  84   2.0000      -0.334585        -9.1045
  85   2.0000      -0.313112        -8.5202
  86   2.0000      -0.309105        -8.4112
  87   2.0000      -0.297099        -8.0845
  88   2.0000      -0.292475        -7.9586
  89   2.0000      -0.289844        -7.8871
  90   2.0000      -0.285388        -7.7658
  91   2.0000      -0.273711        -7.4480
  92   2.0000      -0.268980        -7.3193
  93   2.0000      -0.260550        -7.0899
  94   2.0000      -0.257813        -7.0154
  95   2.0000      -0.237137        -6.4528
  96   2.0000      -0.222777        -6.0621
  97   2.0000      -0.213847        -5.8191
  98   2.0000      -0.204639        -5.5685
  99   2.0000      -0.193010        -5.2521
 100   2.0000      -0.187130        -5.0921
 101   0.0000      -0.046533        -1.2662
 102   0.0000      -0.036650        -0.9973
 103   0.0000      -0.019768        -0.5379
 104   0.0000       0.001229         0.0334
 105   0.0000       0.013815         0.3759

MULLIKEN ATOMIC CHARGES
-----------------------
   0 C :   -0.314078
   1 C :   -0.013329
   2 O :   -0.355007
   3 P :    0.608704
   4 S :   -0.298219
   5 O :   -0.373273
   6 C :    0.003059
   7 C :   -0.319139
   8 S :   -0.118153
   9 C :   -0.341940
  10 S :   -0.117840
  11 P :    0.590704
  12 S :   -0.306793
  13 O :   -0.351397
  14 C :   -0.009102
  15 C :   -0.327614
  16 O :   -0.353642
  17 C :   -0.004716
  18 C :   -0.334021
  19 H :    0.125351
  20 H :    0.113934
  21 H :    0.124494
  22 H :    0.123799
  23 H :    0.111756
  24 H :    0.102999
  25 H :    0.111442
  26 H :    0.117412
  27 H :    0.118692
  28 H :    0.112136
  29 H :    0.208578
  30 H :    0.184044
  31 H :    0.107916
  32 H :    0.106078
  33 H :    0.147375
  34 H :    0.124206
  35 H :    0.108702
  36 H :    0.105440
  37 H :    0.111133
  38 H :    0.116391
  39 H :    0.107399
  40 H :    0.146518
Sum of atomic charges:   -0.0000000

LOEWDIN ATOMIC CHARGES
----------------------
   0 C :   -0.366815
   1 C :   -0.116702
   2 O :   -0.226363
   3 P :    0.578687
   4 S :   -0.295253
   5 O :   -0.248902
   6 C :   -0.118280
   7 C :   -0.370726
   8 S :    0.076435
   9 C :   -0.480535
  10 S :    0.081452
  11 P :    0.560835
  12 S :   -0.290182
  13 O :   -0.231940
  14 C :   -0.119894
  15 C :   -0.368562
  16 O :   -0.234577
  17 C :   -0.119885
  18 C :   -0.373126
  19 H :    0.115468
  20 H :    0.131930
  21 H :    0.130201
  22 H :    0.106960
  23 H :    0.124422
  24 H :    0.117973
  25 H :    0.111005
  26 H :    0.117676
  27 H :    0.123532
  28 H :    0.130142
  29 H :    0.121903
  30 H :    0.134835
  31 H :    0.120809
  32 H :    0.102209
  33 H :    0.122953
  34 H :    0.131158
  35 H :    0.129054
  36 H :    0.118948
  37 H :    0.106539
  38 H :    0.125632
  39 H :    0.128345
  40 H :    0.112638

  Mayer bond orders larger than 0.100000
B(  0-C ,  1-C ) :   1.1646 B(  0-C , 19-H ) :   0.9366 B(  0-C , 20-H ) :   0.9359
B(  0-C , 21-H ) :   0.9417 B(  1-C ,  2-O ) :   0.8986 B(  1-C , 22-H ) :   0.9115
B(  1-C , 23-H ) :   0.9336 B(  2-O ,  3-P ) :   1.1497 B(  3-P ,  4-S ) :   1.6047
B(  3-P ,  5-O ) :   1.0809 B(  3-P ,  8-S ) :   0.9349 B(  4-S ,  8-S ) :   0.1128
B(  4-S , 29-H ) :   0.1129 B(  5-O ,  6-C ) :   0.9205 B(  6-C ,  7-C ) :   1.1627
B(  6-C , 24-H ) :   0.9343 B(  6-C , 25-H ) :   0.9163 B(  7-C , 26-H ) :   0.9364
B(  7-C , 27-H ) :   0.9425 B(  7-C , 28-H ) :   0.9375 B(  8-S ,  9-C ) :   1.0015
B(  9-C , 10-S ) :   0.9982 B(  9-C , 29-H ) :   0.8447 B(  9-C , 30-H ) :   0.9016
B( 10-S , 11-P ) :   0.9299 B( 10-S , 12-S ) :   0.1230 B( 11-P , 12-S ) :   1.6289
B( 11-P , 13-O ) :   1.1322 B( 11-P , 16-O ) :   1.1282 B( 13-O , 14-C ) :   0.9214
B( 14-C , 15-C ) :   1.1583 B( 14-C , 31-H ) :   0.9335 B( 14-C , 32-H ) :   0.9166
B( 15-C , 33-H ) :   0.9266 B( 15-C , 34-H ) :   0.9439 B( 15-C , 35-H ) :   0.9367
B( 16-O , 17-C ) :   0.9147 B( 17-C , 18-C ) :   1.1638 B( 17-C , 36-H ) :   0.9334
B( 17-C , 37-H ) :   0.9102 B( 18-C , 38-H ) :   0.9438 B( 18-C , 39-H ) :   0.9390
B( 18-C , 40-H ) :   0.9238

Dispersion correction           -0.068362346
FINAL SINGLE POINT ENERGY     -2929.515084286606

DIPOLE MOMENT
-------------

Method             : SCF
Type of density    : Electron Density
Multiplicity       :   1
Irrep              :   0
Energy             : -2929.6317394516186141 Eh
Relativity type    :
Basis              : AO
                                X                 Y                 Z
Electronic contribution:     -6.140968681       7.808231397       0.435399166
Nuclear contribution   :      6.317289816      -9.102171532      -0.279065708
                        -----------------------------------------
Total Dipole Moment    :      0.176321135      -1.293940135       0.156333458
                        -----------------------------------------
Magnitude (a.u.)       :      1.315222554
Magnitude (Debye)      :      3.343030057

Rotational constants in cm-1:             0.011535             0.005803             0.005049
Rotational constants in MHz :           345.816739           173.955628           151.371563

                             ****ORCA TERMINATED NORMALLY****
TOTAL RUN TIME: 0 days 0 hours 0 minutes 21 seconds 398 msec
