                         Program Version 6.0.0  -   RELEASE  -
|  1> ! pbe def2-sv(p) def2/J RI DEFGRID1 loosescf d4 GCP(DFT/SV(P)) printgap
|  2> %output
|  3>     printlevel normal
|  4> end
|  5> * xyz 0 1
|  6> C 4.7610626915 -1.2015972799 -0.9161151877
|  7> C 4.6740979086 0.2216139256 -0.4043558631
|  8> O 3.4825752457 0.4468644207 0.3690568
|  9> P 2.026843435 0.4422095679 -0.2770606168
| 10> S 1.9669660579 1.2534686983 -2.0669392816
| 11> O 1.2017162725 1.1336018539 0.8832836533
| 12> C 1.265888137 2.5604453494 1.0943257194
| 13> C 0.4160293285 2.8814545961 2.304814997
| 14> S 1.3753237099 -1.54003764 -0.0797445344
| 15> C 0.1735976877 -1.6257082915 -1.4508395805
| 16> S -1.502648587 -1.9887754024 -0.8878601043
| 17> P -1.9289197183 -0.1339426298 0.0651995992
| 18> S -1.4443204765 1.4679514032 -0.9488088268
| 19> O -1.2962484383 -0.1814620622 1.5022442629
| 20> C -1.5845237169 -1.2455150884 2.4507581715
| 21> C -0.3725828728 -1.423857271 3.3403738389
| 22> O -3.4775824691 -0.2859173751 0.3880219621
| 23> C -4.4734715553 -0.2421736565 -0.6547054265
| 24> C -5.8260420912 -0.0663889421 0.0048217478
| 25> H 4.6344131321 -1.9063379584 -0.0982933194
| 26> H 3.9819730896 -1.3763917184 -1.6568896952
| 27> H 5.7292095515 -1.3561322022 -1.3813812469
| 28> H 4.6820324631 0.9307337483 -1.23831953
| 29> H 5.4829583719 0.4523592854 0.2901255533
| 30> H 2.3111702155 2.8437187176 1.2452278669
| 31> H 0.8845387699 3.0549809181 0.1941161361
| 32> H 0.8097905601 2.3737475678 3.1803607113
| 33> H 0.4210896063 3.9537744894 2.4705469578
| 34> H -0.6041717879 2.5479759541 2.1307112571
| 35> H 0.4577754316 -2.4518494031 -2.0973561292
| 36> H 0.190311283 -0.6754379371 -1.9920455696
| 37> H -2.4634933053 -0.9378983596 3.0194123036
| 38> H -1.8121014515 -2.1603693123 1.8958747682
| 39> H -0.1422583611 -0.4913241582 3.8474437262
| 40> H -0.5838818917 -2.1926535503 4.0765355814
| 41> H 0.4894761513 -1.7211570074 2.7482811091
| 42> H -4.2388694475 0.5913708973 -1.3247636107
| 43> H -4.4196391142 -1.1787240088 -1.2159646364
| 44> H -5.8490351983 0.8625919659 0.5675073218
| 45> H -6.5940285506 -0.0403956248 -0.7610825557
| 46> H -6.0188239483 -0.8939992359 0.6809622594
| 47> *
| 48>
| 49>                          ****END OF INPUT****

CARTESIAN COORDINATES (ANGSTROEM)
---------------------------------
  C      4.761063   -1.201597   -0.916115
  C      4.674098    0.221614   -0.404356
  O      3.482575    0.446864    0.369057
  P      2.026843    0.442210   -0.277061
  S      1.966966    1.253469   -2.066939
  O      1.201716    1.133602    0.883284
  C      1.265888    2.560445    1.094326
  C      0.416029    2.881455    2.304815
  S      1.375324   -1.540038   -0.079745
  C      0.173598   -1.625708   -1.450840
  S     -1.502649   -1.988775   -0.887860
  P     -1.928920   -0.133943    0.065200
  S     -1.444320    1.467951   -0.948809
  O     -1.296248   -0.181462    1.502244
  C     -1.584524   -1.245515    2.450758
  C     -0.372583   -1.423857    3.340374
  O     -3.477582   -0.285917    0.388022
  C     -4.473472   -0.242174   -0.654705
  C     -5.826042   -0.066389    0.004822
  H      4.634413   -1.906338   -0.098293
  H      3.981973   -1.376392   -1.656890
  H      5.729210   -1.356132   -1.381381
  H      4.682032    0.930734   -1.238320
  H      5.482958    0.452359    0.290126
  H      2.311170    2.843719    1.245228
  H      0.884539    3.054981    0.194116
  H      0.809791    2.373748    3.180361
  H      0.421090    3.953774    2.470547
  H     -0.604172    2.547976    2.130711
  H      0.457775   -2.451849   -2.097356
  H      0.190311   -0.675438   -1.992046
  H     -2.463493   -0.937898    3.019412
  H     -1.812101   -2.160369    1.895875
  H     -0.142258   -0.491324    3.847444
  H     -0.583882   -2.192654    4.076536
  H      0.489476   -1.721157    2.748281
  H     -4.238869    0.591371   -1.324764
  H     -4.419639   -1.178724   -1.215965
  H     -5.849035    0.862592    0.567507
  H     -6.594029   -0.040396   -0.761083
  H     -6.018824   -0.893999    0.680962

 Total Charge           Charge          ....    0
 Multiplicity           Mult            ....    1
 Number of Electrons    NEL             ....  202
 Basis Dimension        Dim             ....  334

ORBITAL ENERGIES
----------------

  NO   OCC          E(Eh)            E(eV)
   0   2.0000     -88.043758     -2395.7925
   1   2.0000     -88.043171     -2395.7765
   2   2.0000     -87.980590     -2394.0736
   3   2.0000     -87.979642     -2394.0478
   4   2.0000     -76.423195     -2079.5809
   5   2.0000     -76.419511     -2079.4806
   6   2.0000     -18.793809      -511.4055
   7   2.0000     -18.790861      -511.3253
   8   2.0000     -18.787596      -511.2365
   9   2.0000     -18.778174      -510.9801
  10   2.0000      -9.955635      -270.9066
  11   2.0000      -9.953852      -270.8581
  12   2.0000      -9.953652      -270.8526
  13   2.0000      -9.947370      -270.6817
  14   2.0000      -9.939126      -270.4574
  15   2.0000      -9.889651      -269.1111
  16   2.0000      -9.883249      -268.9369
  17   2.0000      -9.880854      -268.8717
  18   2.0000      -9.873861      -268.6814
  19   2.0000      -7.688976      -209.2277
  20   2.0000      -7.688345      -209.2105
  21   2.0000      -7.625548      -207.5017
  22   2.0000      -7.624601      -207.4760
  23   2.0000      -6.420835      -174.7198
  24   2.0000      -6.417248      -174.6222
  25   2.0000      -5.716772      -155.5613
  26   2.0000      -5.716172      -155.5449
  27   2.0000      -5.713250      -155.4654
  28   2.0000      -5.712876      -155.4553
  29   2.0000      -5.706253      -155.2750
  30   2.0000      -5.705240      -155.2475
  31   2.0000      -5.654550      -153.8681
  32   2.0000      -5.653504      -153.8397
  33   2.0000      -5.646051      -153.6368
  34   2.0000      -5.645719      -153.6278
  35   2.0000      -5.645389      -153.6188
  36   2.0000      -5.644626      -153.5981
  37   2.0000      -4.643671      -126.3607
  38   2.0000      -4.642716      -126.3347
  39   2.0000      -4.640898      -126.2853
  40   2.0000      -4.639622      -126.2505
  41   2.0000      -4.638817      -126.2286
  42   2.0000      -4.638034      -126.2073
  43   2.0000      -0.988656       -26.9027
  44   2.0000      -0.979516       -26.6540
  45   2.0000      -0.944531       -25.7020
  46   2.0000      -0.935662       -25.4607
  47   2.0000      -0.763088       -20.7647
  48   2.0000      -0.720862       -19.6156
  49   2.0000      -0.707701       -19.2575
  50   2.0000      -0.691236       -18.8095
  51   2.0000      -0.681754       -18.5515
  52   2.0000      -0.672063       -18.2878
  53   2.0000      -0.645827       -17.5739
  54   2.0000      -0.630142       -17.1470
  55   2.0000      -0.594027       -16.1643
  56   2.0000      -0.581865       -15.8334
  57   2.0000      -0.568968       -15.4824
  58   2.0000      -0.566628       -15.4187
  59   2.0000      -0.556064       -15.1313
  60   2.0000      -0.510228       -13.8840
  61   2.0000      -0.495857       -13.4929
  62   2.0000      -0.482386       -13.1264
  63   2.0000      -0.466424       -12.6920
  64   2.0000      -0.450788       -12.2666
  65   2.0000      -0.445266       -12.1163
  66   2.0000      -0.438546       -11.9335
  67   2.0000      -0.434392       -11.8204
  68   2.0000      -0.424927       -11.5628
  69   2.0000      -0.418744       -11.3946
  70   2.0000      -0.407675       -11.0934
  71   2.0000      -0.394745       -10.7415
  72   2.0000      -0.386508       -10.5174
  73   2.0000      -0.384382       -10.4596
  74   2.0000      -0.375833       -10.2269
  75   2.0000      -0.365286        -9.9399
  76   2.0000      -0.364204        -9.9105
  77   2.0000      -0.354166        -9.6373
  78   2.0000      -0.350707        -9.5432
  79   2.0000      -0.348396        -9.4803
  80   2.0000      -0.344087        -9.3631
  81   2.0000      -0.341697        -9.2981
  82   2.0000      -0.339207        -9.2303
  83   2.0000      -0.333492        -9.0748
  84   2.0000      -0.324347        -8.8259
  85   2.0000      -0.315119        -8.5748
  86   2.0000      -0.308397        -8.3919
  87   2.0000      -0.302348        -8.2273
  88   2.0000      -0.299786        -8.1576
  89   2.0000      -0.291112        -7.9216
  90   2.0000      -0.279328        -7.6009
  91   2.0000      -0.270455        -7.3595
  92   2.0000      -0.263482        -7.1697
  93   2.0000      -0.261416        -7.1135
  94   2.0000      -0.256027        -6.9668
  95   2.0000      -0.238567        -6.4917
  96   2.0000      -0.220380        -5.9968
  97   2.0000      -0.212933        -5.7942
  98   2.0000      -0.202331        -5.5057
  99   2.0000      -0.191799        -5.2191
 100   2.0000      -0.182675        -4.9708
 101   0.0000      -0.040677        -1.1069
 102   0.0000      -0.030195        -0.8216
 103   0.0000      -0.008238        -0.2242
 104   0.0000       0.014660         0.3989
 105   0.0000       0.020507         0.5580

MULLIKEN ATOMIC CHARGES
-----------------------
   0 C :   -0.311231
   1 C :   -0.001777
   2 O :   -0.379967
   3 P :    0.612331
   4 S :   -0.320046
   5 O :   -0.354742
   6 C :   -0.002707
   7 C :   -0.283096
   8 S :   -0.090948
   9 C :   -0.358077
  10 S :   -0.112211
  11 P :    0.594454
  12 S :   -0.291827
  13 O :   -0.344222
  14 C :   -0.010798
  15 C :   -0.284333
  16 O :   -0.388113
  17 C :   -0.012489
  18 C :   -0.280422
  19 H :    0.115296
  20 H :    0.120539
  21 H :    0.111143
  22 H :    0.109867
  23 H :    0.101843
  24 H :    0.094872
  25 H :    0.113583
  26 H :    0.108880
  27 H :    0.103993
  28 H :    0.125377
  29 H :    0.182866
  30 H :    0.211063
  31 H :    0.107093
  32 H :    0.100766
  33 H :    0.120849
  34 H :    0.105327
  35 H :    0.126927
  36 H :    0.106992
  37 H :    0.104272
  38 H :    0.121439
  39 H :    0.113311
  40 H :    0.113923
Sum of atomic charges:    0.0000000

LOEWDIN ATOMIC CHARGES
----------------------
   0 C :   -0.369314
   1 C :   -0.120803
   2 O :   -0.249144
   3 P :    0.568385
   4 S :   -0.313065
   5 O :   -0.234298
   6 C :   -0.117019
   7 C :   -0.352507
   8 S :    0.091606
   9 C :   -0.478810
  10 S :    0.062664
  11 P :    0.559323
  12 S :   -0.289689
  13 O :   -0.224794
  14 C :   -0.113906
  15 C :   -0.353435
  16 O :   -0.254587
  17 C :   -0.120219
  18 C :   -0.350380
  19 H :    0.122963
  20 H :    0.119455
  21 H :    0.129867
  22 H :    0.109523
  23 H :    0.116954
  24 H :    0.106234
  25 H :    0.110994
  26 H :    0.121327
  27 H :    0.127374
  28 H :    0.127339
  29 H :    0.137344
  30 H :    0.127867
  31 H :    0.115638
  32 H :    0.102778
  33 H :    0.128203
  34 H :    0.127851
  35 H :    0.122960
  36 H :    0.110456
  37 H :    0.108276
  38 H :    0.129429
  39 H :    0.131511
  40 H :    0.125651

  Mayer bond orders larger than 0.100000
B(  0-C ,  1-C ) :   1.1659 B(  0-C , 19-H ) :   0.9449 B(  0-C , 20-H ) :   0.9362
B(  0-C , 21-H ) :   0.9384 B(  1-C ,  2-O ) :   0.9131 B(  1-C , 22-H ) :   0.9132
B(  1-C , 23-H ) :   0.9338 B(  2-O ,  3-P ) :   1.0949 B(  3-P ,  4-S ) :   1.6068
B(  3-P ,  5-O ) :   1.1469 B(  3-P ,  8-S ) :   0.9639 B(  4-S ,  8-S ) :   0.1170
B(  5-O ,  6-C ) :   0.8951 B(  6-C ,  7-C ) :   1.1658 B(  6-C , 24-H ) :   0.9259
B(  6-C , 25-H ) :   0.9153 B(  7-C , 26-H ) :   0.9482 B(  7-C , 27-H ) :   0.9407
B(  7-C , 28-H ) :   0.9423 B(  8-S ,  9-C ) :   0.9922 B(  9-C , 10-S ) :   1.0035
B(  9-C , 29-H ) :   0.9114 B(  9-C , 30-H ) :   0.8459 B( 10-S , 11-P ) :   0.9409
B( 10-S , 12-S ) :   0.1052 B( 11-P , 12-S ) :   1.6631 B( 11-P , 13-O ) :   1.1443
B( 11-P , 16-O ) :   1.0773 B( 13-O , 14-C ) :   0.8846 B( 14-C , 15-C ) :   1.1657
B( 14-C , 31-H ) :   0.9329 B( 14-C , 32-H ) :   0.9095 B( 15-C , 33-H ) :   0.9473
B( 15-C , 34-H ) :   0.9395 B( 15-C , 35-H ) :   0.9411 B( 16-O , 17-C ) :   0.9059
B( 17-C , 18-C ) :   1.1599 B( 17-C , 36-H ) :   0.9110 B( 17-C , 37-H ) :   0.9284
B( 18-C , 38-H ) :   0.9509 B( 18-C , 39-H ) :   0.9419 B( 18-C , 40-H ) :   0.9511

Dispersion correction           -0.066970372
FINAL SINGLE POINT ENERGY     -2929.522630953923

DIPOLE MOMENT
-------------

Method             : SCF
Type of density    : Electron Density
Multiplicity       :   1
Irrep              :   0
Energy             : -2929.6408676512028251 Eh
Relativity type    :
Basis              : AO
                                X                 Y                 Z
Electronic contribution:      2.302525765      -0.871750814     -13.059980282
Nuclear contribution   :     -2.587887859      -0.021131135      14.030640263
                        -----------------------------------------
Total Dipole Moment    :     -0.285362094      -0.892881950       0.970659981
                        -----------------------------------------
Magnitude (a.u.)       :      1.349388935
Magnitude (Debye)      :      3.429874097

Rotational constants in cm-1:             0.012615             0.005272             0.005144
Rotational constants in MHz :           378.184214           158.056622           154.223137

                             ****ORCA TERMINATED NORMALLY****
TOTAL RUN TIME: 0 days 0 hours 0 minutes 21 seconds 683 msec
