                         Program Version 6.0.0  -   RELEASE  -
|  1> ! pbe def2-sv(p) def2/J RI DEFGRID1 loosescf d4 GCP(DFT/SV(P)) printgap
|  2> %output
|  3>     printlevel normal
|  4> end
|  5> * xyz 0 1
|  6> C 0.8481158657 1.3993300729 -0.6073649407
|  7> C 1.5990740784 0.1860141633 -0.0413511592
|  8> H 2.5803203693 0.1196559416 -0.523169987
|  9> C 0.7901329654 -1.1000268172 -0.3338029221
| 10> H 1.2481336026 -1.926682279 0.2314844819
| 11> C -0.6639718374 -0.9261397083 0.1459813683
| 12> H -1.262015821 -1.7635313351 -0.2354706303
| 13> C -1.2537327816 0.3690111097 -0.4507458281
| 14> H -1.2826759273 0.2695794564 -1.5475717802
| 15> O -0.4644958574 1.4816336602 -0.0876520217
| 16> O -2.5459343963 0.5901843852 -0.0288760441
| 17> O -0.7570211573 -0.8177363598 1.5462442299
| 18> O 0.7371142932 -1.3966175396 -1.7072449071
| 19> O 1.8588870911 0.3171319085 1.3327264226
| 20> H 0.8129840305 1.3278042689 -1.7021576183
| 21> H 1.3395257062 2.3241848975 -0.3047783919
| 22> H -2.5454580507 0.6574522295 0.9411262349
| 23> H -0.6411253868 -1.6862867082 1.955650517
| 24> H 1.6093865658 -1.6823046541 -2.0157619524
| 25> H 1.0108150498 0.4443547557 1.7908189289
| 26> *
| 27>
| 28>                          ****END OF INPUT****

CARTESIAN COORDINATES (ANGSTROEM)
---------------------------------
  C      0.848116    1.399330   -0.607365
  C      1.599074    0.186014   -0.041351
  H      2.580320    0.119656   -0.523170
  C      0.790133   -1.100027   -0.333803
  H      1.248134   -1.926682    0.231484
  C     -0.663972   -0.926140    0.145981
  H     -1.262016   -1.763531   -0.235471
  C     -1.253733    0.369011   -0.450746
  H     -1.282676    0.269579   -1.547572
  O     -0.464496    1.481634   -0.087652
  O     -2.545934    0.590184   -0.028876
  O     -0.757021   -0.817736    1.546244
  O      0.737114   -1.396618   -1.707245
  O      1.858887    0.317132    1.332726
  H      0.812984    1.327804   -1.702158
  H      1.339526    2.324185   -0.304778
  H     -2.545458    0.657452    0.941126
  H     -0.641125   -1.686287    1.955651
  H      1.609387   -1.682305   -2.015762
  H      1.010815    0.444355    1.790819

 Total Charge           Charge          ....    0
 Multiplicity           Mult            ....    1
 Number of Electrons    NEL             ....   80
 Basis Dimension        Dim             ....  160

ORBITAL ENERGIES
----------------

  NO   OCC          E(Eh)            E(eV)
   0   2.0000     -18.780513      -511.0437
   1   2.0000     -18.768161      -510.7076
   2   2.0000     -18.758633      -510.4483
   3   2.0000     -18.751355      -510.2503
   4   2.0000     -18.740634      -509.9586
   5   2.0000      -9.980346      -271.5790
   6   2.0000      -9.947911      -270.6964
   7   2.0000      -9.947620      -270.6885
   8   2.0000      -9.939607      -270.4705
   9   2.0000      -9.929733      -270.2018
  10   2.0000      -0.980726       -26.6869
  11   2.0000      -0.948120       -25.7997
  12   2.0000      -0.942375       -25.6433
  13   2.0000      -0.922202       -25.0944
  14   2.0000      -0.903498       -24.5854
  15   2.0000      -0.698375       -19.0037
  16   2.0000      -0.671169       -18.2634
  17   2.0000      -0.588131       -16.0039
  18   2.0000      -0.581342       -15.8191
  19   2.0000      -0.544227       -14.8092
  20   2.0000      -0.496209       -13.5025
  21   2.0000      -0.486481       -13.2378
  22   2.0000      -0.464806       -12.6480
  23   2.0000      -0.447128       -12.1670
  24   2.0000      -0.430882       -11.7249
  25   2.0000      -0.422092       -11.4857
  26   2.0000      -0.410649       -11.1743
  27   2.0000      -0.374292       -10.1850
  28   2.0000      -0.370313       -10.0767
  29   2.0000      -0.349372        -9.5069
  30   2.0000      -0.333473        -9.0743
  31   2.0000      -0.314414        -8.5556
  32   2.0000      -0.294553        -8.0152
  33   2.0000      -0.289766        -7.8849
  34   2.0000      -0.275477        -7.4961
  35   2.0000      -0.254380        -6.9220
  36   2.0000      -0.249287        -6.7834
  37   2.0000      -0.236475        -6.4348
  38   2.0000      -0.215720        -5.8700
  39   2.0000      -0.195097        -5.3088
  40   0.0000       0.002640         0.0718
  41   0.0000       0.010069         0.2740
  42   0.0000       0.061218         1.6658
  43   0.0000       0.065602         1.7851
  44   0.0000       0.077061         2.0969

MULLIKEN ATOMIC CHARGES
-----------------------
   0 C :    0.058654
   1 C :    0.034207
   2 H :    0.058388
   3 C :    0.020793
   4 H :    0.056426
   5 C :    0.011783
   6 H :    0.080204
   7 C :    0.187187
   8 H :    0.072052
   9 O :   -0.311993
  10 O :   -0.381300
  11 O :   -0.428396
  12 O :   -0.411741
  13 O :   -0.435791
  14 H :    0.064875
  15 H :    0.098933
  16 H :    0.301819
  17 H :    0.315618
  18 H :    0.308133
  19 H :    0.300150
Sum of atomic charges:    0.0000000

LOEWDIN ATOMIC CHARGES
----------------------
   0 C :   -0.123967
   1 C :   -0.087209
   2 H :    0.109449
   3 C :   -0.085047
   4 H :    0.094488
   5 C :   -0.093142
   6 H :    0.112582
   7 C :    0.003531
   8 H :    0.104356
   9 O :   -0.165299
  10 O :   -0.287752
  11 O :   -0.307476
  12 O :   -0.317010
  13 O :   -0.324611
  14 H :    0.103019
  15 H :    0.119533
  16 H :    0.284429
  17 H :    0.296050
  18 H :    0.292124
  19 H :    0.271951

  Mayer bond orders larger than 0.100000
B(  0-C ,  1-C ) :   1.0594 B(  0-C ,  9-O ) :   1.0175 B(  0-C , 14-H ) :   0.8885
B(  0-C , 15-H ) :   0.9230 B(  1-C ,  2-H ) :   0.8964 B(  1-C ,  3-C ) :   0.9538
B(  1-C , 13-O ) :   1.0573 B(  3-C ,  4-H ) :   0.9052 B(  3-C ,  5-C ) :   0.9820
B(  3-C , 12-O ) :   1.0581 B(  5-C ,  6-H ) :   0.8895 B(  5-C ,  7-C ) :   0.9935
B(  5-C , 11-O ) :   1.0339 B(  7-C ,  8-H ) :   0.8917 B(  7-C ,  9-O ) :   1.0141
B(  7-C , 10-O ) :   1.1628 B( 10-O , 16-H ) :   0.8351 B( 11-O , 17-H ) :   0.8402
B( 12-O , 18-H ) :   0.8449 B( 13-O , 19-H ) :   0.8198

Dispersion correction           -0.019847214
FINAL SINGLE POINT ENERGY      -571.417819488161

DIPOLE MOMENT
-------------

Method             : SCF
Type of density    : Electron Density
Multiplicity       :   1
Irrep              :   0
Energy             :  -571.5266063307498143 Eh
Relativity type    :
Basis              : AO
                                X                 Y                 Z
Electronic contribution:     -2.124891774       0.707140860       1.389224305
Nuclear contribution   :      2.675090734      -1.794734830      -1.307028346
                        -----------------------------------------
Total Dipole Moment    :      0.550198960      -1.087593970       0.082195959
                        -----------------------------------------
Magnitude (a.u.)       :      1.221611933
Magnitude (Debye)      :      3.105090769

Rotational constants in cm-1:             0.058027             0.040669             0.038596
Rotational constants in MHz :          1739.604209          1219.218821          1157.071171

                             ****ORCA TERMINATED NORMALLY****
TOTAL RUN TIME: 0 days 0 hours 0 minutes 12 seconds 31 msec
