                         Program Version 6.0.0  -   RELEASE  -
|  1> ! pbe def2-sv(p) def2/J RI DEFGRID1 loosescf d4 GCP(DFT/SV(P)) printgap
|  2> %output
|  3>     printlevel normal
|  4> end
|  5> * xyz 0 1
|  6> C 1.2935953398 3.3663955049 1.094087211
|  7> C 2.0156000468 2.0844141453 0.7358642136
|  8> O 1.3202281675 0.9922801457 1.3837388449
|  9> P 1.5960971976 -0.5205102395 1.0359700406
| 10> S 0.6266171454 -1.7109792899 2.2481083948
| 11> O 3.1891905549 -0.5290512962 1.1468357631
| 12> C 4.0683208948 -1.5489514304 0.6395012978
| 13> C 3.7413185836 -2.9307301028 1.1663890629
| 14> S 1.3164587454 -0.8503592205 -1.0518404188
| 15> C -0.160736894 -1.8941362684 -1.0126183722
| 16> S -1.641888273 -1.1676742214 -1.7844340351
| 17> P -1.8087224603 0.6590836023 -0.7201661172
| 18> S -3.5168563964 1.5950927445 -0.9023937519
| 19> O -0.5364692826 1.5257927179 -1.1194562995
| 20> C -0.5440685158 2.3907392832 -2.2709057789
| 21> C -0.4145121101 1.6144016255 -3.5668100623
| 22> O -1.3406775103 0.3017611066 0.7586005079
| 23> C -2.3125788634 0.0910085061 1.7991915253
| 24> C -3.023764174 -1.238860991 1.6513824427
| 25> H 1.2907863611 3.5031208335 2.1717856577
| 26> H 1.7976424026 4.2056620169 0.6254666522
| 27> H 0.2639414722 3.3225684287 0.747881307
| 28> H 3.0465647359 2.0895559844 1.0958154716
| 29> H 2.0083196602 1.9065938862 -0.3432987456
| 30> H 4.0200709152 -1.5295728554 -0.4527521594
| 31> H 5.0549977314 -1.2214053179 0.9721434787
| 32> H 3.7174541735 -2.9269211528 2.2536110512
| 33> H 2.7670670285 -3.2547746462 0.8041970309
| 34> H 4.4966610753 -3.6317876864 0.8262553846
| 35> H -0.3664040599 -2.1532769858 0.0295757101
| 36> H 0.0422433511 -2.7826304541 -1.6057464794
| 37> H -1.4694245466 2.9763318524 -2.2581004873
| 38> H 0.3108504808 3.0501679398 -2.1122785787
| 39> H 0.4465771153 0.9510616946 -3.525080964
| 40> H -1.3098012396 1.0191659443 -3.740824288
| 41> H -0.2914004285 2.3126509616 -4.3884506758
| 42> H -1.7280337727 0.130753974 2.7197583375
| 43> H -3.0289499814 0.9179101048 1.7739917809
| 44> H -2.3096349379 -2.0576460938 1.7027792216
| 45> H -3.7423657674 -1.3478775554 2.4571958519
| 46> H -3.5517517258 -1.2753170634 0.6984397712
| 47> *
| 48>
| 49>                          ****END OF INPUT****

CARTESIAN COORDINATES (ANGSTROEM)
---------------------------------
  C      1.293595    3.366396    1.094087
  C      2.015600    2.084414    0.735864
  O      1.320228    0.992280    1.383739
  P      1.596097   -0.520510    1.035970
  S      0.626617   -1.710979    2.248108
  O      3.189191   -0.529051    1.146836
  C      4.068321   -1.548951    0.639501
  C      3.741319   -2.930730    1.166389
  S      1.316459   -0.850359   -1.051840
  C     -0.160737   -1.894136   -1.012618
  S     -1.641888   -1.167674   -1.784434
  P     -1.808722    0.659084   -0.720166
  S     -3.516856    1.595093   -0.902394
  O     -0.536469    1.525793   -1.119456
  C     -0.544069    2.390739   -2.270906
  C     -0.414512    1.614402   -3.566810
  O     -1.340678    0.301761    0.758601
  C     -2.312579    0.091009    1.799192
  C     -3.023764   -1.238861    1.651382
  H      1.290786    3.503121    2.171786
  H      1.797642    4.205662    0.625467
  H      0.263941    3.322568    0.747881
  H      3.046565    2.089556    1.095815
  H      2.008320    1.906594   -0.343299
  H      4.020071   -1.529573   -0.452752
  H      5.054998   -1.221405    0.972143
  H      3.717454   -2.926921    2.253611
  H      2.767067   -3.254775    0.804197
  H      4.496661   -3.631788    0.826255
  H     -0.366404   -2.153277    0.029576
  H      0.042243   -2.782630   -1.605746
  H     -1.469425    2.976332   -2.258100
  H      0.310850    3.050168   -2.112279
  H      0.446577    0.951062   -3.525081
  H     -1.309801    1.019166   -3.740824
  H     -0.291400    2.312651   -4.388451
  H     -1.728034    0.130754    2.719758
  H     -3.028950    0.917910    1.773992
  H     -2.309635   -2.057646    1.702779
  H     -3.742366   -1.347878    2.457196
  H     -3.551752   -1.275317    0.698440

 Total Charge           Charge          ....    0
 Multiplicity           Mult            ....    1
 Number of Electrons    NEL             ....  202
 Basis Dimension        Dim             ....  334

ORBITAL ENERGIES
----------------

  NO   OCC          E(Eh)            E(eV)
   0   2.0000     -88.050289     -2395.9702
   1   2.0000     -88.044237     -2395.8055
   2   2.0000     -87.988711     -2394.2945
   3   2.0000     -87.988383     -2394.2856
   4   2.0000     -76.429925     -2079.7640
   5   2.0000     -76.425544     -2079.6448
   6   2.0000     -18.796349      -511.4747
   7   2.0000     -18.790058      -511.3035
   8   2.0000     -18.789786      -511.2961
   9   2.0000     -18.786409      -511.2042
  10   2.0000      -9.959253      -271.0051
  11   2.0000      -9.958870      -270.9946
  12   2.0000      -9.954461      -270.8747
  13   2.0000      -9.953664      -270.8530
  14   2.0000      -9.940629      -270.4983
  15   2.0000      -9.885917      -269.0095
  16   2.0000      -9.885422      -268.9960
  17   2.0000      -9.884376      -268.9676
  18   2.0000      -9.872858      -268.6541
  19   2.0000      -7.694686      -209.3830
  20   2.0000      -7.689262      -209.2355
  21   2.0000      -7.633787      -207.7259
  22   2.0000      -7.633517      -207.7186
  23   2.0000      -6.426827      -174.8828
  24   2.0000      -6.423180      -174.7836
  25   2.0000      -5.722479      -155.7166
  26   2.0000      -5.719149      -155.6260
  27   2.0000      -5.717488      -155.5808
  28   2.0000      -5.713446      -155.4708
  29   2.0000      -5.711832      -155.4268
  30   2.0000      -5.706239      -155.2747
  31   2.0000      -5.662844      -154.0938
  32   2.0000      -5.662478      -154.0838
  33   2.0000      -5.654434      -153.8650
  34   2.0000      -5.654128      -153.8566
  35   2.0000      -5.653675      -153.8443
  36   2.0000      -5.653650      -153.8436
  37   2.0000      -4.649505      -126.5194
  38   2.0000      -4.648794      -126.5001
  39   2.0000      -4.647129      -126.4548
  40   2.0000      -4.645428      -126.4085
  41   2.0000      -4.645392      -126.4075
  42   2.0000      -4.643471      -126.3553
  43   2.0000      -0.989842       -26.9350
  44   2.0000      -0.985050       -26.8046
  45   2.0000      -0.943645       -25.6779
  46   2.0000      -0.942528       -25.6475
  47   2.0000      -0.764289       -20.7974
  48   2.0000      -0.722071       -19.6485
  49   2.0000      -0.710001       -19.3201
  50   2.0000      -0.690894       -18.8002
  51   2.0000      -0.683180       -18.5903
  52   2.0000      -0.675985       -18.3945
  53   2.0000      -0.654585       -17.8122
  54   2.0000      -0.640867       -17.4389
  55   2.0000      -0.599156       -16.3039
  56   2.0000      -0.590920       -16.0798
  57   2.0000      -0.572204       -15.5705
  58   2.0000      -0.567960       -15.4550
  59   2.0000      -0.564205       -15.3528
  60   2.0000      -0.509487       -13.8638
  61   2.0000      -0.492068       -13.3899
  62   2.0000      -0.476464       -12.9652
  63   2.0000      -0.465374       -12.6635
  64   2.0000      -0.461018       -12.5449
  65   2.0000      -0.449874       -12.2417
  66   2.0000      -0.440818       -11.9953
  67   2.0000      -0.431029       -11.7289
  68   2.0000      -0.425572       -11.5804
  69   2.0000      -0.418898       -11.3988
  70   2.0000      -0.417389       -11.3577
  71   2.0000      -0.403933       -10.9916
  72   2.0000      -0.395975       -10.7750
  73   2.0000      -0.389840       -10.6081
  74   2.0000      -0.384496       -10.4627
  75   2.0000      -0.369503       -10.0547
  76   2.0000      -0.361012        -9.8236
  77   2.0000      -0.354440        -9.6448
  78   2.0000      -0.350907        -9.5487
  79   2.0000      -0.350325        -9.5328
  80   2.0000      -0.347367        -9.4523
  81   2.0000      -0.344893        -9.3850
  82   2.0000      -0.338033        -9.1983
  83   2.0000      -0.332874        -9.0580
  84   2.0000      -0.328686        -8.9440
  85   2.0000      -0.322155        -8.7663
  86   2.0000      -0.321375        -8.7450
  87   2.0000      -0.300423        -8.1749
  88   2.0000      -0.299282        -8.1439
  89   2.0000      -0.295683        -8.0459
  90   2.0000      -0.285247        -7.7620
  91   2.0000      -0.271308        -7.3827
  92   2.0000      -0.269728        -7.3397
  93   2.0000      -0.262833        -7.1521
  94   2.0000      -0.258486        -7.0338
  95   2.0000      -0.230402        -6.2696
  96   2.0000      -0.224560        -6.1106
  97   2.0000      -0.212015        -5.7692
  98   2.0000      -0.207395        -5.6435
  99   2.0000      -0.201768        -5.4904
 100   2.0000      -0.199567        -5.4305
 101   0.0000      -0.042512        -1.1568
 102   0.0000      -0.034377        -0.9354
 103   0.0000      -0.023251        -0.6327
 104   0.0000      -0.000581        -0.0158
 105   0.0000       0.012700         0.3456

MULLIKEN ATOMIC CHARGES
-----------------------
   0 C :   -0.291830
   1 C :   -0.012238
   2 O :   -0.352723
   3 P :    0.629559
   4 S :   -0.306866
   5 O :   -0.386711
   6 C :   -0.005845
   7 C :   -0.305626
   8 S :   -0.119860
   9 C :   -0.349802
  10 S :   -0.090368
  11 P :    0.604456
  12 S :   -0.319400
  13 O :   -0.361424
  14 C :   -0.014004
  15 C :   -0.308021
  16 O :   -0.367856
  17 C :    0.004719
  18 C :   -0.324950
  19 H :    0.119605
  20 H :    0.105560
  21 H :    0.134482
  22 H :    0.106510
  23 H :    0.102497
  24 H :    0.107783
  25 H :    0.106468
  26 H :    0.127052
  27 H :    0.118192
  28 H :    0.110389
  29 H :    0.208079
  30 H :    0.180073
  31 H :    0.114012
  32 H :    0.102396
  33 H :    0.117115
  34 H :    0.126588
  35 H :    0.110709
  36 H :    0.111784
  37 H :    0.110686
  38 H :    0.129145
  39 H :    0.108847
  40 H :    0.120819
Sum of atomic charges:   -0.0000000

LOEWDIN ATOMIC CHARGES
----------------------
   0 C :   -0.352796
   1 C :   -0.115576
   2 O :   -0.225885
   3 P :    0.580216
   4 S :   -0.284364
   5 O :   -0.249326
   6 C :   -0.117944
   7 C :   -0.368438
   8 S :    0.079804
   9 C :   -0.482543
  10 S :    0.080077
  11 P :    0.566744
  12 S :   -0.313717
  13 O :   -0.237610
  14 C :   -0.120988
  15 C :   -0.368308
  16 O :   -0.234770
  17 C :   -0.124028
  18 C :   -0.369825
  19 H :    0.129557
  20 H :    0.127700
  21 H :    0.130033
  22 H :    0.112239
  23 H :    0.103659
  24 H :    0.104964
  25 H :    0.119874
  26 H :    0.130400
  27 H :    0.118817
  28 H :    0.129461
  29 H :    0.122424
  30 H :    0.138451
  31 H :    0.109872
  32 H :    0.113341
  33 H :    0.120945
  34 H :    0.121325
  35 H :    0.129545
  36 H :    0.118210
  37 H :    0.107948
  38 H :    0.121203
  39 H :    0.130392
  40 H :    0.118917

  Mayer bond orders larger than 0.100000
B(  0-C ,  1-C ) :   1.1683 B(  0-C , 19-H ) :   0.9484 B(  0-C , 20-H ) :   0.9404
B(  0-C , 21-H ) :   0.9420 B(  1-C ,  2-O ) :   0.8903 B(  1-C , 22-H ) :   0.9271
B(  1-C , 23-H ) :   0.9135 B(  2-O ,  3-P ) :   1.1404 B(  3-P ,  4-S ) :   1.6138
B(  3-P ,  5-O ) :   1.0739 B(  3-P ,  8-S ) :   0.9480 B(  4-S ,  8-S ) :   0.1148
B(  4-S , 29-H ) :   0.1118 B(  5-O ,  6-C ) :   0.9175 B(  6-C ,  7-C ) :   1.1666
B(  6-C , 24-H ) :   0.9230 B(  6-C , 25-H ) :   0.9329 B(  7-C , 26-H ) :   0.9437
B(  7-C , 27-H ) :   0.9354 B(  7-C , 28-H ) :   0.9354 B(  8-S ,  9-C ) :   1.0135
B(  9-C , 10-S ) :   0.9808 B(  9-C , 29-H ) :   0.8433 B(  9-C , 30-H ) :   0.9094
B( 10-S , 11-P ) :   0.9690 B( 11-P , 12-S ) :   1.6428 B( 11-P , 13-O ) :   1.0793
B( 11-P , 16-O ) :   1.1010 B( 13-O , 14-C ) :   0.9110 B( 14-C , 15-C ) :   1.1687
B( 14-C , 31-H ) :   0.9120 B( 14-C , 32-H ) :   0.9278 B( 15-C , 33-H ) :   0.9432
B( 15-C , 34-H ) :   0.9379 B( 15-C , 35-H ) :   0.9384 B( 16-O , 17-C ) :   0.8939
B( 17-C , 18-C ) :   1.1697 B( 17-C , 36-H ) :   0.9182 B( 17-C , 37-H ) :   0.9155
B( 18-C , 38-H ) :   0.9348 B( 18-C , 39-H ) :   0.9390 B( 18-C , 40-H ) :   0.9357

Dispersion correction           -0.070455842
FINAL SINGLE POINT ENERGY     -2929.517489919544

DIPOLE MOMENT
-------------

Method             : SCF
Type of density    : Electron Density
Multiplicity       :   1
Irrep              :   0
Energy             : -2929.6364775030251622 Eh
Relativity type    :
Basis              : AO
                                X                 Y                 Z
Electronic contribution:     -9.337667926      -3.789196104      -0.804869156
Nuclear contribution   :     11.078575287       3.916269476       0.217504420
                        -----------------------------------------
Total Dipole Moment    :      1.740907361       0.127073372      -0.587364736
                        -----------------------------------------
Magnitude (a.u.)       :      1.841712088
Magnitude (Debye)      :      4.681260101

Rotational constants in cm-1:             0.011447             0.006214             0.005785
Rotational constants in MHz :           343.184897           186.276046           173.422170

                             ****ORCA TERMINATED NORMALLY****
TOTAL RUN TIME: 0 days 0 hours 0 minutes 23 seconds 88 msec
