                         Program Version 6.0.0  -   RELEASE  -
|  1> ! wb97x-v def2-tzvp def2/J RIJCOSX DEFGRID2 scfconv7 GCP(DFT/TZ) printgap
|  2> %output
|  3>     printlevel normal
|  4> end
|  5> * xyz 0 1
|  6> C -2.5927895222742277 -0.6981269917389101 0.00010271086570969434
|  7> C -2.5928007487937452 0.6980874440548024 0.00010745603041858968
|  8> C -1.3970442317729104 1.4226892734375955 6.167119024285341e-05
|  9> C -0.21995124354867568 0.6977671066378905 1.818117558790491e-05
| 10> C -0.21994005307093123 -0.6977684292780532 7.284527098689996e-06
| 11> C -1.39702131054446 -1.422709557749583 3.740691999105112e-05
| 12> C 1.1896609377700536 -1.1582186371586491 -4.259897374308512e-06
| 13> O 1.6239961710197497 -2.297865009652567 -2.514082196883944e-05
| 14> N 1.9642001234512192 1.6629381070966885e-05 -3.4019356304567665e-05
| 15> C 1.1896425441229999 1.158239897468108 -5.624442752213616e-06
| 16> O 1.6239598902922747 2.2978927913395437 5.203534717295436e-07
| 17> H -3.5385104344988303 -1.2293912404870786 0.00014106667976843243
| 18> H -3.53853021107038 1.2293364658152595 0.00014206798258396163
| 19> H -1.3943173997718226 2.5073046287516587 7.005887801753551e-05
| 20> H -1.394276973848748 -2.5073248727581445 5.681663366112788e-05
| 21> H 2.9763438364352806 2.478587013695031e-05 -6.989483854862841e-05
| 22> *
| 23>
| 24>                          ****END OF INPUT****

CARTESIAN COORDINATES (ANGSTROEM)
---------------------------------
  C     -2.592790   -0.698127    0.000103
  C     -2.592801    0.698087    0.000107
  C     -1.397044    1.422689    0.000062
  C     -0.219951    0.697767    0.000018
  C     -0.219940   -0.697768    0.000007
  C     -1.397021   -1.422710    0.000037
  C      1.189661   -1.158219   -0.000004
  O      1.623996   -2.297865   -0.000025
  N      1.964200    0.000017   -0.000034
  C      1.189643    1.158240   -0.000006
  O      1.623960    2.297893    0.000001
  H     -3.538510   -1.229391    0.000141
  H     -3.538530    1.229336    0.000142
  H     -1.394317    2.507305    0.000070
  H     -1.394277   -2.507325    0.000057
  H      2.976344    0.000025   -0.000070

 Total Charge           Charge          ....    0
 Multiplicity           Mult            ....    1
 Number of Electrons    NEL             ....   76
 Basis Dimension        Dim             ....  371

ORBITAL ENERGIES
----------------

  NO   OCC          E(Eh)            E(eV)
   0   2.0000     -21.676071      -589.8359
   1   2.0000     -21.676070      -589.8358
   2   2.0000     -16.585387      -451.3113
   3   2.0000     -12.186543      -331.6127
   4   2.0000     -12.186083      -331.6002
   5   2.0000     -12.090837      -329.0084
   6   2.0000     -12.089854      -328.9816
   7   2.0000     -12.088722      -328.9508
   8   2.0000     -12.087596      -328.9202
   9   2.0000     -12.086893      -328.9011
  10   2.0000     -12.085136      -328.8533
  11   2.0000      -1.732554       -47.1452
  12   2.0000      -1.727920       -47.0191
  13   2.0000      -1.569081       -42.6969
  14   2.0000      -1.425334       -38.7853
  15   2.0000      -1.332390       -36.2562
  16   2.0000      -1.318558       -35.8798
  17   2.0000      -1.240010       -33.7424
  18   2.0000      -1.196739       -32.5649
  19   2.0000      -1.143602       -31.1190
  20   2.0000      -1.112182       -30.2640
  21   2.0000      -1.085134       -29.5280
  22   2.0000      -1.060684       -28.8627
  23   2.0000      -1.025904       -27.9163
  24   2.0000      -1.020353       -27.7652
  25   2.0000      -0.983814       -26.7709
  26   2.0000      -0.959322       -26.1045
  27   2.0000      -0.950496       -25.8643
  28   2.0000      -0.927017       -25.2254
  29   2.0000      -0.919184       -25.0123
  30   2.0000      -0.885465       -24.0947
  31   2.0000      -0.881251       -23.9800
  32   2.0000      -0.850919       -23.1547
  33   2.0000      -0.841893       -22.9091
  34   2.0000      -0.836181       -22.7536
  35   2.0000      -0.805757       -21.9258
  36   2.0000      -0.682984       -18.5849
  37   2.0000      -0.678840       -18.4722
  38   0.0000      -0.395486       -10.7617
  39   0.0000      -0.308755        -8.4016
  40   0.0000      -0.232629        -6.3302
  41   0.0000      -0.217482        -5.9180
  42   0.0000      -0.135018        -3.6740

MULLIKEN ATOMIC CHARGES
-----------------------
   0 C :   -0.081613
   1 C :   -0.081681
   2 C :   -0.185687
   3 C :    0.054161
   4 C :    0.054154
   5 C :   -0.185644
   6 C :    0.205300
   7 O :   -0.299274
   8 N :   -0.204657
   9 C :    0.205455
  10 O :   -0.299293
  11 H :    0.134905
  12 H :    0.134905
  13 H :    0.153492
  14 H :    0.153413
  15 H :    0.242064
Sum of atomic charges:    0.0000000

LOEWDIN ATOMIC CHARGES
----------------------
   0 C :   -0.111186
   1 C :   -0.111187
   2 C :   -0.069310
   3 C :   -0.078369
   4 C :   -0.078370
   5 C :   -0.069309
   6 C :   -0.342168
   7 O :    0.102419
   8 N :    0.194292
   9 C :   -0.342167
  10 O :    0.102420
  11 H :    0.147477
  12 H :    0.147477
  13 H :    0.155991
  14 H :    0.155991
  15 H :    0.195997

  Mayer bond orders larger than 0.100000
B(  0-C ,  1-C ) :   1.4160 B(  0-C ,  5-C ) :   1.4016 B(  0-C , 11-H ) :   0.9725
B(  1-C ,  2-C ) :   1.4017 B(  1-C , 12-H ) :   0.9725 B(  2-C ,  3-C ) :   1.4092
B(  2-C , 13-H ) :   0.9668 B(  3-C ,  4-C ) :   1.3132 B(  3-C ,  9-C ) :   0.9209
B(  3-C , 10-O ) :  -0.1270 B(  4-C ,  5-C ) :   1.4089 B(  4-C ,  6-C ) :   0.9210
B(  4-C ,  7-O ) :  -0.1270 B(  5-C , 14-H ) :   0.9671 B(  6-C ,  7-O ) :   2.2319
B(  6-C ,  8-N ) :   1.1504 B(  8-N ,  9-C ) :   1.1504 B(  8-N , 15-H ) :   0.8967
B(  9-C , 10-O ) :   2.2319

FINAL SINGLE POINT ENERGY      -513.133074471282

DIPOLE MOMENT
-------------

Method             : SCF
Type of density    : Electron Density
Multiplicity       :   1
Irrep              :   0
Energy             :  -513.1409311883819555 Eh
Relativity type    :
Basis              : AO
                                X                 Y                 Z
Electronic contribution:      5.205950661       0.000045209      -0.000176737
Nuclear contribution   :     -6.403967796      -0.000051366       0.000210165
                        -----------------------------------------
Total Dipole Moment    :     -1.198017135      -0.000006157       0.000033429
                        -----------------------------------------
Magnitude (a.u.)       :      1.198017136
Magnitude (Debye)      :      3.045117559

Rotational constants in cm-1:             0.058345             0.040132             0.023777
Rotational constants in MHz :          1749.148981          1203.131483           712.823945

                             ****ORCA TERMINATED NORMALLY****
TOTAL RUN TIME: 0 days 0 hours 3 minutes 36 seconds 944 msec
