                         Program Version 6.0.0  -   RELEASE  -
|  1> ! wb97x-v def2-tzvp def2/J RIJCOSX DEFGRID2 scfconv7 GCP(DFT/TZ) printgap
|  2> %output
|  3>     printlevel normal
|  4> end
|  5> %cpcm
|  6>     smd true
|  7>     smdsolvent "water"
|  8> end
|  9> * xyz 0 1
| 10> C -2.5927895222742277 -0.6981269917389101 0.00010271086570969434
| 11> C -2.5928007487937452 0.6980874440548024 0.00010745603041858968
| 12> C -1.3970442317729104 1.4226892734375955 6.167119024285341e-05
| 13> C -0.21995124354867568 0.6977671066378905 1.818117558790491e-05
| 14> C -0.21994005307093123 -0.6977684292780532 7.284527098689996e-06
| 15> C -1.39702131054446 -1.422709557749583 3.740691999105112e-05
| 16> C 1.1896609377700536 -1.1582186371586491 -4.259897374308512e-06
| 17> O 1.6239961710197497 -2.297865009652567 -2.514082196883944e-05
| 18> N 1.9642001234512192 1.6629381070966885e-05 -3.4019356304567665e-05
| 19> C 1.1896425441229999 1.158239897468108 -5.624442752213616e-06
| 20> O 1.6239598902922747 2.2978927913395437 5.203534717295436e-07
| 21> H -3.5385104344988303 -1.2293912404870786 0.00014106667976843243
| 22> H -3.53853021107038 1.2293364658152595 0.00014206798258396163
| 23> H -1.3943173997718226 2.5073046287516587 7.005887801753551e-05
| 24> H -1.394276973848748 -2.5073248727581445 5.681663366112788e-05
| 25> H 2.9763438364352806 2.478587013695031e-05 -6.989483854862841e-05
| 26> *
| 27>
| 28>                          ****END OF INPUT****

CARTESIAN COORDINATES (ANGSTROEM)
---------------------------------
  C     -2.592790   -0.698127    0.000103
  C     -2.592801    0.698087    0.000107
  C     -1.397044    1.422689    0.000062
  C     -0.219951    0.697767    0.000018
  C     -0.219940   -0.697768    0.000007
  C     -1.397021   -1.422710    0.000037
  C      1.189661   -1.158219   -0.000004
  O      1.623996   -2.297865   -0.000025
  N      1.964200    0.000017   -0.000034
  C      1.189643    1.158240   -0.000006
  O      1.623960    2.297893    0.000001
  H     -3.538510   -1.229391    0.000141
  H     -3.538530    1.229336    0.000142
  H     -1.394317    2.507305    0.000070
  H     -1.394277   -2.507325    0.000057
  H      2.976344    0.000025   -0.000070

 Total Charge           Charge          ....    0
 Multiplicity           Mult            ....    1
 Number of Electrons    NEL             ....   76
 Basis Dimension        Dim             ....  371

ORBITAL ENERGIES
----------------

  NO   OCC          E(Eh)            E(eV)
   0   2.0000     -21.683243      -590.0310
   1   2.0000     -21.683240      -590.0310
   2   2.0000     -16.579815      -451.1597
   3   2.0000     -12.190635      -331.7241
   4   2.0000     -12.190166      -331.7113
   5   2.0000     -12.080608      -328.7301
   6   2.0000     -12.078754      -328.6796
   7   2.0000     -12.074212      -328.5560
   8   2.0000     -12.074207      -328.5559
   9   2.0000     -12.070045      -328.4426
  10   2.0000     -12.068030      -328.3878
  11   2.0000      -1.741103       -47.3778
  12   2.0000      -1.737211       -47.2719
  13   2.0000      -1.564635       -42.5759
  14   2.0000      -1.413272       -38.4571
  15   2.0000      -1.319694       -35.9107
  16   2.0000      -1.306631       -35.5552
  17   2.0000      -1.237688       -33.6792
  18   2.0000      -1.184599       -32.2346
  19   2.0000      -1.134635       -30.8750
  20   2.0000      -1.114114       -30.3166
  21   2.0000      -1.082405       -29.4538
  22   2.0000      -1.069558       -29.1041
  23   2.0000      -1.021202       -27.7883
  24   2.0000      -1.015811       -27.6416
  25   2.0000      -0.970452       -26.4074
  26   2.0000      -0.964599       -26.2481
  27   2.0000      -0.941520       -25.6201
  28   2.0000      -0.931796       -25.3555
  29   2.0000      -0.912426       -24.8284
  30   2.0000      -0.883418       -24.0390
  31   2.0000      -0.877957       -23.8904
  32   2.0000      -0.840428       -22.8692
  33   2.0000      -0.837529       -22.7903
  34   2.0000      -0.829275       -22.5657
  35   2.0000      -0.793499       -21.5922
  36   2.0000      -0.669672       -18.2227
  37   2.0000      -0.666352       -18.1324
  38   0.0000      -0.391248       -10.6464
  39   0.0000      -0.298883        -8.1330
  40   0.0000      -0.221079        -6.0159
  41   0.0000      -0.210192        -5.7196
  42   0.0000      -0.132107        -3.5948

MULLIKEN ATOMIC CHARGES
-----------------------
   0 C :   -0.115507
   1 C :   -0.115568
   2 C :   -0.212902
   3 C :    0.071450
   4 C :    0.071439
   5 C :   -0.212871
   6 C :    0.274822
   7 O :   -0.415208
   8 N :   -0.202387
   9 C :    0.274964
  10 O :   -0.415227
  11 H :    0.174806
  12 H :    0.174808
  13 H :    0.178319
  14 H :    0.178243
  15 H :    0.290817
Sum of atomic charges:    0.0000000

LOEWDIN ATOMIC CHARGES
----------------------
   0 C :   -0.104842
   1 C :   -0.104843
   2 C :   -0.067734
   3 C :   -0.081051
   4 C :   -0.081051
   5 C :   -0.067733
   6 C :   -0.321794
   7 O :    0.040383
   8 N :    0.211708
   9 C :   -0.321792
  10 O :    0.040383
  11 H :    0.158786
  12 H :    0.158786
  13 H :    0.163179
  14 H :    0.163179
  15 H :    0.214435

  Mayer bond orders larger than 0.100000
B(  0-C ,  1-C ) :   1.4052 B(  0-C ,  5-C ) :   1.3925 B(  0-C , 11-H ) :   0.9717
B(  1-C ,  2-C ) :   1.3927 B(  1-C , 12-H ) :   0.9717 B(  2-C ,  3-C ) :   1.3553
B(  2-C , 13-H ) :   0.9784 B(  3-C ,  4-C ) :   1.3243 B(  3-C ,  9-C ) :   0.9346
B(  3-C , 10-O ) :  -0.1249 B(  4-C ,  5-C ) :   1.3550 B(  4-C ,  6-C ) :   0.9347
B(  4-C ,  7-O ) :  -0.1249 B(  5-C , 14-H ) :   0.9786 B(  6-C ,  7-O ) :   2.1149
B(  6-C ,  8-N ) :   1.1739 B(  8-N ,  9-C ) :   1.1739 B(  8-N , 15-H ) :   0.8711
B(  9-C , 10-O ) :   2.1148

FINAL SINGLE POINT ENERGY      -513.147944172893

DIPOLE MOMENT
-------------

Method             : SCF
Type of density    : Electron Density
Multiplicity       :   1
Irrep              :   0
Energy             :  -513.1558008899933156 Eh
Relativity type    :
Basis              : AO
                                X                 Y                 Z
Electronic contribution:      4.748986525       0.000043042      -0.000161144
Nuclear contribution   :     -6.403967796      -0.000051366       0.000210165
                        -----------------------------------------
Total Dipole Moment    :     -1.654981271      -0.000008324       0.000049021
                        -----------------------------------------
Magnitude (a.u.)       :      1.654981272
Magnitude (Debye)      :      4.206628086

Rotational constants in cm-1:             0.058345             0.040132             0.023777
Rotational constants in MHz :          1749.148981          1203.131483           712.823945

                             ****ORCA TERMINATED NORMALLY****
TOTAL RUN TIME: 0 days 0 hours 3 minutes 51 seconds 905 msec
