                         Program Version 6.0.1  -  RELEASE   -
|  1> ! pbe def2-sv(p) def2/J RI DEFGRID1 loosescf d4 GCP(DFT/SV(P)) printgap
|  2> %output
|  3>     printlevel normal
|  4> end
|  5> * xyz 0 1
|  6> C 5.3183119397 -2.1397374067 -1.0868319349
|  7> C 4.0166212554 -2.9250409076 -1.0921492569
|  8> O 2.9929538783 -2.2146587378 -1.8178431839
|  9> C 2.2638912106 -1.3309548041 -1.1735399945
| 10> O 2.3556100752 -1.0887919388 0.0127155404
| 11> C 1.2833673846 -0.6322691446 -2.091560538
| 12> C 0.2884353007 0.1678542691 -1.2610555985
| 13> H -0.2951647111 0.8389098533 -1.9000920138
| 14> C 1.0383585075 1.0331190667 -0.2622748144
| 15> O 1.9756563 1.7223860616 -0.6006548824
| 16> O 0.5313399666 1.0078262412 0.9521037671
| 17> C 1.1977483152 1.814423792 1.9458951111
| 18> C 0.7481200103 1.377658397 3.3245342347
| 19> S -0.8831973246 -0.9560386194 -0.4357369592
| 20> P -2.2000328055 0.5085920658 0.3642145898
| 21> S -2.1067237398 2.3065066487 -0.4068318437
| 22> O -3.6268303854 -0.1995443978 0.1810344532
| 23> C -4.2023557827 -0.3804032016 -1.1172668995
| 24> O -2.0902994776 0.4873300884 1.938078432
| 25> C -2.1934630773 -0.7417627833 2.6854338601
| 26> H 5.6379741694 -1.936972716 -2.1051537444
| 27> H 5.1825958349 -1.1942671463 -0.5655372882
| 28> H 6.0841542621 -2.7158286339 -0.5782431108
| 29> H 3.6634715526 -3.0990682263 -0.0719531891
| 30> H 4.1227034991 -3.8689607323 -1.6265121472
| 31> H 0.7804172962 -1.3638664184 -2.7227107021
| 32> H 1.8539147911 0.0502019524 -2.7256605609
| 33> H 2.2748125195 1.6810394708 1.8045448756
| 34> H 0.9434985043 2.8605025892 1.7466143355
| 35> H 0.9650394268 0.3230620806 3.4680415891
| 36> H 1.2827142812 1.9594280879 4.0680843095
| 37> H -0.3188273144 1.5450554845 3.4361293156
| 38> H -5.2273815454 -0.6962222177 -0.9412800133
| 39> H -3.6509762385 -1.1462036058 -1.6625627919
| 40> H -4.1832967484 0.560173518 -1.6700312331
| 41> H -3.162968636 -1.2034342914 2.5100677213
| 42> H -2.0855436801 -0.4539126966 3.7278193908
| 43> H -1.3948834492 -1.4215701027 2.3887713122
| 44> *
| 45>
| 46>                          ****END OF INPUT****

CARTESIAN COORDINATES (ANGSTROEM)
---------------------------------
  C      5.318312   -2.139737   -1.086832
  C      4.016621   -2.925041   -1.092149
  O      2.992954   -2.214659   -1.817843
  C      2.263891   -1.330955   -1.173540
  O      2.355610   -1.088792    0.012716
  C      1.283367   -0.632269   -2.091561
  C      0.288435    0.167854   -1.261056
  H     -0.295165    0.838910   -1.900092
  C      1.038359    1.033119   -0.262275
  O      1.975656    1.722386   -0.600655
  O      0.531340    1.007826    0.952104
  C      1.197748    1.814424    1.945895
  C      0.748120    1.377658    3.324534
  S     -0.883197   -0.956039   -0.435737
  P     -2.200033    0.508592    0.364215
  S     -2.106724    2.306507   -0.406832
  O     -3.626830   -0.199544    0.181034
  C     -4.202356   -0.380403   -1.117267
  O     -2.090299    0.487330    1.938078
  C     -2.193463   -0.741763    2.685434
  H      5.637974   -1.936973   -2.105154
  H      5.182596   -1.194267   -0.565537
  H      6.084154   -2.715829   -0.578243
  H      3.663472   -3.099068   -0.071953
  H      4.122703   -3.868961   -1.626512
  H      0.780417   -1.363866   -2.722711
  H      1.853915    0.050202   -2.725661
  H      2.274813    1.681039    1.804545
  H      0.943499    2.860503    1.746614
  H      0.965039    0.323062    3.468042
  H      1.282714    1.959428    4.068084
  H     -0.318827    1.545055    3.436129
  H     -5.227382   -0.696222   -0.941280
  H     -3.650976   -1.146204   -1.662563
  H     -4.183297    0.560174   -1.670031
  H     -3.162969   -1.203434    2.510068
  H     -2.085544   -0.453913    3.727819
  H     -1.394883   -1.421570    2.388771

 Total Charge           Charge          ....    0
 Multiplicity           Mult            ....    1
 Number of Electrons    NEL             ....  174
 Basis Dimension        Dim             ....  316

ORBITAL ENERGIES
----------------

  NO   OCC          E(Eh)            E(eV)
   0   2.0000     -88.037411     -2395.6197
   1   2.0000     -87.981434     -2394.0965
   2   2.0000     -76.424199     -2079.6082
   3   2.0000     -18.810349      -511.8556
   4   2.0000     -18.794614      -511.4274
   5   2.0000     -18.793969      -511.4099
   6   2.0000     -18.789867      -511.2983
   7   2.0000     -18.749460      -510.1987
   8   2.0000     -18.722419      -509.4629
   9   2.0000     -10.018596      -272.6198
  10   2.0000     -10.004306      -272.2310
  11   2.0000      -9.954347      -270.8715
  12   2.0000      -9.949453      -270.7384
  13   2.0000      -9.943435      -270.5746
  14   2.0000      -9.941909      -270.5331
  15   2.0000      -9.935849      -270.3682
  16   2.0000      -9.917580      -269.8711
  17   2.0000      -9.891352      -269.1574
  18   2.0000      -9.878252      -268.8009
  19   2.0000      -7.682037      -209.0389
  20   2.0000      -7.626608      -207.5306
  21   2.0000      -6.421208      -174.7300
  22   2.0000      -5.709680      -155.3683
  23   2.0000      -5.706771      -155.2891
  24   2.0000      -5.699101      -155.0804
  25   2.0000      -5.655782      -153.9017
  26   2.0000      -5.647083      -153.6649
  27   2.0000      -5.646634      -153.6527
  28   2.0000      -4.643924      -126.3676
  29   2.0000      -4.643100      -126.3452
  30   2.0000      -4.641526      -126.3024
  31   2.0000      -1.019731       -27.7483
  32   2.0000      -1.001881       -27.2626
  33   2.0000      -0.986578       -26.8462
  34   2.0000      -0.941641       -25.6233
  35   2.0000      -0.926171       -25.2024
  36   2.0000      -0.903669       -24.5901
  37   2.0000      -0.763580       -20.7781
  38   2.0000      -0.717947       -19.5363
  39   2.0000      -0.696907       -18.9638
  40   2.0000      -0.693159       -18.8618
  41   2.0000      -0.660344       -17.9689
  42   2.0000      -0.636305       -17.3147
  43   2.0000      -0.620771       -16.8920
  44   2.0000      -0.612572       -16.6689
  45   2.0000      -0.593574       -16.1520
  46   2.0000      -0.556386       -15.1400
  47   2.0000      -0.514542       -14.0014
  48   2.0000      -0.505570       -13.7573
  49   2.0000      -0.498449       -13.5635
  50   2.0000      -0.478374       -13.0172
  51   2.0000      -0.473537       -12.8856
  52   2.0000      -0.464811       -12.6482
  53   2.0000      -0.445254       -12.1160
  54   2.0000      -0.435563       -11.8523
  55   2.0000      -0.432621       -11.7722
  56   2.0000      -0.429780       -11.6949
  57   2.0000      -0.419650       -11.4192
  58   2.0000      -0.414874       -11.2893
  59   2.0000      -0.404574       -11.0090
  60   2.0000      -0.401213       -10.9175
  61   2.0000      -0.399499       -10.8709
  62   2.0000      -0.388754       -10.5785
  63   2.0000      -0.385434       -10.4882
  64   2.0000      -0.374094       -10.1796
  65   2.0000      -0.360706        -9.8153
  66   2.0000      -0.355823        -9.6824
  67   2.0000      -0.349138        -9.5005
  68   2.0000      -0.345159        -9.3922
  69   2.0000      -0.336820        -9.1653
  70   2.0000      -0.334451        -9.1009
  71   2.0000      -0.331954        -9.0329
  72   2.0000      -0.318064        -8.6550
  73   2.0000      -0.309408        -8.4194
  74   2.0000      -0.306587        -8.3427
  75   2.0000      -0.301107        -8.1935
  76   2.0000      -0.297297        -8.0899
  77   2.0000      -0.290132        -7.8949
  78   2.0000      -0.269423        -7.3314
  79   2.0000      -0.268255        -7.2996
  80   2.0000      -0.258972        -7.0470
  81   2.0000      -0.248178        -6.7533
  82   2.0000      -0.238105        -6.4792
  83   2.0000      -0.230647        -6.2762
  84   2.0000      -0.204036        -5.5521
  85   2.0000      -0.200208        -5.4479
  86   2.0000      -0.196444        -5.3455
  87   0.0000      -0.039580        -1.0770
  88   0.0000      -0.026764        -0.7283
  89   0.0000      -0.010077        -0.2742
  90   0.0000       0.008439         0.2296
  91   0.0000       0.018926         0.5150

MULLIKEN ATOMIC CHARGES
-----------------------
   0 C :   -0.305863
   1 C :   -0.013907
   2 O :   -0.225280
   3 C :    0.118247
   4 O :   -0.198464
   5 C :   -0.101844
   6 C :   -0.300627
   7 H :    0.150204
   8 C :    0.234549
   9 O :   -0.215693
  10 O :   -0.230858
  11 C :   -0.016212
  12 C :   -0.293517
  13 S :   -0.104279
  14 P :    0.622514
  15 S :   -0.317491
  16 O :   -0.390689
  17 C :   -0.097976
  18 O :   -0.360687
  19 C :   -0.113882
  20 H :    0.116934
  21 H :    0.133177
  22 H :    0.115011
  23 H :    0.111483
  24 H :    0.105650
  25 H :    0.127950
  26 H :    0.144840
  27 H :    0.109338
  28 H :    0.107135
  29 H :    0.112547
  30 H :    0.106203
  31 H :    0.132419
  32 H :    0.124298
  33 H :    0.110809
  34 H :    0.117407
  35 H :    0.126941
  36 H :    0.131131
  37 H :    0.128482
Sum of atomic charges:    0.0000000

LOEWDIN ATOMIC CHARGES
----------------------
   0 C :   -0.355291
   1 C :   -0.109246
   2 O :   -0.054548
   3 C :    0.039195
   4 O :   -0.152179
   5 C :   -0.249217
   6 C :   -0.268429
   7 H :    0.141961
   8 C :    0.014814
   9 O :   -0.171453
  10 O :   -0.057782
  11 C :   -0.100774
  12 C :   -0.355719
  13 S :    0.087346
  14 P :    0.578818
  15 S :   -0.310223
  16 O :   -0.262763
  17 C :   -0.217396
  18 O :   -0.233568
  19 C :   -0.211832
  20 H :    0.126375
  21 H :    0.133532
  22 H :    0.131714
  23 H :    0.121003
  24 H :    0.119123
  25 H :    0.142462
  26 H :    0.160565
  27 H :    0.119404
  28 H :    0.118601
  29 H :    0.124875
  30 H :    0.128548
  31 H :    0.127906
  32 H :    0.121920
  33 H :    0.106513
  34 H :    0.111467
  35 H :    0.116274
  36 H :    0.124467
  37 H :    0.113539

  Mayer bond orders larger than 0.100000
B(  0-C ,  1-C ) :   1.1746 B(  0-C , 20-H ) :   0.9487 B(  0-C , 21-H ) :   0.9454
B(  0-C , 22-H ) :   0.9438 B(  1-C ,  2-O ) :   0.9092 B(  1-C , 23-H ) :   0.9141
B(  1-C , 24-H ) :   0.9370 B(  2-O ,  3-C ) :   1.2509 B(  3-C ,  4-O ) :   1.9990
B(  3-C ,  5-C ) :   0.9959 B(  5-C ,  6-C ) :   1.0633 B(  5-C , 25-H ) :   0.9005
B(  5-C , 26-H ) :   0.8725 B(  6-C ,  7-H ) :   0.8510 B(  6-C ,  8-C ) :   0.8739
B(  6-C , 13-S ) :   1.0197 B(  8-C ,  9-O ) :   2.0456 B(  8-C , 10-O ) :   1.2434
B( 10-O , 11-C ) :   0.8981 B( 11-C , 12-C ) :   1.1625 B( 11-C , 27-H ) :   0.9248
B( 11-C , 28-H ) :   0.9320 B( 12-C , 29-H ) :   0.9493 B( 12-C , 30-H ) :   0.9414
B( 12-C , 31-H ) :   0.9364 B( 13-S , 14-P ) :   0.9586 B( 13-S , 15-S ) :   0.1146
B( 14-P , 15-S ) :   1.6365 B( 14-P , 16-O ) :   1.0652 B( 14-P , 18-O ) :   1.1219
B( 16-O , 17-C ) :   0.9341 B( 17-C , 32-H ) :   0.9587 B( 17-C , 33-H ) :   0.9449
B( 17-C , 34-H ) :   0.9358 B( 18-O , 19-C ) :   0.9146 B( 19-C , 35-H ) :   0.9458
B( 19-C , 36-H ) :   0.9563 B( 19-C , 37-H ) :   0.9381

Dispersion correction           -0.052702349
FINAL SINGLE POINT ENERGY     -1979.021369066513

DIPOLE MOMENT
-------------

Method             : SCF
Type of density    : Electron Density
Multiplicity       :   1
Irrep              :   0
Energy             : -1979.1517814823687331 Eh
Relativity type    :
Basis              : AO
                                X                 Y                 Z
Electronic contribution:    -13.600385255       7.319513325      -5.739560492
Nuclear contribution   :     13.785079072      -9.205796399       5.882301040
                        -----------------------------------------
Total Dipole Moment    :      0.184693818      -1.886283074       0.142740548
                        -----------------------------------------
Magnitude (a.u.)       :      1.900671067
Magnitude (Debye)      :      4.831121918

Rotational constants in cm-1:             0.015647             0.006226             0.005622
Rotational constants in MHz :           469.095791           186.659734           168.556901

                             ****ORCA TERMINATED NORMALLY****
TOTAL RUN TIME: 0 days 0 hours 0 minutes 49 seconds 803 msec
